<event>
 6    1  0.1934315E-005  0.2253776E+04  0.7818608E-02  0.8496373E-01
         -2   -1    0    0    0  501 -0.00000000000E+00  0.00000000000E+00  0.18608773710E+04  0.18608773710E+04  0.00000000000E+00 0. -1.
          2   -1    0    0  501    0  0.00000000000E+00 -0.00000000000E+00 -0.68240745251E+03  0.68240745251E+03  0.00000000000E+00 0.  1.
         23    2    1    2    0    0  0.37459150056E+03 -0.56677787093E+03 -0.42192030409E+03  0.80466329718E+03  0.88940044752E+02 0.  0.
         13    1    3    3    0    0  0.19918404076E+03 -0.22263603922E+03 -0.17492931242E+03  0.34618109769E+03  0.00000000000E+00 0.  1.
        -13    1    3    3    0    0  0.17540745980E+03 -0.34414183171E+03 -0.24699099167E+03  0.45848219950E+03  0.00000000000E+00 0. -1.
         22    1    1    2    0    0 -0.37459150056E+03  0.56677787093E+03  0.16003902226E+04  0.17386215263E+04  0.00000000000E+00 0. -1.
<mgrwt>
<rscale>  0 0.22537760E+04</rscale>
<asrwt>0</asrwt>
<pdfrwt beam="1">  1        2 0.10498576E+00 0.22537760E+04</pdfrwt>
<pdfrwt beam="2">  1       -2 0.28628883E+00 0.22537760E+04</pdfrwt>
<totfact> 0.14847714E+00</totfact>
</mgrwt>
</event>
<event>
 6    1  0.1934315E-005  0.3886208E+04  0.7818608E-02  0.8027904E-01
          2   -1    0    0  501    0  0.00000000000E+00  0.00000000000E+00  0.28176620810E+04  0.28176620810E+04  0.00000000000E+00 0.  1.
         -2   -1    0    0    0  501 -0.00000000000E+00 -0.00000000000E+00 -0.13399946888E+04  0.13399946888E+04  0.00000000000E+00 0. -1.
         23    2    1    2    0    0  0.54220266431E+03 -0.13217188447E+03 -0.12509193207E+04  0.13725825184E+04  0.87923185210E+02 0.  0.
         13    1    3    3    0    0  0.33277150295E+03 -0.10063682480E+03 -0.68154878397E+03  0.76509697987E+03  0.00000000000E+00 0.  1.
        -13    1    3    3    0    0  0.20943116136E+03 -0.31535059677E+02 -0.56937053677E+03  0.60748553849E+03  0.00000000000E+00 0. -1.
         22    1    1    2    0    0 -0.54220266431E+03  0.13217188447E+03  0.27285867129E+04  0.27850742515E+04  0.00000000000E+00 0.  1.
<mgrwt>
<rscale>  0 0.38862075E+04</rscale>
<asrwt>0</asrwt>
<pdfrwt beam="1">  1        2 0.43348647E+00 0.38862075E+04</pdfrwt>
<pdfrwt beam="2">  1       -2 0.20615303E+00 0.38862075E+04</pdfrwt>
<totfact> 0.21772362E-01</totfact>
</mgrwt>
</event>
<event>
 6    1  0.1934315E-005  0.1675356E+04  0.7818608E-02  0.8775546E-01
          2   -1    0    0  501    0  0.00000000000E+00  0.00000000000E+00  0.59450021710E+03  0.59450021710E+03  0.00000000000E+00 0. -1.
         -2   -1    0    0    0  501 -0.00000000000E+00 -0.00000000000E+00 -0.11803267166E+04  0.11803267166E+04  0.00000000000E+00 0.  1.
         23    2    1    2    0    0  0.36005102368E+03  0.74914200170E+03 -0.20650480318E+03  0.86118836857E+03  0.90281194398E+02 0.  0.
         13    1    3    3    0    0  0.32446207700E+03  0.62254415224E+03 -0.19798665689E+03  0.72940768930E+03  0.00000000000E+00 0.  1.
        -13    1    3    3    0    0  0.35588946681E+02  0.12659784946E+03 -0.85181462864E+01  0.13178067927E+03  0.00000000000E+00 0. -1.
         22    1    1    2    0    0 -0.36005102368E+03 -0.74914200170E+03 -0.37932169627E+03  0.91363856509E+03  0.00000000000E+00 0.  1.
<mgrwt>
<rscale>  0 0.16753561E+04</rscale>
<asrwt>0</asrwt>
<pdfrwt beam="1">  1        2 0.91461573E-01 0.16753561E+04</pdfrwt>
<pdfrwt beam="2">  1       -2 0.18158872E+00 0.16753561E+04</pdfrwt>
<totfact> 0.84461573E+00</totfact>
</mgrwt>
</event>
<event>
 6    1  0.1934315E-005  0.2494250E+04  0.7818608E-02  0.8405037E-01
          4   -1    0    0  501    0  0.00000000000E+00  0.00000000000E+00  0.11424423379E+04  0.11424423379E+04  0.00000000000E+00 0.  1.
         -4   -1    0    0    0  501 -0.00000000000E+00 -0.00000000000E+00 -0.13613993215E+04  0.13613993215E+04  0.00000000000E+00 0. -1.
         23    2    1    2    0    0  0.12436634925E+04  0.99670593873E+01 -0.17347045352E+03  0.12593067063E+04  0.94673952646E+02 0.  0.
         13    1    3    3    0    0  0.96428489101E+03  0.25427768856E+02 -0.98532368771E+02  0.96963939182E+03  0.00000000000E+00 0.  1.
        -13    1    3    3    0    0  0.27937860153E+03 -0.15460709468E+02 -0.74938084746E+02  0.28966731448E+03  0.00000000000E+00 0. -1.
         22    1    1    2    0    0 -0.12436634925E+04 -0.99670593873E+01 -0.45486530130E+02  0.12445349531E+04  0.00000000000E+00 0.  1.
<mgrwt>
<rscale>  0 0.24942496E+04</rscale>
<asrwt>0</asrwt>
<pdfrwt beam="1">  1        4 0.17576036E+00 0.24942496E+04</pdfrwt>
<pdfrwt beam="2">  1       -4 0.20944605E+00 0.24942496E+04</pdfrwt>
<totfact> 0.39087505E-02</totfact>
</mgrwt>
</event>
<event>
 6    1  0.1934315E-005  0.3887724E+04  0.7818608E-02  0.8027587E-01
         -2   -1    0    0    0  501 -0.00000000000E+00  0.00000000000E+00  0.91345632505E+03  0.91345632505E+03  0.00000000000E+00 0. -1.
          2   -1    0    0  501    0  0.00000000000E+00 -0.00000000000E+00 -0.41365962953E+04  0.41365962953E+04  0.00000000000E+00 0.  1.
         23    2    1    2    0    0 -0.10054751374E+04  0.15388652838E+03 -0.37625524846E+04  0.38986937814E+04  0.91382090203E+02 0.  0.
         13    1    3    3    0    0 -0.61968311926E+03  0.13519764311E+03 -0.22641238472E+04  0.23512852585E+04  0.00000000000E+00 0. -1.
        -13    1    3    3    0    0 -0.38579201811E+03  0.18688885270E+02 -0.14984286373E+04  0.15474085229E+04  0.00000000000E+00 0.  1.
         22    1    1    2    0    0  0.10054751374E+04 -0.15388652838E+03  0.53941251431E+03  0.11513588390E+04  0.00000000000E+00 0. -1.
<mgrwt>
<rscale>  0 0.38877243E+04</rscale>
<asrwt>0</asrwt>
<pdfrwt beam="1">  1        2 0.63639944E+00 0.38877243E+04</pdfrwt>
<pdfrwt beam="2">  1       -2 0.14053174E+00 0.38877243E+04</pdfrwt>
<totfact> 0.74309128E-02</totfact>
</mgrwt>
</event>
<event>
 6    1  0.1934315E-005  0.2116369E+04  0.7818608E-02  0.8554067E-01
          4   -1    0    0  501    0  0.00000000000E+00  0.00000000000E+00  0.81553698574E+03  0.81553698574E+03  0.00000000000E+00 0.  1.
         -4   -1    0    0    0  501 -0.00000000000E+00 -0.00000000000E+00 -0.13730268825E+04  0.13730268825E+04  0.00000000000E+00 0. -1.
         23    2    1    2    0    0 -0.10373917891E+04  0.17990692437E+03 -0.19248351437E+03  0.10742129878E+04  0.91298490833E+02 0.  0.
         13    1    3    3    0    0 -0.71552487624E+03  0.86945345054E+02 -0.10941146722E+03  0.72904472476E+03  0.00000000000E+00 0.  1.
        -13    1    3    3    0    0 -0.32186691284E+03  0.92961579317E+02 -0.83072047154E+02  0.34516826307E+03  0.00000000000E+00 0. -1.
         22    1    1    2    0    0  0.10373917891E+04 -0.17990692437E+03 -0.36500638239E+03  0.11143508804E+04  0.00000000000E+00 0.  1.
<mgrwt>
<rscale>  0 0.21163688E+04</rscale>
<asrwt>0</asrwt>
<pdfrwt beam="1">  1        4 0.12546723E+00 0.21163688E+04</pdfrwt>
<pdfrwt beam="2">  1       -4 0.21123490E+00 0.21163688E+04</pdfrwt>
<totfact> 0.96750086E-02</totfact>
</mgrwt>
</event>
<event>
 6    1  0.1934315E-005  0.2332996E+04  0.7818608E-02  0.8465024E-01
          2   -1    0    0  501    0  0.00000000000E+00  0.00000000000E+00  0.20719697872E+04  0.20719697872E+04  0.00000000000E+00 0.  1.
         -2   -1    0    0    0  501 -0.00000000000E+00 -0.00000000000E+00 -0.65672636487E+03  0.65672636487E+03  0.00000000000E+00 0. -1.
         23    2    1    2    0    0 -0.15641737698E+03 -0.50270740938E+03 -0.50634346703E+03  0.73629124628E+03  0.92520038199E+02 0.  0.
         13    1    3    3    0    0 -0.10403803982E+03 -0.27852090866E+03 -0.22559468285E+03  0.37321678850E+03  0.00000000000E+00 0. -1.
        -13    1    3    3    0    0 -0.52379337152E+02 -0.22418650072E+03 -0.28074878418E+03  0.36307445777E+03  0.00000000000E+00 0.  1.
         22    1    1    2    0    0  0.15641737698E+03  0.50270740938E+03  0.19215868894E+04  0.19924049058E+04  0.00000000000E+00 0.  1.
<mgrwt>
<rscale>  0 0.23329957E+04</rscale>
<asrwt>0</asrwt>
<pdfrwt beam="1">  1        2 0.31876458E+00 0.23329957E+04</pdfrwt>
<pdfrwt beam="2">  1       -2 0.10103483E+00 0.23329957E+04</pdfrwt>
<totfact> 0.44391131E+00</totfact>
</mgrwt>
</event>
<event>
 6    1  0.1934315E-005  0.1651620E+04  0.7818608E-02  0.8789448E-01
         -2   -1    0    0    0  501 -0.00000000000E+00  0.00000000000E+00  0.36415434498E+03  0.36415434498E+03  0.00000000000E+00 0. -1.
          2   -1    0    0  501    0  0.00000000000E+00 -0.00000000000E+00 -0.18727292946E+04  0.18727292946E+04  0.00000000000E+00 0.  1.
         23    2    1    2    0    0 -0.63752284681E+03 -0.39030752371E+03 -0.28936001170E+03  0.80675762830E+03  0.91396450604E+02 0.  0.
         11    1    3    3    0    0 -0.33414552998E+03 -0.24773674852E+03 -0.13163329047E+03  0.43629583420E+03  0.00000000000E+00 0.  1.
        -11    1    3    3    0    0 -0.30337731682E+03 -0.14257077519E+03 -0.15772672123E+03  0.37046179410E+03  0.00000000000E+00 0. -1.
         22    1    1    2    0    0  0.63752284681E+03  0.39030752371E+03 -0.12192149379E+04  0.14301260112E+04  0.00000000000E+00 0.  1.
<mgrwt>
<rscale>  0 0.16516204E+04</rscale>
<asrwt>0</asrwt>
<pdfrwt beam="1">  1        2 0.28811220E+00 0.16516204E+04</pdfrwt>
<pdfrwt beam="2">  1       -2 0.56023746E-01 0.16516204E+04</pdfrwt>
<totfact> 0.22467352E+01</totfact>
</mgrwt>
</event>
<event>
 6    1  0.1934315E-005  0.1602463E+04  0.7818608E-02  0.8819036E-01
          2   -1    0    0  501    0  0.00000000000E+00  0.00000000000E+00  0.46326149582E+03  0.46326149582E+03  0.00000000000E+00 0.  1.
         -2   -1    0    0    0  501 -0.00000000000E+00 -0.00000000000E+00 -0.13857665321E+04  0.13857665321E+04  0.00000000000E+00 0. -1.
         23    2    1    2    0    0 -0.74989603000E+03  0.23683628846E+03 -0.30052833314E+03  0.84638626606E+03  0.87275133979E+02 0.  0.
         11    1    3    3    0    0 -0.58350756522E+03  0.21622887324E+03 -0.25624757221E+03  0.67297757953E+03  0.00000000000E+00 0. -1.
        -11    1    3    3    0    0 -0.16638846478E+03  0.20607415228E+02 -0.44280760923E+02  0.17340868653E+03  0.00000000000E+00 0.  1.
         22    1    1    2    0    0  0.74989603000E+03 -0.23683628846E+03 -0.62197670309E+03  0.10026417618E+04  0.00000000000E+00 0.  1.
<mgrwt>
<rscale>  0 0.16024634E+04</rscale>
<asrwt>0</asrwt>
<pdfrwt beam="1">  1        2 0.71271000E-01 0.16024634E+04</pdfrwt>
<pdfrwt beam="2">  1       -2 0.21319485E+00 0.16024634E+04</pdfrwt>
<totfact> 0.70380574E+00</totfact>
</mgrwt>
</event>
<event>
 6    1  0.1934315E-005  0.3654209E+04  0.7818608E-02  0.8078186E-01
          2   -1    0    0  501    0  0.00000000000E+00  0.00000000000E+00  0.38694918581E+04  0.38694918581E+04  0.00000000000E+00 0.  1.
         -2   -1    0    0    0  501 -0.00000000000E+00 -0.00000000000E+00 -0.86272590399E+03  0.86272590399E+03  0.00000000000E+00 0. -1.
         23    2    1    2    0    0  0.85562328118E+03  0.41500357760E+03 -0.51454759040E+03  0.10847572417E+04  0.87291935578E+02 0.  0.
         11    1    3    3    0    0  0.14433278349E+03  0.10314802486E+03 -0.11432460577E+03  0.21104876902E+03  0.00000000000E+00 0. -1.
        -11    1    3    3    0    0  0.71129049769E+03  0.31185555274E+03 -0.40022298463E+03  0.87370847272E+03  0.00000000000E+00 0.  1.
         22    1    1    2    0    0 -0.85562328118E+03 -0.41500357760E+03  0.35213135445E+04  0.36474605204E+04  0.00000000000E+00 0.  1.
<mgrwt>
<rscale>  0 0.36542090E+04</rscale>
<asrwt>0</asrwt>
<pdfrwt beam="1">  1        2 0.59530643E+00 0.36542090E+04</pdfrwt>
<pdfrwt beam="2">  1       -2 0.13272706E+00 0.36542090E+04</pdfrwt>
<totfact> 0.14478500E-01</totfact>
</mgrwt>
</event>
<event>
 6    1  0.1934315E-005  0.1974996E+04  0.7818608E-02  0.8618401E-01
          4   -1    0    0  501    0  0.00000000000E+00  0.00000000000E+00  0.55990821248E+03  0.55990821248E+03  0.00000000000E+00 0.  1.
         -4   -1    0    0    0  501 -0.00000000000E+00 -0.00000000000E+00 -0.17416290881E+04  0.17416290881E+04  0.00000000000E+00 0. -1.
         23    2    1    2    0    0 -0.23244671820E+03  0.34492728753E+03 -0.16331319891E+04  0.16877146031E+04  0.90852503030E+02 0.  0.
         11    1    3    3    0    0 -0.58723570597E+01  0.66410068555E+02 -0.26432754653E+03  0.27260563758E+03  0.00000000000E+00 0.  1.
        -11    1    3    3    0    0 -0.22657436114E+03  0.27851721897E+03 -0.13688044426E+04  0.14151089656E+04  0.00000000000E+00 0. -1.
         22    1    1    2    0    0  0.23244671820E+03 -0.34492728753E+03  0.45141111351E+03  0.61382269743E+03  0.00000000000E+00 0.  1.
<mgrwt>
<rscale>  0 0.19749961E+04</rscale>
<asrwt>0</asrwt>
<pdfrwt beam="1">  1        4 0.86139726E-01 0.19749961E+04</pdfrwt>
<pdfrwt beam="2">  1       -4 0.26794293E+00 0.19749961E+04</pdfrwt>
<totfact> 0.10669067E-01</totfact>
</mgrwt>
</event>
<event>
 6    1  0.1934315E-005  0.2357290E+04  0.7818608E-02  0.8455669E-01
          2   -1    0    0  501    0  0.00000000000E+00  0.00000000000E+00  0.25581901638E+04  0.25581901638E+04  0.00000000000E+00 0.  1.
         -2   -1    0    0    0  501 -0.00000000000E+00 -0.00000000000E+00 -0.54304172163E+03  0.54304172163E+03  0.00000000000E+00 0. -1.
         23    2    1    2    0    0  0.49908506114E+03 -0.10400042017E+04  0.70202524539E+03  0.13533797270E+04  0.90014456137E+02 0.  0.
         13    1    3    3    0    0  0.12219127547E+03 -0.29473736822E+03  0.23734922396E+03  0.39766251790E+03  0.00000000000E+00 0.  1.
        -13    1    3    3    0    0  0.37689378567E+03 -0.74526683351E+03  0.46467602143E+03  0.95571720907E+03  0.00000000000E+00 0. -1.
         22    1    1    2    0    0 -0.49908506114E+03  0.10400042017E+04  0.13131231968E+04  0.17478521584E+04  0.00000000000E+00 0. -1.
<mgrwt>
<rscale>  0 0.23572900E+04</rscale>
<asrwt>0</asrwt>
<pdfrwt beam="1">  1        2 0.39356771E+00 0.23572900E+04</pdfrwt>
<pdfrwt beam="2">  1       -2 0.83544882E-01 0.23572900E+04</pdfrwt>
<totfact> 0.36410410E+00</totfact>
</mgrwt>
</event>
<event>
 6    1  0.1934315E-005  0.2663214E+04  0.7818608E-02  0.8347040E-01
          2   -1    0    0  501    0  0.00000000000E+00  0.00000000000E+00  0.54547123168E+03  0.54547123168E+03  0.00000000000E+00 0.  1.
         -2   -1    0    0    0  501 -0.00000000000E+00 -0.00000000000E+00 -0.32507253419E+04  0.32507253419E+04  0.00000000000E+00 0. -1.
         23    2    1    2    0    0 -0.94963585403E+03  0.93102017771E+03 -0.13802433868E+04  0.19188952542E+04  0.92088887954E+02 0.  0.
         13    1    3    3    0    0 -0.72183407058E+03  0.76025113840E+03 -0.10904468630E+04  0.15126468788E+04  0.00000000000E+00 0. -1.
        -13    1    3    3    0    0 -0.22780178345E+03  0.17076903932E+03 -0.28979652383E+03  0.40624837545E+03  0.00000000000E+00 0.  1.
         22    1    1    2    0    0  0.94963585403E+03 -0.93102017771E+03 -0.13250107234E+04  0.18773013194E+04  0.00000000000E+00 0. -1.
<mgrwt>
<rscale>  0 0.26632140E+04</rscale>
<asrwt>0</asrwt>
<pdfrwt beam="1">  1        2 0.83918650E-01 0.26632140E+04</pdfrwt>
<pdfrwt beam="2">  1       -2 0.50011160E+00 0.26632140E+04</pdfrwt>
<totfact> 0.80245911E-02</totfact>
</mgrwt>
</event>
<event>
 6    1  0.1934315E-005  0.1182939E+04  0.7818608E-02  0.9127922E-01
         -2   -1    0    0    0  501 -0.00000000000E+00  0.00000000000E+00  0.17695790715E+03  0.17695790715E+03  0.00000000000E+00 0. -1.
          2   -1    0    0  501    0  0.00000000000E+00 -0.00000000000E+00 -0.19769459035E+04  0.19769459035E+04  0.00000000000E+00 0.  1.
         23    2    1    2    0    0 -0.11413555083E+03  0.34364818979E+03 -0.17488050095E+04  0.17881980540E+04  0.90621833284E+02 0.  0.
         13    1    3    3    0    0 -0.45562405890E+02  0.97630539224E+02 -0.72800254205E+03  0.73593162472E+03  0.00000000000E+00 0. -1.
        -13    1    3    3    0    0 -0.68573144941E+02  0.24601765056E+03 -0.10208024675E+04  0.10522664293E+04  0.00000000000E+00 0.  1.
         22    1    1    2    0    0  0.11413555083E+03 -0.34364818979E+03 -0.51182986817E+02  0.36570575665E+03  0.00000000000E+00 0. -1.
<mgrwt>
<rscale>  0 0.11829391E+04</rscale>
<asrwt>0</asrwt>
<pdfrwt beam="1">  1        2 0.30414553E+00 0.11829391E+04</pdfrwt>
<pdfrwt beam="2">  1       -2 0.27224292E-01 0.11829391E+04</pdfrwt>
<totfact> 0.83564134E+01</totfact>
</mgrwt>
</event>
<event>
 6    1  0.1934315E-005  0.2233631E+04  0.7818608E-02  0.8504559E-01
         -2   -1    0    0    0  501 -0.00000000000E+00  0.00000000000E+00  0.75833476934E+03  0.75833476934E+03  0.00000000000E+00 0.  1.
          2   -1    0    0  501    0  0.00000000000E+00 -0.00000000000E+00 -0.16447575097E+04  0.16447575097E+04  0.00000000000E+00 0. -1.
         23    2    1    2    0    0 -0.94029353066E+03  0.27821603319E+03 -0.10148268543E+04  0.14141313590E+04  0.91311944996E+02 0.  0.
         13    1    3    3    0    0 -0.30206709864E+03  0.13172323227E+03 -0.31926842291E+03  0.45883315907E+03  0.00000000000E+00 0.  1.
        -13    1    3    3    0    0 -0.63822643202E+03  0.14649280092E+03 -0.69555843140E+03  0.95529819991E+03  0.00000000000E+00 0. -1.
         22    1    1    2    0    0  0.94029353066E+03 -0.27821603319E+03  0.12840411396E+03  0.98896092006E+03  0.00000000000E+00 0. -1.
<mgrwt>
<rscale>  0 0.22336310E+04</rscale>
<asrwt>0</asrwt>
<pdfrwt beam="1">  1        2 0.25303962E+00 0.22336310E+04</pdfrwt>
<pdfrwt beam="2">  1       -2 0.11666689E+00 0.22336310E+04</pdfrwt>
<totfact> 0.54632082E+00</totfact>
</mgrwt>
</event>
<event>
 6    1  0.1934315E-005  0.1455943E+04  0.7818608E-02  0.8914290E-01
          2   -1    0    0  501    0  0.00000000000E+00  0.00000000000E+00  0.19019904862E+04  0.19019904862E+04  0.00000000000E+00 0.  1.
         -2   -1    0    0    0  501 -0.00000000000E+00 -0.00000000000E+00 -0.27862537519E+03  0.27862537519E+03  0.00000000000E+00 0. -1.
         23    2    1    2    0    0 -0.53667028730E+03  0.23722388551E+03  0.14530075964E+04  0.15696233476E+04  0.90532916321E+02 0.  0.
         11    1    3    3    0    0 -0.19388702041E+03  0.82099190495E+02  0.41151405999E+03  0.46225131188E+03  0.00000000000E+00 0.  1.
        -11    1    3    3    0    0 -0.34278326689E+03  0.15512469502E+03  0.10414935365E+04  0.11073720357E+04  0.00000000000E+00 0. -1.
         22    1    1    2    0    0  0.53667028730E+03 -0.23722388551E+03  0.17035751458E+03  0.61099251379E+03  0.00000000000E+00 0. -1.
<mgrwt>
<rscale>  0 0.14559434E+04</rscale>
<asrwt>0</asrwt>
<pdfrwt beam="1">  1        2 0.29261391E+00 0.14559434E+04</pdfrwt>
<pdfrwt beam="2">  1       -2 0.42865444E-01 0.14559434E+04</pdfrwt>
<totfact> 0.37890436E+01</totfact>
</mgrwt>
</event>
<event>
 6    1  0.1934315E-005  0.1747529E+04  0.7818608E-02  0.8734711E-01
          2   -1    0    0  501    0  0.00000000000E+00  0.00000000000E+00  0.51998480010E+03  0.51998480010E+03  0.00000000000E+00 0.  1.
         -2   -1    0    0    0  501 -0.00000000000E+00 -0.00000000000E+00 -0.14682443245E+04  0.14682443245E+04  0.00000000000E+00 0. -1.
         23    2    1    2    0    0 -0.72553137022E+03 -0.48044444092E+03 -0.42354868538E+03  0.97208735567E+03  0.91311051765E+02 0.  0.
         13    1    3    3    0    0 -0.54144335857E+03 -0.38850345973E+03 -0.35586821039E+03  0.75547205900E+03  0.00000000000E+00 0.  1.
        -13    1    3    3    0    0 -0.18408801165E+03 -0.91940981190E+02 -0.67680474992E+02  0.21661529667E+03  0.00000000000E+00 0. -1.
         22    1    1    2    0    0  0.72553137022E+03  0.48044444092E+03 -0.52471083904E+03  0.10161417689E+04  0.00000000000E+00 0. -1.
<mgrwt>
<rscale>  0 0.17475294E+04</rscale>
<asrwt>0</asrwt>
<pdfrwt beam="1">  1        2 0.79997662E-01 0.17475294E+04</pdfrwt>
<pdfrwt beam="2">  1       -2 0.22588374E+00 0.17475294E+04</pdfrwt>
<totfact> 0.50566628E+00</totfact>
</mgrwt>
</event>
<event>
 6    1  0.1934315E-005  0.1416887E+04  0.7818608E-02  0.8941684E-01
          2   -1    0    0  501    0  0.00000000000E+00  0.00000000000E+00  0.29534274704E+04  0.29534274704E+04  0.00000000000E+00 0.  1.
         -2   -1    0    0    0  501 -0.00000000000E+00 -0.00000000000E+00 -0.16993560383E+03  0.16993560383E+03  0.00000000000E+00 0. -1.
         23    2    1    2    0    0  0.65943462804E+03 -0.20212016069E+03  0.17238724598E+04  0.18590451256E+04  0.92768169637E+02 0.  0.
         11    1    3    3    0    0  0.51235022789E+03 -0.19645810891E+03  0.13628507303E+04  0.14691700574E+04  0.00000000000E+00 0.  1.
        -11    1    3    3    0    0  0.14708440015E+03 -0.56620517779E+01  0.36102172955E+03  0.38987506820E+03  0.00000000000E+00 0. -1.
         22    1    1    2    0    0 -0.65943462804E+03  0.20212016069E+03  0.10596194067E+04  0.12643179486E+04  0.00000000000E+00 0.  1.
<mgrwt>
<rscale>  0 0.14168874E+04</rscale>
<asrwt>0</asrwt>
<pdfrwt beam="1">  1        2 0.45437342E+00 0.14168874E+04</pdfrwt>
<pdfrwt beam="2">  1       -2 0.26143941E-01 0.14168874E+04</pdfrwt>
<totfact> 0.24129775E+01</totfact>
</mgrwt>
</event>
<event>
 6    1  0.1934315E-005  0.2203830E+04  0.7818608E-02  0.8516836E-01
         -2   -1    0    0    0  501 -0.00000000000E+00  0.00000000000E+00  0.90496184593E+03  0.90496184593E+03  0.00000000000E+00 0. -1.
          2   -1    0    0  501    0  0.00000000000E+00 -0.00000000000E+00 -0.13417323157E+04  0.13417323157E+04  0.00000000000E+00 0.  1.
         23    2    1    2    0    0  0.23508753221E+03  0.24620020053E+03  0.84763767389E+03  0.91794099943E+03  0.90803996059E+02 0.  0.
         13    1    3    3    0    0  0.17924363411E+03  0.16271384738E+03  0.49108730172E+03  0.54751330067E+03  0.00000000000E+00 0.  1.
        -13    1    3    3    0    0  0.55843898104E+02  0.83486353142E+02  0.35655037217E+03  0.37042769876E+03  0.00000000000E+00 0. -1.
         22    1    1    2    0    0 -0.23508753221E+03 -0.24620020053E+03 -0.12844081436E+04  0.13287531621E+04  0.00000000000E+00 0.  1.
<mgrwt>
<rscale>  0 0.22038299E+04</rscale>
<asrwt>0</asrwt>
<pdfrwt beam="1">  1        2 0.20642036E+00 0.22038299E+04</pdfrwt>
<pdfrwt beam="2">  1       -2 0.13922490E+00 0.22038299E+04</pdfrwt>
<totfact> 0.52059945E+00</totfact>
</mgrwt>
</event>
<event>
 6    1  0.1934315E-005  0.4000848E+04  0.7818608E-02  0.8004375E-01
          2   -1    0    0  501    0  0.00000000000E+00  0.00000000000E+00  0.29518181573E+04  0.29518181573E+04  0.00000000000E+00 0.  1.
         -2   -1    0    0    0  501 -0.00000000000E+00 -0.00000000000E+00 -0.13556718696E+04  0.13556718696E+04  0.00000000000E+00 0. -1.
         23    2    1    2    0    0  0.60332461075E+03  0.24561079608E+03  0.28336665313E+04  0.29089974089E+04  0.90965184641E+02 0.  0.
         11    1    3    3    0    0  0.38854162216E+03  0.17274338514E+03  0.20227682364E+04  0.20669775537E+04  0.00000000000E+00 0. -1.
        -11    1    3    3    0    0  0.21478298859E+03  0.72867410941E+02  0.81089829497E+03  0.84201985520E+03  0.00000000000E+00 0.  1.
         22    1    1    2    0    0 -0.60332461075E+03 -0.24561079608E+03 -0.12375202437E+04  0.13984926180E+04  0.00000000000E+00 0. -1.
<mgrwt>
<rscale>  0 0.40008483E+04</rscale>
<asrwt>0</asrwt>
<pdfrwt beam="1">  1        2 0.45412587E+00 0.40008483E+04</pdfrwt>
<pdfrwt beam="2">  1       -2 0.20856490E+00 0.40008483E+04</pdfrwt>
<totfact> 0.17209785E-01</totfact>
</mgrwt>
</event>
<event>
 6    1  0.1934315E-005  0.1223362E+04  0.7818608E-02  0.9092650E-01
          2   -1    0    0  501    0  0.00000000000E+00  0.00000000000E+00  0.24031216465E+04  0.24031216465E+04  0.00000000000E+00 0.  1.
         -2   -1    0    0    0  501 -0.00000000000E+00 -0.00000000000E+00 -0.15569489017E+03  0.15569489017E+03  0.00000000000E+00 0. -1.
         23    2    1    2    0    0  0.38985584624E+03  0.35223462542E+03  0.17713106166E+04  0.18497725389E+04  0.89779358386E+02 0.  0.
         13    1    3    3    0    0  0.88406697476E+02  0.71259709484E+02  0.26937878899E+03  0.29233306743E+03  0.00000000000E+00 0. -1.
        -13    1    3    3    0    0  0.30144914876E+03  0.28097491593E+03  0.15019318276E+04  0.15574394715E+04  0.00000000000E+00 0.  1.
         22    1    1    2    0    0 -0.38985584624E+03 -0.35223462542E+03  0.47611613974E+03  0.70904399773E+03  0.00000000000E+00 0. -1.
<mgrwt>
<rscale>  0 0.12233622E+04</rscale>
<asrwt>0</asrwt>
<pdfrwt beam="1">  1        2 0.36971100E+00 0.12233622E+04</pdfrwt>
<pdfrwt beam="2">  1       -2 0.23953062E-01 0.12233622E+04</pdfrwt>
<totfact> 0.60756543E+01</totfact>
</mgrwt>
</event>
<event>
 6    1  0.1934315E-005  0.9308996E+03  0.7818608E-02  0.9387759E-01
         -2   -1    0    0    0  501 -0.00000000000E+00  0.00000000000E+00  0.22713877531E+03  0.22713877531E+03  0.00000000000E+00 0. -1.
          2   -1    0    0  501    0  0.00000000000E+00 -0.00000000000E+00 -0.95379367562E+03  0.95379367562E+03  0.00000000000E+00 0.  1.
         23    2    1    2    0    0  0.54947586947E+02 -0.31421064196E+03 -0.78908501438E+03  0.85590155398E+03  0.90358980516E+02 0.  0.
         11    1    3    3    0    0  0.31151870885E+02 -0.15411666891E+03 -0.50538856871E+03  0.52928252576E+03  0.00000000000E+00 0. -1.
        -11    1    3    3    0    0  0.23795716062E+02 -0.16009397305E+03 -0.28369644567E+03  0.32661902822E+03  0.00000000000E+00 0.  1.
         22    1    1    2    0    0 -0.54947586947E+02  0.31421064196E+03  0.62430114071E+02  0.32503089695E+03  0.00000000000E+00 0. -1.
<mgrwt>
<rscale>  0 0.93089962E+03</rscale>
<asrwt>0</asrwt>
<pdfrwt beam="1">  1        2 0.14673749E+00 0.93089962E+03</pdfrwt>
<pdfrwt beam="2">  1       -2 0.34944427E-01 0.93089962E+03</pdfrwt>
<totfact> 0.20749282E+02</totfact>
</mgrwt>
</event>
<event>
 6    1  0.1934315E-005  0.4072010E+04  0.7818608E-02  0.7990175E-01
          2   -1    0    0  501    0  0.00000000000E+00  0.00000000000E+00  0.21313337756E+04  0.21313337756E+04  0.00000000000E+00 0.  1.
         -2   -1    0    0    0  501 -0.00000000000E+00 -0.00000000000E+00 -0.19449401372E+04  0.19449401372E+04  0.00000000000E+00 0. -1.
         23    2    1    2    0    0  0.90452127451E+03 -0.14645631918E+04  0.11795110537E+04  0.20889676255E+04  0.97135655269E+02 0.  0.
         13    1    3    3    0    0  0.31012901539E+03 -0.42291684270E+03  0.33930463863E+03  0.62463293207E+03  0.00000000000E+00 0.  1.
        -13    1    3    3    0    0  0.59439225912E+03 -0.10416463491E+04  0.84020641509E+03  0.14643346934E+04  0.00000000000E+00 0. -1.
         22    1    1    2    0    0 -0.90452127451E+03  0.14645631918E+04 -0.99311741535E+03  0.19873062873E+04  0.00000000000E+00 0. -1.
<mgrwt>
<rscale>  0 0.40720101E+04</rscale>
<asrwt>0</asrwt>
<pdfrwt beam="1">  1        2 0.32789751E+00 0.40720101E+04</pdfrwt>
<pdfrwt beam="2">  1       -2 0.29922156E+00 0.40720101E+04</pdfrwt>
<totfact> 0.14223568E-01</totfact>
</mgrwt>
</event>
<event>
 6    1  0.1934315E-005  0.1971171E+04  0.7818608E-02  0.8620219E-01
          2   -1    0    0  501    0  0.00000000000E+00  0.00000000000E+00  0.11161168664E+04  0.11161168664E+04  0.00000000000E+00 0.  1.
         -2   -1    0    0    0  501 -0.00000000000E+00 -0.00000000000E+00 -0.87031959852E+03  0.87031959852E+03  0.00000000000E+00 0. -1.
         23    2    1    2    0    0  0.68371428884E+03  0.68132845538E+03 -0.66831336600E+02  0.97183785602E+03  0.91261700473E+02 0.  0.
         11    1    3    3    0    0  0.49648156035E+03  0.51726023072E+03 -0.86206715559E+02  0.72213827198E+03  0.00000000000E+00 0.  1.
        -11    1    3    3    0    0  0.18723272849E+03  0.16406822466E+03  0.19375378959E+02  0.24969958404E+03  0.00000000000E+00 0. -1.
         22    1    1    2    0    0 -0.68371428884E+03 -0.68132845538E+03  0.31262860449E+03  0.10145986089E+04  0.00000000000E+00 0.  1.
<mgrwt>
<rscale>  0 0.19711706E+04</rscale>
<asrwt>0</asrwt>
<pdfrwt beam="1">  1        2 0.17171029E+00 0.19711706E+04</pdfrwt>
<pdfrwt beam="2">  1       -2 0.13389532E+00 0.19711706E+04</pdfrwt>
<totfact> 0.79894587E+00</totfact>
</mgrwt>
</event>
<event>
 6    1  0.1934315E-005  0.2553921E+03  0.7818608E-02  0.1109944E+00
         -2   -1    0    0    0  501 -0.00000000000E+00  0.00000000000E+00  0.32561151592E+03  0.32561151592E+03  0.00000000000E+00 0. -1.
          2   -1    0    0  501    0  0.00000000000E+00 -0.00000000000E+00 -0.50078960128E+02  0.50078960128E+02  0.00000000000E+00 0.  1.
         23    2    1    2    0    0 -0.94661157259E+02  0.59148575771E+02  0.16563703488E+03  0.21904975904E+03  0.89932646470E+02 0.  0.
         13    1    3    3    0    0 -0.34910601391E+02  0.68153112126E+02  0.12375214117E+03  0.14552728001E+03  0.00000000000E+00 0. -1.
        -13    1    3    3    0    0 -0.59750555868E+02 -0.90045363559E+01  0.41884893707E+02  0.73522479028E+02  0.00000000000E+00 0.  1.
         22    1    1    2    0    0  0.94661157259E+02 -0.59148575771E+02  0.10989552091E+03  0.15664071701E+03  0.00000000000E+00 0. -1.
<mgrwt>
<rscale>  0 0.25539214E+03</rscale>
<asrwt>0</asrwt>
<pdfrwt beam="1">  1        2 0.77044556E-02 0.25539214E+03</pdfrwt>
<pdfrwt beam="2">  1       -2 0.50094078E-01 0.25539214E+03</pdfrwt>
<totfact> 0.33889006E+03</totfact>
</mgrwt>
</event>
<event>
 6    1  0.1934315E-005  0.1299109E+04  0.7818608E-02  0.9030272E-01
         -2   -1    0    0    0  501 -0.00000000000E+00  0.00000000000E+00  0.49114305693E+03  0.49114305693E+03  0.00000000000E+00 0. -1.
          2   -1    0    0  501    0  0.00000000000E+00 -0.00000000000E+00 -0.85905926673E+03  0.85905926673E+03  0.00000000000E+00 0.  1.
         23    2    1    2    0    0  0.61106127391E+03  0.43117513639E+02  0.29374018280E+02  0.62006909898E+03  0.91475975588E+02 0.  0.
         13    1    3    3    0    0  0.36540204857E+03  0.55850195210E+02  0.50928769124E+02  0.37313756301E+03  0.00000000000E+00 0. -1.
        -13    1    3    3    0    0  0.24565922534E+03 -0.12732681571E+02 -0.21554750845E+02  0.24693153597E+03  0.00000000000E+00 0.  1.
         22    1    1    2    0    0 -0.61106127391E+03 -0.43117513639E+02 -0.39729022808E+03  0.73013322468E+03  0.00000000000E+00 0.  1.
<mgrwt>
<rscale>  0 0.12991089E+04</rscale>
<asrwt>0</asrwt>
<pdfrwt beam="1">  1        2 0.13216296E+00 0.12991089E+04</pdfrwt>
<pdfrwt beam="2">  1       -2 0.75560471E-01 0.12991089E+04</pdfrwt>
<totfact> 0.48177409E+01</totfact>
</mgrwt>
</event>
<event>
 6    1  0.2701205E-005  0.4104123E+04  0.7818608E-02  0.7983865E-01
         -2   -1    0    0    0  501 -0.00000000000E+00  0.00000000000E+00  0.16566286984E+04  0.16566286984E+04  0.00000000000E+00 0. -1.
          2   -1    0    0  501    0  0.00000000000E+00 -0.00000000000E+00 -0.25418835304E+04  0.25418835304E+04  0.00000000000E+00 0.  1.
         23    2    1    2    0    0  0.15217261652E+04 -0.13743261114E+04 -0.49277218837E+03  0.21108184275E+04  0.91143962287E+02 0.  0.
         13    1    3    3    0    0  0.46164325395E+03 -0.43910658336E+03 -0.11330487764E+03  0.64712215289E+03  0.00000000000E+00 0. -1.
        -13    1    3    3    0    0  0.10600829112E+04 -0.93521952807E+03 -0.37946731073E+03  0.14636962746E+04  0.00000000000E+00 0.  1.
         22    1    1    2    0    0 -0.15217261652E+04  0.13743261114E+04 -0.39248264363E+03  0.20876938013E+04  0.00000000000E+00 0.  1.
<mgrwt>
<rscale>  0 0.41041234E+04</rscale>
<asrwt>0</asrwt>
<pdfrwt beam="1">  1        2 0.39105900E+00 0.41041234E+04</pdfrwt>
<pdfrwt beam="2">  1       -2 0.25486596E+00 0.41041234E+04</pdfrwt>
<totfact> 0.15444093E-01</totfact>
</mgrwt>
</event>
<event>
 6    1  0.1934315E-005  0.2349427E+04  0.7818608E-02  0.8458684E-01
          2   -1    0    0  501    0  0.00000000000E+00  0.00000000000E+00  0.69075773163E+03  0.69075773163E+03  0.00000000000E+00 0.  1.
         -2   -1    0    0    0  501 -0.00000000000E+00 -0.00000000000E+00 -0.19977356512E+04  0.19977356512E+04  0.00000000000E+00 0. -1.
         23    2    1    2    0    0 -0.86112168426E+03  0.73850157901E+01  0.25692810363E+03  0.90316788227E+03  0.90083736416E+02 0.  0.
         13    1    3    3    0    0 -0.32797278767E+03  0.15275910732E+02  0.14197566480E+03  0.35771020714E+03  0.00000000000E+00 0. -1.
        -13    1    3    3    0    0 -0.53314889659E+03 -0.78908949423E+01  0.11495243883E+03  0.54545767513E+03  0.00000000000E+00 0.  1.
         22    1    1    2    0    0  0.86112168426E+03 -0.73850157901E+01 -0.15639060232E+04  0.17853255006E+04  0.00000000000E+00 0. -1.
<mgrwt>
<rscale>  0 0.23494266E+04</rscale>
<asrwt>0</asrwt>
<pdfrwt beam="1">  1        2 0.10627042E+00 0.23494266E+04</pdfrwt>
<pdfrwt beam="2">  1       -2 0.30734394E+00 0.23494266E+04</pdfrwt>
<totfact> 0.10784973E+00</totfact>
</mgrwt>
</event>
<event>
 6    1  0.1934315E-005  0.1769311E+04  0.7818608E-02  0.8722792E-01
          2   -1    0    0  501    0  0.00000000000E+00  0.00000000000E+00  0.14321907889E+04  0.14321907889E+04  0.00000000000E+00 0.  1.
         -2   -1    0    0    0  501 -0.00000000000E+00 -0.00000000000E+00 -0.54644650790E+03  0.54644650790E+03  0.00000000000E+00 0. -1.
         23    2    1    2    0    0 -0.18970023884E+03 -0.43781936170E+03 -0.38588301785E+03  0.62043703128E+03  0.91457269909E+02 0.  0.
         13    1    3    3    0    0 -0.17359113696E+02 -0.97752974259E+02 -0.11943764456E+03  0.15531366245E+03  0.00000000000E+00 0.  1.
        -13    1    3    3    0    0 -0.17234112514E+03 -0.34006638745E+03 -0.26644537329E+03  0.46512336883E+03  0.00000000000E+00 0. -1.
         22    1    1    2    0    0  0.18970023884E+03  0.43781936170E+03  0.12716272989E+04  0.13582002656E+04  0.00000000000E+00 0.  1.
<mgrwt>
<rscale>  0 0.17693113E+04</rscale>
<asrwt>0</asrwt>
<pdfrwt beam="1">  1        2 0.22033704E+00 0.17693113E+04</pdfrwt>
<pdfrwt beam="2">  1       -2 0.84068694E-01 0.17693113E+04</pdfrwt>
<totfact> 0.16218593E+01</totfact>
</mgrwt>
</event>
<event>
 6    1  0.1934315E-005  0.4326306E+04  0.7818608E-02  0.7941772E-01
          2   -1    0    0  501    0  0.00000000000E+00  0.00000000000E+00  0.27203671902E+04  0.27203671902E+04  0.00000000000E+00 0.  1.
         -2   -1    0    0    0  501 -0.00000000000E+00 -0.00000000000E+00 -0.17200733190E+04  0.17200733190E+04  0.00000000000E+00 0. -1.
         23    2    1    2    0    0 -0.45258424252E+03 -0.14484202995E+04 -0.10805124314E+04  0.18650747624E+04  0.90790387408E+02 0.  0.
         13    1    3    3    0    0 -0.57302667591E+02 -0.23239912925E+03 -0.20789747552E+03  0.31703992070E+03  0.00000000000E+00 0. -1.
        -13    1    3    3    0    0 -0.39528157493E+03 -0.12160211702E+04 -0.87261495590E+03  0.15480348417E+04  0.00000000000E+00 0.  1.
         22    1    1    2    0    0  0.45258424252E+03  0.14484202995E+04  0.20808063026E+04  0.25753657468E+04  0.00000000000E+00 0.  1.
<mgrwt>
<rscale>  0 0.43263061E+04</rscale>
<asrwt>0</asrwt>
<pdfrwt beam="1">  1        2 0.41851803E+00 0.43263061E+04</pdfrwt>
<pdfrwt beam="2">  1       -2 0.26462666E+00 0.43263061E+04</pdfrwt>
<totfact> 0.10370455E-01</totfact>
</mgrwt>
</event>
<event>
 6    1  0.1934315E-005  0.1336894E+04  0.7818608E-02  0.9000809E-01
         -2   -1    0    0    0  501 -0.00000000000E+00  0.00000000000E+00  0.11223217006E+04  0.11223217006E+04  0.00000000000E+00 0. -1.
          2   -1    0    0  501    0  0.00000000000E+00 -0.00000000000E+00 -0.39812256121E+03  0.39812256121E+03  0.00000000000E+00 0.  1.
         23    2    1    2    0    0  0.42107768452E+03  0.49437740165E+03  0.19972654151E+03  0.68570661585E+03  0.92668441090E+02 0.  0.
         13    1    3    3    0    0  0.23762406520E+03  0.21580089499E+03  0.12055281331E+03  0.34288220053E+03  0.00000000000E+00 0. -1.
        -13    1    3    3    0    0  0.18345361932E+03  0.27857650666E+03  0.79173728200E+02  0.34282441532E+03  0.00000000000E+00 0.  1.
         22    1    1    2    0    0 -0.42107768452E+03 -0.49437740165E+03  0.52447259790E+03  0.83473764597E+03  0.00000000000E+00 0.  1.
<mgrwt>
<rscale>  0 0.13368943E+04</rscale>
<asrwt>0</asrwt>
<pdfrwt beam="1">  1        2 0.61249625E-01 0.13368943E+04</pdfrwt>
<pdfrwt beam="2">  1       -2 0.17266488E+00 0.13368943E+04</pdfrwt>
<totfact> 0.15930102E+01</totfact>
</mgrwt>
</event>
<event>
 6    1  0.1934315E-005  0.2927979E+04  0.7818608E-02  0.8264601E-01
         -1   -1    0    0    0  501 -0.00000000000E+00  0.00000000000E+00  0.11545087676E+04  0.11545087676E+04  0.00000000000E+00 0.  1.
          1   -1    0    0  501    0  0.00000000000E+00 -0.00000000000E+00 -0.18564307239E+04  0.18564307239E+04  0.00000000000E+00 0. -1.
         23    2    1    2    0    0  0.21597490608E+03 -0.99508206076E+03 -0.14309966690E+04  0.17585883409E+04  0.89710747329E+02 0.  0.
         13    1    3    3    0    0  0.13667266995E+03 -0.46488488779E+03 -0.63128554081E+03  0.79581330201E+03  0.00000000000E+00 0. -1.
        -13    1    3    3    0    0  0.79302236132E+02 -0.53019717297E+03 -0.79971112822E+03  0.96277503888E+03  0.00000000000E+00 0.  1.
         22    1    1    2    0    0 -0.21597490608E+03  0.99508206076E+03  0.72907471280E+03  0.12523511507E+04  0.00000000000E+00 0.  1.
<mgrwt>
<rscale>  0 0.29279792E+04</rscale>
<asrwt>0</asrwt>
<pdfrwt beam="1">  1        1 0.28560473E+00 0.29279792E+04</pdfrwt>
<pdfrwt beam="2">  1       -1 0.17761673E+00 0.29279792E+04</pdfrwt>
<totfact> 0.69150256E-01</totfact>
</mgrwt>
</event>
<event>
 6    1  0.2024030E-005  0.2621325E+04  0.7818608E-02  0.8360994E-01
          2   -1    0    0  501    0  0.00000000000E+00  0.00000000000E+00  0.12582178788E+04  0.12582178788E+04  0.00000000000E+00 0.  1.
         -2   -1    0    0    0  501 -0.00000000000E+00 -0.00000000000E+00 -0.13652927170E+04  0.13652927170E+04  0.00000000000E+00 0. -1.
         23    2    1    2    0    0  0.75670216089E+03 -0.79009219131E+02  0.10128689092E+04  0.12695849648E+04  0.84273000596E+02 0.  0.
         11    1    3    3    0    0  0.24614303614E+03 -0.50806903399E+02  0.38605944797E+03  0.46066216801E+03  0.00000000000E+00 0. -1.
        -11    1    3    3    0    0  0.51055912474E+03 -0.28202315731E+02  0.62680946121E+03  0.80892279677E+03  0.00000000000E+00 0.  1.
         22    1    1    2    0    0 -0.75670216089E+03  0.79009219131E+02 -0.11199437474E+04  0.13539256310E+04  0.00000000000E+00 0. -1.
<mgrwt>
<rscale>  0 0.26213246E+04</rscale>
<asrwt>0</asrwt>
<pdfrwt beam="1">  1        2 0.19357198E+00 0.26213246E+04</pdfrwt>
<pdfrwt beam="2">  1       -2 0.21004503E+00 0.26213246E+04</pdfrwt>
<totfact> 0.17674211E+00</totfact>
</mgrwt>
</event>
<event>
 6    1  0.1934315E-005  0.1685236E+04  0.7818608E-02  0.8769830E-01
          2   -1    0    0  501    0  0.00000000000E+00  0.00000000000E+00  0.10608872556E+04  0.10608872556E+04  0.00000000000E+00 0.  1.
         -2   -1    0    0    0  501 -0.00000000000E+00 -0.00000000000E+00 -0.66925574637E+03  0.66925574637E+03  0.00000000000E+00 0. -1.
         23    2    1    2    0    0  0.32242047263E+03 -0.71990431596E+03  0.49416271357E+03  0.93469983416E+03  0.85145799529E+02 0.  0.
         13    1    3    3    0    0  0.30388695562E+03 -0.61498058314E+03  0.44232743107E+03  0.81621195514E+03  0.00000000000E+00 0.  1.
        -13    1    3    3    0    0  0.18533517011E+02 -0.10492373283E+03  0.51835282499E+02  0.11848787902E+03  0.00000000000E+00 0. -1.
         22    1    1    2    0    0 -0.32242047263E+03  0.71990431596E+03 -0.10253120437E+03  0.79544316779E+03  0.00000000000E+00 0. -1.
<mgrwt>
<rscale>  0 0.16852358E+04</rscale>
<asrwt>0</asrwt>
<pdfrwt beam="1">  1        2 0.16321342E+00 0.16852358E+04</pdfrwt>
<pdfrwt beam="2">  1       -2 0.10296242E+00 0.16852358E+04</pdfrwt>
<totfact> 0.16915356E+01</totfact>
</mgrwt>
</event>
<event>
 6    1  0.1934315E-005  0.2360818E+04  0.7818608E-02  0.8454320E-01
         -2   -1    0    0    0  501 -0.00000000000E+00  0.00000000000E+00  0.81259944054E+03  0.81259944054E+03  0.00000000000E+00 0. -1.
          2   -1    0    0  501    0  0.00000000000E+00 -0.00000000000E+00 -0.17147009685E+04  0.17147009685E+04  0.00000000000E+00 0.  1.
         23    2    1    2    0    0  0.89776538978E+03 -0.57313065553E+03 -0.99124109496E+03  0.14584658541E+04  0.10051017730E+03 0.  0.
         11    1    3    3    0    0  0.24785395303E+03 -0.10675214392E+03 -0.24436696993E+03  0.36406430511E+03  0.00000000000E+00 0. -1.
        -11    1    3    3    0    0  0.64991143676E+03 -0.46637851161E+03 -0.74687412503E+03  0.10944015490E+04  0.00000000000E+00 0.  1.
         22    1    1    2    0    0 -0.89776538978E+03  0.57313065553E+03  0.89139567042E+02  0.10688345549E+04  0.00000000000E+00 0. -1.
<mgrwt>
<rscale>  0 0.23608177E+04</rscale>
<asrwt>0</asrwt>
<pdfrwt beam="1">  1        2 0.26380014E+00 0.23608177E+04</pdfrwt>
<pdfrwt beam="2">  1       -2 0.12501530E+00 0.23608177E+04</pdfrwt>
<totfact> 0.41620317E+00</totfact>
</mgrwt>
</event>
<event>
 6    1  0.1934315E-005  0.2606977E+04  0.7818608E-02  0.8365835E-01
          2   -1    0    0  501    0  0.00000000000E+00  0.00000000000E+00  0.12015592180E+04  0.12015592180E+04  0.00000000000E+00 0.  1.
         -2   -1    0    0    0  501 -0.00000000000E+00 -0.00000000000E+00 -0.14140649636E+04  0.14140649636E+04  0.00000000000E+00 0. -1.
         23    2    1    2    0    0 -0.59629117146E+03  0.10096595730E+04  0.46126913790E+03  0.12632380651E+04  0.89585585064E+02 0.  0.
         13    1    3    3    0    0 -0.40645421493E+03  0.72486077055E+03  0.28735849876E+03  0.87931966447E+03  0.00000000000E+00 0.  1.
        -13    1    3    3    0    0 -0.18983695653E+03  0.28479880242E+03  0.17391063914E+03  0.38391840061E+03  0.00000000000E+00 0. -1.
         22    1    1    2    0    0  0.59629117146E+03 -0.10096595730E+04 -0.67377488348E+03  0.13523861165E+04  0.00000000000E+00 0. -1.
<mgrwt>
<rscale>  0 0.26069774E+04</rscale>
<asrwt>0</asrwt>
<pdfrwt beam="1">  1        2 0.18485527E+00 0.26069774E+04</pdfrwt>
<pdfrwt beam="2">  1       -2 0.21754845E+00 0.26069774E+04</pdfrwt>
<totfact> 0.17116508E+00</totfact>
</mgrwt>
</event>
<event>
 6    1  0.1934315E-005  0.1146056E+04  0.7818608E-02  0.9161429E-01
         -2   -1    0    0    0  501 -0.00000000000E+00  0.00000000000E+00  0.28077653697E+03  0.28077653697E+03  0.00000000000E+00 0. -1.
          2   -1    0    0  501    0  0.00000000000E+00 -0.00000000000E+00 -0.11694756963E+04  0.11694756963E+04  0.00000000000E+00 0.  1.
         23    2    1    2    0    0 -0.44252663315E+02  0.21444823295E+03  0.21772680192E+03  0.32236715466E+03  0.92570401878E+02 0.  0.
         11    1    3    3    0    0 -0.16473176292E+02  0.16544255865E+03  0.10581424859E+03  0.19707678948E+03  0.00000000000E+00 0. -1.
        -11    1    3    3    0    0 -0.27779487023E+02  0.49005674301E+02  0.11191255333E+03  0.12529036517E+03  0.00000000000E+00 0.  1.
         22    1    1    2    0    0  0.44252663315E+02 -0.21444823295E+03 -0.11064259613E+04  0.11278850786E+04  0.00000000000E+00 0.  1.
<mgrwt>
<rscale>  0 0.11460564E+04</rscale>
<asrwt>0</asrwt>
<pdfrwt beam="1">  1        2 0.17991933E+00 0.11460564E+04</pdfrwt>
<pdfrwt beam="2">  1       -2 0.43196391E-01 0.11460564E+04</pdfrwt>
<totfact> 0.99350754E+01</totfact>
</mgrwt>
</event>
<event>
 6    1  0.1934315E-005  0.5929203E+03  0.7818608E-02  0.9920204E-01
          2   -1    0    0  501    0  0.00000000000E+00  0.00000000000E+00  0.47502662600E+02  0.47502662600E+02  0.00000000000E+00 0.  1.
         -2   -1    0    0    0  501 -0.00000000000E+00 -0.00000000000E+00 -0.18501827280E+04  0.18501827280E+04  0.00000000000E+00 0. -1.
         23    2    1    2    0    0  0.22070582604E+03  0.10526667345E+03 -0.14158494783E+04  0.14400501239E+04  0.96552990725E+02 0.  0.
         13    1    3    3    0    0  0.96892193348E+02  0.94930791619E+02 -0.84674496923E+03  0.85754124988E+03  0.00000000000E+00 0.  1.
        -13    1    3    3    0    0  0.12381363269E+03  0.10335881831E+02 -0.56910450904E+03  0.58250887402E+03  0.00000000000E+00 0. -1.
         22    1    1    2    0    0 -0.22070582604E+03 -0.10526667345E+03 -0.38683058708E+03  0.45763526665E+03  0.00000000000E+00 0.  1.
<mgrwt>
<rscale>  0 0.59292025E+03</rscale>
<asrwt>0</asrwt>
<pdfrwt beam="1">  1        2 0.73081020E-02 0.59292025E+03</pdfrwt>
<pdfrwt beam="2">  1       -2 0.28464349E+00 0.59292025E+03</pdfrwt>
<totfact> 0.41368912E+01</totfact>
</mgrwt>
</event>
<event>
 6    1  0.1934315E-005  0.2801710E+04  0.7818608E-02  0.8302738E-01
          2   -1    0    0  501    0  0.00000000000E+00  0.00000000000E+00  0.36141414289E+04  0.36141414289E+04  0.00000000000E+00 0.  1.
         -2   -1    0    0    0  501 -0.00000000000E+00 -0.00000000000E+00 -0.54297670706E+03  0.54297670706E+03  0.00000000000E+00 0. -1.
         23    2    1    2    0    0 -0.80191660113E+03 -0.11179245253E+04  0.19167791699E+04  0.23611695058E+04  0.90849158736E+02 0.  0.
         13    1    3    3    0    0 -0.64966466368E+03 -0.88834118294E+03  0.15906085508E+04  0.19342310603E+04  0.00000000000E+00 0. -1.
        -13    1    3    3    0    0 -0.15225193744E+03 -0.22958334240E+03  0.32617061907E+03  0.42693844557E+03  0.00000000000E+00 0.  1.
         22    1    1    2    0    0  0.80191660113E+03  0.11179245253E+04  0.11543855520E+04  0.17959486302E+04  0.00000000000E+00 0.  1.
<mgrwt>
<rscale>  0 0.28017099E+04</rscale>
<asrwt>0</asrwt>
<pdfrwt beam="1">  1        2 0.55602174E+00 0.28017099E+04</pdfrwt>
<pdfrwt beam="2">  1       -2 0.83534880E-01 0.28017099E+04</pdfrwt>
<totfact> 0.73547105E-01</totfact>
</mgrwt>
</event>
<event>
 6    1  0.1934315E-005  0.1142777E+04  0.7818608E-02  0.9164473E-01
         -2   -1    0    0    0  501 -0.00000000000E+00  0.00000000000E+00  0.47237947179E+03  0.47237947179E+03  0.00000000000E+00 0. -1.
          2   -1    0    0  501    0  0.00000000000E+00 -0.00000000000E+00 -0.69114979549E+03  0.69114979549E+03  0.00000000000E+00 0.  1.
         23    2    1    2    0    0  0.14877542622E+03 -0.29027129526E+03  0.36621679847E+03  0.49375207642E+03  0.57313324738E+02 0.  0.
         11    1    3    3    0    0  0.14363689687E+03 -0.28772135365E+03  0.36700368271E+03  0.48796192332E+03  0.00000000000E+00 0. -1.
        -11    1    3    3    0    0  0.51385293510E+01 -0.25499416169E+01 -0.78688424556E+00  0.57901531030E+01  0.00000000000E+00 0.  1.
         22    1    1    2    0    0 -0.14877542622E+03  0.29027129526E+03 -0.58498712217E+03  0.66977719086E+03  0.00000000000E+00 0. -1.
<mgrwt>
<rscale>  0 0.11427773E+04</rscale>
<asrwt>0</asrwt>
<pdfrwt beam="1">  1        2 0.10633074E+00 0.11427773E+04</pdfrwt>
<pdfrwt beam="2">  1       -2 0.72673765E-01 0.11427773E+04</pdfrwt>
<totfact> 0.70637126E+01</totfact>
</mgrwt>
</event>
<event>
 6    1  0.1934315E-005  0.2940684E+04  0.7818608E-02  0.8260875E-01
          2   -1    0    0  501    0  0.00000000000E+00  0.00000000000E+00  0.27652368135E+04  0.27652368135E+04  0.00000000000E+00 0.  1.
         -2   -1    0    0    0  501 -0.00000000000E+00 -0.00000000000E+00 -0.78181588484E+03  0.78181588484E+03  0.00000000000E+00 0. -1.
         23    2    1    2    0    0 -0.82744672889E+02 -0.12193081339E+04  0.94578234123E+01  0.12253961029E+04  0.89146801080E+02 0.  0.
         11    1    3    3    0    0 -0.94567055122E+02 -0.86794829235E+03 -0.12211204995E+02  0.87317024665E+03  0.00000000000E+00 0. -1.
        -11    1    3    3    0    0  0.11822382233E+02 -0.35135984158E+03  0.21669028407E+02  0.35222585622E+03  0.00000000000E+00 0.  1.
         22    1    1    2    0    0  0.82744672889E+02  0.12193081339E+04  0.19739631052E+04  0.23216565954E+04  0.00000000000E+00 0.  1.
<mgrwt>
<rscale>  0 0.29406843E+04</rscale>
<asrwt>0</asrwt>
<pdfrwt beam="1">  1        2 0.42542104E+00 0.29406843E+04</pdfrwt>
<pdfrwt beam="2">  1       -2 0.12027937E+00 0.29406843E+04</pdfrwt>
<totfact> 0.11016963E+00</totfact>
</mgrwt>
</event>
<event>
 6    1  0.1934315E-005  0.2153351E+04  0.7818608E-02  0.8538099E-01
         -2   -1    0    0    0  501 -0.00000000000E+00  0.00000000000E+00  0.10388734643E+04  0.10388734643E+04  0.00000000000E+00 0. -1.
          2   -1    0    0  501    0  0.00000000000E+00 -0.00000000000E+00 -0.11158530036E+04  0.11158530036E+04  0.00000000000E+00 0.  1.
         23    2    1    2    0    0  0.44854862073E+03  0.23464123459E+03 -0.98722873585E+03  0.11131862748E+04  0.91163212704E+02 0.  0.
         13    1    3    3    0    0  0.11089522037E+03  0.10149389959E+03 -0.32267083397E+03  0.35597082556E+03  0.00000000000E+00 0. -1.
        -13    1    3    3    0    0  0.33765340036E+03  0.13314733500E+03 -0.66455790188E+03  0.75721544922E+03  0.00000000000E+00 0.  1.
         22    1    1    2    0    0 -0.44854862073E+03 -0.23464123459E+03  0.91024919653E+03  0.10415401931E+04  0.00000000000E+00 0. -1.
<mgrwt>
<rscale>  0 0.21533509E+04</rscale>
<asrwt>0</asrwt>
<pdfrwt beam="1">  1        2 0.17166969E+00 0.21533509E+04</pdfrwt>
<pdfrwt beam="2">  1       -2 0.15982669E+00 0.21533509E+04</pdfrwt>
<totfact> 0.49377224E+00</totfact>
</mgrwt>
</event>
<event>
 6    1  0.1934315E-005  0.5395111E+04  0.7818608E-02  0.7770289E-01
          2   -1    0    0  501    0  0.00000000000E+00  0.00000000000E+00  0.25244240684E+04  0.25244240684E+04  0.00000000000E+00 0.  1.
         -2   -1    0    0    0  501 -0.00000000000E+00 -0.00000000000E+00 -0.28825603664E+04  0.28825603664E+04  0.00000000000E+00 0. -1.
         23    2    1    2    0    0  0.13343176998E+04  0.30386813993E+02  0.21693750295E+04  0.25487261201E+04  0.92139751174E+02 0.  0.
         11    1    3    3    0    0  0.41932662898E+03 -0.23753305721E+02  0.73358155744E+03  0.84530523642E+03  0.00000000000E+00 0.  1.
        -11    1    3    3    0    0  0.91499107084E+03  0.54140119715E+02  0.14357934721E+04  0.17034208836E+04  0.00000000000E+00 0. -1.
         22    1    1    2    0    0 -0.13343176998E+04 -0.30386813993E+02 -0.25275113276E+04  0.28582583147E+04  0.00000000000E+00 0. -1.
<mgrwt>
<rscale>  0 0.53951107E+04</rscale>
<asrwt>0</asrwt>
<pdfrwt beam="1">  1        2 0.38837293E+00 0.53951107E+04</pdfrwt>
<pdfrwt beam="2">  1       -2 0.44347083E+00 0.53951107E+04</pdfrwt>
<totfact> 0.91439295E-03</totfact>
</mgrwt>
</event>
<event>
 6    1  0.1934315E-005  0.2204363E+04  0.7818608E-02  0.8516614E-01
         -2   -1    0    0    0  501 -0.00000000000E+00  0.00000000000E+00  0.10568739041E+04  0.10568739041E+04  0.00000000000E+00 0. -1.
          2   -1    0    0  501    0  0.00000000000E+00 -0.00000000000E+00 -0.11494311196E+04  0.11494311196E+04  0.00000000000E+00 0.  1.
         23    2    1    2    0    0 -0.10403069864E+04  0.31414792886E+03 -0.21956520999E+03  0.11122033019E+04  0.88655266224E+02 0.  0.
         11    1    3    3    0    0 -0.11028901447E+03  0.33877100584E+02 -0.51885830312E+02  0.12650479850E+03  0.00000000000E+00 0. -1.
        -11    1    3    3    0    0 -0.93001797188E+03  0.28027082828E+03 -0.16767937967E+03  0.98569850338E+03  0.00000000000E+00 0.  1.
         22    1    1    2    0    0  0.10403069864E+04 -0.31414792886E+03  0.12700799440E+03  0.10941017218E+04  0.00000000000E+00 0. -1.
<mgrwt>
<rscale>  0 0.22043627E+04</rscale>
<asrwt>0</asrwt>
<pdfrwt beam="1">  1        2 0.17683556E+00 0.22043627E+04</pdfrwt>
<pdfrwt beam="2">  1       -2 0.16259599E+00 0.22043627E+04</pdfrwt>
<totfact> 0.44752039E+00</totfact>
</mgrwt>
</event>
<event>
 6    1  0.1934315E-005  0.8080778E+03  0.7818608E-02  0.9548398E-01
         -2   -1    0    0    0  501 -0.00000000000E+00  0.00000000000E+00  0.24339548642E+03  0.24339548642E+03  0.00000000000E+00 0. -1.
          2   -1    0    0  501    0  0.00000000000E+00 -0.00000000000E+00 -0.67070860935E+03  0.67070860935E+03  0.00000000000E+00 0.  1.
         23    2    1    2    0    0 -0.74133686082E+02  0.16051235004E+03 -0.62055152132E+03  0.65218598541E+03  0.94880720015E+02 0.  0.
         11    1    3    3    0    0 -0.22609432709E+02  0.81130702662E+02 -0.44352600311E+03  0.45145176132E+03  0.00000000000E+00 0.  1.
        -11    1    3    3    0    0 -0.51524253373E+02  0.79381647376E+02 -0.17702551820E+03  0.20073422409E+03  0.00000000000E+00 0. -1.
         22    1    1    2    0    0  0.74133686082E+02 -0.16051235004E+03  0.19323839838E+03  0.26191811036E+03  0.00000000000E+00 0. -1.
<mgrwt>
<rscale>  0 0.80807784E+03</rscale>
<asrwt>0</asrwt>
<pdfrwt beam="1">  1        2 0.10318594E+00 0.80807784E+03</pdfrwt>
<pdfrwt beam="2">  1       -2 0.37445460E-01 0.80807784E+03</pdfrwt>
<totfact> 0.29237639E+02</totfact>
</mgrwt>
</event>
<event>
 6    1  0.1934315E-005  0.3140235E+04  0.7818608E-02  0.8204782E-01
          2   -1    0    0  501    0  0.00000000000E+00  0.00000000000E+00  0.21849403963E+04  0.21849403963E+04  0.00000000000E+00 0.  1.
         -2   -1    0    0    0  501 -0.00000000000E+00 -0.00000000000E+00 -0.11283003372E+04  0.11283003372E+04  0.00000000000E+00 0. -1.
         23    2    1    2    0    0 -0.15673467596E+03 -0.99548793888E+03 -0.74010262794E+03  0.12531809580E+04  0.84549503228E+02 0.  0.
         13    1    3    3    0    0 -0.85336730053E+02 -0.74694007883E+03 -0.52738024388E+03  0.91833096457E+03  0.00000000000E+00 0. -1.
        -13    1    3    3    0    0 -0.71397945904E+02 -0.24854786004E+03 -0.21272238406E+03  0.33484999342E+03  0.00000000000E+00 0.  1.
         22    1    1    2    0    0  0.15673467596E+03  0.99548793888E+03  0.17967426871E+04  0.20600597755E+04  0.00000000000E+00 0.  1.
<mgrwt>
<rscale>  0 0.31402350E+04</rscale>
<asrwt>0</asrwt>
<pdfrwt beam="1">  1        2 0.33614468E+00 0.31402350E+04</pdfrwt>
<pdfrwt beam="2">  1       -2 0.17358467E+00 0.31402350E+04</pdfrwt>
<totfact> 0.89579661E-01</totfact>
</mgrwt>
</event>
<event>
 6    1  0.1934315E-005  0.2145437E+04  0.7818608E-02  0.8541488E-01
         -2   -1    0    0    0  501 -0.00000000000E+00  0.00000000000E+00  0.85724054921E+03  0.85724054921E+03  0.00000000000E+00 0. -1.
          2   -1    0    0  501    0  0.00000000000E+00 -0.00000000000E+00 -0.13423589499E+04  0.13423589499E+04  0.00000000000E+00 0.  1.
         23    2    1    2    0    0  0.60146705166E+03  0.28002226666E+03 -0.11047286995E+04  0.12918043645E+04  0.90321273847E+02 0.  0.
         11    1    3    3    0    0  0.25450427066E+03  0.14990974426E+03 -0.55757200080E+03  0.63097693403E+03  0.00000000000E+00 0. -1.
        -11    1    3    3    0    0  0.34696278100E+03  0.13011252240E+03 -0.54715669871E+03  0.66082743044E+03  0.00000000000E+00 0.  1.
         22    1    1    2    0    0 -0.60146705166E+03 -0.28002226666E+03  0.61961029882E+03  0.90779513463E+03  0.00000000000E+00 0. -1.
<mgrwt>
<rscale>  0 0.21454366E+04</rscale>
<asrwt>0</asrwt>
<pdfrwt beam="1">  1        2 0.20651676E+00 0.21454366E+04</pdfrwt>
<pdfrwt beam="2">  1       -2 0.13188316E+00 0.21454366E+04</pdfrwt>
<totfact> 0.60062177E+00</totfact>
</mgrwt>
</event>
<event>
 6    1  0.1934315E-005  0.1910996E+04  0.7818608E-02  0.8649402E-01
         -1   -1    0    0    0  501 -0.00000000000E+00  0.00000000000E+00  0.64474639985E+03  0.64474639985E+03  0.00000000000E+00 0. -1.
          1   -1    0    0  501    0  0.00000000000E+00 -0.00000000000E+00 -0.14160234127E+04  0.14160234127E+04  0.00000000000E+00 0.  1.
         23    2    1    2    0    0 -0.25648432551E+03 -0.27700260416E+03  0.55747262293E+03  0.67943341379E+03  0.91320241545E+02 0.  0.
         13    1    3    3    0    0 -0.20629089537E+03 -0.16477076050E+03  0.35240090065E+03  0.44033138862E+03  0.00000000000E+00 0. -1.
        -13    1    3    3    0    0 -0.50193430141E+02 -0.11223184366E+03  0.20507172228E+03  0.23910202517E+03  0.00000000000E+00 0.  1.
         22    1    1    2    0    0  0.25648432551E+03  0.27700260416E+03 -0.13287496358E+04  0.13813363988E+04  0.00000000000E+00 0.  1.
<mgrwt>
<rscale>  0 0.19109955E+04</rscale>
<asrwt>0</asrwt>
<pdfrwt beam="1">  1        1 0.21784975E+00 0.19109955E+04</pdfrwt>
<pdfrwt beam="2">  1       -1 0.99191755E-01 0.19109955E+04</pdfrwt>
<totfact> 0.67946345E+00</totfact>
</mgrwt>
</event>
<event>
 6    1  0.1934315E-005  0.2642442E+04  0.7818608E-02  0.8353926E-01
          2   -1    0    0  501    0  0.00000000000E+00  0.00000000000E+00  0.37872334333E+04  0.37872334333E+04  0.00000000000E+00 0. -1.
         -2   -1    0    0    0  501 -0.00000000000E+00 -0.00000000000E+00 -0.46092356917E+03  0.46092356917E+03  0.00000000000E+00 0.  1.
         23    2    1    2    0    0  0.10723556330E+04  0.75827959439E+03  0.18708070443E+04  0.22876920052E+04  0.93172779432E+02 0.  0.
         11    1    3    3    0    0  0.66169089224E+03  0.45028218619E+03  0.12138053322E+04  0.14539299394E+04  0.00000000000E+00 0. -1.
        -11    1    3    3    0    0  0.41066474077E+03  0.30799740819E+03  0.65700171203E+03  0.83376206581E+03  0.00000000000E+00 0.  1.
         22    1    1    2    0    0 -0.10723556330E+04 -0.75827959439E+03  0.14555028199E+04  0.19604649973E+04  0.00000000000E+00 0.  1.
<mgrwt>
<rscale>  0 0.26424422E+04</rscale>
<asrwt>0</asrwt>
<pdfrwt beam="1">  1        2 0.58265128E+00 0.26424422E+04</pdfrwt>
<pdfrwt beam="2">  1       -2 0.70911321E-01 0.26424422E+04</pdfrwt>
<totfact> 0.80092789E-01</totfact>
</mgrwt>
</event>
<event>
 6    1  0.1934315E-005  0.1717455E+04  0.7818608E-02  0.8751471E-01
          2   -1    0    0  501    0  0.00000000000E+00  0.00000000000E+00  0.13513285168E+04  0.13513285168E+04  0.00000000000E+00 0.  1.
         -2   -1    0    0    0  501 -0.00000000000E+00 -0.00000000000E+00 -0.54569476308E+03  0.54569476308E+03  0.00000000000E+00 0. -1.
         23    2    1    2    0    0  0.31291742176E+03 -0.71727368998E+03  0.78802046351E+03  0.11142659183E+04  0.90627956482E+02 0.  0.
         11    1    3    3    0    0  0.22106286936E+03 -0.50978713189E+03  0.49912027331E+03  0.74690880252E+03  0.00000000000E+00 0. -1.
        -11    1    3    3    0    0  0.91854552400E+02 -0.20748655808E+03  0.28890019020E+03  0.36735711573E+03  0.00000000000E+00 0.  1.
         22    1    1    2    0    0 -0.31291742176E+03  0.71727368998E+03  0.17613290214E+02  0.78275736162E+03  0.00000000000E+00 0.  1.
<mgrwt>
<rscale>  0 0.17174550E+04</rscale>
<asrwt>0</asrwt>
<pdfrwt beam="1">  1        2 0.20789669E+00 0.17174550E+04</pdfrwt>
<pdfrwt beam="2">  1       -2 0.83953041E-01 0.17174550E+04</pdfrwt>
<totfact> 0.18179078E+01</totfact>
</mgrwt>
</event>
<event>
 6    1  0.1934315E-005  0.2001454E+04  0.7818608E-02  0.8605941E-01
          2   -1    0    0  501    0  0.00000000000E+00  0.00000000000E+00  0.13141944958E+04  0.13141944958E+04  0.00000000000E+00 0.  1.
         -2   -1    0    0    0  501 -0.00000000000E+00 -0.00000000000E+00 -0.76202946914E+03  0.76202946914E+03  0.00000000000E+00 0. -1.
         23    2    1    2    0    0 -0.35412234090E+03 -0.52030225604E+02  0.12438282602E+04  0.12974378548E+04  0.90146932982E+02 0.  0.
         11    1    3    3    0    0 -0.21084246106E+03 -0.46129780414E+02  0.88681332861E+03  0.91269950139E+03  0.00000000000E+00 0.  1.
        -11    1    3    3    0    0 -0.14327987984E+03 -0.59004451904E+01  0.35701493159E+03  0.38473835343E+03  0.00000000000E+00 0. -1.
         22    1    1    2    0    0  0.35412234090E+03  0.52030225604E+02 -0.69166323354E+03  0.77878611013E+03  0.00000000000E+00 0. -1.
<mgrwt>
<rscale>  0 0.20014544E+04</rscale>
<asrwt>0</asrwt>
<pdfrwt beam="1">  1        2 0.20218377E+00 0.20014544E+04</pdfrwt>
<pdfrwt beam="2">  1       -2 0.11723530E+00 0.20014544E+04</pdfrwt>
<totfact> 0.84767053E+00</totfact>
</mgrwt>
</event>
<event>
 6    1  0.1934315E-005  0.2833500E+04  0.7818608E-02  0.8292943E-01
         -2   -1    0    0    0  501 -0.00000000000E+00  0.00000000000E+00  0.93278805062E+03  0.93278805062E+03  0.00000000000E+00 0. -1.
          2   -1    0    0  501    0  0.00000000000E+00 -0.00000000000E+00 -0.21518080136E+04  0.21518080136E+04  0.00000000000E+00 0.  1.
         23    2    1    2    0    0  0.61191625534E+03 -0.51780485622E+03  0.65988470931E+03  0.10418415170E+04  0.86154188918E+02 0.  0.
         11    1    3    3    0    0  0.36408509726E+03 -0.35749704317E+03  0.39550852089E+03  0.64559204147E+03  0.00000000000E+00 0. -1.
        -11    1    3    3    0    0  0.24783115808E+03 -0.16030781305E+03  0.26437618843E+03  0.39624947552E+03  0.00000000000E+00 0.  1.
         22    1    1    2    0    0 -0.61191625534E+03  0.51780485622E+03 -0.18789046723E+04  0.20427545472E+04  0.00000000000E+00 0.  1.
<mgrwt>
<rscale>  0 0.28335002E+04</rscale>
<asrwt>0</asrwt>
<pdfrwt beam="1">  1        2 0.33104739E+00 0.28335002E+04</pdfrwt>
<pdfrwt beam="2">  1       -2 0.14350585E+00 0.28335002E+04</pdfrwt>
<totfact> 0.16058479E+00</totfact>
</mgrwt>
</event>
<event>
 6    1  0.1934315E-005  0.3864031E+04  0.7818608E-02  0.8032552E-01
         -2   -1    0    0    0  501 -0.00000000000E+00  0.00000000000E+00  0.15525763513E+04  0.15525763513E+04  0.00000000000E+00 0. -1.
          2   -1    0    0  501    0  0.00000000000E+00 -0.00000000000E+00 -0.24041874544E+04  0.24041874544E+04  0.00000000000E+00 0.  1.
         23    2    1    2    0    0 -0.11356409622E+04  0.90370465653E+03  0.87875748757E+03  0.16983267442E+04  0.75739731045E+02 0.  0.
         13    1    3    3    0    0 -0.10873074320E+04  0.88165409595E+03  0.83952549230E+03  0.16322850391E+04  0.00000000000E+00 0. -1.
        -13    1    3    3    0    0 -0.48333530122E+02  0.22050560586E+02  0.39231995270E+02  0.66041705074E+02  0.00000000000E+00 0.  1.
         22    1    1    2    0    0  0.11356409622E+04 -0.90370465653E+03 -0.17303685907E+04  0.22584370615E+04  0.00000000000E+00 0.  1.
<mgrwt>
<rscale>  0 0.38640314E+04</rscale>
<asrwt>0</asrwt>
<pdfrwt beam="1">  1        2 0.36987500E+00 0.38640314E+04</pdfrwt>
<pdfrwt beam="2">  1       -2 0.23885790E+00 0.38640314E+04</pdfrwt>
<totfact> 0.23743958E-01</totfact>
</mgrwt>
</event>
<event>
 6    1  0.1934315E-005  0.1151633E+04  0.7818608E-02  0.9156279E-01
         -2   -1    0    0    0  501 -0.00000000000E+00  0.00000000000E+00  0.36082469462E+03  0.36082469462E+03  0.00000000000E+00 0. -1.
          2   -1    0    0  501    0  0.00000000000E+00 -0.00000000000E+00 -0.91890734940E+03  0.91890734940E+03  0.00000000000E+00 0.  1.
         23    2    1    2    0    0 -0.10339807589E+03 -0.30337527175E+03  0.24579192856E+03  0.41431765580E+03  0.92291549761E+02 0.  0.
         11    1    3    3    0    0 -0.13415470253E+02 -0.17272345893E+03  0.14881535531E+03  0.22838427722E+03  0.00000000000E+00 0. -1.
        -11    1    3    3    0    0 -0.89982605638E+02 -0.13065181282E+03  0.96976573249E+02  0.18593337858E+03  0.00000000000E+00 0.  1.
         22    1    1    2    0    0  0.10339807589E+03  0.30337527175E+03 -0.80387458334E+03  0.86541438822E+03  0.00000000000E+00 0.  1.
<mgrwt>
<rscale>  0 0.11516327E+04</rscale>
<asrwt>0</asrwt>
<pdfrwt beam="1">  1        2 0.14137036E+00 0.11516327E+04</pdfrwt>
<pdfrwt beam="2">  1       -2 0.55511492E-01 0.11516327E+04</pdfrwt>
<totfact> 0.85951375E+01</totfact>
</mgrwt>
</event>
<event>
 6    1  0.1934315E-005  0.3046644E+04  0.7818608E-02  0.8230535E-01
          1   -1    0    0  501    0  0.00000000000E+00  0.00000000000E+00  0.11351990182E+04  0.11351990182E+04  0.00000000000E+00 0.  1.
         -1   -1    0    0    0  501 -0.00000000000E+00 -0.00000000000E+00 -0.20441436531E+04  0.20441436531E+04  0.00000000000E+00 0. -1.
         23    2    1    2    0    0  0.86247130726E+01  0.12417577055E+04 -0.13733860810E+04  0.18535438776E+04  0.86017404455E+02 0.  0.
         13    1    3    3    0    0  0.47058150424E+02  0.64597526553E+03 -0.70590573962E+03  0.95801953342E+03  0.00000000000E+00 0.  1.
        -13    1    3    3    0    0 -0.38433437352E+02  0.59578243993E+03 -0.66748034136E+03  0.89552434414E+03  0.00000000000E+00 0. -1.
         22    1    1    2    0    0 -0.86247130726E+01 -0.12417577055E+04  0.46444144606E+03  0.13257987938E+04  0.00000000000E+00 0.  1.
<mgrwt>
<rscale>  0 0.30466440E+04</rscale>
<asrwt>0</asrwt>
<pdfrwt beam="1">  1        1 0.17464601E+00 0.30466440E+04</pdfrwt>
<pdfrwt beam="2">  1       -1 0.31448363E+00 0.30466440E+04</pdfrwt>
<totfact> 0.26886191E-01</totfact>
</mgrwt>
</event>
<event>
 6    1  0.1934315E-005  0.9777382E+03  0.7818608E-02  0.9333304E-01
         -1   -1    0    0    0  501 -0.00000000000E+00  0.00000000000E+00  0.29657220748E+03  0.29657220748E+03  0.00000000000E+00 0. -1.
          1   -1    0    0  501    0  0.00000000000E+00 -0.00000000000E+00 -0.80585095055E+03  0.80585095055E+03  0.00000000000E+00 0.  1.
         23    2    1    2    0    0  0.38691426578E+03  0.25215060856E+03 -0.42198871923E+03  0.63242089557E+03  0.92731502407E+02 0.  0.
         11    1    3    3    0    0  0.18425958876E+03  0.10516073662E+03 -0.13446462028E+03  0.25117943922E+03  0.00000000000E+00 0. -1.
        -11    1    3    3    0    0  0.20265467702E+03  0.14698987194E+03 -0.28752409894E+03  0.38124145636E+03  0.00000000000E+00 0.  1.
         22    1    1    2    0    0 -0.38691426578E+03 -0.25215060856E+03 -0.87290023836E+02  0.47000226246E+03  0.00000000000E+00 0. -1.
<mgrwt>
<rscale>  0 0.97773820E+03</rscale>
<asrwt>0</asrwt>
<pdfrwt beam="1">  1        1 0.12397707E+00 0.97773820E+03</pdfrwt>
<pdfrwt beam="2">  1       -1 0.45626495E-01 0.97773820E+03</pdfrwt>
<totfact> 0.10461869E+02</totfact>
</mgrwt>
</event>
<event>
 6    1  0.1934315E-005  0.1632697E+04  0.7818608E-02  0.8800709E-01
         -2   -1    0    0    0  501 -0.00000000000E+00  0.00000000000E+00  0.26039363450E+03  0.26039363450E+03  0.00000000000E+00 0. -1.
          2   -1    0    0  501    0  0.00000000000E+00 -0.00000000000E+00 -0.25592983890E+04  0.25592983890E+04  0.00000000000E+00 0.  1.
         23    2    1    2    0    0 -0.47376652733E+03  0.31446379963E+03 -0.14790233795E+03  0.59479795867E+03  0.92559744836E+02 0.  0.
         13    1    3    3    0    0 -0.16440303404E+03  0.71056420026E+02 -0.76400243933E+02  0.19471612594E+03  0.00000000000E+00 0. -1.
        -13    1    3    3    0    0 -0.30936349330E+03  0.24340737961E+03 -0.71502094013E+02  0.40008183273E+03  0.00000000000E+00 0.  1.
         22    1    1    2    0    0  0.47376652733E+03 -0.31446379963E+03 -0.21510024166E+04  0.22248940649E+04  0.00000000000E+00 0.  1.
<mgrwt>
<rscale>  0 0.16326972E+04</rscale>
<asrwt>0</asrwt>
<pdfrwt beam="1">  1        2 0.39373823E+00 0.16326972E+04</pdfrwt>
<pdfrwt beam="2">  1       -2 0.40060558E-01 0.16326972E+04</pdfrwt>
<totfact> 0.18176177E+01</totfact>
</mgrwt>
</event>
<event>
 6    1  0.1934315E-005  0.2476812E+04  0.7818608E-02  0.8411293E-01
          2   -1    0    0  501    0  0.00000000000E+00  0.00000000000E+00  0.40488713529E+03  0.40488713529E+03  0.00000000000E+00 0.  1.
         -2   -1    0    0    0  501 -0.00000000000E+00 -0.00000000000E+00 -0.37878451587E+04  0.37878451587E+04  0.00000000000E+00 0. -1.
         23    2    1    2    0    0 -0.55557713108E+03 -0.10893775694E+04 -0.13796016881E+04  0.18456391890E+04  0.87600005479E+02 0.  0.
         13    1    3    3    0    0 -0.39800500494E+03 -0.69173683096E+03 -0.91459670081E+03  0.12138348126E+04  0.00000000000E+00 0.  1.
        -13    1    3    3    0    0 -0.15757212614E+03 -0.39764073842E+03 -0.46500498727E+03  0.63180437635E+03  0.00000000000E+00 0. -1.
         22    1    1    2    0    0  0.55557713108E+03  0.10893775694E+04 -0.20033563353E+04  0.23470931050E+04  0.00000000000E+00 0.  1.
<mgrwt>
<rscale>  0 0.24768123E+04</rscale>
<asrwt>0</asrwt>
<pdfrwt beam="1">  1        2 0.62290329E-01 0.24768123E+04</pdfrwt>
<pdfrwt beam="2">  1       -2 0.58274540E+00 0.24768123E+04</pdfrwt>
<totfact> 0.41235916E-02</totfact>
</mgrwt>
</event>
<event>
 6    1  0.1934315E-005  0.2675300E+04  0.7818608E-02  0.8343064E-01
         -4   -1    0    0    0  501 -0.00000000000E+00  0.00000000000E+00  0.11041737015E+04  0.11041737015E+04  0.00000000000E+00 0. -1.
          4   -1    0    0  501    0  0.00000000000E+00 -0.00000000000E+00 -0.16204951082E+04  0.16204951082E+04  0.00000000000E+00 0.  1.
         23    2    1    2    0    0  0.49549410831E+03 -0.12263735386E+04 -0.66355683548E+02  0.13275375991E+04  0.91905019967E+02 0.  0.
         11    1    3    3    0    0  0.17294105237E+03 -0.31904744589E+03 -0.21335890127E+02  0.36353142991E+03  0.00000000000E+00 0. -1.
        -11    1    3    3    0    0  0.32255305594E+03 -0.90732609275E+03 -0.45019793421E+02  0.96400616922E+03  0.00000000000E+00 0.  1.
         22    1    1    2    0    0 -0.49549410831E+03  0.12263735386E+04 -0.44996572314E+03  0.13971312106E+04  0.00000000000E+00 0.  1.
<mgrwt>
<rscale>  0 0.26753004E+04</rscale>
<asrwt>0</asrwt>
<pdfrwt beam="1">  1        4 0.24930694E+00 0.26753004E+04</pdfrwt>
<pdfrwt beam="2">  1       -4 0.16987288E+00 0.26753004E+04</pdfrwt>
<totfact> 0.23667093E-02</totfact>
</mgrwt>
</event>
<event>
 6    1  0.1934315E-005  0.1490246E+04  0.7818608E-02  0.8890965E-01
         -2   -1    0    0    0  501 -0.00000000000E+00  0.00000000000E+00  0.22379870836E+03  0.22379870836E+03  0.00000000000E+00 0. -1.
          2   -1    0    0  501    0  0.00000000000E+00 -0.00000000000E+00 -0.24808388797E+04  0.24808388797E+04  0.00000000000E+00 0.  1.
         23    2    1    2    0    0 -0.34284241764E+03 -0.29204935193E+02 -0.23264874638E+04  0.23536151130E+04  0.92554468986E+02 0.  0.
         11    1    3    3    0    0 -0.24268187420E+03 -0.32826830795E+02 -0.13532050540E+04  0.13751858096E+04  0.00000000000E+00 0. -1.
        -11    1    3    3    0    0 -0.10016054344E+03  0.36218956015E+01 -0.97328240977E+03  0.97842930341E+03  0.00000000000E+00 0.  1.
         22    1    1    2    0    0  0.34284241764E+03  0.29204935193E+02  0.69447292382E+02  0.35102247505E+03  0.00000000000E+00 0. -1.
<mgrwt>
<rscale>  0 0.14902463E+04</rscale>
<asrwt>0</asrwt>
<pdfrwt beam="1">  1        2 0.38166752E+00 0.14902463E+04</pdfrwt>
<pdfrwt beam="2">  1       -2 0.34430570E-01 0.14902463E+04</pdfrwt>
<totfact> 0.27371239E+01</totfact>
</mgrwt>
</event>
<event>
 6    1  0.1934315E-005  0.3909653E+04  0.7818608E-02  0.8023025E-01
         -2   -1    0    0    0  501 -0.00000000000E+00  0.00000000000E+00  0.13708655865E+04  0.13708655865E+04  0.00000000000E+00 0. -1.
          2   -1    0    0  501    0  0.00000000000E+00 -0.00000000000E+00 -0.27875423515E+04  0.27875423515E+04  0.00000000000E+00 0.  1.
         23    2    1    2    0    0  0.16970071955E+04 -0.25410502220E+03  0.28534808600E+03  0.17415315702E+04  0.84296476097E+02 0.  0.
         13    1    3    3    0    0  0.74838432250E+03 -0.11908474867E+03  0.84206590872E+02  0.76246378371E+03  0.00000000000E+00 0.  1.
        -13    1    3    3    0    0  0.94862287302E+03 -0.13502027353E+03  0.20114149513E+03  0.97906778649E+03  0.00000000000E+00 0. -1.
         22    1    1    2    0    0 -0.16970071955E+04  0.25410502220E+03 -0.17020248510E+04  0.24168763678E+04  0.00000000000E+00 0.  1.
<mgrwt>
<rscale>  0 0.39096526E+04</rscale>
<asrwt>0</asrwt>
<pdfrwt beam="1">  1        2 0.42885266E+00 0.39096526E+04</pdfrwt>
<pdfrwt beam="2">  1       -2 0.21090240E+00 0.39096526E+04</pdfrwt>
<totfact> 0.21119481E-01</totfact>
</mgrwt>
</event>
<event>
 6    1  0.1934315E-005  0.2310354E+04  0.7818608E-02  0.8473850E-01
         -2   -1    0    0    0  501 -0.00000000000E+00  0.00000000000E+00  0.44851015506E+03  0.44851015506E+03  0.00000000000E+00 0. -1.
          2   -1    0    0  501    0  0.00000000000E+00 -0.00000000000E+00 -0.29752592144E+04  0.29752592144E+04  0.00000000000E+00 0.  1.
         23    2    1    2    0    0 -0.45215016760E+02  0.10612179866E+04 -0.19313158149E+04  0.22060794412E+04  0.92615933923E+02 0.  0.
         11    1    3    3    0    0  0.21727925510E+02  0.47651972849E+03 -0.82561678823E+03  0.95351257747E+03  0.00000000000E+00 0.  1.
        -11    1    3    3    0    0 -0.66942942270E+02  0.58469825811E+03 -0.11056990266E+04  0.12525668637E+04  0.00000000000E+00 0. -1.
         22    1    1    2    0    0  0.45215016760E+02 -0.10612179866E+04 -0.59543324446E+03  0.12176899283E+04  0.00000000000E+00 0. -1.
<mgrwt>
<rscale>  0 0.23103541E+04</rscale>
<asrwt>0</asrwt>
<pdfrwt beam="1">  1        2 0.45773219E+00 0.23103541E+04</pdfrwt>
<pdfrwt beam="2">  1       -2 0.69001562E-01 0.23103541E+04</pdfrwt>
<totfact> 0.31373812E+00</totfact>
</mgrwt>
</event>
<event>
 6    1  0.1934315E-005  0.3309054E+04  0.7818608E-02  0.8160595E-01
          2   -1    0    0  501    0  0.00000000000E+00  0.00000000000E+00  0.16245300921E+04  0.16245300921E+04  0.00000000000E+00 0.  1.
         -2   -1    0    0    0  501 -0.00000000000E+00 -0.00000000000E+00 -0.16850777046E+04  0.16850777046E+04  0.00000000000E+00 0. -1.
         23    2    1    2    0    0  0.98808635015E+03 -0.10881270371E+04  0.72736372307E+03  0.16419329612E+04  0.80936884963E+02 0.  0.
         11    1    3    3    0    0  0.75172553244E+03 -0.77464688783E+03  0.53196946725E+03  0.12033954425E+04  0.00000000000E+00 0. -1.
        -11    1    3    3    0    0  0.23636081772E+03 -0.31348014926E+03  0.19539425583E+03  0.43853751874E+03  0.00000000000E+00 0.  1.
         22    1    1    2    0    0 -0.98808635015E+03  0.10881270371E+04 -0.78791133558E+03  0.16676748355E+04  0.00000000000E+00 0. -1.
<mgrwt>
<rscale>  0 0.33090539E+04</rscale>
<asrwt>0</asrwt>
<pdfrwt beam="1">  1        2 0.24992771E+00 0.33090539E+04</pdfrwt>
<pdfrwt beam="2">  1       -2 0.25924272E+00 0.33090539E+04</pdfrwt>
<totfact> 0.50853854E-01</totfact>
</mgrwt>
</event>
<event>
 6    1  0.1934315E-005  0.2354776E+04  0.7818608E-02  0.8456631E-01
          2   -1    0    0  501    0  0.00000000000E+00  0.00000000000E+00  0.88374372171E+03  0.88374372171E+03  0.00000000000E+00 0.  1.
         -2   -1    0    0    0  501 -0.00000000000E+00 -0.00000000000E+00 -0.15686028685E+04  0.15686028685E+04  0.00000000000E+00 0. -1.
         23    2    1    2    0    0 -0.54161746408E+03  0.31657559620E+03 -0.13784096430E+04  0.15171557667E+04  0.90437221018E+02 0.  0.
         13    1    3    3    0    0 -0.22986986379E+03  0.18656762183E+03 -0.63903622053E+03  0.70428326896E+03  0.00000000000E+00 0. -1.
        -13    1    3    3    0    0 -0.31174760029E+03  0.13000797438E+03 -0.73937342251E+03  0.81287249775E+03  0.00000000000E+00 0.  1.
         22    1    1    2    0    0  0.54161746408E+03 -0.31657559620E+03  0.69355049625E+03  0.93519082350E+03  0.00000000000E+00 0.  1.
<mgrwt>
<rscale>  0 0.23547764E+04</rscale>
<asrwt>0</asrwt>
<pdfrwt beam="1">  1        2 0.13596057E+00 0.23547764E+04</pdfrwt>
<pdfrwt beam="2">  1       -2 0.24132351E+00 0.23547764E+04</pdfrwt>
<totfact> 0.19729930E+00</totfact>
</mgrwt>
</event>
<event>
 6    1  0.1934315E-005  0.1033849E+04  0.7818608E-02  0.9272179E-01
         -3   -1    0    0    0  501 -0.00000000000E+00  0.00000000000E+00  0.13758209798E+04  0.13758209798E+04  0.00000000000E+00 0. -1.
          3   -1    0    0  501    0  0.00000000000E+00 -0.00000000000E+00 -0.19421943248E+03  0.19421943248E+03  0.00000000000E+00 0.  1.
         23    2    1    2    0    0  0.27836700631E+03 -0.32617758543E+03  0.10226046388E+04  0.11127002496E+04  0.92204072046E+02 0.  0.
         13    1    3    3    0    0  0.21557909732E+03 -0.24601135768E+03  0.66836210860E+03  0.74411278951E+03  0.00000000000E+00 0.  1.
        -13    1    3    3    0    0  0.62787908982E+02 -0.80166227743E+02  0.35424253017E+03  0.36858746013E+03  0.00000000000E+00 0. -1.
         22    1    1    2    0    0 -0.27836700631E+03  0.32617758543E+03  0.15899690857E+03  0.45734016264E+03  0.00000000000E+00 0. -1.
<mgrwt>
<rscale>  0 0.10338494E+04</rscale>
<asrwt>0</asrwt>
<pdfrwt beam="1">  1        3 0.29879914E-01 0.10338494E+04</pdfrwt>
<pdfrwt beam="2">  1       -3 0.21166476E+00 0.10338494E+04</pdfrwt>
<totfact> 0.35464939E+00</totfact>
</mgrwt>
</event>
<event>
 6    1  0.1934315E-005  0.2444040E+04  0.7818608E-02  0.8423197E-01
         -2   -1    0    0    0  501 -0.00000000000E+00  0.00000000000E+00  0.78056302017E+03  0.78056302017E+03  0.00000000000E+00 0. -1.
          2   -1    0    0  501    0  0.00000000000E+00 -0.00000000000E+00 -0.19131485413E+04  0.19131485413E+04  0.00000000000E+00 0.  1.
         23    2    1    2    0    0 -0.77946136091E+02  0.81326563141E+03  0.43204077883E+03  0.92862458178E+03  0.90596864939E+02 0.  0.
         11    1    3    3    0    0 -0.40154710450E+02  0.58226484402E+03  0.35024141667E+03  0.68067157962E+03  0.00000000000E+00 0. -1.
        -11    1    3    3    0    0 -0.37791425641E+02  0.23100078739E+03  0.81799362165E+02  0.24795300215E+03  0.00000000000E+00 0.  1.
         22    1    1    2    0    0  0.77946136091E+02 -0.81326563141E+03 -0.15646263000E+04  0.17650869797E+04  0.00000000000E+00 0.  1.
<mgrwt>
<rscale>  0 0.24440401E+04</rscale>
<asrwt>0</asrwt>
<pdfrwt beam="1">  1        2 0.29433054E+00 0.24440401E+04</pdfrwt>
<pdfrwt beam="2">  1       -2 0.12008662E+00 0.24440401E+04</pdfrwt>
<totfact> 0.35462888E+00</totfact>
</mgrwt>
</event>
<event>
 6    1  0.1934315E-005  0.2400703E+04  0.7818608E-02  0.8439240E-01
          2   -1    0    0  501    0  0.00000000000E+00  0.00000000000E+00  0.24179211677E+04  0.24179211677E+04  0.00000000000E+00 0.  1.
         -2   -1    0    0    0  501 -0.00000000000E+00 -0.00000000000E+00 -0.59590203758E+03  0.59590203758E+03  0.00000000000E+00 0. -1.
         23    2    1    2    0    0 -0.68208940731E+03  0.97679162165E+03  0.74275825466E+03  0.14062872433E+04  0.81155124486E+02 0.  0.
         11    1    3    3    0    0 -0.48220337119E+03  0.75196608575E+03  0.55369914075E+03  0.10509785078E+04  0.00000000000E+00 0. -1.
        -11    1    3    3    0    0 -0.19988603612E+03  0.22482553589E+03  0.18905911391E+03  0.35530873558E+03  0.00000000000E+00 0.  1.
         22    1    1    2    0    0  0.68208940731E+03 -0.97679162165E+03  0.10792608755E+04  0.16075359620E+04  0.00000000000E+00 0.  1.
<mgrwt>
<rscale>  0 0.24007034E+04</rscale>
<asrwt>0</asrwt>
<pdfrwt beam="1">  1        2 0.37198787E+00 0.24007034E+04</pdfrwt>
<pdfrwt beam="2">  1       -2 0.91677238E-01 0.24007034E+04</pdfrwt>
<totfact> 0.35344848E+00</totfact>
</mgrwt>
</event>
<event>
 6    1  0.1934315E-005  0.4781750E+04  0.7818608E-02  0.7863085E-01
          2   -1    0    0  501    0  0.00000000000E+00  0.00000000000E+00  0.27602839863E+04  0.27602839863E+04  0.00000000000E+00 0.  1.
         -2   -1    0    0    0  501 -0.00000000000E+00 -0.00000000000E+00 -0.20709040953E+04  0.20709040953E+04  0.00000000000E+00 0. -1.
         23    2    1    2    0    0  0.12426919779E+04 -0.16726293146E+04  0.15274759724E+04  0.25852189774E+04  0.90565660892E+02 0.  0.
         13    1    3    3    0    0  0.85245180876E+03 -0.11374699835E+04  0.98968910997E+03  0.17320498215E+04  0.00000000000E+00 0. -1.
        -13    1    3    3    0    0  0.39024016910E+03 -0.53515933108E+03  0.53778686240E+03  0.85316915591E+03  0.00000000000E+00 0.  1.
         22    1    1    2    0    0 -0.12426919779E+04  0.16726293146E+04 -0.83809608138E+03  0.22459691043E+04  0.00000000000E+00 0. -1.
<mgrwt>
<rscale>  0 0.47817501E+04</rscale>
<asrwt>0</asrwt>
<pdfrwt beam="1">  1        2 0.42465908E+00 0.47817501E+04</pdfrwt>
<pdfrwt beam="2">  1       -2 0.31860063E+00 0.47817501E+04</pdfrwt>
<totfact> 0.44206196E-02</totfact>
</mgrwt>
</event>
<event>
 6    1  0.1934315E-005  0.1294639E+04  0.7818608E-02  0.9033827E-01
          2   -1    0    0  501    0  0.00000000000E+00  0.00000000000E+00  0.16227171814E+04  0.16227171814E+04  0.00000000000E+00 0.  1.
         -2   -1    0    0    0  501 -0.00000000000E+00 -0.00000000000E+00 -0.25822274179E+03  0.25822274179E+03  0.00000000000E+00 0. -1.
         23    2    1    2    0    0 -0.41720175920E+03  0.36595425852E+03  0.20947379935E+03  0.59951395707E+03  0.86936096651E+02 0.  0.
         13    1    3    3    0    0 -0.31257938009E+03  0.22332864481E+03  0.15704391597E+03  0.41502330536E+03  0.00000000000E+00 0.  1.
        -13    1    3    3    0    0 -0.10462237910E+03  0.14262561371E+03  0.52429883380E+02  0.18449065170E+03  0.00000000000E+00 0. -1.
         22    1    1    2    0    0  0.41720175920E+03 -0.36595425852E+03  0.11550206402E+04  0.12814259661E+04  0.00000000000E+00 0.  1.
<mgrwt>
<rscale>  0 0.12946389E+04</rscale>
<asrwt>0</asrwt>
<pdfrwt beam="1">  1        2 0.24964879E+00 0.12946389E+04</pdfrwt>
<pdfrwt beam="2">  1       -2 0.39726577E-01 0.12946389E+04</pdfrwt>
<totfact> 0.63637594E+01</totfact>
</mgrwt>
</event>
<event>
 6    1  0.1934315E-005  0.2110620E+04  0.7818608E-02  0.8556580E-01
         -2   -1    0    0    0  501 -0.00000000000E+00  0.00000000000E+00  0.59990511489E+03  0.59990511489E+03  0.00000000000E+00 0. -1.
          2   -1    0    0  501    0  0.00000000000E+00 -0.00000000000E+00 -0.18564253754E+04  0.18564253754E+04  0.00000000000E+00 0.  1.
         23    2    1    2    0    0  0.11143110584E+03 -0.42698285693E+03 -0.17424311233E+04  0.17999459856E+04  0.94910905485E+02 0.  0.
         11    1    3    3    0    0  0.51912992994E+02 -0.32403798022E+03 -0.11615540936E+04  0.12070225698E+04  0.00000000000E+00 0. -1.
        -11    1    3    3    0    0  0.59518112842E+02 -0.10294487671E+03 -0.58087702968E+03  0.59292341580E+03  0.00000000000E+00 0.  1.
         22    1    1    2    0    0 -0.11143110584E+03  0.42698285693E+03  0.48591086281E+03  0.65638450474E+03  0.00000000000E+00 0. -1.
<mgrwt>
<rscale>  0 0.21106199E+04</rscale>
<asrwt>0</asrwt>
<pdfrwt beam="1">  1        2 0.28560390E+00 0.21106199E+04</pdfrwt>
<pdfrwt beam="2">  1       -2 0.92293095E-01 0.21106199E+04</pdfrwt>
<totfact> 0.73695065E+00</totfact>
</mgrwt>
</event>
<event>
 6    1  0.1934315E-005  0.3050189E+04  0.7818608E-02  0.8229543E-01
         -2   -1    0    0    0  501 -0.00000000000E+00  0.00000000000E+00  0.85506081553E+03  0.85506081553E+03  0.00000000000E+00 0. -1.
          2   -1    0    0  501    0  0.00000000000E+00 -0.00000000000E+00 -0.27201728107E+04  0.27201728107E+04  0.00000000000E+00 0.  1.
         23    2    1    2    0    0 -0.83288975428E+03  0.36333479851E+02  0.56152289285E+03  0.10093843820E+04  0.92322298704E+02 0.  0.
         13    1    3    3    0    0 -0.51799362961E+03 -0.20156030401E+02  0.33074678844E+03  0.61491227337E+03  0.00000000000E+00 0. -1.
        -13    1    3    3    0    0 -0.31489612467E+03  0.56489510252E+02  0.23077610440E+03  0.39447210860E+03  0.00000000000E+00 0.  1.
         22    1    1    2    0    0  0.83288975428E+03 -0.36333479851E+02 -0.24266348880E+04  0.25658492442E+04  0.00000000000E+00 0.  1.
<mgrwt>
<rscale>  0 0.30501890E+04</rscale>
<asrwt>0</asrwt>
<pdfrwt beam="1">  1        2 0.41848812E+00 0.30501890E+04</pdfrwt>
<pdfrwt beam="2">  1       -2 0.13154782E+00 0.30501890E+04</pdfrwt>
<totfact> 0.92762150E-01</totfact>
</mgrwt>
</event>
<event>
 6    1  0.1934315E-005  0.3824900E+04  0.7818608E-02  0.8040832E-01
         -2   -1    0    0    0  501 -0.00000000000E+00  0.00000000000E+00  0.10808558358E+04  0.10808558358E+04  0.00000000000E+00 0. -1.
          2   -1    0    0  501    0  0.00000000000E+00 -0.00000000000E+00 -0.33838603186E+04  0.33838603186E+04  0.00000000000E+00 0.  1.
         23    2    1    2    0    0  0.11801708234E+04 -0.11624310166E+04 -0.39038062820E+02  0.16594366689E+04  0.90316372375E+02 0.  0.
         11    1    3    3    0    0  0.76689981341E+03 -0.79298144147E+03 -0.59113934698E+02  0.11047394931E+04  0.00000000000E+00 0. -1.
        -11    1    3    3    0    0  0.41327100997E+03 -0.36944957511E+03  0.20075871878E+02  0.55469717582E+03  0.00000000000E+00 0.  1.
         22    1    1    2    0    0 -0.11801708234E+04  0.11624310166E+04 -0.22639664201E+04  0.28052794855E+04  0.00000000000E+00 0.  1.
<mgrwt>
<rscale>  0 0.38249001E+04</rscale>
<asrwt>0</asrwt>
<pdfrwt beam="1">  1        2 0.52059389E+00 0.38249001E+04</pdfrwt>
<pdfrwt beam="2">  1       -2 0.16628551E+00 0.38249001E+04</pdfrwt>
<totfact> 0.17705781E-01</totfact>
</mgrwt>
</event>
<event>
 6    1  0.1934315E-005  0.3221482E+04  0.7818608E-02  0.8183167E-01
         -2   -1    0    0    0  501 -0.00000000000E+00  0.00000000000E+00  0.96087541014E+03  0.96087541014E+03  0.00000000000E+00 0. -1.
          2   -1    0    0  501    0  0.00000000000E+00 -0.00000000000E+00 -0.27001279141E+04  0.27001279141E+04  0.00000000000E+00 0.  1.
         23    2    1    2    0    0  0.96128677339E+03 -0.10373927381E+04 -0.17432494057E+04  0.22466936238E+04  0.91966270836E+02 0.  0.
         11    1    3    3    0    0  0.32907549457E+03 -0.34287825839E+03 -0.51929194124E+03  0.70393202899E+03  0.00000000000E+00 0. -1.
        -11    1    3    3    0    0  0.63221127882E+03 -0.69451447969E+03 -0.12239574645E+04  0.15427615948E+04  0.00000000000E+00 0.  1.
         22    1    1    2    0    0 -0.96128677339E+03  0.10373927381E+04  0.39969016852E+01  0.14143097005E+04  0.00000000000E+00 0.  1.
<mgrwt>
<rscale>  0 0.32214820E+04</rscale>
<asrwt>0</asrwt>
<pdfrwt beam="1">  1        2 0.41540429E+00 0.32214820E+04</pdfrwt>
<pdfrwt beam="2">  1       -2 0.14782699E+00 0.32214820E+04</pdfrwt>
<totfact> 0.69475634E-01</totfact>
</mgrwt>
</event>
<event>
 6    1  0.1934315E-005  0.1020632E+04  0.7818608E-02  0.9286201E-01
          2   -1    0    0  501    0  0.00000000000E+00  0.00000000000E+00  0.12269946278E+04  0.12269946278E+04  0.00000000000E+00 0.  1.
         -2   -1    0    0    0  501 -0.00000000000E+00 -0.00000000000E+00 -0.21224422253E+03  0.21224422253E+03  0.00000000000E+00 0. -1.
         23    2    1    2    0    0  0.46449207438E+03  0.15824444383E+03  0.68672665657E+03  0.84898994446E+03  0.91630965221E+02 0.  0.
         13    1    3    3    0    0  0.39184781762E+03  0.16703867561E+03  0.58176941197E+03  0.72104249530E+03  0.00000000000E+00 0. -1.
        -13    1    3    3    0    0  0.72644256753E+02 -0.87942317841E+01  0.10495724460E+03  0.12794744916E+03  0.00000000000E+00 0.  1.
         22    1    1    2    0    0 -0.46449207438E+03 -0.15824444383E+03  0.32802374867E+03  0.59024890584E+03  0.00000000000E+00 0. -1.
<mgrwt>
<rscale>  0 0.10206322E+04</rscale>
<asrwt>0</asrwt>
<pdfrwt beam="1">  1        2 0.18876840E+00 0.10206322E+04</pdfrwt>
<pdfrwt beam="2">  1       -2 0.32652958E-01 0.10206322E+04</pdfrwt>
<totfact> 0.15894691E+02</totfact>
</mgrwt>
</event>
<event>
 6    1  0.1934315E-005  0.1893190E+04  0.7818608E-02  0.8658254E-01
         -2   -1    0    0    0  501 -0.00000000000E+00  0.00000000000E+00  0.68808842247E+03  0.68808842247E+03  0.00000000000E+00 0. -1.
          2   -1    0    0  501    0  0.00000000000E+00 -0.00000000000E+00 -0.13022189693E+04  0.13022189693E+04  0.00000000000E+00 0.  1.
         23    2    1    2    0    0  0.21021499418E+03 -0.63515383542E+03  0.39012916590E+03  0.78359768805E+03  0.11922177739E+03 0.  0.
         11    1    3    3    0    0  0.12302066548E+03 -0.20861914774E+03  0.11076542860E+03  0.26631750433E+03  0.00000000000E+00 0. -1.
        -11    1    3    3    0    0  0.87194328698E+02 -0.42653468769E+03  0.27936373729E+03  0.51728018372E+03  0.00000000000E+00 0.  1.
         22    1    1    2    0    0 -0.21021499418E+03  0.63515383542E+03 -0.10042597127E+04  0.12067097037E+04  0.00000000000E+00 0.  1.
<mgrwt>
<rscale>  0 0.18931897E+04</rscale>
<asrwt>0</asrwt>
<pdfrwt beam="1">  1        2 0.20034138E+00 0.18931897E+04</pdfrwt>
<pdfrwt beam="2">  1       -2 0.10585976E+00 0.18931897E+04</pdfrwt>
<totfact> 0.11134828E+01</totfact>
</mgrwt>
</event>
<event>
 6    1  0.1934315E-005  0.2375617E+04  0.7818608E-02  0.8448689E-01
         -2   -1    0    0    0  501 -0.00000000000E+00  0.00000000000E+00  0.48589484169E+03  0.48589484169E+03  0.00000000000E+00 0. -1.
          2   -1    0    0  501    0  0.00000000000E+00 -0.00000000000E+00 -0.29036911363E+04  0.29036911363E+04  0.00000000000E+00 0.  1.
         23    2    1    2    0    0  0.15148843910E+03  0.62507923153E+03 -0.26325970816E+04  0.27114914633E+04  0.89139039246E+02 0.  0.
         11    1    3    3    0    0  0.75585375359E+02  0.33438715909E+03 -0.12170229622E+04  0.12643863380E+04  0.00000000000E+00 0.  1.
        -11    1    3    3    0    0  0.75903063739E+02  0.29069207244E+03 -0.14155741194E+04  0.14471051253E+04  0.00000000000E+00 0. -1.
         22    1    1    2    0    0 -0.15148843910E+03 -0.62507923153E+03  0.21480078697E+03  0.67809451477E+03  0.00000000000E+00 0. -1.
<mgrwt>
<rscale>  0 0.23756166E+04</rscale>
<asrwt>0</asrwt>
<pdfrwt beam="1">  1        2 0.44672170E+00 0.23756166E+04</pdfrwt>
<pdfrwt beam="2">  1       -2 0.74753054E-01 0.23756166E+04</pdfrwt>
<totfact> 0.28976280E+00</totfact>
</mgrwt>
</event>
<event>
 6    1  0.1934315E-005  0.2038526E+04  0.7818608E-02  0.8588818E-01
          2   -1    0    0  501    0  0.00000000000E+00  0.00000000000E+00  0.15448640738E+04  0.15448640738E+04  0.00000000000E+00 0.  1.
         -2   -1    0    0    0  501 -0.00000000000E+00 -0.00000000000E+00 -0.67248419919E+03  0.67248419919E+03  0.00000000000E+00 0. -1.
         23    2    1    2    0    0  0.92605383528E+03  0.33226349210E+03  0.71823250961E+03  0.12214887727E+04  0.90565722377E+02 0.  0.
         11    1    3    3    0    0  0.73044501602E+03  0.22763677254E+03  0.53239594245E+03  0.93210185129E+03  0.00000000000E+00 0. -1.
        -11    1    3    3    0    0  0.19560881926E+03  0.10462671955E+03  0.18583656715E+03  0.28938692146E+03  0.00000000000E+00 0.  1.
         22    1    1    2    0    0 -0.92605383528E+03 -0.33226349210E+03  0.15414736497E+03  0.99585950020E+03  0.00000000000E+00 0. -1.
<mgrwt>
<rscale>  0 0.20385256E+04</rscale>
<asrwt>0</asrwt>
<pdfrwt beam="1">  1        2 0.23767140E+00 0.20385256E+04</pdfrwt>
<pdfrwt beam="2">  1       -2 0.10345911E+00 0.20385256E+04</pdfrwt>
<totfact> 0.84483245E+00</totfact>
</mgrwt>
</event>
<event>
 6    1  0.1934315E-005  0.2851627E+04  0.7818608E-02  0.8287417E-01
          2   -1    0    0  501    0  0.00000000000E+00  0.00000000000E+00  0.13786980145E+04  0.13786980145E+04  0.00000000000E+00 0.  1.
         -2   -1    0    0    0  501 -0.00000000000E+00 -0.00000000000E+00 -0.14745395168E+04  0.14745395168E+04  0.00000000000E+00 0. -1.
         23    2    1    2    0    0  0.11504066896E+04  0.47946892998E+03 -0.73786333776E+03  0.14512681865E+04  0.91711709312E+02 0.  0.
         13    1    3    3    0    0  0.56795844751E+03  0.27228964679E+03 -0.33520137883E+03  0.71349731199E+03  0.00000000000E+00 0. -1.
        -13    1    3    3    0    0  0.58244824212E+03  0.20717928319E+03 -0.40266195893E+03  0.73777087453E+03  0.00000000000E+00 0.  1.
         22    1    1    2    0    0 -0.11504066896E+04 -0.47946892998E+03  0.64202183544E+03  0.14019693447E+04  0.00000000000E+00 0.  1.
<mgrwt>
<rscale>  0 0.28516274E+04</rscale>
<asrwt>0</asrwt>
<pdfrwt beam="1">  1        2 0.21210739E+00 0.28516274E+04</pdfrwt>
<pdfrwt beam="2">  1       -2 0.22685223E+00 0.28516274E+04</pdfrwt>
<totfact> 0.11539597E+00</totfact>
</mgrwt>
</event>
<event>
 6    1  0.1934315E-005  0.3952436E+04  0.7818608E-02  0.8014211E-01
         -1   -1    0    0    0  501 -0.00000000000E+00  0.00000000000E+00  0.13673285580E+04  0.13673285580E+04  0.00000000000E+00 0. -1.
          1   -1    0    0  501    0  0.00000000000E+00 -0.00000000000E+00 -0.28562545848E+04  0.28562545848E+04  0.00000000000E+00 0.  1.
         23    2    1    2    0    0  0.72406931831E+03  0.14605595288E+04  0.44706121070E+03  0.16926629349E+04  0.87940719274E+02 0.  0.
         13    1    3    3    0    0  0.48260477678E+03  0.10268428219E+04  0.27681863195E+03  0.11678793201E+04  0.00000000000E+00 0. -1.
        -13    1    3    3    0    0  0.24146454153E+03  0.43371670696E+03  0.17024257875E+03  0.52478361477E+03  0.00000000000E+00 0.  1.
         22    1    1    2    0    0 -0.72406931831E+03 -0.14605595288E+04 -0.19359872375E+04  0.25309202079E+04  0.00000000000E+00 0.  1.
<mgrwt>
<rscale>  0 0.39524364E+04</rscale>
<asrwt>0</asrwt>
<pdfrwt beam="1">  1        1 0.43942378E+00 0.39524364E+04</pdfrwt>
<pdfrwt beam="2">  1       -1 0.21035824E+00 0.39524364E+04</pdfrwt>
<totfact> 0.76272610E-02</totfact>
</mgrwt>
</event>
<event>
 6    1  0.1934315E-005  0.1415039E+04  0.7818608E-02  0.8943004E-01
          2   -1    0    0  501    0  0.00000000000E+00  0.00000000000E+00  0.15251556114E+04  0.15251556114E+04  0.00000000000E+00 0.  1.
         -2   -1    0    0    0  501 -0.00000000000E+00 -0.00000000000E+00 -0.32821843622E+03  0.32821843622E+03  0.00000000000E+00 0. -1.
         23    2    1    2    0    0 -0.28932794289E+03  0.22276127694E+03  0.13901580398E+04  0.14402547578E+04  0.91984491809E+02 0.  0.
         13    1    3    3    0    0 -0.19962696680E+03  0.12951261531E+03  0.10421405826E+04  0.10689627858E+04  0.00000000000E+00 0.  1.
        -13    1    3    3    0    0 -0.89700976089E+02  0.93248661625E+02  0.34801745721E+03  0.37129197208E+03  0.00000000000E+00 0. -1.
         22    1    1    2    0    0  0.28932794289E+03 -0.22276127694E+03 -0.19322086466E+03  0.41311928977E+03  0.00000000000E+00 0. -1.
<mgrwt>
<rscale>  0 0.14150395E+04</rscale>
<asrwt>0</asrwt>
<pdfrwt beam="1">  1        2 0.23463932E+00 0.14150395E+04</pdfrwt>
<pdfrwt beam="2">  1       -2 0.50495145E-01 0.14150395E+04</pdfrwt>
<totfact> 0.44290009E+01</totfact>
</mgrwt>
</event>
<event>
 6    1  0.1934315E-005  0.4921621E+04  0.7818608E-02  0.7840713E-01
          2   -1    0    0  501    0  0.00000000000E+00  0.00000000000E+00  0.35028351345E+04  0.35028351345E+04  0.00000000000E+00 0.  1.
         -2   -1    0    0    0  501 -0.00000000000E+00 -0.00000000000E+00 -0.17287676265E+04  0.17287676265E+04  0.00000000000E+00 0. -1.
         23    2    1    2    0    0  0.11651260910E+04 -0.21527080990E+04  0.11471002687E+04  0.27047947179E+04  0.91675907240E+02 0.  0.
         13    1    3    3    0    0  0.35780257683E+03 -0.73274197294E+03  0.35278801127E+03  0.88847783528E+03  0.00000000000E+00 0.  1.
        -13    1    3    3    0    0  0.80732351415E+03 -0.14199661261E+04  0.79431225743E+03  0.18163168826E+04  0.00000000000E+00 0. -1.
         22    1    1    2    0    0 -0.11651260910E+04  0.21527080990E+04  0.62696723934E+03  0.25268080431E+04  0.00000000000E+00 0. -1.
<mgrwt>
<rscale>  0 0.49216209E+04</rscale>
<asrwt>0</asrwt>
<pdfrwt beam="1">  1        2 0.53889771E+00 0.49216209E+04</pdfrwt>
<pdfrwt beam="2">  1       -2 0.26596425E+00 0.49216209E+04</pdfrwt>
<totfact> 0.30351802E-02</totfact>
</mgrwt>
</event>
<event>
 6    1  0.1934315E-005  0.2855751E+04  0.7818608E-02  0.8286166E-01
         -2   -1    0    0    0  501 -0.00000000000E+00  0.00000000000E+00  0.91263975890E+03  0.91263975890E+03  0.00000000000E+00 0. -1.
          2   -1    0    0  501    0  0.00000000000E+00 -0.00000000000E+00 -0.22339903908E+04  0.22339903908E+04  0.00000000000E+00 0.  1.
         23    2    1    2    0    0  0.58924031388E+03  0.30193991913E+03  0.73069422193E+03  0.99041588754E+03  0.92939346084E+02 0.  0.
         13    1    3    3    0    0  0.28469093929E+03  0.18250230819E+03  0.42040341837E+03  0.53953225815E+03  0.00000000000E+00 0. -1.
        -13    1    3    3    0    0  0.30454937460E+03  0.11943761094E+03  0.31029080356E+03  0.45088362939E+03  0.00000000000E+00 0.  1.
         22    1    1    2    0    0 -0.58924031388E+03 -0.30193991913E+03 -0.20520448538E+04  0.21562142622E+04  0.00000000000E+00 0.  1.
<mgrwt>
<rscale>  0 0.28557510E+04</rscale>
<asrwt>0</asrwt>
<pdfrwt beam="1">  1        2 0.34369083E+00 0.28557510E+04</pdfrwt>
<pdfrwt beam="2">  1       -2 0.14040612E+00 0.28557510E+04</pdfrwt>
<totfact> 0.15255138E+00</totfact>
</mgrwt>
</event>
<event>
 6    1  0.1934315E-005  0.5105986E+04  0.7818608E-02  0.7812363E-01
          2   -1    0    0  501    0  0.00000000000E+00  0.00000000000E+00  0.36920886561E+04  0.36920886561E+04  0.00000000000E+00 0.  1.
         -2   -1    0    0    0  501 -0.00000000000E+00 -0.00000000000E+00 -0.17653351859E+04  0.17653351859E+04  0.00000000000E+00 0. -1.
         23    2    1    2    0    0 -0.16860057801E+04 -0.41742333809E+03 -0.10350843261E+04  0.20238628821E+04  0.88111689964E+02 0.  0.
         13    1    3    3    0    0 -0.11624887638E+04 -0.31015924663E+03 -0.75639927458E+03  0.14211680924E+04  0.00000000000E+00 0.  1.
        -13    1    3    3    0    0 -0.52351701627E+03 -0.10726409146E+03 -0.27868505148E+03  0.60269478972E+03  0.00000000000E+00 0. -1.
         22    1    1    2    0    0  0.16860057801E+04  0.41742333809E+03  0.29618377962E+04  0.34335609598E+04  0.00000000000E+00 0.  1.
<mgrwt>
<rscale>  0 0.51059863E+04</rscale>
<asrwt>0</asrwt>
<pdfrwt beam="1">  1        2 0.56801364E+00 0.51059863E+04</pdfrwt>
<pdfrwt beam="2">  1       -2 0.27159003E+00 0.51059863E+04</pdfrwt>
<totfact> 0.20184185E-02</totfact>
</mgrwt>
</event>
<event>
 6    1  0.1934315E-005  0.3618008E+04  0.7818608E-02  0.8086379E-01
          2   -1    0    0  501    0  0.00000000000E+00  0.00000000000E+00  0.19063136767E+04  0.19063136767E+04  0.00000000000E+00 0.  1.
         -2   -1    0    0    0  501 -0.00000000000E+00 -0.00000000000E+00 -0.17166618389E+04  0.17166618389E+04  0.00000000000E+00 0. -1.
         23    2    1    2    0    0  0.34028084893E+03  0.90359293764E+03  0.16253693072E+04  0.18927859581E+04  0.92423186763E+02 0.  0.
         13    1    3    3    0    0  0.13967944554E+03  0.41262008383E+03  0.81865887155E+03  0.92734461181E+03  0.00000000000E+00 0.  1.
        -13    1    3    3    0    0  0.20060140339E+03  0.49097285381E+03  0.80671043564E+03  0.96544134632E+03  0.00000000000E+00 0. -1.
         22    1    1    2    0    0 -0.34028084893E+03 -0.90359293764E+03 -0.14357174694E+04  0.17301895575E+04  0.00000000000E+00 0. -1.
<mgrwt>
<rscale>  0 0.36180083E+04</rscale>
<asrwt>0</asrwt>
<pdfrwt beam="1">  1        2 0.29327903E+00 0.36180083E+04</pdfrwt>
<pdfrwt beam="2">  1       -2 0.26410182E+00 0.36180083E+04</pdfrwt>
<totfact> 0.32283804E-01</totfact>
</mgrwt>
</event>
<event>
 6    1  0.1934315E-005  0.3405492E+04  0.7818608E-02  0.8136560E-01
          2   -1    0    0  501    0  0.00000000000E+00  0.00000000000E+00  0.23295067136E+04  0.23295067136E+04  0.00000000000E+00 0.  1.
         -2   -1    0    0    0  501 -0.00000000000E+00 -0.00000000000E+00 -0.12446170504E+04  0.12446170504E+04  0.00000000000E+00 0. -1.
         23    2    1    2    0    0 -0.68557806412E+03 -0.19379763698E+03 -0.10785744754E+04  0.12963722663E+04  0.98404002694E+02 0.  0.
         13    1    3    3    0    0 -0.54724270509E+03 -0.11736563100E+03 -0.80542877201E+03  0.98079803038E+03  0.00000000000E+00 0.  1.
        -13    1    3    3    0    0 -0.13833535903E+03 -0.76432005983E+02 -0.27314570342E+03  0.31557423595E+03  0.00000000000E+00 0. -1.
         22    1    1    2    0    0  0.68557806412E+03  0.19379763698E+03  0.21634641386E+04  0.22777514977E+04  0.00000000000E+00 0.  1.
<mgrwt>
<rscale>  0 0.34054919E+04</rscale>
<asrwt>0</asrwt>
<pdfrwt beam="1">  1        2 0.35838565E+00 0.34054919E+04</pdfrwt>
<pdfrwt beam="2">  1       -2 0.19147955E+00 0.34054919E+04</pdfrwt>
<totfact> 0.54718671E-01</totfact>
</mgrwt>
</event>
<event>
 6    1  0.1934315E-005  0.3107659E+04  0.7818608E-02  0.8213639E-01
          2   -1    0    0  501    0  0.00000000000E+00  0.00000000000E+00  0.16144072826E+04  0.16144072826E+04  0.00000000000E+00 0.  1.
         -2   -1    0    0    0  501 -0.00000000000E+00 -0.00000000000E+00 -0.14955244910E+04  0.14955244910E+04  0.00000000000E+00 0. -1.
         23    2    1    2    0    0  0.70988348313E+03  0.13716168299E+04  0.21776908800E+03  0.15623382264E+04  0.90609437813E+02 0.  0.
         11    1    3    3    0    0  0.64190058241E+02  0.17851786640E+03  0.42911988656E+02  0.19450046522E+03  0.00000000000E+00 0.  1.
        -11    1    3    3    0    0  0.64569342489E+03  0.11930989635E+04  0.17485709934E+03  0.13678377612E+04  0.00000000000E+00 0. -1.
         22    1    1    2    0    0 -0.70988348313E+03 -0.13716168299E+04 -0.98886296350E+02  0.15475935472E+04  0.00000000000E+00 0.  1.
<mgrwt>
<rscale>  0 0.31076587E+04</rscale>
<asrwt>0</asrwt>
<pdfrwt beam="1">  1        2 0.24837035E+00 0.31076587E+04</pdfrwt>
<pdfrwt beam="2">  1       -2 0.23008069E+00 0.31076587E+04</pdfrwt>
<totfact> 0.79325462E-01</totfact>
</mgrwt>
</event>
<event>
 6    1  0.1934315E-005  0.4274311E+04  0.7818608E-02  0.7951385E-01
         -2   -1    0    0    0  501 -0.00000000000E+00  0.00000000000E+00  0.13171127901E+04  0.13171127901E+04  0.00000000000E+00 0. -1.
          2   -1    0    0  501    0  0.00000000000E+00 -0.00000000000E+00 -0.34677625947E+04  0.34677625947E+04  0.00000000000E+00 0.  1.
         23    2    1    2    0    0  0.18131334361E+04 -0.10446607680E+04 -0.15567797778E+04  0.26096856032E+04  0.90148176281E+02 0.  0.
         11    1    3    3    0    0  0.15956255050E+04 -0.88879248328E+03 -0.13398073391E+04  0.22651835547E+04  0.00000000000E+00 0.  1.
        -11    1    3    3    0    0  0.21750793112E+03 -0.15586828470E+03 -0.21697243872E+03  0.34450204853E+03  0.00000000000E+00 0. -1.
         22    1    1    2    0    0 -0.18131334361E+04  0.10446607680E+04 -0.59387002676E+03  0.21751897816E+04  0.00000000000E+00 0.  1.
<mgrwt>
<rscale>  0 0.42743114E+04</rscale>
<asrwt>0</asrwt>
<pdfrwt beam="1">  1        2 0.53350193E+00 0.42743114E+04</pdfrwt>
<pdfrwt beam="2">  1       -2 0.20263274E+00 0.42743114E+04</pdfrwt>
<totfact> 0.84298174E-02</totfact>
</mgrwt>
</event>
<event>
 6    1  0.1934315E-005  0.1974925E+04  0.7818608E-02  0.8618435E-01
          2   -1    0    0  501    0  0.00000000000E+00  0.00000000000E+00  0.27980036678E+04  0.27980036678E+04  0.00000000000E+00 0.  1.
         -2   -1    0    0    0  501 -0.00000000000E+00 -0.00000000000E+00 -0.34849194084E+03  0.34849194084E+03  0.00000000000E+00 0. -1.
         23    2    1    2    0    0  0.32582264010E+03  0.65895527772E+03  0.22728301710E+04  0.23904540601E+04  0.90173035394E+02 0.  0.
         11    1    3    3    0    0  0.12938985519E+03  0.32460248062E+03  0.11919419582E+04  0.12421087459E+04  0.00000000000E+00 0. -1.
        -11    1    3    3    0    0  0.19643278491E+03  0.33435279710E+03  0.10808882129E+04  0.11483453142E+04  0.00000000000E+00 0.  1.
         22    1    1    2    0    0 -0.32582264010E+03 -0.65895527772E+03  0.17668155587E+03  0.75604154848E+03  0.00000000000E+00 0. -1.
<mgrwt>
<rscale>  0 0.19749245E+04</rscale>
<asrwt>0</asrwt>
<pdfrwt beam="1">  1        2 0.43046209E+00 0.19749245E+04</pdfrwt>
<pdfrwt beam="2">  1       -2 0.53614147E-01 0.19749245E+04</pdfrwt>
<totfact> 0.70881090E+00</totfact>
</mgrwt>
</event>
<event>
 6    1  0.1934315E-005  0.1461051E+04  0.7818608E-02  0.8910775E-01
          2   -1    0    0  501    0  0.00000000000E+00  0.00000000000E+00  0.52774552727E+03  0.52774552727E+03  0.00000000000E+00 0.  1.
         -2   -1    0    0    0  501 -0.00000000000E+00 -0.00000000000E+00 -0.10112216650E+04  0.10112216650E+04  0.00000000000E+00 0. -1.
         23    2    1    2    0    0  0.42881915454E+03 -0.35928503546E+03  0.24748010870E+03  0.61849522735E+03  0.91204923348E+02 0.  0.
         13    1    3    3    0    0  0.26821216014E+03 -0.19362696267E+03  0.10388562990E+03  0.34672955977E+03  0.00000000000E+00 0.  1.
        -13    1    3    3    0    0  0.16060699440E+03 -0.16565807279E+03  0.14359447880E+03  0.27176566758E+03  0.00000000000E+00 0. -1.
         22    1    1    2    0    0 -0.42881915454E+03  0.35928503546E+03 -0.73095624645E+03  0.92047196493E+03  0.00000000000E+00 0. -1.
<mgrwt>
<rscale>  0 0.14610513E+04</rscale>
<asrwt>0</asrwt>
<pdfrwt beam="1">  1        2 0.81191621E-01 0.14610513E+04</pdfrwt>
<pdfrwt beam="2">  1       -2 0.15557256E+00 0.14610513E+04</pdfrwt>
<totfact> 0.15211126E+01</totfact>
</mgrwt>
</event>
<event>
 6    1  0.1934315E-005  0.1614843E+04  0.7818608E-02  0.8811481E-01
          2   -1    0    0  501    0  0.00000000000E+00  0.00000000000E+00  0.46646362055E+03  0.46646362055E+03  0.00000000000E+00 0.  1.
         -2   -1    0    0    0  501 -0.00000000000E+00 -0.00000000000E+00 -0.13975990242E+04  0.13975990242E+04  0.00000000000E+00 0. -1.
         23    2    1    2    0    0  0.73185005508E+02 -0.64893802691E+03 -0.10101330811E+04  0.12062501784E+04  0.90520956063E+02 0.  0.
         11    1    3    3    0    0 -0.43655787360E+01 -0.27817423581E+03 -0.37854259215E+03  0.46978128721E+03  0.00000000000E+00 0. -1.
        -11    1    3    3    0    0  0.77550584244E+02 -0.37076379110E+03 -0.63159048897E+03  0.73646889117E+03  0.00000000000E+00 0.  1.
         22    1    1    2    0    0 -0.73185005508E+02  0.64893802691E+03  0.78997677503E+02  0.65781246632E+03  0.00000000000E+00 0.  1.
<mgrwt>
<rscale>  0 0.16148425E+04</rscale>
<asrwt>0</asrwt>
<pdfrwt beam="1">  1        2 0.71763635E-01 0.16148425E+04</pdfrwt>
<pdfrwt beam="2">  1       -2 0.21501523E+00 0.16148425E+04</pdfrwt>
<totfact> 0.67913555E+00</totfact>
</mgrwt>
</event>
<event>
 6    1  0.1934315E-005  0.1652466E+04  0.7818608E-02  0.8788949E-01
         -2   -1    0    0    0  501 -0.00000000000E+00  0.00000000000E+00  0.28061122203E+04  0.28061122203E+04  0.00000000000E+00 0. -1.
          2   -1    0    0  501    0  0.00000000000E+00 -0.00000000000E+00 -0.24327640130E+03  0.24327640130E+03  0.00000000000E+00 0.  1.
         23    2    1    2    0    0 -0.18662594595E+03 -0.18242638249E+03  0.27270909377E+04  0.27410245952E+04  0.89901168426E+02 0.  0.
         13    1    3    3    0    0 -0.56292015379E+02 -0.90052725830E+02  0.14686587637E+04  0.14724934120E+04  0.00000000000E+00 0. -1.
        -13    1    3    3    0    0 -0.13033393057E+03 -0.92373656659E+02  0.12584321741E+04  0.12685311832E+04  0.00000000000E+00 0.  1.
         22    1    1    2    0    0  0.18662594595E+03  0.18242638249E+03 -0.16425511876E+03  0.30836402638E+03  0.00000000000E+00 0.  1.
<mgrwt>
<rscale>  0 0.16524659E+04</rscale>
<asrwt>0</asrwt>
<pdfrwt beam="1">  1        2 0.37427141E-01 0.16524659E+04</pdfrwt>
<pdfrwt beam="2">  1       -2 0.43170955E+00 0.16524659E+04</pdfrwt>
<totfact> 0.61194404E-01</totfact>
</mgrwt>
</event>
<event>
 6    1  0.1934315E-005  0.5076874E+04  0.7818608E-02  0.7816757E-01
         -2   -1    0    0    0  501 -0.00000000000E+00  0.00000000000E+00  0.35453824972E+04  0.35453824972E+04  0.00000000000E+00 0. -1.
          2   -1    0    0  501    0  0.00000000000E+00 -0.00000000000E+00 -0.18174798698E+04  0.18174798698E+04  0.00000000000E+00 0.  1.
         23    2    1    2    0    0  0.71473206997E+03 -0.17383438032E+04 -0.93695081977E+03  0.21018617530E+04  0.85234265517E+02 0.  0.
         13    1    3    3    0    0  0.19518751406E+03 -0.46860167024E+03 -0.21128308546E+03  0.54984200748E+03  0.00000000000E+00 0. -1.
        -13    1    3    3    0    0  0.51954455591E+03 -0.12697421330E+04 -0.72566773431E+03  0.15520197455E+04  0.00000000000E+00 0.  1.
         22    1    1    2    0    0 -0.71473206997E+03  0.17383438032E+04  0.26648534471E+04  0.32610006140E+04  0.00000000000E+00 0. -1.
<mgrwt>
<rscale>  0 0.50768736E+04</rscale>
<asrwt>0</asrwt>
<pdfrwt beam="1">  1        2 0.27961229E+00 0.50768736E+04</pdfrwt>
<pdfrwt beam="2">  1       -2 0.54544346E+00 0.50768736E+04</pdfrwt>
<totfact> 0.55635623E-03</totfact>
</mgrwt>
</event>
<event>
 6    1  0.1934315E-005  0.2879769E+04  0.7818608E-02  0.8278922E-01
         -2   -1    0    0    0  501 -0.00000000000E+00  0.00000000000E+00  0.23499102020E+04  0.23499102020E+04  0.00000000000E+00 0. -1.
          2   -1    0    0  501    0  0.00000000000E+00 -0.00000000000E+00 -0.88227519245E+03  0.88227519245E+03  0.00000000000E+00 0.  1.
         23    2    1    2    0    0  0.35796257629E+03 -0.14919744878E+01  0.22982741171E+04  0.23276961689E+04  0.89253043325E+02 0.  0.
         11    1    3    3    0    0  0.88983719223E+02 -0.27418712165E+02  0.42880526471E+03  0.43879818038E+03  0.00000000000E+00 0. -1.
        -11    1    3    3    0    0  0.26897885707E+03  0.25926737677E+02  0.18694688523E+04  0.18888979885E+04  0.00000000000E+00 0.  1.
         22    1    1    2    0    0 -0.35796257629E+03  0.14919744878E+01 -0.83063910755E+03  0.90448922547E+03  0.00000000000E+00 0.  1.
<mgrwt>
<rscale>  0 0.28797691E+04</rscale>
<asrwt>0</asrwt>
<pdfrwt beam="1">  1        2 0.13573465E+00 0.28797691E+04</pdfrwt>
<pdfrwt beam="2">  1       -2 0.36152464E+00 0.28797691E+04</pdfrwt>
<totfact> 0.34267474E-01</totfact>
</mgrwt>
</event>
<event>
 6    1  0.1934315E-005  0.6621406E+03  0.7818608E-02  0.9784261E-01
          2   -1    0    0  501    0  0.00000000000E+00  0.00000000000E+00  0.10861495768E+04  0.10861495768E+04  0.00000000000E+00 0.  1.
         -2   -1    0    0    0  501 -0.00000000000E+00 -0.00000000000E+00 -0.10091384653E+03  0.10091384653E+03  0.00000000000E+00 0. -1.
         23    2    1    2    0    0 -0.83670065176E+02 -0.27411684444E+03  0.77555134798E+03  0.83194616891E+03  0.92270311582E+02 0.  0.
         11    1    3    3    0    0 -0.96428872216E+02 -0.26366987709E+03  0.69199241414E+03  0.74677562408E+03  0.00000000000E+00 0. -1.
        -11    1    3    3    0    0  0.12758807040E+02 -0.10446967357E+02  0.83558933832E+02  0.85170544833E+02  0.00000000000E+00 0.  1.
         22    1    1    2    0    0  0.83670065176E+02  0.27411684444E+03  0.20968438231E+03  0.35511725444E+03  0.00000000000E+00 0. -1.
<mgrwt>
<rscale>  0 0.66214056E+03</rscale>
<asrwt>0</asrwt>
<pdfrwt beam="1">  1        2 0.16709993E+00 0.66214056E+03</pdfrwt>
<pdfrwt beam="2">  1       -2 0.15525208E-01 0.66214056E+03</pdfrwt>
<totfact> 0.74074722E+02</totfact>
</mgrwt>
</event>
<event>
 6    1  0.1934315E-005  0.4143268E+03  0.7818608E-02  0.1038929E+00
          3   -1    0    0  501    0  0.00000000000E+00  0.00000000000E+00  0.22111172882E+03  0.22111172882E+03  0.00000000000E+00 0.  1.
         -3   -1    0    0    0  501 -0.00000000000E+00 -0.00000000000E+00 -0.19409500930E+03  0.19409500930E+03  0.00000000000E+00 0. -1.
         23    2    1    2    0    0 -0.63437848821E+02  0.20333064893E+02 -0.17205580644E+03  0.20528374085E+03  0.90002330730E+02 0.  0.
         13    1    3    3    0    0 -0.35004390894E+01 -0.26686258777E+02 -0.87153683959E+02  0.91214988401E+02  0.00000000000E+00 0. -1.
        -13    1    3    3    0    0 -0.59937409731E+02  0.47019323669E+02 -0.84902122485E+02  0.11406875245E+03  0.00000000000E+00 0.  1.
         22    1    1    2    0    0  0.63437848821E+02 -0.20333064893E+02  0.19907252596E+03  0.20992299727E+03  0.00000000000E+00 0.  1.
<mgrwt>
<rscale>  0 0.41432684E+03</rscale>
<asrwt>0</asrwt>
<pdfrwt beam="1">  1        3 0.34017189E-01 0.41432684E+03</pdfrwt>
<pdfrwt beam="2">  1       -3 0.29860771E-01 0.41432684E+03</pdfrwt>
<totfact> 0.23954377E+02</totfact>
</mgrwt>
</event>
<event>
 6    1  0.1934315E-005  0.2664657E+04  0.7818608E-02  0.8346564E-01
         -2   -1    0    0    0  501 -0.00000000000E+00  0.00000000000E+00  0.24685156526E+04  0.24685156526E+04  0.00000000000E+00 0. -1.
          2   -1    0    0  501    0  0.00000000000E+00 -0.00000000000E+00 -0.71909583577E+03  0.71909583577E+03  0.00000000000E+00 0.  1.
         23    2    1    2    0    0  0.15345501685E+03 -0.13206877299E+04  0.81312477508E+03  0.15614463900E+04  0.95804002794E+02 0.  0.
         13    1    3    3    0    0  0.88102033177E+02 -0.92913406233E+03  0.52392921851E+03  0.10703055171E+04  0.00000000000E+00 0.  1.
        -13    1    3    3    0    0  0.65352983671E+02 -0.39155366754E+03  0.28919555657E+03  0.49114087284E+03  0.00000000000E+00 0. -1.
         22    1    1    2    0    0 -0.15345501685E+03  0.13206877299E+04  0.93629504179E+03  0.16261650984E+04  0.00000000000E+00 0.  1.
<mgrwt>
<rscale>  0 0.26646571E+04</rscale>
<asrwt>0</asrwt>
<pdfrwt beam="1">  1        2 0.11063013E+00 0.26646571E+04</pdfrwt>
<pdfrwt beam="2">  1       -2 0.37977163E+00 0.26646571E+04</pdfrwt>
<totfact> 0.34996701E-01</totfact>
</mgrwt>
</event>
<event>
 6    1  0.1934315E-005  0.3009717E+04  0.7818608E-02  0.8240962E-01
         -2   -1    0    0    0  501 -0.00000000000E+00  0.00000000000E+00  0.11862498751E+04  0.11862498751E+04  0.00000000000E+00 0. -1.
          2   -1    0    0  501    0  0.00000000000E+00 -0.00000000000E+00 -0.19090402556E+04  0.19090402556E+04  0.00000000000E+00 0.  1.
         23    2    1    2    0    0  0.11512601269E+04 -0.69632126746E+03  0.32797271510E+03  0.13881386230E+04  0.95391548415E+02 0.  0.
         11    1    3    3    0    0  0.41517411501E+03 -0.20605069665E+03  0.13733006916E+03  0.48341078108E+03  0.00000000000E+00 0. -1.
        -11    1    3    3    0    0  0.73608601184E+03 -0.49027057081E+03  0.19064264594E+03  0.90472784189E+03  0.00000000000E+00 0.  1.
         22    1    1    2    0    0 -0.11512601269E+04  0.69632126746E+03 -0.10507630957E+04  0.17071515077E+04  0.00000000000E+00 0.  1.
<mgrwt>
<rscale>  0 0.30097168E+04</rscale>
<asrwt>0</asrwt>
<pdfrwt beam="1">  1        2 0.29369850E+00 0.30097168E+04</pdfrwt>
<pdfrwt beam="2">  1       -2 0.18249998E+00 0.30097168E+04</pdfrwt>
<totfact> 0.11190363E+00</totfact>
</mgrwt>
</event>
<event>
 6    1  0.1934315E-005  0.1560889E+04  0.7818608E-02  0.8844943E-01
         -2   -1    0    0    0  501 -0.00000000000E+00  0.00000000000E+00  0.12719332379E+03  0.12719332379E+03  0.00000000000E+00 0. -1.
          2   -1    0    0  501    0  0.00000000000E+00 -0.00000000000E+00 -0.47887201815E+04  0.47887201815E+04  0.00000000000E+00 0.  1.
         23    2    1    2    0    0 -0.57235120777E+03 -0.52012021644E+03 -0.20774297620E+04  0.22185687471E+04  0.90674830619E+02 0.  0.
         13    1    3    3    0    0 -0.31588274838E+03 -0.25445409089E+03 -0.11961755177E+04  0.12630774577E+04  0.00000000000E+00 0.  1.
        -13    1    3    3    0    0 -0.25646845939E+03 -0.26566612554E+03 -0.88125424437E+03  0.95549128941E+03  0.00000000000E+00 0. -1.
         22    1    1    2    0    0  0.57235120777E+03  0.52012021644E+03 -0.25840970957E+04  0.26973447582E+04  0.00000000000E+00 0.  1.
<mgrwt>
<rscale>  0 0.15608885E+04</rscale>
<asrwt>0</asrwt>
<pdfrwt beam="1">  1        2 0.73672612E+00 0.15608885E+04</pdfrwt>
<pdfrwt beam="2">  1       -2 0.19568205E-01 0.15608885E+04</pdfrwt>
<totfact> 0.13635611E+00</totfact>
</mgrwt>
</event>
<event>
 6    1  0.1934315E-005  0.3755470E+04  0.7818608E-02  0.8055779E-01
          2   -1    0    0  501    0  0.00000000000E+00  0.00000000000E+00  0.44520612264E+04  0.44520612264E+04  0.00000000000E+00 0.  1.
         -2   -1    0    0    0  501 -0.00000000000E+00 -0.00000000000E+00 -0.79196771941E+03  0.79196771941E+03  0.00000000000E+00 0. -1.
         23    2    1    2    0    0  0.58473626645E+03 -0.17626581637E+04  0.22092275941E+04  0.28873592191E+04  0.85301783109E+02 0.  0.
         13    1    3    3    0    0  0.38811372675E+03 -0.12616215080E+04  0.15288639899E+04  0.20198381604E+04  0.00000000000E+00 0.  1.
        -13    1    3    3    0    0  0.19662253970E+03 -0.50103665573E+03  0.68036360416E+03  0.86752105874E+03  0.00000000000E+00 0. -1.
         22    1    1    2    0    0 -0.58473626645E+03  0.17626581637E+04  0.14508659129E+04  0.23566697267E+04  0.00000000000E+00 0.  1.
<mgrwt>
<rscale>  0 0.37554700E+04</rscale>
<asrwt>0</asrwt>
<pdfrwt beam="1">  1        2 0.68493248E+00 0.37554700E+04</pdfrwt>
<pdfrwt beam="2">  1       -2 0.12184119E+00 0.37554700E+04</pdfrwt>
<totfact> 0.56025839E-02</totfact>
</mgrwt>
</event>
<event>
 6    1  0.1934315E-005  0.4723483E+04  0.7818608E-02  0.7872638E-01
         -2   -1    0    0    0  501 -0.00000000000E+00  0.00000000000E+00  0.31160422798E+04  0.31160422798E+04  0.00000000000E+00 0. -1.
          2   -1    0    0  501    0  0.00000000000E+00 -0.00000000000E+00 -0.17900347741E+04  0.17900347741E+04  0.00000000000E+00 0.  1.
         23    2    1    2    0    0 -0.15498286593E+04  0.25585668032E+03  0.24938108348E+04  0.29487329019E+04  0.92204840660E+02 0.  0.
         13    1    3    3    0    0 -0.30811949245E+03  0.85034433936E+02  0.53610689431E+03  0.62416270211E+03  0.00000000000E+00 0. -1.
        -13    1    3    3    0    0 -0.12417091669E+04  0.17082224638E+03  0.19577039405E+04  0.23245701998E+04  0.00000000000E+00 0.  1.
         22    1    1    2    0    0  0.15498286593E+04 -0.25585668032E+03 -0.11678033291E+04  0.19573441520E+04  0.00000000000E+00 0.  1.
<mgrwt>
<rscale>  0 0.47234835E+04</rscale>
<asrwt>0</asrwt>
<pdfrwt beam="1">  1        2 0.27538997E+00 0.47234835E+04</pdfrwt>
<pdfrwt beam="2">  1       -2 0.47939112E+00 0.47234835E+04</pdfrwt>
<totfact> 0.14546199E-02</totfact>
</mgrwt>
</event>
<event>
 6    1  0.1934315E-005  0.3035387E+04  0.7818608E-02  0.8233698E-01
         -2   -1    0    0    0  501 -0.00000000000E+00  0.00000000000E+00  0.94893308282E+03  0.94893308282E+03  0.00000000000E+00 0. -1.
          2   -1    0    0  501    0  0.00000000000E+00 -0.00000000000E+00 -0.24273504854E+04  0.24273504854E+04  0.00000000000E+00 0.  1.
         23    2    1    2    0    0 -0.28554810578E+03  0.76307190248E+03 -0.21622900076E+04  0.23125645316E+04  0.92952605660E+02 0.  0.
         11    1    3    3    0    0 -0.57763461579E+02  0.25685744333E+03 -0.76588153651E+03  0.80986844096E+03  0.00000000000E+00 0. -1.
        -11    1    3    3    0    0 -0.22778464420E+03  0.50621445915E+03 -0.13964084711E+04  0.15026960906E+04  0.00000000000E+00 0.  1.
         22    1    1    2    0    0  0.28554810578E+03 -0.76307190248E+03  0.68387260498E+03  0.10637190366E+04  0.00000000000E+00 0. -1.
<mgrwt>
<rscale>  0 0.30353867E+04</rscale>
<asrwt>0</asrwt>
<pdfrwt beam="1">  1        2 0.37343853E+00 0.30353867E+04</pdfrwt>
<pdfrwt beam="2">  1       -2 0.14598971E+00 0.30353867E+04</pdfrwt>
<totfact> 0.10532001E+00</totfact>
</mgrwt>
</event>
<event>
 6    1  0.1934315E-005  0.8320023E+03  0.7818608E-02  0.9514816E-01
          4   -1    0    0  501    0  0.00000000000E+00  0.00000000000E+00  0.11248811901E+04  0.11248811901E+04  0.00000000000E+00 0.  1.
         -4   -1    0    0    0  501 -0.00000000000E+00 -0.00000000000E+00 -0.15384465715E+03  0.15384465715E+03  0.00000000000E+00 0. -1.
         23    2    1    2    0    0 -0.36564036895E+03 -0.26999820524E+02  0.77721229627E+03  0.86400943280E+03  0.89618507004E+02 0.  0.
         13    1    3    3    0    0 -0.18701498423E+03 -0.39791505408E+02  0.31722560859E+03  0.37039175879E+03  0.00000000000E+00 0.  1.
        -13    1    3    3    0    0 -0.17862538471E+03  0.12791684884E+02  0.45998668767E+03  0.49361767402E+03  0.00000000000E+00 0. -1.
         22    1    1    2    0    0  0.36564036895E+03  0.26999820524E+02  0.19382423673E+03  0.41471641450E+03  0.00000000000E+00 0. -1.
<mgrwt>
<rscale>  0 0.83200231E+03</rscale>
<asrwt>0</asrwt>
<pdfrwt beam="1">  1        4 0.17305864E+00 0.83200231E+03</pdfrwt>
<pdfrwt beam="2">  1       -4 0.23668410E-01 0.83200231E+03</pdfrwt>
<totfact> 0.67944095E+00</totfact>
</mgrwt>
</event>
<event>
 6    1  0.1934315E-005  0.1282808E+04  0.7818608E-02  0.9043311E-01
          1   -1    0    0  501    0  0.00000000000E+00  0.00000000000E+00  0.10850692249E+04  0.10850692249E+04  0.00000000000E+00 0.  1.
         -1   -1    0    0    0  501 -0.00000000000E+00 -0.00000000000E+00 -0.37914529149E+03  0.37914529149E+03  0.00000000000E+00 0. -1.
         23    2    1    2    0    0 -0.12202150317E+03 -0.41928668668E+03 -0.17643187992E+03  0.47971344773E+03  0.91138415733E+02 0.  0.
         11    1    3    3    0    0 -0.38149581928E+02 -0.27741258876E+03 -0.12831031928E+03  0.30802057242E+03  0.00000000000E+00 0. -1.
        -11    1    3    3    0    0 -0.83871921242E+02 -0.14187409792E+03 -0.48121560637E+02  0.17169287531E+03  0.00000000000E+00 0.  1.
         22    1    1    2    0    0  0.12202150317E+03  0.41928668668E+03  0.88235581332E+03  0.98450106865E+03  0.00000000000E+00 0.  1.
<mgrwt>
<rscale>  0 0.12828077E+04</rscale>
<asrwt>0</asrwt>
<pdfrwt beam="1">  1        1 0.16693373E+00 0.12828077E+04</pdfrwt>
<pdfrwt beam="2">  1       -1 0.58330045E-01 0.12828077E+04</pdfrwt>
<totfact> 0.38122434E+01</totfact>
</mgrwt>
</event>
<event>
 6    1  0.1934315E-005  0.2074725E+04  0.7818608E-02  0.8572460E-01
         -2   -1    0    0    0  501 -0.00000000000E+00  0.00000000000E+00  0.82385681946E+03  0.82385681946E+03  0.00000000000E+00 0. -1.
          2   -1    0    0  501    0  0.00000000000E+00 -0.00000000000E+00 -0.13061989999E+04  0.13061989999E+04  0.00000000000E+00 0.  1.
         23    2    1    2    0    0 -0.80193995332E+03  0.63383325348E+03 -0.72137740947E+02  0.10286385669E+04  0.89672546734E+02 0.  0.
         13    1    3    3    0    0 -0.61262059538E+03  0.52761167869E+03 -0.43471355337E+02  0.80967143714E+03  0.00000000000E+00 0.  1.
        -13    1    3    3    0    0 -0.18931935794E+03  0.10622157479E+03 -0.28666385611E+02  0.21896712974E+03  0.00000000000E+00 0. -1.
         22    1    1    2    0    0  0.80193995332E+03 -0.63383325348E+03 -0.41020443953E+03  0.11014172525E+04  0.00000000000E+00 0.  1.
<mgrwt>
<rscale>  0 0.20747250E+04</rscale>
<asrwt>0</asrwt>
<pdfrwt beam="1">  1        2 0.20095369E+00 0.20747250E+04</pdfrwt>
<pdfrwt beam="2">  1       -2 0.12674720E+00 0.20747250E+04</pdfrwt>
<totfact> 0.70110788E+00</totfact>
</mgrwt>
</event>
<event>
 6    1  0.1934315E-005  0.8376263E+03  0.7818608E-02  0.9507097E-01
          1   -1    0    0  501    0  0.00000000000E+00  0.00000000000E+00  0.76669020604E+03  0.76669020604E+03  0.00000000000E+00 0. -1.
         -1   -1    0    0    0  501 -0.00000000000E+00 -0.00000000000E+00 -0.22878140873E+03  0.22878140873E+03  0.00000000000E+00 0.  1.
         23    2    1    2    0    0  0.66762290106E+02 -0.36417507239E+03  0.53409422227E+02  0.38570089458E+03  0.93978332457E+02 0.  0.
         11    1    3    3    0    0  0.63735650755E+02 -0.17646292983E+03 -0.90731864735E+01  0.18783961642E+03  0.00000000000E+00 0. -1.
        -11    1    3    3    0    0  0.30266393503E+01 -0.18771214256E+03  0.62482608700E+02  0.19786127817E+03  0.00000000000E+00 0.  1.
         22    1    1    2    0    0 -0.66762290106E+02  0.36417507239E+03  0.48449937509E+03  0.60977072018E+03  0.00000000000E+00 0. -1.
<mgrwt>
<rscale>  0 0.83762633E+03</rscale>
<asrwt>0</asrwt>
<pdfrwt beam="1">  1        1 0.11795234E+00 0.83762633E+03</pdfrwt>
<pdfrwt beam="2">  1       -1 0.35197140E-01 0.83762633E+03</pdfrwt>
<totfact> 0.18337024E+02</totfact>
</mgrwt>
</event>
<event>
 6    1  0.1934315E-005  0.4143560E+04  0.7818608E-02  0.7976196E-01
         -2   -1    0    0    0  501 -0.00000000000E+00  0.00000000000E+00  0.43814215469E+04  0.43814215469E+04  0.00000000000E+00 0. -1.
          2   -1    0    0  501    0  0.00000000000E+00 -0.00000000000E+00 -0.97965305726E+03  0.97965305726E+03  0.00000000000E+00 0.  1.
         23    2    1    2    0    0  0.95694609511E+03  0.75615281921E+03 -0.46363071006E+03  0.13078260443E+04  0.89121332491E+02 0.  0.
         11    1    3    3    0    0  0.43772636399E+03  0.29356476914E+03 -0.18257127004E+03  0.55777855109E+03  0.00000000000E+00 0. -1.
        -11    1    3    3    0    0  0.51921973111E+03  0.46258805008E+03 -0.28105944002E+03  0.75004749321E+03  0.00000000000E+00 0.  1.
         22    1    1    2    0    0 -0.95694609511E+03 -0.75615281921E+03  0.38653991997E+04  0.40532485599E+04  0.00000000000E+00 0. -1.
<mgrwt>
<rscale>  0 0.41435603E+04</rscale>
<asrwt>0</asrwt>
<pdfrwt beam="1">  1        2 0.15071586E+00 0.41435603E+04</pdfrwt>
<pdfrwt beam="2">  1       -2 0.67406484E+00 0.41435603E+04</pdfrwt>
<totfact> 0.56590008E-03</totfact>
</mgrwt>
</event>
<event>
 6    1  0.1934315E-005  0.3289840E+04  0.7818608E-02  0.8165485E-01
          2   -1    0    0  501    0  0.00000000000E+00  0.00000000000E+00  0.14223180791E+04  0.14223180791E+04  0.00000000000E+00 0.  1.
         -2   -1    0    0    0  501 -0.00000000000E+00 -0.00000000000E+00 -0.19023604375E+04  0.19023604375E+04  0.00000000000E+00 0. -1.
         23    2    1    2    0    0 -0.31910630727E+03  0.94954535293E+02  0.13864448508E+04  0.14287302838E+04  0.90530107851E+02 0.  0.
         11    1    3    3    0    0 -0.22622457816E+03  0.37550473798E+02  0.10595474165E+04  0.10840794831E+04  0.00000000000E+00 0. -1.
        -11    1    3    3    0    0 -0.92881729108E+02  0.57404061495E+02  0.32689743431E+03  0.34465080072E+03  0.00000000000E+00 0.  1.
         22    1    1    2    0    0  0.31910630727E+03 -0.94954535293E+02 -0.18664872093E+04  0.18959482328E+04  0.00000000000E+00 0. -1.
<mgrwt>
<rscale>  0 0.32898399E+04</rscale>
<asrwt>0</asrwt>
<pdfrwt beam="1">  1        2 0.21881817E+00 0.32898399E+04</pdfrwt>
<pdfrwt beam="2">  1       -2 0.29267084E+00 0.32898399E+04</pdfrwt>
<totfact> 0.41387998E-01</totfact>
</mgrwt>
</event>
<event>
 6    1  0.1934315E-005  0.1966627E+04  0.7818608E-02  0.8622384E-01
          2   -1    0    0  501    0  0.00000000000E+00  0.00000000000E+00  0.70280273268E+03  0.70280273268E+03  0.00000000000E+00 0.  1.
         -2   -1    0    0    0  501 -0.00000000000E+00 -0.00000000000E+00 -0.13757854318E+04  0.13757854318E+04  0.00000000000E+00 0. -1.
         23    2    1    2    0    0  0.37880643221E+03  0.20238403359E+03 -0.12697168314E+04  0.13433703499E+04  0.89495558017E+02 0.  0.
         11    1    3    3    0    0  0.17119177973E+03  0.12135523600E+03 -0.50563246858E+03  0.54744672073E+03  0.00000000000E+00 0.  1.
        -11    1    3    3    0    0  0.20761465247E+03  0.81028797589E+02 -0.76408436287E+03  0.79592362922E+03  0.00000000000E+00 0. -1.
         22    1    1    2    0    0 -0.37880643221E+03 -0.20238403359E+03  0.59673413233E+03  0.73521781454E+03  0.00000000000E+00 0.  1.
<mgrwt>
<rscale>  0 0.19666273E+04</rscale>
<asrwt>0</asrwt>
<pdfrwt beam="1">  1        2 0.10812350E+00 0.19666273E+04</pdfrwt>
<pdfrwt beam="2">  1       -2 0.21165929E+00 0.19666273E+04</pdfrwt>
<totfact> 0.42403902E+00</totfact>
</mgrwt>
</event>
<event>
 6    1  0.1934315E-005  0.7355349E+03  0.7818608E-02  0.9658321E-01
          2   -1    0    0  501    0  0.00000000000E+00  0.00000000000E+00  0.27499715800E+04  0.27499715800E+04  0.00000000000E+00 0.  1.
         -2   -1    0    0    0  501 -0.00000000000E+00 -0.00000000000E+00 -0.49183377157E+02  0.49183377157E+02  0.00000000000E+00 0. -1.
         23    2    1    2    0    0  0.26547357535E+03  0.43532047284E+02  0.22941791793E+04  0.23116078760E+04  0.88890984820E+02 0.  0.
         13    1    3    3    0    0  0.18101296530E+03 -0.65994131904E+01  0.12936305329E+04  0.13062500532E+04  0.00000000000E+00 0.  1.
        -13    1    3    3    0    0  0.84460610052E+02  0.50131460474E+02  0.10005486464E+04  0.10053578228E+04  0.00000000000E+00 0. -1.
         22    1    1    2    0    0 -0.26547357535E+03 -0.43532047284E+02  0.40660902359E+03  0.48754708123E+03  0.00000000000E+00 0. -1.
<mgrwt>
<rscale>  0 0.73553488E+03</rscale>
<asrwt>0</asrwt>
<pdfrwt beam="1">  1        2 0.42307243E+00 0.73553488E+03</pdfrwt>
<pdfrwt beam="2">  1       -2 0.75666756E-02 0.73553488E+03</pdfrwt>
<totfact> 0.27932490E+02</totfact>
</mgrwt>
</event>
<event>
 6    1  0.1934315E-005  0.7446244E+03  0.7818608E-02  0.9643822E-01
         -2   -1    0    0    0  501 -0.00000000000E+00  0.00000000000E+00  0.54169127948E+03  0.54169127948E+03  0.00000000000E+00 0. -1.
          2   -1    0    0  501    0  0.00000000000E+00 -0.00000000000E+00 -0.25589554083E+03  0.25589554083E+03  0.00000000000E+00 0.  1.
         23    2    1    2    0    0  0.21792299028E+03  0.24927137215E+03  0.31342938283E+03  0.46533651564E+03  0.93131348644E+02 0.  0.
         11    1    3    3    0    0  0.58067701071E+02  0.13271852885E+03  0.11310060512E+03  0.18378741167E+03  0.00000000000E+00 0. -1.
        -11    1    3    3    0    0  0.15985528921E+03  0.11655284329E+03  0.20032877771E+03  0.28154910397E+03  0.00000000000E+00 0.  1.
         22    1    1    2    0    0 -0.21792299028E+03 -0.24927137215E+03 -0.27633644184E+02  0.33225030468E+03  0.00000000000E+00 0.  1.
<mgrwt>
<rscale>  0 0.74462442E+03</rscale>
<asrwt>0</asrwt>
<pdfrwt beam="1">  1        2 0.39368545E-01 0.74462442E+03</pdfrwt>
<pdfrwt beam="2">  1       -2 0.83337119E-01 0.74462442E+03</pdfrwt>
<totfact> 0.16672828E+02</totfact>
</mgrwt>
</event>
<event>
 6    1  0.1934315E-005  0.2113804E+03  0.7818608E-02  0.1140478E+00
         -4   -1    0    0    0  501 -0.00000000000E+00  0.00000000000E+00  0.20610056025E+02  0.20610056025E+02  0.00000000000E+00 0. -1.
          4   -1    0    0  501    0  0.00000000000E+00 -0.00000000000E+00 -0.54198864637E+03  0.54198864637E+03  0.00000000000E+00 0.  1.
         23    2    1    2    0    0 -0.78882985130E+02  0.29734558354E+01 -0.35332305344E+03  0.37692686752E+03  0.10490622756E+03 0.  0.
         13    1    3    3    0    0  0.20286998165E+02 -0.17889000385E+01 -0.17885617205E+02  0.27104570845E+02  0.00000000000E+00 0. -1.
        -13    1    3    3    0    0 -0.99169983295E+02  0.47623558739E+01 -0.33543743624E+03  0.34982229668E+03  0.00000000000E+00 0.  1.
         22    1    1    2    0    0  0.78882985130E+02 -0.29734558354E+01 -0.16805553690E+03  0.18567183487E+03  0.00000000000E+00 0.  1.
<mgrwt>
<rscale>  0 0.21138038E+03</rscale>
<asrwt>0</asrwt>
<pdfrwt beam="1">  1        4 0.83382871E-01 0.21138038E+03</pdfrwt>
<pdfrwt beam="2">  1       -4 0.31707778E-02 0.21138038E+03</pdfrwt>
<totfact> 0.11540555E+03</totfact>
</mgrwt>
</event>
<event>
 6    1  0.1934315E-005  0.1910110E+04  0.7818608E-02  0.8649840E-01
         -2   -1    0    0    0  501 -0.00000000000E+00  0.00000000000E+00  0.11018082164E+04  0.11018082164E+04  0.00000000000E+00 0. -1.
          2   -1    0    0  501    0  0.00000000000E+00 -0.00000000000E+00 -0.82784795296E+03  0.82784795296E+03  0.00000000000E+00 0.  1.
         23    2    1    2    0    0 -0.53374810262E+03 -0.11067162367E+03  0.92683944675E+03  0.10791348744E+04  0.91462952651E+02 0.  0.
         11    1    3    3    0    0 -0.30708633944E+02 -0.14528131086E+02  0.10900508681E+03  0.11417616100E+03  0.00000000000E+00 0. -1.
        -11    1    3    3    0    0 -0.50303946868E+03 -0.96143492589E+02  0.81783435994E+03  0.96495871337E+03  0.00000000000E+00 0.  1.
         22    1    1    2    0    0  0.53374810262E+03  0.11067162367E+03 -0.65287918326E+03  0.85052129502E+03  0.00000000000E+00 0.  1.
<mgrwt>
<rscale>  0 0.19101096E+04</rscale>
<asrwt>0</asrwt>
<pdfrwt beam="1">  1        2 0.12736122E+00 0.19101096E+04</pdfrwt>
<pdfrwt beam="2">  1       -2 0.16950896E+00 0.19101096E+04</pdfrwt>
<totfact> 0.66119620E+00</totfact>
</mgrwt>
</event>
<event>
 6    1  0.1934315E-005  0.4850706E+04  0.7818608E-02  0.7851959E-01
          2   -1    0    0  501    0  0.00000000000E+00  0.00000000000E+00  0.42751412086E+04  0.42751412086E+04  0.00000000000E+00 0.  1.
         -2   -1    0    0    0  501 -0.00000000000E+00 -0.00000000000E+00 -0.13759398853E+04  0.13759398853E+04  0.00000000000E+00 0. -1.
         23    2    1    2    0    0  0.50682072987E+03 -0.20112296968E+04 -0.13012245307E+02  0.20757629241E+04  0.81916133142E+02 0.  0.
         13    1    3    3    0    0  0.27781010102E+03 -0.95496514726E+03  0.13155879689E+02  0.99464061946E+03  0.00000000000E+00 0. -1.
        -13    1    3    3    0    0  0.22901062885E+03 -0.10562645496E+04 -0.26168124997E+02  0.10811223046E+04  0.00000000000E+00 0.  1.
         22    1    1    2    0    0 -0.50682072987E+03  0.20112296968E+04  0.29122135686E+04  0.35753181697E+04  0.00000000000E+00 0.  1.
<mgrwt>
<rscale>  0 0.48507061E+04</rscale>
<asrwt>0</asrwt>
<pdfrwt beam="1">  1        2 0.65771403E+00 0.48507061E+04</pdfrwt>
<pdfrwt beam="2">  1       -2 0.21168306E+00 0.48507061E+04</pdfrwt>
<totfact> 0.16316204E-02</totfact>
</mgrwt>
</event>
<event>
 6    1  0.1934315E-005  0.1419146E+04  0.7818608E-02  0.8940075E-01
         -2   -1    0    0    0  501 -0.00000000000E+00  0.00000000000E+00  0.53796447226E+03  0.53796447226E+03  0.00000000000E+00 0. -1.
          2   -1    0    0  501    0  0.00000000000E+00 -0.00000000000E+00 -0.93592435119E+03  0.93592435119E+03  0.00000000000E+00 0.  1.
         23    2    1    2    0    0  0.59329547778E+03  0.12815944800E+03  0.17566427783E+03  0.63874270373E+03  0.93327032537E+02 0.  0.
         13    1    3    3    0    0  0.26601203022E+03  0.71061648747E+02  0.33476883978E+02  0.27736773407E+03  0.00000000000E+00 0. -1.
        -13    1    3    3    0    0  0.32728344756E+03  0.57097799250E+02  0.14218739385E+03  0.36137496966E+03  0.00000000000E+00 0.  1.
         22    1    1    2    0    0 -0.59329547778E+03 -0.12815944800E+03 -0.57362415676E+03  0.83514611972E+03  0.00000000000E+00 0.  1.
<mgrwt>
<rscale>  0 0.14191463E+04</rscale>
<asrwt>0</asrwt>
<pdfrwt beam="1">  1        2 0.14398836E+00 0.14191463E+04</pdfrwt>
<pdfrwt beam="2">  1       -2 0.82763765E-01 0.14191463E+04</pdfrwt>
<totfact> 0.34525091E+01</totfact>
</mgrwt>
</event>
<event>
 6    1  0.1934315E-005  0.5391017E+03  0.7818608E-02  0.1004048E+00
         -2   -1    0    0    0  501 -0.00000000000E+00  0.00000000000E+00  0.46225236875E+03  0.46225236875E+03  0.00000000000E+00 0.  1.
          2   -1    0    0  501    0  0.00000000000E+00 -0.00000000000E+00 -0.15718179689E+03  0.15718179689E+03  0.00000000000E+00 0. -1.
         23    2    1    2    0    0  0.87955169500E+02 -0.18433524245E+03 -0.31939406516E+02  0.22536397016E+03  0.89739622836E+02 0.  0.
         11    1    3    3    0    0  0.25612851020E+02 -0.63440024636E+02  0.31447710865E+02  0.75296835138E+02  0.00000000000E+00 0.  1.
        -11    1    3    3    0    0  0.62342318480E+02 -0.12089521781E+03 -0.63387117381E+02  0.15006713502E+03  0.00000000000E+00 0. -1.
         22    1    1    2    0    0 -0.87955169500E+02  0.18433524245E+03  0.33700997838E+03  0.39407019549E+03  0.00000000000E+00 0.  1.
<mgrwt>
<rscale>  0 0.53910169E+03</rscale>
<asrwt>0</asrwt>
<pdfrwt beam="1">  1        2 0.24181815E-01 0.53910169E+03</pdfrwt>
<pdfrwt beam="2">  1       -2 0.71115748E-01 0.53910169E+03</pdfrwt>
<totfact> 0.41289176E+02</totfact>
</mgrwt>
</event>
<event>
 6    1  0.1934315E-005  0.2930710E+04  0.7818608E-02  0.8263798E-01
         -2   -1    0    0    0  501 -0.00000000000E+00  0.00000000000E+00  0.13867750291E+04  0.13867750291E+04  0.00000000000E+00 0. -1.
          2   -1    0    0  501    0  0.00000000000E+00 -0.00000000000E+00 -0.15483878624E+04  0.15483878624E+04  0.00000000000E+00 0.  1.
         23    2    1    2    0    0  0.44751871275E+03 -0.28609743965E+03  0.12855147130E+04  0.13936367391E+04  0.86893843220E+02 0.  0.
         13    1    3    3    0    0  0.31816860052E+03 -0.16154124541E+03  0.79974120841E+03  0.87573559523E+03  0.00000000000E+00 0. -1.
        -13    1    3    3    0    0  0.12935011223E+03 -0.12455619424E+03  0.48577350457E+03  0.51790114385E+03  0.00000000000E+00 0.  1.
         22    1    1    2    0    0 -0.44751871275E+03  0.28609743965E+03 -0.14471275463E+04  0.15415261524E+04  0.00000000000E+00 0.  1.
<mgrwt>
<rscale>  0 0.29307102E+04</rscale>
<asrwt>0</asrwt>
<pdfrwt beam="1">  1        2 0.23821352E+00 0.29307102E+04</pdfrwt>
<pdfrwt beam="2">  1       -2 0.21335000E+00 0.29307102E+04</pdfrwt>
<totfact> 0.11184157E+00</totfact>
</mgrwt>
</event>
<event>
 6    1  0.1934315E-005  0.4496861E+04  0.7818608E-02  0.7911187E-01
          2   -1    0    0  501    0  0.00000000000E+00  0.00000000000E+00  0.23580524515E+04  0.23580524515E+04  0.00000000000E+00 0.  1.
         -2   -1    0    0    0  501 -0.00000000000E+00 -0.00000000000E+00 -0.21439047449E+04  0.21439047449E+04  0.00000000000E+00 0. -1.
         23    2    1    2    0    0  0.12903660883E+04  0.13661836267E+04 -0.11270429719E+04  0.21932140795E+04  0.91977138804E+02 0.  0.
         11    1    3    3    0    0  0.11580606514E+04  0.11839577081E+04 -0.98373228620E+03  0.19262890588E+04  0.00000000000E+00 0.  1.
        -11    1    3    3    0    0  0.13230543688E+03  0.18222591859E+03 -0.14331068574E+03  0.26692502071E+03  0.00000000000E+00 0. -1.
         22    1    1    2    0    0 -0.12903660883E+04 -0.13661836267E+04  0.13411906786E+04  0.23087431170E+04  0.00000000000E+00 0.  1.
<mgrwt>
<rscale>  0 0.44968611E+04</rscale>
<asrwt>0</asrwt>
<pdfrwt beam="1">  1        2 0.36277730E+00 0.44968611E+04</pdfrwt>
<pdfrwt beam="2">  1       -2 0.32983150E+00 0.44968611E+04</pdfrwt>
<totfact> 0.66260440E-02</totfact>
</mgrwt>
</event>
<event>
 6    1  0.1934315E-005  0.5378510E+04  0.7818608E-02  0.7772631E-01
          2   -1    0    0  501    0  0.00000000000E+00  0.00000000000E+00  0.35910807049E+04  0.35910807049E+04  0.00000000000E+00 0.  1.
         -2   -1    0    0    0  501 -0.00000000000E+00 -0.00000000000E+00 -0.20139044857E+04  0.20139044857E+04  0.00000000000E+00 0. -1.
         23    2    1    2    0    0  0.12355421488E+04  0.21450805400E+04 -0.30421929641E+03  0.24957113186E+04  0.89948213133E+02 0.  0.
         13    1    3    3    0    0  0.35920013202E+03  0.56910521574E+03 -0.11229035389E+03  0.68228630721E+03  0.00000000000E+00 0. -1.
        -13    1    3    3    0    0  0.87634201679E+03  0.15759753243E+04 -0.19192894251E+03  0.18134250114E+04  0.00000000000E+00 0.  1.
         22    1    1    2    0    0 -0.12355421488E+04 -0.21450805400E+04  0.18813955156E+04  0.31092738719E+04  0.00000000000E+00 0.  1.
<mgrwt>
<rscale>  0 0.53785104E+04</rscale>
<asrwt>0</asrwt>
<pdfrwt beam="1">  1        2 0.55247395E+00 0.53785104E+04</pdfrwt>
<pdfrwt beam="2">  1       -2 0.30983146E+00 0.53785104E+04</pdfrwt>
<totfact> 0.13659741E-02</totfact>
</mgrwt>
</event>
<event>
 6    1  0.1934315E-005  0.1394033E+04  0.7818608E-02  0.8958149E-01
          2   -1    0    0  501    0  0.00000000000E+00  0.00000000000E+00  0.34399176627E+04  0.34399176627E+04  0.00000000000E+00 0.  1.
         -2   -1    0    0    0  501 -0.00000000000E+00 -0.00000000000E+00 -0.14123358324E+03  0.14123358324E+03  0.00000000000E+00 0. -1.
         23    2    1    2    0    0  0.58705611576E+03  0.32632768507E+03  0.12061155769E+04  0.13834325244E+04  0.89700187388E+02 0.  0.
         11    1    3    3    0    0  0.26341812974E+03  0.18729925603E+03  0.52209508111E+03  0.61404673772E+03  0.00000000000E+00 0.  1.
        -11    1    3    3    0    0  0.32363798602E+03  0.13902842903E+03  0.68402049574E+03  0.76938578663E+03  0.00000000000E+00 0. -1.
         22    1    1    2    0    0 -0.58705611576E+03 -0.32632768507E+03  0.20925685026E+04  0.21977187216E+04  0.00000000000E+00 0.  1.
<mgrwt>
<rscale>  0 0.13940329E+04</rscale>
<asrwt>0</asrwt>
<pdfrwt beam="1">  1        2 0.52921804E+00 0.13940329E+04</pdfrwt>
<pdfrwt beam="2">  1       -2 0.21728246E-01 0.13940329E+04</pdfrwt>
<totfact> 0.16353045E+01</totfact>
</mgrwt>
</event>
<event>
 6    1  0.1934315E-005  0.3423198E+04  0.7818608E-02  0.8132236E-01
         -2   -1    0    0    0  501 -0.00000000000E+00  0.00000000000E+00  0.12149003809E+04  0.12149003809E+04  0.00000000000E+00 0. -1.
          2   -1    0    0  501    0  0.00000000000E+00 -0.00000000000E+00 -0.24113677295E+04  0.24113677295E+04  0.00000000000E+00 0.  1.
         23    2    1    2    0    0  0.47448176264E+03  0.62420549166E+02  0.11407051109E+04  0.12406016681E+04  0.94101439394E+02 0.  0.
         11    1    3    3    0    0  0.38855146604E+02 -0.99268762771E+01  0.16190867929E+03  0.16680133608E+03  0.00000000000E+00 0.  1.
        -11    1    3    3    0    0  0.43562661603E+03  0.72347425443E+02  0.97879643161E+03  0.10738003320E+04  0.00000000000E+00 0. -1.
         22    1    1    2    0    0 -0.47448176264E+03 -0.62420549166E+02 -0.23371724595E+04  0.23856664422E+04  0.00000000000E+00 0.  1.
<mgrwt>
<rscale>  0 0.34231983E+04</rscale>
<asrwt>0</asrwt>
<pdfrwt beam="1">  1        2 0.37097965E+00 0.34231983E+04</pdfrwt>
<pdfrwt beam="2">  1       -2 0.18690775E+00 0.34231983E+04</pdfrwt>
<totfact> 0.52658066E-01</totfact>
</mgrwt>
</event>
<event>
 6    1  0.1934315E-005  0.3949715E+04  0.7818608E-02  0.8014768E-01
         -2   -1    0    0    0  501 -0.00000000000E+00  0.00000000000E+00  0.21887127421E+04  0.21887127421E+04  0.00000000000E+00 0. -1.
          2   -1    0    0  501    0  0.00000000000E+00 -0.00000000000E+00 -0.17818978418E+04  0.17818978418E+04  0.00000000000E+00 0.  1.
         23    2    1    2    0    0  0.54474979765E+02 -0.83694599326E+03 -0.15927016196E+04  0.18023134566E+04  0.90494351379E+02 0.  0.
         13    1    3    3    0    0  0.56015732886E+01 -0.65339594834E+03 -0.12509374905E+04  0.14113122433E+04  0.00000000000E+00 0. -1.
        -13    1    3    3    0    0  0.48873406476E+02 -0.18355004492E+03 -0.34176412908E+03  0.39100121327E+03  0.00000000000E+00 0.  1.
         22    1    1    2    0    0 -0.54474979765E+02  0.83694599326E+03  0.19995165199E+04  0.21682971274E+04  0.00000000000E+00 0. -1.
<mgrwt>
<rscale>  0 0.39497152E+04</rscale>
<asrwt>0</asrwt>
<pdfrwt beam="1">  1        2 0.27413813E+00 0.39497152E+04</pdfrwt>
<pdfrwt beam="2">  1       -2 0.33672504E+00 0.39497152E+04</pdfrwt>
<totfact> 0.13182110E-01</totfact>
</mgrwt>
</event>
<event>
 6    1  0.1934315E-005  0.8696633E+03  0.7818608E-02  0.9464319E-01
         -2   -1    0    0    0  501 -0.00000000000E+00  0.00000000000E+00  0.12284579752E+03  0.12284579752E+03  0.00000000000E+00 0. -1.
          2   -1    0    0  501    0  0.00000000000E+00 -0.00000000000E+00 -0.15391538359E+04  0.15391538359E+04  0.00000000000E+00 0.  1.
         23    2    1    2    0    0  0.30542437522E+03  0.44180341363E+02 -0.12884566797E+04  0.13279608311E+04  0.90129916778E+02 0.  0.
         13    1    3    3    0    0  0.23365746138E+03  0.50284690318E+02 -0.82437253742E+03  0.85832070917E+03  0.00000000000E+00 0. -1.
        -13    1    3    3    0    0  0.71766913843E+02 -0.61043489553E+01 -0.46408414232E+03  0.46964012195E+03  0.00000000000E+00 0.  1.
         22    1    1    2    0    0 -0.30542437522E+03 -0.44180341363E+02 -0.12785135867E+03  0.33403880232E+03  0.00000000000E+00 0. -1.
<mgrwt>
<rscale>  0 0.86966334E+03</rscale>
<asrwt>0</asrwt>
<pdfrwt beam="1">  1        2 0.23679289E+00 0.86966334E+03</pdfrwt>
<pdfrwt beam="2">  1       -2 0.18899354E-01 0.86966334E+03</pdfrwt>
<totfact> 0.28605692E+02</totfact>
</mgrwt>
</event>
<event>
 6    1  0.1934315E-005  0.6886000E+03  0.7818608E-02  0.9736929E-01
         -2   -1    0    0    0  501 -0.00000000000E+00  0.00000000000E+00  0.12877772253E+03  0.12877772253E+03  0.00000000000E+00 0. -1.
          2   -1    0    0  501    0  0.00000000000E+00 -0.00000000000E+00 -0.92052017070E+03  0.92052017070E+03  0.00000000000E+00 0.  1.
         23    2    1    2    0    0 -0.19946627474E+03 -0.18829774498E+02  0.12864062153E+02  0.22012180118E+03  0.90259448765E+02 0.  0.
         11    1    3    3    0    0 -0.73372112525E+02 -0.49367187911E+02  0.18139745679E+02  0.90275337230E+02  0.00000000000E+00 0.  1.
        -11    1    3    3    0    0 -0.12609416222E+03  0.30537413413E+02 -0.52756835259E+01  0.12984646395E+03  0.00000000000E+00 0. -1.
         22    1    1    2    0    0  0.19946627474E+03  0.18829774498E+02 -0.80460651033E+03  0.82917609205E+03  0.00000000000E+00 0.  1.
<mgrwt>
<rscale>  0 0.68860000E+03</rscale>
<asrwt>0</asrwt>
<pdfrwt beam="1">  1        2 0.14161849E+00 0.68860000E+03</pdfrwt>
<pdfrwt beam="2">  1       -2 0.19811957E-01 0.68860000E+03</pdfrwt>
<totfact> 0.62025552E+02</totfact>
</mgrwt>
</event>
<event>
 6    1  0.1934315E-005  0.1112284E+04  0.7818608E-02  0.9193301E-01
          2   -1    0    0  501    0  0.00000000000E+00  0.00000000000E+00  0.19310931400E+04  0.19310931400E+04  0.00000000000E+00 0.  1.
         -2   -1    0    0    0  501 -0.00000000000E+00 -0.00000000000E+00 -0.16016528442E+03  0.16016528442E+03  0.00000000000E+00 0. -1.
         23    2    1    2    0    0 -0.52964193828E+03  0.25551843926E+02  0.11832093127E+04  0.12996862135E+04  0.89590715644E+02 0.  0.
         13    1    3    3    0    0 -0.56794580916E+02  0.17768463810E+02  0.82852976241E+02  0.10200959955E+03  0.00000000000E+00 0.  1.
        -13    1    3    3    0    0 -0.47284735736E+03  0.77833801164E+01  0.11003563364E+04  0.11976766139E+04  0.00000000000E+00 0. -1.
         22    1    1    2    0    0  0.52964193828E+03 -0.25551843926E+02  0.58771854292E+03  0.79157221098E+03  0.00000000000E+00 0. -1.
<mgrwt>
<rscale>  0 0.11122843E+04</rscale>
<asrwt>0</asrwt>
<pdfrwt beam="1">  1        2 0.29709123E+00 0.11122843E+04</pdfrwt>
<pdfrwt beam="2">  1       -2 0.24640814E-01 0.11122843E+04</pdfrwt>
<totfact> 0.10678507E+02</totfact>
</mgrwt>
</event>
<event>
 6    1  0.1934315E-005  0.6988675E+03  0.7818608E-02  0.9719171E-01
          2   -1    0    0  501    0  0.00000000000E+00  0.00000000000E+00  0.14886910846E+04  0.14886910846E+04  0.00000000000E+00 0.  1.
         -2   -1    0    0    0  501 -0.00000000000E+00 -0.00000000000E+00 -0.82020997996E+02  0.82020997996E+02  0.00000000000E+00 0. -1.
         23    2    1    2    0    0 -0.23537725488E+03 -0.16013373236E+03  0.28234907049E+03  0.41090907707E+03  0.89888862794E+02 0.  0.
         13    1    3    3    0    0 -0.15050386093E+03 -0.75959164593E+02  0.11049242411E+03  0.20156830759E+03  0.00000000000E+00 0. -1.
        -13    1    3    3    0    0 -0.84873393957E+02 -0.84174567765E+02  0.17185664638E+03  0.20934076947E+03  0.00000000000E+00 0.  1.
         22    1    1    2    0    0  0.23537725488E+03  0.16013373236E+03  0.11243210161E+04  0.11598030055E+04  0.00000000000E+00 0.  1.
<mgrwt>
<rscale>  0 0.69886745E+03</rscale>
<asrwt>0</asrwt>
<pdfrwt beam="1">  1        2 0.22902938E+00 0.69886745E+03</pdfrwt>
<pdfrwt beam="2">  1       -2 0.12618616E-01 0.69886745E+03</pdfrwt>
<totfact> 0.61208149E+02</totfact>
</mgrwt>
</event>
<event>
 6    1  0.1934315E-005  0.1628091E+04  0.7818608E-02  0.8803474E-01
         -2   -1    0    0    0  501 -0.00000000000E+00  0.00000000000E+00  0.34249175198E+03  0.34249175198E+03  0.00000000000E+00 0. -1.
          2   -1    0    0  501    0  0.00000000000E+00 -0.00000000000E+00 -0.19348490486E+04  0.19348490486E+04  0.00000000000E+00 0.  1.
         23    2    1    2    0    0  0.31099833824E+03  0.81919331358E+02 -0.18408120181E+04  0.18709413766E+04  0.91662453008E+02 0.  0.
         13    1    3    3    0    0  0.18108529484E+03  0.80824808847E+01 -0.86856707349E+03  0.88728009763E+03  0.00000000000E+00 0.  1.
        -13    1    3    3    0    0  0.12991304340E+03  0.73836850473E+02 -0.97224494462E+03  0.98366127893E+03  0.00000000000E+00 0. -1.
         22    1    1    2    0    0 -0.31099833824E+03 -0.81919331358E+02  0.24845472147E+03  0.40639942404E+03  0.00000000000E+00 0. -1.
<mgrwt>
<rscale>  0 0.16280907E+04</rscale>
<asrwt>0</asrwt>
<pdfrwt beam="1">  1        2 0.29766909E+00 0.16280907E+04</pdfrwt>
<pdfrwt beam="2">  1       -2 0.52691039E-01 0.16280907E+04</pdfrwt>
<totfact> 0.23615559E+01</totfact>
</mgrwt>
</event>
<event>
 6    1  0.1934315E-005  0.2452255E+04  0.7818608E-02  0.8420195E-01
         -2   -1    0    0    0  501 -0.00000000000E+00  0.00000000000E+00  0.67419653517E+03  0.67419653517E+03  0.00000000000E+00 0.  1.
          2   -1    0    0  501    0  0.00000000000E+00 -0.00000000000E+00 -0.22298958751E+04  0.22298958751E+04  0.00000000000E+00 0. -1.
         23    2    1    2    0    0 -0.33896171524E+03  0.16800833366E+03  0.60012325269E+03  0.71532725717E+03  0.91778656854E+02 0.  0.
         11    1    3    3    0    0 -0.18815192708E+03  0.11588246666E+03  0.42079055498E+03  0.47528368887E+03  0.00000000000E+00 0.  1.
        -11    1    3    3    0    0 -0.15080978816E+03  0.52125867007E+02  0.17933269771E+03  0.24004356830E+03  0.00000000000E+00 0. -1.
         22    1    1    2    0    0  0.33896171524E+03 -0.16800833366E+03 -0.21558225926E+04  0.21887651531E+04  0.00000000000E+00 0. -1.
<mgrwt>
<rscale>  0 0.24522545E+04</rscale>
<asrwt>0</asrwt>
<pdfrwt beam="1">  1        2 0.34306091E+00 0.24522545E+04</pdfrwt>
<pdfrwt beam="2">  1       -2 0.10372254E+00 0.24522545E+04</pdfrwt>
<totfact> 0.33664048E+00</totfact>
</mgrwt>
</event>
<event>
 6    1  0.1934315E-005  0.4579578E+04  0.7818608E-02  0.7896851E-01
         -2   -1    0    0    0  501 -0.00000000000E+00  0.00000000000E+00  0.14957023943E+04  0.14957023943E+04  0.00000000000E+00 0. -1.
          2   -1    0    0  501    0  0.00000000000E+00 -0.00000000000E+00 -0.35054660244E+04  0.35054660244E+04  0.00000000000E+00 0.  1.
         23    2    1    2    0    0  0.61504223795E+03  0.95626389113E+03  0.11641417114E+04  0.16297603003E+04  0.90416416745E+02 0.  0.
         11    1    3    3    0    0  0.30710258545E+03  0.53262291431E+03  0.67673640910E+03  0.91431468010E+03  0.00000000000E+00 0. -1.
        -11    1    3    3    0    0  0.30793965249E+03  0.42364097682E+03  0.48740530229E+03  0.71544562023E+03  0.00000000000E+00 0.  1.
         22    1    1    2    0    0 -0.61504223795E+03 -0.95626389113E+03 -0.31739053415E+04  0.33714081184E+04  0.00000000000E+00 0.  1.
<mgrwt>
<rscale>  0 0.45795781E+04</rscale>
<asrwt>0</asrwt>
<pdfrwt beam="1">  1        2 0.53930246E+00 0.45795781E+04</pdfrwt>
<pdfrwt beam="2">  1       -2 0.23010806E+00 0.45795781E+04</pdfrwt>
<totfact> 0.51689061E-02</totfact>
</mgrwt>
</event>
<event>
 6    1  0.1934315E-005  0.1988996E+04  0.7818608E-02  0.8611783E-01
         -2   -1    0    0    0  501 -0.00000000000E+00  0.00000000000E+00  0.62260047895E+03  0.62260047895E+03  0.00000000000E+00 0. -1.
          2   -1    0    0  501    0  0.00000000000E+00 -0.00000000000E+00 -0.15885400822E+04  0.15885400822E+04  0.00000000000E+00 0.  1.
         23    2    1    2    0    0 -0.28222809031E+03 -0.67289730963E+03  0.26380199299E+03  0.78120773833E+03  0.90832563799E+02 0.  0.
         11    1    3    3    0    0 -0.16914728390E+03 -0.45457756475E+03  0.21500066485E+03  0.53054392081E+03  0.00000000000E+00 0. -1.
        -11    1    3    3    0    0 -0.11308080640E+03 -0.21831974489E+03  0.48801328146E+02  0.25066381752E+03  0.00000000000E+00 0.  1.
         22    1    1    2    0    0  0.28222809031E+03  0.67289730963E+03 -0.12297415963E+04  0.14299328229E+04  0.00000000000E+00 0.  1.
<mgrwt>
<rscale>  0 0.19889955E+04</rscale>
<asrwt>0</asrwt>
<pdfrwt beam="1">  1        2 0.24439078E+00 0.19889955E+04</pdfrwt>
<pdfrwt beam="2">  1       -2 0.95784689E-01 0.19889955E+04</pdfrwt>
<totfact> 0.96223211E+00</totfact>
</mgrwt>
</event>
<event>
 6    1  0.1934315E-005  0.1103331E+04  0.7818608E-02  0.9201951E-01
          2   -1    0    0  501    0  0.00000000000E+00  0.00000000000E+00  0.95283624218E+03  0.95283624218E+03  0.00000000000E+00 0.  1.
         -2   -1    0    0    0  501 -0.00000000000E+00 -0.00000000000E+00 -0.31939900666E+03  0.31939900666E+03  0.00000000000E+00 0. -1.
         23    2    1    2    0    0  0.59727801799E+02 -0.44892894285E+03  0.67449693450E+03  0.81749300876E+03  0.90797019174E+02 0.  0.
         13    1    3    3    0    0  0.62751260879E+02 -0.38390111217E+03  0.51640626675E+03  0.64652394929E+03  0.00000000000E+00 0. -1.
        -13    1    3    3    0    0 -0.30234590802E+01 -0.65027830683E+02  0.15809066775E+03  0.17096905947E+03  0.00000000000E+00 0.  1.
         22    1    1    2    0    0 -0.59727801799E+02  0.44892894285E+03 -0.41059698980E+02  0.45474224008E+03  0.00000000000E+00 0. -1.
<mgrwt>
<rscale>  0 0.11033312E+04</rscale>
<asrwt>0</asrwt>
<pdfrwt beam="1">  1        2 0.14659019E+00 0.11033312E+04</pdfrwt>
<pdfrwt beam="2">  1       -2 0.49138309E-01 0.11033312E+04</pdfrwt>
<totfact> 0.10519525E+02</totfact>
</mgrwt>
</event>
<event>
 6    1  0.1934315E-005  0.1910926E+04  0.7818608E-02  0.8649437E-01
         -2   -1    0    0    0  501 -0.00000000000E+00  0.00000000000E+00  0.49343660609E+03  0.49343660609E+03  0.00000000000E+00 0. -1.
          2   -1    0    0  501    0  0.00000000000E+00 -0.00000000000E+00 -0.18501046203E+04  0.18501046203E+04  0.00000000000E+00 0.  1.
         23    2    1    2    0    0  0.75934952213E+02 -0.26450912550E+03 -0.17991550243E+04  0.18224597083E+04  0.93109572515E+02 0.  0.
         13    1    3    3    0    0  0.18095068284E+02 -0.69950375770E+01 -0.26990182747E+03  0.27059814951E+03  0.00000000000E+00 0.  1.
        -13    1    3    3    0    0  0.57839883929E+02 -0.25751408793E+03 -0.15292531968E+04  0.15518615588E+04  0.00000000000E+00 0. -1.
         22    1    1    2    0    0 -0.75934952213E+02  0.26450912550E+03  0.44248701006E+03  0.52108151811E+03  0.00000000000E+00 0. -1.
<mgrwt>
<rscale>  0 0.19109258E+04</rscale>
<asrwt>0</asrwt>
<pdfrwt beam="1">  1        2 0.28463148E+00 0.19109258E+04</pdfrwt>
<pdfrwt beam="2">  1       -2 0.75913325E-01 0.19109258E+04</pdfrwt>
<totfact> 0.11771261E+01</totfact>
</mgrwt>
</event>
<event>
 6    1  0.1934315E-005  0.2087422E+04  0.7818608E-02  0.8566804E-01
         -2   -1    0    0    0  501 -0.00000000000E+00  0.00000000000E+00  0.98667691332E+03  0.98667691332E+03  0.00000000000E+00 0. -1.
          2   -1    0    0  501    0  0.00000000000E+00 -0.00000000000E+00 -0.11040419994E+04  0.11040419994E+04  0.00000000000E+00 0.  1.
         23    2    1    2    0    0  0.28424504705E+03 -0.94132662396E+03 -0.40307741446E+03  0.10667449900E+04  0.92641307438E+02 0.  0.
         11    1    3    3    0    0  0.80378024589E+02 -0.38122509596E+03 -0.12628604672E+03  0.40956240822E+03  0.00000000000E+00 0.  1.
        -11    1    3    3    0    0  0.20386702246E+03 -0.56010152800E+03 -0.27679136775E+03  0.65718258176E+03  0.00000000000E+00 0. -1.
         22    1    1    2    0    0 -0.28424504705E+03  0.94132662396E+03  0.28571232843E+03  0.10239739227E+04  0.00000000000E+00 0.  1.
<mgrwt>
<rscale>  0 0.20874221E+04</rscale>
<asrwt>0</asrwt>
<pdfrwt beam="1">  1        2 0.16985261E+00 0.20874221E+04</pdfrwt>
<pdfrwt beam="2">  1       -2 0.15179645E+00 0.20874221E+04</pdfrwt>
<totfact> 0.58005411E+00</totfact>
</mgrwt>
</event>
<event>
 6    1  0.1934315E-005  0.3853074E+04  0.7818608E-02  0.8034860E-01
         -2   -1    0    0    0  501 -0.00000000000E+00  0.00000000000E+00  0.14232147812E+04  0.14232147812E+04  0.00000000000E+00 0. -1.
          2   -1    0    0  501    0  0.00000000000E+00 -0.00000000000E+00 -0.26078592992E+04  0.26078592992E+04  0.00000000000E+00 0.  1.
         23    2    1    2    0    0 -0.15428880929E+04 -0.93619388148E+03 -0.12947472625E+04  0.22230128908E+04  0.91941222078E+02 0.  0.
         13    1    3    3    0    0 -0.83806516224E+03 -0.45487939726E+03 -0.68558224693E+03  0.11744324159E+04  0.00000000000E+00 0. -1.
        -13    1    3    3    0    0 -0.70482293063E+03 -0.48131448422E+03 -0.60916501553E+03  0.10485804749E+04  0.00000000000E+00 0.  1.
         22    1    1    2    0    0  0.15428880929E+04  0.93619388148E+03  0.11010274450E+03  0.18080611896E+04  0.00000000000E+00 0.  1.
<mgrwt>
<rscale>  0 0.38530735E+04</rscale>
<asrwt>0</asrwt>
<pdfrwt beam="1">  1        2 0.40120912E+00 0.38530735E+04</pdfrwt>
<pdfrwt beam="2">  1       -2 0.21895612E+00 0.38530735E+04</pdfrwt>
<totfact> 0.24120708E-01</totfact>
</mgrwt>
</event>
<event>
 6    1  0.1934315E-005  0.7483107E+03  0.7818608E-02  0.9638004E-01
          2   -1    0    0  501    0  0.00000000000E+00  0.00000000000E+00  0.50699304020E+03  0.50699304020E+03  0.00000000000E+00 0.  1.
         -2   -1    0    0    0  501 -0.00000000000E+00 -0.00000000000E+00 -0.27612256441E+03  0.27612256441E+03  0.00000000000E+00 0. -1.
         23    2    1    2    0    0  0.33532287269E+02  0.28368765759E+03 -0.12564244156E+03  0.32627366083E+03  0.95212274780E+02 0.  0.
         11    1    3    3    0    0 -0.37054835457E+00  0.25017050333E+03 -0.86871561832E+02  0.26482463311E+03  0.00000000000E+00 0. -1.
        -11    1    3    3    0    0  0.33902835624E+02  0.33517154257E+02 -0.38770879731E+02  0.61449027722E+02  0.00000000000E+00 0.  1.
         22    1    1    2    0    0 -0.33532287269E+02 -0.28368765759E+03  0.35651291736E+03  0.45684194379E+03  0.00000000000E+00 0.  1.
<mgrwt>
<rscale>  0 0.74831068E+03</rscale>
<asrwt>0</asrwt>
<pdfrwt beam="1">  1        2 0.77998929E-01 0.74831068E+03</pdfrwt>
<pdfrwt beam="2">  1       -2 0.42480395E-01 0.74831068E+03</pdfrwt>
<totfact> 0.32068786E+02</totfact>
</mgrwt>
</event>
<event>
 6    1  0.1934315E-005  0.3076308E+04  0.7818608E-02  0.8222270E-01
         -2   -1    0    0    0  501 -0.00000000000E+00  0.00000000000E+00  0.76040931429E+03  0.76040931429E+03  0.00000000000E+00 0. -1.
          2   -1    0    0  501    0  0.00000000000E+00 -0.00000000000E+00 -0.31113732601E+04  0.31113732601E+04  0.00000000000E+00 0.  1.
         23    2    1    2    0    0  0.15100800591E+04 -0.28499673138E+03 -0.11938782456E+04  0.19481370147E+04  0.91255908725E+02 0.  0.
         13    1    3    3    0    0  0.72405140945E+03 -0.11642922795E+03 -0.62153353493E+03  0.96130647750E+03  0.00000000000E+00 0.  1.
        -13    1    3    3    0    0  0.78602864963E+03 -0.16856750342E+03 -0.57234471069E+03  0.98683053718E+03  0.00000000000E+00 0. -1.
         22    1    1    2    0    0 -0.15100800591E+04  0.28499673138E+03 -0.11570857002E+04  0.19236455597E+04  0.00000000000E+00 0.  1.
<mgrwt>
<rscale>  0 0.30763077E+04</rscale>
<asrwt>0</asrwt>
<pdfrwt beam="1">  1        2 0.47867282E+00 0.30763077E+04</pdfrwt>
<pdfrwt beam="2">  1       -2 0.11698605E+00 0.30763077E+04</pdfrwt>
<totfact> 0.71127783E-01</totfact>
</mgrwt>
</event>
<event>
 6    1  0.1934315E-005  0.1814664E+04  0.7818608E-02  0.8698540E-01
          2   -1    0    0  501    0  0.00000000000E+00  0.00000000000E+00  0.13755146296E+04  0.13755146296E+04  0.00000000000E+00 0.  1.
         -2   -1    0    0    0  501 -0.00000000000E+00 -0.00000000000E+00 -0.59850409263E+03  0.59850409263E+03  0.00000000000E+00 0. -1.
         23    2    1    2    0    0 -0.86030943552E+03  0.25676509078E+03  0.51483857456E+03  0.10387140796E+04  0.88360311215E+02 0.  0.
         13    1    3    3    0    0 -0.73804920898E+03  0.24975520429E+03  0.43257264385E+03  0.89118650638E+03  0.00000000000E+00 0.  1.
        -13    1    3    3    0    0 -0.12226022654E+03  0.70098864944E+01  0.82265930716E+02  0.14752757321E+03  0.00000000000E+00 0. -1.
         22    1    1    2    0    0  0.86030943552E+03 -0.25676509078E+03  0.26217196241E+03  0.93530464265E+03  0.00000000000E+00 0. -1.
<mgrwt>
<rscale>  0 0.18146638E+04</rscale>
<asrwt>0</asrwt>
<pdfrwt beam="1">  1        2 0.21161764E+00 0.18146638E+04</pdfrwt>
<pdfrwt beam="2">  1       -2 0.92077552E-01 0.18146638E+04</pdfrwt>
<totfact> 0.14129723E+01</totfact>
</mgrwt>
</event>
<event>
 6    1  0.2664745E-005  0.3580977E+04  0.7818608E-02  0.8094863E-01
          2   -1    0    0  501    0  0.00000000000E+00  0.00000000000E+00  0.19932348813E+04  0.19932348813E+04  0.00000000000E+00 0.  1.
         -2   -1    0    0    0  501 -0.00000000000E+00 -0.00000000000E+00 -0.16083647055E+04  0.16083647055E+04  0.00000000000E+00 0. -1.
         23    2    1    2    0    0  0.13393789462E+04 -0.67036464899E+03 -0.79208289732E+03  0.16967260318E+04  0.90328215708E+02 0.  0.
         13    1    3    3    0    0  0.81915590672E+03 -0.38576156137E+03 -0.52192698383E+03  0.10451010277E+04  0.00000000000E+00 0. -1.
        -13    1    3    3    0    0  0.52022303949E+03 -0.28460308762E+03 -0.27015591349E+03  0.65162500404E+03  0.00000000000E+00 0.  1.
         22    1    1    2    0    0 -0.13393789462E+04  0.67036464899E+03  0.11769530731E+04  0.19048735550E+04  0.00000000000E+00 0.  1.
<mgrwt>
<rscale>  0 0.35809768E+04</rscale>
<asrwt>0</asrwt>
<pdfrwt beam="1">  1        2 0.30665152E+00 0.35809768E+04</pdfrwt>
<pdfrwt beam="2">  1       -2 0.24744072E+00 0.35809768E+04</pdfrwt>
<totfact> 0.36662277E-01</totfact>
</mgrwt>
</event>
<event>
 6    1  0.1934315E-005  0.2682482E+04  0.7818608E-02  0.8340711E-01
         -2   -1    0    0    0  501 -0.00000000000E+00  0.00000000000E+00  0.22421234588E+04  0.22421234588E+04  0.00000000000E+00 0. -1.
          2   -1    0    0  501    0  0.00000000000E+00 -0.00000000000E+00 -0.80233201903E+03  0.80233201903E+03  0.00000000000E+00 0.  1.
         23    2    1    2    0    0  0.20549241568E+03 -0.48895273235E+03  0.21169638659E+04  0.21843017695E+04  0.91303359677E+02 0.  0.
         13    1    3    3    0    0  0.16203112786E+03 -0.30172839440E+03  0.14714618052E+04  0.15107924922E+04  0.00000000000E+00 0.  1.
        -13    1    3    3    0    0  0.43461287815E+02 -0.18722433795E+03  0.64550206064E+03  0.67350927726E+03  0.00000000000E+00 0. -1.
         22    1    1    2    0    0 -0.20549241568E+03  0.48895273235E+03 -0.67717242607E+03  0.86015370835E+03  0.00000000000E+00 0.  1.
<mgrwt>
<rscale>  0 0.26824820E+04</rscale>
<asrwt>0</asrwt>
<pdfrwt beam="1">  1        2 0.12343570E+00 0.26824820E+04</pdfrwt>
<pdfrwt beam="2">  1       -2 0.34494207E+00 0.26824820E+04</pdfrwt>
<totfact> 0.50475169E-01</totfact>
</mgrwt>
</event>
<event>
 6    1  0.1934315E-005  0.2609443E+04  0.7818608E-02  0.8365001E-01
         -2   -1    0    0    0  501 -0.00000000000E+00  0.00000000000E+00  0.77846356787E+03  0.77846356787E+03  0.00000000000E+00 0. -1.
          2   -1    0    0  501    0  0.00000000000E+00 -0.00000000000E+00 -0.21867401972E+04  0.21867401972E+04  0.00000000000E+00 0.  1.
         23    2    1    2    0    0  0.82386697587E+03  0.10933713341E+03  0.43556534695E+03  0.94271405282E+03  0.91001160656E+02 0.  0.
         13    1    3    3    0    0  0.69355713941E+03  0.11492252169E+03  0.33932702926E+03  0.78062252363E+03  0.00000000000E+00 0. -1.
        -13    1    3    3    0    0  0.13030983646E+03 -0.55853882812E+01  0.96238317695E+02  0.16209152919E+03  0.00000000000E+00 0.  1.
         22    1    1    2    0    0 -0.82386697587E+03 -0.10933713341E+03 -0.18438419763E+04  0.20224897122E+04  0.00000000000E+00 0.  1.
<mgrwt>
<rscale>  0 0.26094425E+04</rscale>
<asrwt>0</asrwt>
<pdfrwt beam="1">  1        2 0.33642156E+00 0.26094425E+04</pdfrwt>
<pdfrwt beam="2">  1       -2 0.11976363E+00 0.26094425E+04</pdfrwt>
<totfact> 0.24774849E+00</totfact>
</mgrwt>
</event>
<event>
 6    1  0.1934315E-005  0.2001893E+04  0.7818608E-02  0.8605736E-01
          2   -1    0    0  501    0  0.00000000000E+00  0.00000000000E+00  0.77524958978E+03  0.77524958978E+03  0.00000000000E+00 0.  1.
         -2   -1    0    0    0  501 -0.00000000000E+00 -0.00000000000E+00 -0.12923497423E+04  0.12923497423E+04  0.00000000000E+00 0. -1.
         23    2    1    2    0    0 -0.13647433406E+03  0.96735234862E+03 -0.42040037521E+02  0.98128541656E+03  0.82206409536E+02 0.  0.
         13    1    3    3    0    0 -0.11255517299E+03  0.55007230368E+03 -0.45452832721E+02  0.56330645855E+03  0.00000000000E+00 0.  1.
        -13    1    3    3    0    0 -0.23919161076E+02  0.41728004494E+03  0.34127952003E+01  0.41797895801E+03  0.00000000000E+00 0. -1.
         22    1    1    2    0    0  0.13647433406E+03 -0.96735234862E+03 -0.47506011503E+03  0.10863139156E+04  0.00000000000E+00 0.  1.
<mgrwt>
<rscale>  0 0.20018927E+04</rscale>
<asrwt>0</asrwt>
<pdfrwt beam="1">  1        2 0.11926917E+00 0.20018927E+04</pdfrwt>
<pdfrwt beam="2">  1       -2 0.19882304E+00 0.20018927E+04</pdfrwt>
<totfact> 0.45139664E+00</totfact>
</mgrwt>
</event>
<event>
 6    1  0.1934315E-005  0.2363863E+04  0.7818608E-02  0.8453158E-01
          2   -1    0    0  501    0  0.00000000000E+00  0.00000000000E+00  0.26658824885E+04  0.26658824885E+04  0.00000000000E+00 0.  1.
         -2   -1    0    0    0  501 -0.00000000000E+00 -0.00000000000E+00 -0.52401504020E+03  0.52401504020E+03  0.00000000000E+00 0. -1.
         23    2    1    2    0    0 -0.29209931511E+03  0.10985863551E+04  0.64475585230E+03  0.13101217122E+04  0.92167250817E+02 0.  0.
         11    1    3    3    0    0 -0.22366741811E+03  0.71948191099E+03  0.46119756085E+03  0.88339375383E+03  0.00000000000E+00 0. -1.
        -11    1    3    3    0    0 -0.68431897002E+02  0.37910444412E+03  0.18355829144E+03  0.42672795835E+03  0.00000000000E+00 0.  1.
         22    1    1    2    0    0  0.29209931511E+03 -0.10985863551E+04  0.14971115960E+04  0.18797758166E+04  0.00000000000E+00 0. -1.
<mgrwt>
<rscale>  0 0.23638634E+04</rscale>
<asrwt>0</asrwt>
<pdfrwt beam="1">  1        2 0.41013576E+00 0.23638634E+04</pdfrwt>
<pdfrwt beam="2">  1       -2 0.80617700E-01 0.23638634E+04</pdfrwt>
<totfact> 0.34094904E+00</totfact>
</mgrwt>
</event>
<event>
 6    1  0.1934315E-005  0.1831872E+04  0.7818608E-02  0.8689532E-01
          2   -1    0    0  501    0  0.00000000000E+00  0.00000000000E+00  0.20629553677E+04  0.20629553677E+04  0.00000000000E+00 0.  1.
         -2   -1    0    0    0  501 -0.00000000000E+00 -0.00000000000E+00 -0.40666841116E+03  0.40666841116E+03  0.00000000000E+00 0. -1.
         23    2    1    2    0    0 -0.27433460277E+03  0.44643823284E+03  0.18392159894E+04  0.19146196337E+04  0.92121201780E+02 0.  0.
         13    1    3    3    0    0 -0.14918551396E+03  0.21254106632E+03  0.75440282751E+03  0.79784312280E+03  0.00000000000E+00 0.  1.
        -13    1    3    3    0    0 -0.12514908881E+03  0.23389716652E+03  0.10848131619E+04  0.11167765109E+04  0.00000000000E+00 0. -1.
         22    1    1    2    0    0  0.27433460277E+03 -0.44643823284E+03 -0.18292903296E+03  0.55500414514E+03  0.00000000000E+00 0. -1.
<mgrwt>
<rscale>  0 0.18318720E+04</rscale>
<asrwt>0</asrwt>
<pdfrwt beam="1">  1        2 0.31737774E+00 0.18318720E+04</pdfrwt>
<pdfrwt beam="2">  1       -2 0.62564372E-01 0.18318720E+04</pdfrwt>
<totfact> 0.13750588E+01</totfact>
</mgrwt>
</event>
<event>
 6    1  0.1934315E-005  0.1650889E+04  0.7818608E-02  0.8789881E-01
          2   -1    0    0  501    0  0.00000000000E+00  0.00000000000E+00  0.99321142576E+03  0.99321142576E+03  0.00000000000E+00 0.  1.
         -2   -1    0    0    0  501 -0.00000000000E+00 -0.00000000000E+00 -0.68601531067E+03  0.68601531067E+03  0.00000000000E+00 0. -1.
         23    2    1    2    0    0 -0.35835192878E+03  0.65922569320E+02  0.90509698954E+03  0.97905008324E+03  0.81096331704E+02 0.  0.
         13    1    3    3    0    0 -0.19705176248E+03  0.76931389723E+02  0.52227951177E+03  0.56349243494E+03  0.00000000000E+00 0. -1.
        -13    1    3    3    0    0 -0.16130016630E+03 -0.11008820403E+02  0.38281747777E+03  0.41555764830E+03  0.00000000000E+00 0.  1.
         22    1    1    2    0    0  0.35835192878E+03 -0.65922569320E+02 -0.59790087445E+03  0.70017665319E+03  0.00000000000E+00 0. -1.
<mgrwt>
<rscale>  0 0.16508885E+04</rscale>
<asrwt>0</asrwt>
<pdfrwt beam="1">  1        2 0.15280176E+00 0.16508885E+04</pdfrwt>
<pdfrwt beam="2">  1       -2 0.10554082E+00 0.16508885E+04</pdfrwt>
<totfact> 0.17648607E+01</totfact>
</mgrwt>
</event>
<event>
 6    1  0.1934315E-005  0.2627314E+04  0.7818608E-02  0.8358982E-01
          2   -1    0    0  501    0  0.00000000000E+00  0.00000000000E+00  0.14399864420E+04  0.14399864420E+04  0.00000000000E+00 0.  1.
         -2   -1    0    0    0  501 -0.00000000000E+00 -0.00000000000E+00 -0.11984106644E+04  0.11984106644E+04  0.00000000000E+00 0. -1.
         23    2    1    2    0    0  0.12584362430E+04  0.32200212092E+03 -0.64863204844E+02  0.13037615780E+04  0.90773748086E+02 0.  0.
         11    1    3    3    0    0  0.54828670232E+03  0.12039318689E+03  0.12638576263E+02  0.56149137215E+03  0.00000000000E+00 0. -1.
        -11    1    3    3    0    0  0.71014954069E+03  0.20160893404E+03 -0.77501781107E+02  0.74227020586E+03  0.00000000000E+00 0.  1.
         22    1    1    2    0    0 -0.12584362430E+04 -0.32200212092E+03  0.30643898240E+03  0.13346355284E+04  0.00000000000E+00 0.  1.
<mgrwt>
<rscale>  0 0.26273143E+04</rscale>
<asrwt>0</asrwt>
<pdfrwt beam="1">  1        2 0.22153638E+00 0.26273143E+04</pdfrwt>
<pdfrwt beam="2">  1       -2 0.18437087E+00 0.26273143E+04</pdfrwt>
<totfact> 0.20506067E+00</totfact>
</mgrwt>
</event>
<event>
 6    1  0.1934315E-005  0.1774617E+04  0.7818608E-02  0.8719915E-01
          2   -1    0    0  501    0  0.00000000000E+00  0.00000000000E+00  0.28775015741E+04  0.28775015741E+04  0.00000000000E+00 0.  1.
         -2   -1    0    0    0  501 -0.00000000000E+00 -0.00000000000E+00 -0.27361113827E+03  0.27361113827E+03  0.00000000000E+00 0. -1.
         23    2    1    2    0    0 -0.80208759004E+03 -0.27885607462E+03  0.17488414459E+04  0.19460342968E+04  0.86590236905E+02 0.  0.
         11    1    3    3    0    0 -0.27281223602E+03 -0.59433044481E+02  0.52141705565E+03  0.59146813001E+03  0.00000000000E+00 0.  1.
        -11    1    3    3    0    0 -0.52927535402E+03 -0.21942303014E+03  0.12274243902E+04  0.13545661668E+04  0.00000000000E+00 0. -1.
         22    1    1    2    0    0  0.80208759004E+03  0.27885607462E+03  0.85504898999E+03  0.12050784156E+04  0.00000000000E+00 0. -1.
<mgrwt>
<rscale>  0 0.17746171E+04</rscale>
<asrwt>0</asrwt>
<pdfrwt beam="1">  1        2 0.44269253E+00 0.17746171E+04</pdfrwt>
<pdfrwt beam="2">  1       -2 0.42094023E-01 0.17746171E+04</pdfrwt>
<totfact> 0.10528738E+01</totfact>
</mgrwt>
</event>
<event>
 6    1  0.1934315E-005  0.3815628E+04  0.7818608E-02  0.8042809E-01
          2   -1    0    0  501    0  0.00000000000E+00  0.00000000000E+00  0.21768215136E+04  0.21768215136E+04  0.00000000000E+00 0.  1.
         -2   -1    0    0    0  501 -0.00000000000E+00 -0.00000000000E+00 -0.16720502544E+04  0.16720502544E+04  0.00000000000E+00 0. -1.
         23    2    1    2    0    0 -0.18600699569E+04 -0.13182910620E+03 -0.14864138610E+03  0.18729701402E+04  0.93186516588E+02 0.  0.
         13    1    3    3    0    0 -0.16114848770E+04 -0.14320587265E+03 -0.11592409771E+03  0.16219833005E+04  0.00000000000E+00 0.  1.
        -13    1    3    3    0    0 -0.24858507989E+03  0.11376766449E+02 -0.32717288389E+02  0.25098683973E+03  0.00000000000E+00 0. -1.
         22    1    1    2    0    0  0.18600699569E+04  0.13182910620E+03  0.65341264531E+03  0.19759016278E+04  0.00000000000E+00 0.  1.
<mgrwt>
<rscale>  0 0.38156284E+04</rscale>
<asrwt>0</asrwt>
<pdfrwt beam="1">  1        2 0.33489562E+00 0.38156284E+04</pdfrwt>
<pdfrwt beam="2">  1       -2 0.25723850E+00 0.38156284E+04</pdfrwt>
<totfact> 0.24720109E-01</totfact>
</mgrwt>
</event>
<event>
 6    1  0.1934315E-005  0.2182199E+04  0.7818608E-02  0.8525874E-01
          2   -1    0    0  501    0  0.00000000000E+00  0.00000000000E+00  0.13242609200E+04  0.13242609200E+04  0.00000000000E+00 0.  1.
         -2   -1    0    0    0  501 -0.00000000000E+00 -0.00000000000E+00 -0.89899076790E+03  0.89899076790E+03  0.00000000000E+00 0. -1.
         23    2    1    2    0    0  0.79660722626E+02 -0.10752495050E+04  0.37128121521E+03  0.11437044985E+04  0.87766225486E+02 0.  0.
         13    1    3    3    0    0  0.97117843239E+02 -0.86156908107E+03  0.28608979367E+03  0.91300631267E+03  0.00000000000E+00 0.  1.
        -13    1    3    3    0    0 -0.17457120613E+02 -0.21368042396E+03  0.85191421548E+02  0.23069818584E+03  0.00000000000E+00 0. -1.
         22    1    1    2    0    0 -0.79660722626E+02  0.10752495050E+04  0.53988936901E+02  0.10795471894E+04  0.00000000000E+00 0.  1.
<mgrwt>
<rscale>  0 0.21821992E+04</rscale>
<asrwt>0</asrwt>
<pdfrwt beam="1">  1        2 0.20373245E+00 0.21821992E+04</pdfrwt>
<pdfrwt beam="2">  1       -2 0.13830627E+00 0.21821992E+04</pdfrwt>
<totfact> 0.54308174E+00</totfact>
</mgrwt>
</event>
<event>
 6    1  0.1934315E-005  0.1119769E+04  0.7818608E-02  0.9186136E-01
         -2   -1    0    0    0  501 -0.00000000000E+00  0.00000000000E+00  0.21198909945E+03  0.21198909945E+03  0.00000000000E+00 0. -1.
          2   -1    0    0  501    0  0.00000000000E+00 -0.00000000000E+00 -0.14787099222E+04  0.14787099222E+04  0.00000000000E+00 0.  1.
         23    2    1    2    0    0 -0.74231153997E+02 -0.22678353413E+03 -0.13963131870E+04  0.14191567294E+04  0.85873576288E+02 0.  0.
         11    1    3    3    0    0 -0.53046129159E+02 -0.21449202881E+03 -0.13344976465E+04  0.13526657720E+04  0.00000000000E+00 0.  1.
        -11    1    3    3    0    0 -0.21185024838E+02 -0.12291505319E+02 -0.61815540481E+02  0.66490957471E+02  0.00000000000E+00 0. -1.
         22    1    1    2    0    0  0.74231153997E+02  0.22678353413E+03  0.12959236422E+03  0.27154229217E+03  0.00000000000E+00 0. -1.
<mgrwt>
<rscale>  0 0.11197685E+04</rscale>
<asrwt>0</asrwt>
<pdfrwt beam="1">  1        2 0.22749382E+00 0.11197685E+04</pdfrwt>
<pdfrwt beam="2">  1       -2 0.32613709E-01 0.11197685E+04</pdfrwt>
<totfact> 0.11333652E+02</totfact>
</mgrwt>
</event>
<event>
 6    1  0.1934315E-005  0.6100219E+03  0.7818608E-02  0.9884829E-01
         -2   -1    0    0    0  501 -0.00000000000E+00  0.00000000000E+00  0.12930906479E+04  0.12930906479E+04  0.00000000000E+00 0. -1.
          2   -1    0    0  501    0  0.00000000000E+00 -0.00000000000E+00 -0.71945201977E+02  0.71945201977E+02  0.00000000000E+00 0.  1.
         23    2    1    2    0    0  0.92041271470E+02  0.60379372059E+02  0.12443219538E+04  0.12525440069E+04  0.91717501848E+02 0.  0.
         13    1    3    3    0    0  0.41908857311E+02  0.75778303437E+02  0.61916796084E+03  0.62519410371E+03  0.00000000000E+00 0.  1.
        -13    1    3    3    0    0  0.50132414159E+02 -0.15398931378E+02  0.62515399299E+03  0.62734990315E+03  0.00000000000E+00 0. -1.
         22    1    1    2    0    0 -0.92041271470E+02 -0.60379372059E+02 -0.23176507905E+02  0.11249184301E+03  0.00000000000E+00 0.  1.
<mgrwt>
<rscale>  0 0.61002186E+03</rscale>
<asrwt>0</asrwt>
<pdfrwt beam="1">  1        2 0.11068494E-01 0.61002186E+03</pdfrwt>
<pdfrwt beam="2">  1       -2 0.19893701E+00 0.61002186E+03</pdfrwt>
<totfact> 0.80960411E+01</totfact>
</mgrwt>
</event>
<event>
 6    1  0.1934315E-005  0.2189237E+04  0.7818608E-02  0.8522921E-01
          1   -1    0    0  501    0  0.00000000000E+00  0.00000000000E+00  0.17555671029E+04  0.17555671029E+04  0.00000000000E+00 0.  1.
         -1   -1    0    0    0  501 -0.00000000000E+00 -0.00000000000E+00 -0.68250850003E+03  0.68250850003E+03  0.00000000000E+00 0. -1.
         23    2    1    2    0    0  0.10704533317E+04 -0.18084400499E+03  0.67639557744E+03  0.12822570855E+04  0.89985368821E+02 0.  0.
         13    1    3    3    0    0  0.45722615529E+03 -0.32422565674E+02  0.27937022190E+03  0.53680042915E+03  0.00000000000E+00 0. -1.
        -13    1    3    3    0    0  0.61322717643E+03 -0.14842143932E+03  0.39702535553E+03  0.74545665635E+03  0.00000000000E+00 0.  1.
         22    1    1    2    0    0 -0.10704533317E+04  0.18084400499E+03  0.39666302546E+03  0.11558185175E+04  0.00000000000E+00 0. -1.
<mgrwt>
<rscale>  0 0.21892368E+04</rscale>
<asrwt>0</asrwt>
<pdfrwt beam="1">  1        1 0.27008724E+00 0.21892368E+04</pdfrwt>
<pdfrwt beam="2">  1       -1 0.10500131E+00 0.21892368E+04</pdfrwt>
<totfact> 0.33929818E+00</totfact>
</mgrwt>
</event>
<event>
 6    1  0.1934315E-005  0.3402947E+04  0.7818608E-02  0.8137183E-01
         -2   -1    0    0    0  501 -0.00000000000E+00  0.00000000000E+00  0.64078016168E+03  0.64078016168E+03  0.00000000000E+00 0. -1.
          2   -1    0    0  501    0  0.00000000000E+00 -0.00000000000E+00 -0.45179487909E+04  0.45179487909E+04  0.00000000000E+00 0.  1.
         23    2    1    2    0    0 -0.97772525037E+03  0.48599620769E+03  0.35747824722E+02  0.10963338272E+04  0.92363275148E+02 0.  0.
         13    1    3    3    0    0 -0.33396275925E+03  0.13302158258E+03  0.43575604579E+02  0.36211144599E+03  0.00000000000E+00 0. -1.
        -13    1    3    3    0    0 -0.64376249112E+03  0.35297462512E+03 -0.78277798577E+01  0.73422238122E+03  0.00000000000E+00 0.  1.
         22    1    1    2    0    0  0.97772525037E+03 -0.48599620769E+03 -0.39129164539E+04  0.40623951254E+04  0.00000000000E+00 0.  1.
<mgrwt>
<rscale>  0 0.34029469E+04</rscale>
<asrwt>0</asrwt>
<pdfrwt beam="1">  1        2 0.69506903E+00 0.34029469E+04</pdfrwt>
<pdfrwt beam="2">  1       -2 0.98581565E-01 0.34029469E+04</pdfrwt>
<totfact> 0.83268874E-02</totfact>
</mgrwt>
</event>
<event>
 6    1  0.1934315E-005  0.3340741E+04  0.7818608E-02  0.8152605E-01
         -2   -1    0    0    0  501 -0.00000000000E+00  0.00000000000E+00  0.21616837212E+04  0.21616837212E+04  0.00000000000E+00 0. -1.
          2   -1    0    0  501    0  0.00000000000E+00 -0.00000000000E+00 -0.12907245058E+04  0.12907245058E+04  0.00000000000E+00 0.  1.
         23    2    1    2    0    0 -0.77619641634E+03  0.43128500470E+03 -0.10247290857E+04  0.13590564249E+04  0.92070815294E+02 0.  0.
         11    1    3    3    0    0 -0.11011883179E+03  0.96971682165E+02 -0.14873236995E+03  0.20892817456E+03  0.00000000000E+00 0. -1.
        -11    1    3    3    0    0 -0.66607758455E+03  0.33431332253E+03 -0.87599671577E+03  0.11501282504E+04  0.00000000000E+00 0.  1.
         22    1    1    2    0    0  0.77619641634E+03 -0.43128500470E+03  0.18956883011E+04  0.20933518020E+04  0.00000000000E+00 0. -1.
<mgrwt>
<rscale>  0 0.33407413E+04</rscale>
<asrwt>0</asrwt>
<pdfrwt beam="1">  1        2 0.19857300E+00 0.33407413E+04</pdfrwt>
<pdfrwt beam="2">  1       -2 0.33256673E+00 0.33407413E+04</pdfrwt>
<totfact> 0.27872889E-01</totfact>
</mgrwt>
</event>
<event>
 6    1  0.1934315E-005  0.1381254E+04  0.7818608E-02  0.8967500E-01
          2   -1    0    0  501    0  0.00000000000E+00  0.00000000000E+00  0.13257299120E+04  0.13257299120E+04  0.00000000000E+00 0.  1.
         -2   -1    0    0    0  501 -0.00000000000E+00 -0.00000000000E+00 -0.35977610490E+03  0.35977610490E+03  0.00000000000E+00 0. -1.
         23    2    1    2    0    0  0.23796215526E+02  0.16584694466E+03  0.12988227810E+04  0.13128490396E+04  0.92523052082E+02 0.  0.
         13    1    3    3    0    0  0.50392665776E+02  0.15438857968E+03  0.11105267443E+04  0.11223390326E+04  0.00000000000E+00 0. -1.
        -13    1    3    3    0    0 -0.26596450251E+02  0.11458364980E+02  0.18829603677E+03  0.19051000697E+03  0.00000000000E+00 0.  1.
         22    1    1    2    0    0 -0.23796215526E+02 -0.16584694466E+03 -0.33286897397E+03  0.37265697733E+03  0.00000000000E+00 0. -1.
<mgrwt>
<rscale>  0 0.13812544E+04</rscale>
<asrwt>0</asrwt>
<pdfrwt beam="1">  1        2 0.20395845E+00 0.13812544E+04</pdfrwt>
<pdfrwt beam="2">  1       -2 0.55350171E-01 0.13812544E+04</pdfrwt>
<totfact> 0.47749941E+01</totfact>
</mgrwt>
</event>
<event>
 6    1  0.1934315E-005  0.1345355E+04  0.7818608E-02  0.8994352E-01
          2   -1    0    0  501    0  0.00000000000E+00  0.00000000000E+00  0.30276472873E+04  0.30276472873E+04  0.00000000000E+00 0. -1.
         -2   -1    0    0    0  501 -0.00000000000E+00 -0.00000000000E+00 -0.14945427816E+03  0.14945427816E+03  0.00000000000E+00 0.  1.
         23    2    1    2    0    0 -0.24743094576E+03  0.55686363717E+03  0.21011446831E+04  0.21896182571E+04  0.91104056943E+02 0.  0.
         13    1    3    3    0    0 -0.12857042144E+03  0.35578408856E+03  0.11708930134E+04  0.12304889759E+04  0.00000000000E+00 0. -1.
        -13    1    3    3    0    0 -0.11886052432E+03  0.20107954861E+03  0.93025166967E+03  0.95912928119E+03  0.00000000000E+00 0.  1.
         22    1    1    2    0    0  0.24743094576E+03 -0.55686363717E+03  0.77704832612E+03  0.98748330844E+03  0.00000000000E+00 0.  1.
<mgrwt>
<rscale>  0 0.13453547E+04</rscale>
<asrwt>0</asrwt>
<pdfrwt beam="1">  1        2 0.46579185E+00 0.13453547E+04</pdfrwt>
<pdfrwt beam="2">  1       -2 0.22992968E-01 0.13453547E+04</pdfrwt>
<totfact> 0.27566041E+01</totfact>
</mgrwt>
</event>
<event>
 6    1  0.1934315E-005  0.4444611E+04  0.7818608E-02  0.7920406E-01
          2   -1    0    0  501    0  0.00000000000E+00  0.00000000000E+00  0.29863696262E+04  0.29863696262E+04  0.00000000000E+00 0.  1.
         -2   -1    0    0    0  501 -0.00000000000E+00 -0.00000000000E+00 -0.16537274164E+04  0.16537274164E+04  0.00000000000E+00 0. -1.
         23    2    1    2    0    0  0.16779218185E+04  0.61739326928E+03 -0.70958148627E+03  0.19258248192E+04  0.93269881249E+02 0.  0.
         11    1    3    3    0    0  0.10585320981E+04  0.43188774385E+03 -0.43104670051E+03  0.12218095122E+04  0.00000000000E+00 0. -1.
        -11    1    3    3    0    0  0.61938972033E+03  0.18550552543E+03 -0.27853478576E+03  0.70401530700E+03  0.00000000000E+00 0.  1.
         22    1    1    2    0    0 -0.16779218185E+04 -0.61739326928E+03  0.20422236961E+04  0.27142722234E+04  0.00000000000E+00 0.  1.
<mgrwt>
<rscale>  0 0.44446108E+04</rscale>
<asrwt>0</asrwt>
<pdfrwt beam="1">  1        2 0.45944148E+00 0.44446108E+04</pdfrwt>
<pdfrwt beam="2">  1       -2 0.25441960E+00 0.44446108E+04</pdfrwt>
<totfact> 0.81541725E-02</totfact>
</mgrwt>
</event>
<event>
 6    1  0.1934315E-005  0.3988765E+04  0.7818608E-02  0.8006817E-01
          2   -1    0    0  501    0  0.00000000000E+00  0.00000000000E+00  0.18925563333E+04  0.18925563333E+04  0.00000000000E+00 0.  1.
         -2   -1    0    0    0  501 -0.00000000000E+00 -0.00000000000E+00 -0.21016868398E+04  0.21016868398E+04  0.00000000000E+00 0. -1.
         23    2    1    2    0    0  0.13750782049E+03 -0.14596946802E+04 -0.14569750559E+04  0.20689554076E+04  0.90461070193E+02 0.  0.
         13    1    3    3    0    0  0.64799131481E+02 -0.10901496433E+04 -0.10668519696E+04  0.15266952208E+04  0.00000000000E+00 0. -1.
        -13    1    3    3    0    0  0.72708689013E+02 -0.36954503687E+03 -0.39012308633E+03  0.54226018683E+03  0.00000000000E+00 0.  1.
         22    1    1    2    0    0 -0.13750782049E+03  0.14596946802E+04  0.12478445494E+04  0.19252877654E+04  0.00000000000E+00 0.  1.
<mgrwt>
<rscale>  0 0.39887646E+04</rscale>
<asrwt>0</asrwt>
<pdfrwt beam="1">  1        2 0.29116251E+00 0.39887646E+04</pdfrwt>
<pdfrwt beam="2">  1       -2 0.32333644E+00 0.39887646E+04</pdfrwt>
<totfact> 0.13819573E-01</totfact>
</mgrwt>
</event>
<event>
 6    1  0.1934315E-005  0.4400926E+04  0.7818608E-02  0.7928215E-01
          2   -1    0    0  501    0  0.00000000000E+00  0.00000000000E+00  0.37526981729E+04  0.37526981729E+04  0.00000000000E+00 0.  1.
         -2   -1    0    0    0  501 -0.00000000000E+00 -0.00000000000E+00 -0.12902816760E+04  0.12902816760E+04  0.00000000000E+00 0. -1.
         23    2    1    2    0    0 -0.55273800467E+03  0.10037956508E+04 -0.91964562437E+03  0.14720599110E+04  0.89929399210E+02 0.  0.
         11    1    3    3    0    0 -0.17465864268E+03  0.40509246040E+03 -0.36674249505E+03  0.57367726171E+03  0.00000000000E+00 0. -1.
        -11    1    3    3    0    0 -0.37807936199E+03  0.59870319037E+03 -0.55290312932E+03  0.89838264929E+03  0.00000000000E+00 0.  1.
         22    1    1    2    0    0  0.55273800467E+03 -0.10037956508E+04  0.33820621213E+04  0.35709199379E+04  0.00000000000E+00 0.  1.
<mgrwt>
<rscale>  0 0.44009261E+04</rscale>
<asrwt>0</asrwt>
<pdfrwt beam="1">  1        2 0.57733818E+00 0.44009261E+04</pdfrwt>
<pdfrwt beam="2">  1       -2 0.19850487E+00 0.44009261E+04</pdfrwt>
<totfact> 0.55252683E-02</totfact>
</mgrwt>
</event>
<event>
 6    1  0.1934315E-005  0.2151938E+04  0.7818608E-02  0.8538703E-01
         -2   -1    0    0    0  501 -0.00000000000E+00  0.00000000000E+00  0.81798573239E+03  0.81798573239E+03  0.00000000000E+00 0. -1.
          2   -1    0    0  501    0  0.00000000000E+00 -0.00000000000E+00 -0.14153170578E+04  0.14153170578E+04  0.00000000000E+00 0.  1.
         23    2    1    2    0    0  0.90987462069E+03 -0.47104494415E+03 -0.63337254327E+03  0.12080934779E+04  0.92595398842E+02 0.  0.
         13    1    3    3    0    0  0.17136809071E+03 -0.66034187178E+02 -0.14886978045E+03  0.23641012651E+03  0.00000000000E+00 0. -1.
        -13    1    3    3    0    0  0.73850652999E+03 -0.40501075697E+03 -0.48450276282E+03  0.97168335134E+03  0.00000000000E+00 0.  1.
         22    1    1    2    0    0 -0.90987462069E+03  0.47104494415E+03  0.36041217815E+02  0.10252093124E+04  0.00000000000E+00 0. -1.
<mgrwt>
<rscale>  0 0.21519379E+04</rscale>
<asrwt>0</asrwt>
<pdfrwt beam="1">  1        2 0.21774108E+00 0.21519379E+04</pdfrwt>
<pdfrwt beam="2">  1       -2 0.12584396E+00 0.21519379E+04</pdfrwt>
<totfact> 0.61362119E+00</totfact>
</mgrwt>
</event>
<event>
 6    1  0.1934315E-005  0.2297057E+04  0.7818608E-02  0.8479082E-01
         -2   -1    0    0    0  501 -0.00000000000E+00  0.00000000000E+00  0.13901721921E+04  0.13901721921E+04  0.00000000000E+00 0. -1.
          2   -1    0    0  501    0  0.00000000000E+00 -0.00000000000E+00 -0.94888782928E+03  0.94888782928E+03  0.00000000000E+00 0.  1.
         23    2    1    2    0    0 -0.29341286071E+03  0.34097013674E+03  0.12950692145E+04  0.13740209994E+04  0.91529751360E+02 0.  0.
         11    1    3    3    0    0 -0.25324810049E+03  0.25863570510E+03  0.11098052353E+04  0.11673451454E+04  0.00000000000E+00 0.  1.
        -11    1    3    3    0    0 -0.40164760220E+02  0.82334431639E+02  0.18526397925E+03  0.20667585395E+03  0.00000000000E+00 0. -1.
         22    1    1    2    0    0  0.29341286071E+03 -0.34097013674E+03 -0.85378485170E+03  0.96503902200E+03  0.00000000000E+00 0.  1.
<mgrwt>
<rscale>  0 0.22970568E+04</rscale>
<asrwt>0</asrwt>
<pdfrwt beam="1">  1        2 0.14598274E+00 0.22970568E+04</pdfrwt>
<pdfrwt beam="2">  1       -2 0.21387264E+00 0.22970568E+04</pdfrwt>
<totfact> 0.26660398E+00</totfact>
</mgrwt>
</event>
<event>
 6    1  0.1934315E-005  0.3628504E+04  0.7818608E-02  0.8083994E-01
         -2   -1    0    0    0  501 -0.00000000000E+00  0.00000000000E+00  0.10315871732E+04  0.10315871732E+04  0.00000000000E+00 0.  1.
          2   -1    0    0  501    0  0.00000000000E+00 -0.00000000000E+00 -0.31907243906E+04  0.31907243906E+04  0.00000000000E+00 0. -1.
         23    2    1    2    0    0  0.41293558991E+03 -0.17071883161E+04 -0.16044704257E+04  0.23803932709E+04  0.83300835288E+02 0.  0.
         11    1    3    3    0    0  0.20581553527E+03 -0.91056428308E+03 -0.90553606828E+03  0.13005702285E+04  0.00000000000E+00 0.  1.
        -11    1    3    3    0    0  0.20712005464E+03 -0.79662403303E+03 -0.69893435740E+03  0.10798230424E+04  0.00000000000E+00 0. -1.
         22    1    1    2    0    0 -0.41293558991E+03  0.17071883161E+04 -0.55466679168E+03  0.18419182929E+04  0.00000000000E+00 0.  1.
<mgrwt>
<rscale>  0 0.36285040E+04</rscale>
<asrwt>0</asrwt>
<pdfrwt beam="1">  1        2 0.49088066E+00 0.36285040E+04</pdfrwt>
<pdfrwt beam="2">  1       -2 0.15870572E+00 0.36285040E+04</pdfrwt>
<totfact> 0.27507092E-01</totfact>
</mgrwt>
</event>
<event>
 6    1  0.1934315E-005  0.1352352E+04  0.7818608E-02  0.8989050E-01
          2   -1    0    0  501    0  0.00000000000E+00  0.00000000000E+00  0.27567146673E+03  0.27567146673E+03  0.00000000000E+00 0.  1.
         -2   -1    0    0    0  501 -0.00000000000E+00 -0.00000000000E+00 -0.16585456682E+04  0.16585456682E+04  0.00000000000E+00 0. -1.
         23    2    1    2    0    0  0.19246477626E+03  0.48912777122E+03 -0.12957735908E+04  0.14014177514E+04  0.93026065707E+02 0.  0.
         13    1    3    3    0    0  0.12103859106E+02  0.10471691366E+03 -0.32979132156E+03  0.34622889999E+03  0.00000000000E+00 0. -1.
        -13    1    3    3    0    0  0.18036091716E+03  0.38441085755E+03 -0.96598226919E+03  0.10551888515E+04  0.00000000000E+00 0.  1.
         22    1    1    2    0    0 -0.19246477626E+03 -0.48912777122E+03 -0.87100610739E+02  0.53279938351E+03  0.00000000000E+00 0.  1.
<mgrwt>
<rscale>  0 0.13523516E+04</rscale>
<asrwt>0</asrwt>
<pdfrwt beam="1">  1        2 0.42410994E-01 0.13523516E+04</pdfrwt>
<pdfrwt beam="2">  1       -2 0.25516088E+00 0.13523516E+04</pdfrwt>
<totfact> 0.70516661E+00</totfact>
</mgrwt>
</event>
<event>
 6    1  0.1934315E-005  0.3363925E+04  0.7818608E-02  0.8146818E-01
          2   -1    0    0  501    0  0.00000000000E+00  0.00000000000E+00  0.25978631853E+04  0.25978631853E+04  0.00000000000E+00 0.  1.
         -2   -1    0    0    0  501 -0.00000000000E+00 -0.00000000000E+00 -0.10889709102E+04  0.10889709102E+04  0.00000000000E+00 0. -1.
         23    2    1    2    0    0  0.92369631925E+03 -0.13376815972E+04  0.12229072145E+04  0.20362601345E+04  0.90809330660E+02 0.  0.
         11    1    3    3    0    0  0.59993820613E+03 -0.79116299934E+03  0.75057086693E+03  0.12446772148E+04  0.00000000000E+00 0.  1.
        -11    1    3    3    0    0  0.32375811312E+03 -0.54651859785E+03  0.47233634761E+03  0.79158291977E+03  0.00000000000E+00 0. -1.
         22    1    1    2    0    0 -0.92369631925E+03  0.13376815972E+04  0.28598506051E+03  0.16505739609E+04  0.00000000000E+00 0. -1.
<mgrwt>
<rscale>  0 0.33639248E+04</rscale>
<asrwt>0</asrwt>
<pdfrwt beam="1">  1        2 0.39967126E+00 0.33639248E+04</pdfrwt>
<pdfrwt beam="2">  1       -2 0.16753399E+00 0.33639248E+04</pdfrwt>
<totfact> 0.56274572E-01</totfact>
</mgrwt>
</event>
<event>
 6    1  0.1934315E-005  0.3715851E+04  0.7818608E-02  0.8064458E-01
          2   -1    0    0  501    0  0.00000000000E+00  0.00000000000E+00  0.30902628625E+04  0.30902628625E+04  0.00000000000E+00 0.  1.
         -2   -1    0    0    0  501 -0.00000000000E+00 -0.00000000000E+00 -0.11170205456E+04  0.11170205456E+04  0.00000000000E+00 0. -1.
         23    2    1    2    0    0  0.28088529201E+03 -0.71684291211E+03 -0.92595363926E+03  0.12076005081E+04  0.90269248677E+02 0.  0.
         11    1    3    3    0    0  0.14411907577E+03 -0.27582721413E+03 -0.41831557844E+03  0.52138170588E+03  0.00000000000E+00 0.  1.
        -11    1    3    3    0    0  0.13676621624E+03 -0.44101569798E+03 -0.50763806082E+03  0.68621880225E+03  0.00000000000E+00 0. -1.
         22    1    1    2    0    0 -0.28088529201E+03  0.71684291211E+03  0.28991959562E+04  0.29996828999E+04  0.00000000000E+00 0.  1.
<mgrwt>
<rscale>  0 0.37158510E+04</rscale>
<asrwt>0</asrwt>
<pdfrwt beam="1">  1        2 0.47542505E+00 0.37158510E+04</pdfrwt>
<pdfrwt beam="2">  1       -2 0.17184932E+00 0.37158510E+04</pdfrwt>
<totfact> 0.25465135E-01</totfact>
</mgrwt>
</event>
<event>
 6    1  0.1934315E-005  0.2217304E+04  0.7818608E-02  0.8511260E-01
          2   -1    0    0  501    0  0.00000000000E+00  0.00000000000E+00  0.30465691455E+04  0.30465691455E+04  0.00000000000E+00 0.  1.
         -2   -1    0    0    0  501 -0.00000000000E+00 -0.00000000000E+00 -0.40344043511E+03  0.40344043511E+03  0.00000000000E+00 0. -1.
         23    2    1    2    0    0  0.17189971816E+03  0.77763721985E+03  0.12818660063E+03  0.81197944920E+03  0.92788267236E+02 0.  0.
         11    1    3    3    0    0  0.62426861912E+02  0.19955174217E+03 -0.32652950439E+01  0.20911401924E+03  0.00000000000E+00 0.  1.
        -11    1    3    3    0    0  0.10947285625E+03  0.57808547768E+03  0.13145189567E+03  0.60286542996E+03  0.00000000000E+00 0. -1.
         22    1    1    2    0    0 -0.17189971816E+03 -0.77763721985E+03  0.25149421098E+04  0.26380301314E+04  0.00000000000E+00 0.  1.
<mgrwt>
<rscale>  0 0.22173039E+04</rscale>
<asrwt>0</asrwt>
<pdfrwt beam="1">  1        2 0.46870293E+00 0.22173039E+04</pdfrwt>
<pdfrwt beam="2">  1       -2 0.62067761E-01 0.22173039E+04</pdfrwt>
<totfact> 0.35845304E+00</totfact>
</mgrwt>
</event>
<event>
 6    1  0.1934315E-005  0.9363779E+03  0.7818608E-02  0.9381216E-01
          2   -1    0    0  501    0  0.00000000000E+00  0.00000000000E+00  0.48103635657E+03  0.48103635657E+03  0.00000000000E+00 0.  1.
         -2   -1    0    0    0  501 -0.00000000000E+00 -0.00000000000E+00 -0.45568471425E+03  0.45568471425E+03  0.00000000000E+00 0. -1.
         23    2    1    2    0    0  0.21095733560E+03  0.37892885713E+03  0.17698516821E+03  0.47728358608E+03  0.91573989537E+02 0.  0.
         13    1    3    3    0    0  0.81147144845E+02  0.67394401593E+02  0.35043060299E+02  0.11115251035E+03  0.00000000000E+00 0. -1.
        -13    1    3    3    0    0  0.12981019076E+03  0.31153445554E+03  0.14194210791E+03  0.36613107572E+03  0.00000000000E+00 0.  1.
         22    1    1    2    0    0 -0.21095733560E+03 -0.37892885713E+03 -0.15163352589E+03  0.45943748474E+03  0.00000000000E+00 0. -1.
<mgrwt>
<rscale>  0 0.93637795E+03</rscale>
<asrwt>0</asrwt>
<pdfrwt beam="1">  1        2 0.74005593E-01 0.93637795E+03</pdfrwt>
<pdfrwt beam="2">  1       -2 0.70105341E-01 0.93637795E+03</pdfrwt>
<totfact> 0.11961943E+02</totfact>
</mgrwt>
</event>
<event>
 6    1  0.1934315E-005  0.2825716E+04  0.7818608E-02  0.8295329E-01
          2   -1    0    0  501    0  0.00000000000E+00  0.00000000000E+00  0.34335079536E+04  0.34335079536E+04  0.00000000000E+00 0.  1.
         -2   -1    0    0    0  501 -0.00000000000E+00 -0.00000000000E+00 -0.58137866351E+03  0.58137866351E+03  0.00000000000E+00 0. -1.
         23    2    1    2    0    0  0.40921539057E+03 -0.11043127180E+04  0.32235280489E+03  0.12244148147E+04  0.91194806520E+02 0.  0.
         13    1    3    3    0    0  0.34238071788E+03 -0.81037293870E+03  0.24475375186E+03  0.91314470638E+03  0.00000000000E+00 0. -1.
        -13    1    3    3    0    0  0.66834672689E+02 -0.29393977926E+03  0.77599053036E+02  0.31127010832E+03  0.00000000000E+00 0.  1.
         22    1    1    2    0    0 -0.40921539057E+03  0.11043127180E+04  0.25297764852E+04  0.27904718024E+04  0.00000000000E+00 0. -1.
<mgrwt>
<rscale>  0 0.28257164E+04</rscale>
<asrwt>0</asrwt>
<pdfrwt beam="1">  1        2 0.52823198E+00 0.28257164E+04</pdfrwt>
<pdfrwt beam="2">  1       -2 0.89442873E-01 0.28257164E+04</pdfrwt>
<totfact> 0.84148824E-01</totfact>
</mgrwt>
</event>
<event>
 6    1  0.1934315E-005  0.2305097E+04  0.7818608E-02  0.8475914E-01
          2   -1    0    0  501    0  0.00000000000E+00  0.00000000000E+00  0.20160973293E+04  0.20160973293E+04  0.00000000000E+00 0.  1.
         -2   -1    0    0    0  501 -0.00000000000E+00 -0.00000000000E+00 -0.65888096108E+03  0.65888096108E+03  0.00000000000E+00 0. -1.
         23    2    1    2    0    0  0.79706029509E+03  0.45579076385E+03 -0.12530495875E+03  0.93115495663E+03  0.91092733763E+02 0.  0.
         11    1    3    3    0    0  0.57683719304E+03  0.36567826493E+03 -0.67642971589E+02  0.68632158084E+03  0.00000000000E+00 0. -1.
        -11    1    3    3    0    0  0.22022310205E+03  0.90112498924E+02 -0.57661987158E+02  0.24483337579E+03  0.00000000000E+00 0.  1.
         22    1    1    2    0    0 -0.79706029509E+03 -0.45579076385E+03  0.14825213270E+04  0.17438233338E+04  0.00000000000E+00 0.  1.
<mgrwt>
<rscale>  0 0.23050971E+04</rscale>
<asrwt>0</asrwt>
<pdfrwt beam="1">  1        2 0.31016882E+00 0.23050971E+04</pdfrwt>
<pdfrwt beam="2">  1       -2 0.10136630E+00 0.23050971E+04</pdfrwt>
<totfact> 0.47430767E+00</totfact>
</mgrwt>
</event>
<event>
 6    1  0.1934315E-005  0.8872107E+03  0.7818608E-02  0.9441711E-01
          2   -1    0    0  501    0  0.00000000000E+00  0.00000000000E+00  0.85187767789E+03  0.85187767789E+03  0.00000000000E+00 0.  1.
         -2   -1    0    0    0  501 -0.00000000000E+00 -0.00000000000E+00 -0.23100232889E+03  0.23100232889E+03  0.00000000000E+00 0. -1.
         23    2    1    2    0    0  0.42957102011E+03 -0.80910702956E+02  0.26524268727E+03  0.51936213372E+03  0.91134733348E+02 0.  0.
         11    1    3    3    0    0  0.23465649688E+03 -0.70092503319E+02  0.10360376013E+03  0.26591421486E+03  0.00000000000E+00 0. -1.
        -11    1    3    3    0    0  0.19491452323E+03 -0.10818199636E+02  0.16163892715E+03  0.25344791887E+03  0.00000000000E+00 0.  1.
         22    1    1    2    0    0 -0.42957102011E+03  0.80910702956E+02  0.35563266172E+03  0.56351787306E+03  0.00000000000E+00 0. -1.
<mgrwt>
<rscale>  0 0.88721075E+03</rscale>
<asrwt>0</asrwt>
<pdfrwt beam="1">  1        2 0.13105810E+00 0.88721075E+03</pdfrwt>
<pdfrwt beam="2">  1       -2 0.35538820E-01 0.88721075E+03</pdfrwt>
<totfact> 0.23593258E+02</totfact>
</mgrwt>
</event>
<event>
 6    1  0.1934315E-005  0.3829544E+04  0.7818608E-02  0.8039844E-01
          2   -1    0    0  501    0  0.00000000000E+00  0.00000000000E+00  0.24644207079E+04  0.24644207079E+04  0.00000000000E+00 0.  1.
         -2   -1    0    0    0  501 -0.00000000000E+00 -0.00000000000E+00 -0.14877133978E+04  0.14877133978E+04  0.00000000000E+00 0. -1.
         23    2    1    2    0    0  0.11739577739E+04 -0.13893861012E+04  0.11022975773E+04  0.21288558745E+04  0.91634013363E+02 0.  0.
         13    1    3    3    0    0  0.46966422639E+03 -0.56175193679E+03  0.39165706809E+03  0.83038845309E+03  0.00000000000E+00 0. -1.
        -13    1    3    3    0    0  0.70429354747E+03 -0.82763416444E+03  0.71064050920E+03  0.12984674214E+04  0.00000000000E+00 0.  1.
         22    1    1    2    0    0 -0.11739577739E+04  0.13893861012E+04 -0.12559026721E+03  0.18232782312E+04  0.00000000000E+00 0. -1.
<mgrwt>
<rscale>  0 0.38295439E+04</rscale>
<asrwt>0</asrwt>
<pdfrwt beam="1">  1        2 0.37914165E+00 0.38295439E+04</pdfrwt>
<pdfrwt beam="2">  1       -2 0.22887898E+00 0.38295439E+04</pdfrwt>
<totfact> 0.25370070E-01</totfact>
</mgrwt>
</event>
<event>
 6    1  0.1934315E-005  0.6888423E+03  0.7818608E-02  0.9736506E-01
          2   -1    0    0  501    0  0.00000000000E+00  0.00000000000E+00  0.22882705026E+04  0.22882705026E+04  0.00000000000E+00 0.  1.
         -2   -1    0    0    0  501 -0.00000000000E+00 -0.00000000000E+00 -0.51840866729E+02  0.51840866729E+02  0.00000000000E+00 0. -1.
         23    2    1    2    0    0  0.22519377846E+03 -0.21687943591E+03  0.15746677257E+04  0.16082112714E+04  0.94953249382E+02 0.  0.
         13    1    3    3    0    0  0.24110393397E+02  0.56710067922E+01  0.17683163029E+03  0.17855782497E+03  0.00000000000E+00 0.  1.
        -13    1    3    3    0    0  0.20108338506E+03 -0.22255044270E+03  0.13978360954E+04  0.14296534464E+04  0.00000000000E+00 0. -1.
         22    1    1    2    0    0 -0.22519377846E+03  0.21687943591E+03  0.66176191022E+03  0.73190009796E+03  0.00000000000E+00 0. -1.
<mgrwt>
<rscale>  0 0.68884229E+03</rscale>
<asrwt>0</asrwt>
<pdfrwt beam="1">  1        2 0.35204154E+00 0.68884229E+03</pdfrwt>
<pdfrwt beam="2">  1       -2 0.79755197E-02 0.68884229E+03</pdfrwt>
<totfact> 0.47186189E+02</totfact>
</mgrwt>
</event>
<event>
 6    1  0.1934315E-005  0.1547311E+04  0.7818608E-02  0.8853587E-01
          2   -1    0    0  501    0  0.00000000000E+00  0.00000000000E+00  0.71621557161E+03  0.71621557161E+03  0.00000000000E+00 0.  1.
         -2   -1    0    0    0  501 -0.00000000000E+00 -0.00000000000E+00 -0.83570174707E+03  0.83570174707E+03  0.00000000000E+00 0. -1.
         23    2    1    2    0    0 -0.70725937271E+03  0.30526847088E+03 -0.86229150827E+02  0.78087212592E+03  0.94451844781E+02 0.  0.
         11    1    3    3    0    0 -0.43213204152E+03  0.17492093273E+03 -0.68163788748E+01  0.46624231579E+03  0.00000000000E+00 0.  1.
        -11    1    3    3    0    0 -0.27512733120E+03  0.13034753815E+03 -0.79412771953E+02  0.31462981013E+03  0.00000000000E+00 0. -1.
         22    1    1    2    0    0  0.70725937271E+03 -0.30526847088E+03 -0.33257024632E+02  0.77104519277E+03  0.00000000000E+00 0.  1.
<mgrwt>
<rscale>  0 0.15473107E+04</rscale>
<asrwt>0</asrwt>
<pdfrwt beam="1">  1        2 0.11018701E+00 0.15473107E+04</pdfrwt>
<pdfrwt beam="2">  1       -2 0.12856950E+00 0.15473107E+04</pdfrwt>
<totfact> 0.17108047E+01</totfact>
</mgrwt>
</event>
<event>
 6    1  0.1934315E-005  0.5353224E+04  0.7818608E-02  0.7776215E-01
          2   -1    0    0  501    0  0.00000000000E+00  0.00000000000E+00  0.26373080882E+04  0.26373080882E+04  0.00000000000E+00 0.  1.
         -2   -1    0    0    0  501 -0.00000000000E+00 -0.00000000000E+00 -0.27165015859E+04  0.27165015859E+04  0.00000000000E+00 0. -1.
         23    2    1    2    0    0  0.22103280290E+04 -0.12645064209E+03  0.14639790313E+04  0.26551208786E+04  0.69946518393E+02 0.  0.
         13    1    3    3    0    0  0.80330001063E+03 -0.28945053708E+02  0.56641368690E+03  0.98333777916E+03  0.00000000000E+00 0. -1.
        -13    1    3    3    0    0  0.14070280184E+04 -0.97505588384E+02  0.89756534438E+03  0.16717830995E+04  0.00000000000E+00 0.  1.
         22    1    1    2    0    0 -0.22103280290E+04  0.12645064209E+03 -0.15431725289E+04  0.26986887954E+04  0.00000000000E+00 0.  1.
<mgrwt>
<rscale>  0 0.53532239E+04</rscale>
<asrwt>0</asrwt>
<pdfrwt beam="1">  1        2 0.40573971E+00 0.53532239E+04</pdfrwt>
<pdfrwt beam="2">  1       -2 0.41792332E+00 0.53532239E+04</pdfrwt>
<totfact> 0.11608872E-02</totfact>
</mgrwt>
</event>
<event>
 6    1  0.1934315E-005  0.1798221E+04  0.7818608E-02  0.8707246E-01
          2   -1    0    0  501    0  0.00000000000E+00  0.00000000000E+00  0.21214284838E+04  0.21214284838E+04  0.00000000000E+00 0.  1.
         -2   -1    0    0    0  501 -0.00000000000E+00 -0.00000000000E+00 -0.38106378303E+03  0.38106378303E+03  0.00000000000E+00 0. -1.
         23    2    1    2    0    0 -0.52249176082E+03  0.72943269659E+03  0.87387876107E+03  0.12551480550E+04  0.81626294779E+02 0.  0.
         13    1    3    3    0    0 -0.31642138835E+03  0.47520445291E+03  0.50720934273E+03  0.76367734314E+03  0.00000000000E+00 0. -1.
        -13    1    3    3    0    0 -0.20607037246E+03  0.25422824369E+03  0.36666941834E+03  0.49147071189E+03  0.00000000000E+00 0.  1.
         22    1    1    2    0    0  0.52249176082E+03 -0.72943269659E+03  0.86648593966E+03  0.12473442118E+04  0.00000000000E+00 0. -1.
<mgrwt>
<rscale>  0 0.17982209E+04</rscale>
<asrwt>0</asrwt>
<pdfrwt beam="1">  1        2 0.32637361E+00 0.17982209E+04</pdfrwt>
<pdfrwt beam="2">  1       -2 0.58625199E-01 0.17982209E+04</pdfrwt>
<totfact> 0.14681374E+01</totfact>
</mgrwt>
</event>
<event>
 6    1  0.1934315E-005  0.5547949E+03  0.7818608E-02  0.1000390E+00
         -2   -1    0    0    0  501 -0.00000000000E+00  0.00000000000E+00  0.10141541157E+03  0.10141541157E+03  0.00000000000E+00 0. -1.
          2   -1    0    0  501    0  0.00000000000E+00 -0.00000000000E+00 -0.75875387973E+03  0.75875387973E+03  0.00000000000E+00 0.  1.
         23    2    1    2    0    0  0.12962613705E+03 -0.19337361657E+03 -0.12525702745E+03  0.27938796365E+03  0.90399227411E+02 0.  0.
         13    1    3    3    0    0  0.49655513479E+02 -0.15121287887E+03 -0.84893779681E+02  0.18038281122E+03  0.00000000000E+00 0. -1.
        -13    1    3    3    0    0  0.79970623568E+02 -0.42160737697E+02 -0.40363247771E+02  0.99005152430E+02  0.00000000000E+00 0.  1.
         22    1    1    2    0    0 -0.12962613705E+03  0.19337361657E+03 -0.53208144071E+03  0.58078132764E+03  0.00000000000E+00 0. -1.
<mgrwt>
<rscale>  0 0.55479487E+03</rscale>
<asrwt>0</asrwt>
<pdfrwt beam="1">  1        2 0.11673137E+00 0.55479487E+03</pdfrwt>
<pdfrwt beam="2">  1       -2 0.15602371E-01 0.55479487E+03</pdfrwt>
<totfact> 0.12152761E+03</totfact>
</mgrwt>
</event>
<event>
 6    1  0.1934315E-005  0.2590655E+04  0.7818608E-02  0.8371382E-01
          1   -1    0    0  501    0  0.00000000000E+00  0.00000000000E+00  0.68818210489E+03  0.68818210489E+03  0.00000000000E+00 0. -1.
         -1   -1    0    0    0  501 -0.00000000000E+00 -0.00000000000E+00 -0.24381236088E+04  0.24381236088E+04  0.00000000000E+00 0.  1.
         23    2    1    2    0    0 -0.32631330205E+03 -0.64585868512E+03 -0.21702014781E+04  0.22895068979E+04  0.91943286616E+02 0.  0.
         13    1    3    3    0    0 -0.18127736382E+03 -0.35856250905E+03 -0.10596641855E+04  0.11332769924E+04  0.00000000000E+00 0.  1.
        -13    1    3    3    0    0 -0.14503593823E+03 -0.28729617607E+03 -0.11105372926E+04  0.11562299055E+04  0.00000000000E+00 0. -1.
         22    1    1    2    0    0  0.32631330205E+03  0.64585868512E+03  0.42025997415E+03  0.83679881579E+03  0.00000000000E+00 0. -1.
<mgrwt>
<rscale>  0 0.25906548E+04</rscale>
<asrwt>0</asrwt>
<pdfrwt beam="1">  1        1 0.10587417E+00 0.25906548E+04</pdfrwt>
<pdfrwt beam="2">  1       -1 0.37509594E+00 0.25906548E+04</pdfrwt>
<totfact> 0.26022823E-01</totfact>
</mgrwt>
</event>
<event>
 6    1  0.1934315E-005  0.3423569E+03  0.7818608E-02  0.1065797E+00
          2   -1    0    0  501    0  0.00000000000E+00  0.00000000000E+00  0.48597538800E+03  0.48597538800E+03  0.00000000000E+00 0.  1.
         -2   -1    0    0    0  501 -0.00000000000E+00 -0.00000000000E+00 -0.60295364135E+02  0.60295364135E+02  0.00000000000E+00 0. -1.
         23    2    1    2    0    0  0.54625414508E+02  0.77657547717E+02  0.43156790227E+03  0.45114295526E+03  0.90909191956E+02 0.  0.
         13    1    3    3    0    0 -0.22047917449E+02  0.30676391633E+02  0.83520707548E+02  0.91667116551E+02  0.00000000000E+00 0.  1.
        -13    1    3    3    0    0  0.76673331958E+02  0.46981156084E+02  0.34804719472E+03  0.35947583871E+03  0.00000000000E+00 0. -1.
         22    1    1    2    0    0 -0.54625414508E+02 -0.77657547717E+02 -0.58878783997E+01  0.95127796882E+02  0.00000000000E+00 0. -1.
<mgrwt>
<rscale>  0 0.34235691E+03</rscale>
<asrwt>0</asrwt>
<pdfrwt beam="1">  1        2 0.74765442E-01 0.34235691E+03</pdfrwt>
<pdfrwt beam="2">  1       -2 0.92762102E-02 0.34235691E+03</pdfrwt>
<totfact> 0.48244681E+03</totfact>
</mgrwt>
</event>
<event>
 6    1  0.1934315E-005  0.9703869E+03  0.7818608E-02  0.9341634E-01
          1   -1    0    0  501    0  0.00000000000E+00  0.00000000000E+00  0.50211615385E+03  0.50211615385E+03  0.00000000000E+00 0.  1.
         -1   -1    0    0    0  501 -0.00000000000E+00 -0.00000000000E+00 -0.46884105293E+03  0.46884105293E+03  0.00000000000E+00 0. -1.
         23    2    1    2    0    0 -0.45281396802E+03  0.82294247698E+02 -0.12245475569E+03  0.48509238908E+03  0.92231371606E+02 0.  0.
         13    1    3    3    0    0 -0.18527065488E+03 -0.21005249266E+01 -0.78094996353E+02  0.20106828746E+03  0.00000000000E+00 0.  1.
        -13    1    3    3    0    0 -0.26754331314E+03  0.84394772624E+02 -0.44359759338E+02  0.28402410162E+03  0.00000000000E+00 0. -1.
         22    1    1    2    0    0  0.45281396802E+03 -0.82294247698E+02  0.15572985661E+03  0.48586481770E+03  0.00000000000E+00 0. -1.
<mgrwt>
<rscale>  0 0.97038686E+03</rscale>
<asrwt>0</asrwt>
<pdfrwt beam="1">  1        1 0.77248639E-01 0.97038686E+03</pdfrwt>
<pdfrwt beam="2">  1       -1 0.72129393E-01 0.97038686E+03</pdfrwt>
<totfact> 0.85868096E+01</totfact>
</mgrwt>
</event>
<event>
 6    1  0.1934315E-005  0.2312457E+04  0.7818608E-02  0.8473025E-01
          2   -1    0    0  501    0  0.00000000000E+00  0.00000000000E+00  0.10082129467E+04  0.10082129467E+04  0.00000000000E+00 0.  1.
         -2   -1    0    0    0  501 -0.00000000000E+00 -0.00000000000E+00 -0.13259747172E+04  0.13259747172E+04  0.00000000000E+00 0. -1.
         23    2    1    2    0    0 -0.28023237540E+03  0.51680681313E+03 -0.11619323880E+04  0.13054780364E+04  0.92555729386E+02 0.  0.
         11    1    3    3    0    0 -0.23382743287E+03  0.35293941215E+03 -0.78611232074E+03  0.89286845494E+03  0.00000000000E+00 0.  1.
        -11    1    3    3    0    0 -0.46404942534E+02  0.16386740098E+03 -0.37582006724E+03  0.41260958149E+03  0.00000000000E+00 0. -1.
         22    1    1    2    0    0  0.28023237540E+03 -0.51680681313E+03  0.84417061749E+03  0.10287096275E+04  0.00000000000E+00 0.  1.
<mgrwt>
<rscale>  0 0.23124575E+04</rscale>
<asrwt>0</asrwt>
<pdfrwt beam="1">  1        2 0.15510968E+00 0.23124575E+04</pdfrwt>
<pdfrwt beam="2">  1       -2 0.20399611E+00 0.23124575E+04</pdfrwt>
<totfact> 0.28217464E+00</totfact>
</mgrwt>
</event>
<event>
 6    1  0.1934315E-005  0.4277251E+04  0.7818608E-02  0.7950838E-01
          2   -1    0    0  501    0  0.00000000000E+00  0.00000000000E+00  0.31691893097E+04  0.31691893097E+04  0.00000000000E+00 0.  1.
         -2   -1    0    0    0  501 -0.00000000000E+00 -0.00000000000E+00 -0.14431829824E+04  0.14431829824E+04  0.00000000000E+00 0. -1.
         23    2    1    2    0    0  0.82382643827E+03  0.19483687247E+04  0.11955607823E+04  0.24315001812E+04  0.89425160907E+02 0.  0.
         11    1    3    3    0    0  0.41445108175E+03  0.10396645091E+04  0.58854304191E+03  0.12645374264E+04  0.00000000000E+00 0. -1.
        -11    1    3    3    0    0  0.40937535652E+03  0.90870421559E+03  0.60701774038E+03  0.11669627548E+04  0.00000000000E+00 0.  1.
         22    1    1    2    0    0 -0.82382643827E+03 -0.19483687247E+04  0.53044554497E+03  0.21808721108E+04  0.00000000000E+00 0. -1.
<mgrwt>
<rscale>  0 0.42772515E+04</rscale>
<asrwt>0</asrwt>
<pdfrwt beam="1">  1        2 0.48756759E+00 0.42772515E+04</pdfrwt>
<pdfrwt beam="2">  1       -2 0.22202815E+00 0.42772515E+04</pdfrwt>
<totfact> 0.10043849E-01</totfact>
</mgrwt>
</event>
<event>
 6    1  0.1934315E-005  0.2784048E+04  0.7818608E-02  0.8308238E-01
         -2   -1    0    0    0  501 -0.00000000000E+00  0.00000000000E+00  0.45491979754E+03  0.45491979754E+03  0.00000000000E+00 0. -1.
          2   -1    0    0  501    0  0.00000000000E+00 -0.00000000000E+00 -0.42595006250E+04  0.42595006250E+04  0.00000000000E+00 0.  1.
         23    2    1    2    0    0 -0.12809343345E+03  0.12986910965E+04 -0.10914859398E+04  0.17037908602E+04  0.92494577249E+02 0.  0.
         13    1    3    3    0    0 -0.10888231716E+03  0.65022566310E+03 -0.53389380616E+03  0.84834625490E+03  0.00000000000E+00 0.  1.
        -13    1    3    3    0    0 -0.19211116288E+02  0.64846543341E+03 -0.55759213362E+03  0.85544460533E+03  0.00000000000E+00 0. -1.
         22    1    1    2    0    0  0.12809343345E+03 -0.12986910965E+04 -0.27130948877E+04  0.30106295623E+04  0.00000000000E+00 0.  1.
<mgrwt>
<rscale>  0 0.27840482E+04</rscale>
<asrwt>0</asrwt>
<pdfrwt beam="1">  1        2 0.65530778E+00 0.27840482E+04</pdfrwt>
<pdfrwt beam="2">  1       -2 0.69987662E-01 0.27840482E+04</pdfrwt>
<totfact> 0.33450221E-01</totfact>
</mgrwt>
</event>
<event>
 6    1  0.1934315E-005  0.1818862E+04  0.7818608E-02  0.8696333E-01
          2   -1    0    0  501    0  0.00000000000E+00  0.00000000000E+00  0.27732132790E+04  0.27732132790E+04  0.00000000000E+00 0.  1.
         -2   -1    0    0    0  501 -0.00000000000E+00 -0.00000000000E+00 -0.29823331877E+03  0.29823331877E+03  0.00000000000E+00 0. -1.
         23    2    1    2    0    0  0.49063644575E+03 -0.69058080359E+03  0.17884674753E+04  0.19810680579E+04  0.91590238471E+02 0.  0.
         13    1    3    3    0    0  0.32202562126E+03 -0.39841387685E+03  0.10038200655E+04  0.11269821835E+04  0.00000000000E+00 0.  1.
        -13    1    3    3    0    0  0.16861082449E+03 -0.29216692674E+03  0.78464740974E+03  0.85408587438E+03  0.00000000000E+00 0. -1.
         22    1    1    2    0    0 -0.49063644575E+03  0.69058080359E+03  0.68651248497E+03  0.10903785399E+04  0.00000000000E+00 0. -1.
<mgrwt>
<rscale>  0 0.18188618E+04</rscale>
<asrwt>0</asrwt>
<pdfrwt beam="1">  1        2 0.42664818E+00 0.18188618E+04</pdfrwt>
<pdfrwt beam="2">  1       -2 0.45882051E-01 0.18188618E+04</pdfrwt>
<totfact> 0.10214984E+01</totfact>
</mgrwt>
</event>
<event>
 6    1  0.1934315E-005  0.1874437E+04  0.7818608E-02  0.8667686E-01
          2   -1    0    0  501    0  0.00000000000E+00  0.00000000000E+00  0.98616460236E+03  0.98616460236E+03  0.00000000000E+00 0.  1.
         -2   -1    0    0    0  501 -0.00000000000E+00 -0.00000000000E+00 -0.89070193526E+03  0.89070193526E+03  0.00000000000E+00 0. -1.
         23    2    1    2    0    0  0.43842857448E+03 -0.59607400424E+03  0.62031698302E+03  0.96967533044E+03  0.89181015835E+02 0.  0.
         13    1    3    3    0    0  0.31124937602E+03 -0.43873560246E+03  0.49926013387E+03  0.73391129178E+03  0.00000000000E+00 0. -1.
        -13    1    3    3    0    0  0.12717919846E+03 -0.15733840178E+03  0.12105684915E+03  0.23576403866E+03  0.00000000000E+00 0.  1.
         22    1    1    2    0    0 -0.43842857448E+03  0.59607400424E+03 -0.52485431592E+03  0.90719120719E+03  0.00000000000E+00 0. -1.
<mgrwt>
<rscale>  0 0.18744372E+04</rscale>
<asrwt>0</asrwt>
<pdfrwt beam="1">  1        2 0.15171763E+00 0.18744372E+04</pdfrwt>
<pdfrwt beam="2">  1       -2 0.13703107E+00 0.18744372E+04</pdfrwt>
<totfact> 0.91614222E+00</totfact>
</mgrwt>
</event>
<event>
 6    1  0.1934315E-005  0.2349933E+04  0.7818608E-02  0.8458489E-01
          2   -1    0    0  501    0  0.00000000000E+00  0.00000000000E+00  0.24849547439E+04  0.24849547439E+04  0.00000000000E+00 0.  1.
         -2   -1    0    0    0  501 -0.00000000000E+00 -0.00000000000E+00 -0.55556210659E+03  0.55556210659E+03  0.00000000000E+00 0. -1.
         23    2    1    2    0    0 -0.10614638239E+04 -0.81941314175E+02  0.16038593271E+04  0.19272371172E+04  0.91969213600E+02 0.  0.
         11    1    3    3    0    0 -0.54504905906E+03 -0.78022040765E+01  0.87492470601E+03  0.10308407211E+04  0.00000000000E+00 0.  1.
        -11    1    3    3    0    0 -0.51641476488E+03 -0.74139110099E+02  0.72893462111E+03  0.89639639607E+03  0.00000000000E+00 0. -1.
         22    1    1    2    0    0  0.10614638239E+04  0.81941314175E+02  0.32553331017E+03  0.11132797333E+04  0.00000000000E+00 0. -1.
<mgrwt>
<rscale>  0 0.23499334E+04</rscale>
<asrwt>0</asrwt>
<pdfrwt beam="1">  1        2 0.38230073E+00 0.23499334E+04</pdfrwt>
<pdfrwt beam="2">  1       -2 0.85471094E-01 0.23499334E+04</pdfrwt>
<totfact> 0.38153500E+00</totfact>
</mgrwt>
</event>
<event>
 6    1  0.1934315E-005  0.1888510E+04  0.7818608E-02  0.8660597E-01
          2   -1    0    0  501    0  0.00000000000E+00  0.00000000000E+00  0.99409040907E+03  0.99409040907E+03  0.00000000000E+00 0.  1.
         -2   -1    0    0    0  501 -0.00000000000E+00 -0.00000000000E+00 -0.89691783575E+03  0.89691783575E+03  0.00000000000E+00 0. -1.
         23    2    1    2    0    0  0.58802598654E+03 -0.60967823718E+03 -0.36412856624E+03  0.92649756313E+03  0.91246961588E+02 0.  0.
         13    1    3    3    0    0  0.32677581555E+03 -0.27953526547E+03 -0.20541439215E+03  0.47656843242E+03  0.00000000000E+00 0.  1.
        -13    1    3    3    0    0  0.26125017098E+03 -0.33014297171E+03 -0.15871417409E+03  0.44992913071E+03  0.00000000000E+00 0. -1.
         22    1    1    2    0    0 -0.58802598654E+03  0.60967823718E+03  0.46130113956E+03  0.96451068169E+03  0.00000000000E+00 0.  1.
<mgrwt>
<rscale>  0 0.18885099E+04</rscale>
<asrwt>0</asrwt>
<pdfrwt beam="1">  1        2 0.15293699E+00 0.18885099E+04</pdfrwt>
<pdfrwt beam="2">  1       -2 0.13798736E+00 0.18885099E+04</pdfrwt>
<totfact> 0.88825345E+00</totfact>
</mgrwt>
</event>
<event>
 6    1  0.1934315E-005  0.1297415E+04  0.7818608E-02  0.9031618E-01
          1   -1    0    0  501    0  0.00000000000E+00  0.00000000000E+00  0.42050741398E+03  0.42050741398E+03  0.00000000000E+00 0.  1.
         -1   -1    0    0    0  501 -0.00000000000E+00 -0.00000000000E+00 -0.10007463675E+04  0.10007463675E+04  0.00000000000E+00 0. -1.
         23    2    1    2    0    0 -0.43382460562E+03  0.23514633122E+02 -0.81462641298E+03  0.92759984648E+03  0.89825141525E+02 0.  0.
         11    1    3    3    0    0 -0.28480339187E+03  0.52712280138E+02 -0.57659937233E+03  0.64525839217E+03  0.00000000000E+00 0.  1.
        -11    1    3    3    0    0 -0.14902121375E+03 -0.29197647016E+02 -0.23802704065E+03  0.28234145430E+03  0.00000000000E+00 0. -1.
         22    1    1    2    0    0  0.43382460562E+03 -0.23514633122E+02  0.23438745944E+03  0.49365393502E+03  0.00000000000E+00 0.  1.
<mgrwt>
<rscale>  0 0.12974148E+04</rscale>
<asrwt>0</asrwt>
<pdfrwt beam="1">  1        1 0.64693449E-01 0.12974148E+04</pdfrwt>
<pdfrwt beam="2">  1       -1 0.15396098E+00 0.12974148E+04</pdfrwt>
<totfact> 0.17924543E+01</totfact>
</mgrwt>
</event>
<event>
 6    1  0.1934315E-005  0.1866106E+04  0.7818608E-02  0.8671914E-01
          2   -1    0    0  501    0  0.00000000000E+00  0.00000000000E+00  0.54792129317E+03  0.54792129317E+03  0.00000000000E+00 0.  1.
         -2   -1    0    0    0  501 -0.00000000000E+00 -0.00000000000E+00 -0.15888918600E+04  0.15888918600E+04  0.00000000000E+00 0. -1.
         23    2    1    2    0    0  0.87401438450E+02 -0.82318285564E+02 -0.15785842047E+04  0.15859558802E+04  0.94406837301E+02 0.  0.
         13    1    3    3    0    0  0.18244488732E+02  0.21009872930E+02 -0.34563031769E+03  0.34674860149E+03  0.00000000000E+00 0. -1.
        -13    1    3    3    0    0  0.69156949718E+02 -0.10332815849E+03 -0.12329538870E+04  0.12392072787E+04  0.00000000000E+00 0.  1.
         22    1    1    2    0    0 -0.87401438450E+02  0.82318285564E+02  0.53761363787E+03  0.55085727299E+03  0.00000000000E+00 0.  1.
<mgrwt>
<rscale>  0 0.18661058E+04</rscale>
<asrwt>0</asrwt>
<pdfrwt beam="1">  1        2 0.84295584E-01 0.18661058E+04</pdfrwt>
<pdfrwt beam="2">  1       -2 0.24444490E+00 0.18661058E+04</pdfrwt>
<totfact> 0.36100611E+00</totfact>
</mgrwt>
</event>
<event>
 6    1  0.1934315E-005  0.5028772E+04  0.7818608E-02  0.7824084E-01
         -2   -1    0    0    0  501 -0.00000000000E+00  0.00000000000E+00  0.39070288531E+04  0.39070288531E+04  0.00000000000E+00 0. -1.
          2   -1    0    0  501    0  0.00000000000E+00 -0.00000000000E+00 -0.16181443246E+04  0.16181443246E+04  0.00000000000E+00 0.  1.
         23    2    1    2    0    0  0.19914395110E+03 -0.23922968146E+04  0.32598636031E+03  0.24242520919E+04  0.89379727312E+02 0.  0.
         11    1    3    3    0    0  0.13496395717E+03 -0.11274157525E+04  0.13626189849E+03  0.11436121955E+04  0.00000000000E+00 0. -1.
        -11    1    3    3    0    0  0.64179993930E+02 -0.12648810621E+04  0.18972446181E+03  0.12806398964E+04  0.00000000000E+00 0.  1.
         22    1    1    2    0    0 -0.19914395110E+03  0.23922968146E+04  0.19628981682E+04  0.31009210859E+04  0.00000000000E+00 0. -1.
<mgrwt>
<rscale>  0 0.50287718E+04</rscale>
<asrwt>0</asrwt>
<pdfrwt beam="1">  1        2 0.24894528E+00 0.50287718E+04</pdfrwt>
<pdfrwt beam="2">  1       -2 0.60108136E+00 0.50287718E+04</pdfrwt>
<totfact> 0.40211358E-03</totfact>
</mgrwt>
</event>
<event>
 6    1  0.1934315E-005  0.7185296E+03  0.7818608E-02  0.9686058E-01
          2   -1    0    0  501    0  0.00000000000E+00  0.00000000000E+00  0.33109177329E+03  0.33109177329E+03  0.00000000000E+00 0.  1.
         -2   -1    0    0    0  501 -0.00000000000E+00 -0.00000000000E+00 -0.38983515737E+03  0.38983515737E+03  0.00000000000E+00 0. -1.
         23    2    1    2    0    0  0.33773496353E+03 -0.20892802184E+02  0.72671885875E+02  0.35792364148E+03  0.91250837583E+02 0.  0.
         13    1    3    3    0    0  0.19459943517E+03 -0.15057498084E+02  0.87513393971E+02  0.21390246034E+03  0.00000000000E+00 0. -1.
        -13    1    3    3    0    0  0.14313552836E+03 -0.58353041003E+01 -0.14841508097E+02  0.14402118114E+03  0.00000000000E+00 0.  1.
         22    1    1    2    0    0 -0.33773496353E+03  0.20892802184E+02 -0.13141526996E+03  0.36300328918E+03  0.00000000000E+00 0. -1.
<mgrwt>
<rscale>  0 0.71852965E+03</rscale>
<asrwt>0</asrwt>
<pdfrwt beam="1">  1        2 0.50937196E-01 0.71852965E+03</pdfrwt>
<pdfrwt beam="2">  1       -2 0.59974640E-01 0.71852965E+03</pdfrwt>
<totfact> 0.25734226E+02</totfact>
</mgrwt>
</event>
<event>
 6    1  0.1934315E-005  0.1015764E+04  0.7818608E-02  0.9291422E-01
         -2   -1    0    0    0  501 -0.00000000000E+00  0.00000000000E+00  0.20261156150E+03  0.20261156150E+03  0.00000000000E+00 0. -1.
          2   -1    0    0  501    0  0.00000000000E+00 -0.00000000000E+00 -0.12730965921E+04  0.12730965921E+04  0.00000000000E+00 0.  1.
         23    2    1    2    0    0  0.25156880690E+03 -0.20989449536E+02 -0.11729488288E+04  0.12032632023E+04  0.91137024635E+02 0.  0.
         13    1    3    3    0    0  0.69052787494E+02 -0.22088280692E+02 -0.52909287984E+03  0.53403694170E+03  0.00000000000E+00 0. -1.
        -13    1    3    3    0    0  0.18251601940E+03  0.10988311554E+01 -0.64385594899E+03  0.66922626056E+03  0.00000000000E+00 0.  1.
         22    1    1    2    0    0 -0.25156880690E+03  0.20989449536E+02  0.10246379818E+03  0.27244495138E+03  0.00000000000E+00 0. -1.
<mgrwt>
<rscale>  0 0.10157639E+04</rscale>
<asrwt>0</asrwt>
<pdfrwt beam="1">  1        2 0.19586101E+00 0.10157639E+04</pdfrwt>
<pdfrwt beam="2">  1       -2 0.31171010E-01 0.10157639E+04</pdfrwt>
<totfact> 0.16299533E+02</totfact>
</mgrwt>
</event>
<event>
 6    1  0.1934315E-005  0.3029354E+04  0.7818608E-02  0.8235398E-01
          2   -1    0    0  501    0  0.00000000000E+00  0.00000000000E+00  0.91763233557E+03  0.91763233557E+03  0.00000000000E+00 0.  1.
         -2   -1    0    0    0  501 -0.00000000000E+00 -0.00000000000E+00 -0.25001807140E+04  0.25001807140E+04  0.00000000000E+00 0. -1.
         23    2    1    2    0    0 -0.39134798052E+03 -0.80189891771E+03  0.58697594884E+03  0.10719590638E+04  0.91434970201E+02 0.  0.
         11    1    3    3    0    0 -0.22667844179E+03 -0.49561484505E+03  0.40846077369E+03  0.68107077037E+03  0.00000000000E+00 0.  1.
        -11    1    3    3    0    0 -0.16466953873E+03 -0.30628407266E+03  0.17851517515E+03  0.39088829339E+03  0.00000000000E+00 0. -1.
         22    1    1    2    0    0  0.39134798052E+03  0.80189891771E+03 -0.21695243272E+04  0.23458539858E+04  0.00000000000E+00 0. -1.
<mgrwt>
<rscale>  0 0.30293542E+04</rscale>
<asrwt>0</asrwt>
<pdfrwt beam="1">  1        2 0.14117421E+00 0.30293542E+04</pdfrwt>
<pdfrwt beam="2">  1       -2 0.38464318E+00 0.30293542E+04</pdfrwt>
<totfact> 0.22750714E-01</totfact>
</mgrwt>
</event>
<event>
 6    1  0.1934315E-005  0.3340851E+04  0.7818608E-02  0.8152578E-01
         -2   -1    0    0    0  501 -0.00000000000E+00  0.00000000000E+00  0.82488844863E+03  0.82488844863E+03  0.00000000000E+00 0. -1.
          2   -1    0    0  501    0  0.00000000000E+00 -0.00000000000E+00 -0.33826656372E+04  0.33826656372E+04  0.00000000000E+00 0.  1.
         23    2    1    2    0    0 -0.75490771627E+03 -0.64697641451E+03  0.40878142222E+03  0.10788268474E+04  0.91109684290E+02 0.  0.
         13    1    3    3    0    0 -0.27254801398E+03 -0.17771322188E+03  0.12815253575E+03  0.34969627046E+03  0.00000000000E+00 0. -1.
        -13    1    3    3    0    0 -0.48235970229E+03 -0.46926319264E+03  0.28062888647E+03  0.72913057697E+03  0.00000000000E+00 0.  1.
         22    1    1    2    0    0  0.75490771627E+03  0.64697641451E+03 -0.29665586107E+04  0.31287272384E+04  0.00000000000E+00 0.  1.
<mgrwt>
<rscale>  0 0.33408513E+04</rscale>
<asrwt>0</asrwt>
<pdfrwt beam="1">  1        2 0.52041011E+00 0.33408513E+04</pdfrwt>
<pdfrwt beam="2">  1       -2 0.12690591E+00 0.33408513E+04</pdfrwt>
<totfact> 0.37594560E-01</totfact>
</mgrwt>
</event>
<event>
 6    1  0.1934315E-005  0.2421292E+04  0.7818608E-02  0.8431575E-01
          2   -1    0    0  501    0  0.00000000000E+00  0.00000000000E+00  0.21768293937E+04  0.21768293937E+04  0.00000000000E+00 0.  1.
         -2   -1    0    0    0  501 -0.00000000000E+00 -0.00000000000E+00 -0.67330182826E+03  0.67330182826E+03  0.00000000000E+00 0. -1.
         23    2    1    2    0    0  0.11810145399E+04 -0.63483004619E+02  0.45814643115E+03  0.12716360046E+04  0.91293703895E+02 0.  0.
         11    1    3    3    0    0  0.11089846745E+04 -0.74837278081E+02  0.44629882946E+03  0.11977605235E+04  0.00000000000E+00 0. -1.
        -11    1    3    3    0    0  0.72029865436E+02  0.11354273463E+02  0.11847601686E+02  0.73875481090E+02  0.00000000000E+00 0.  1.
         22    1    1    2    0    0 -0.11810145399E+04  0.63483004619E+02  0.10453811343E+04  0.15784952174E+04  0.00000000000E+00 0.  1.
<mgrwt>
<rscale>  0 0.24212916E+04</rscale>
<asrwt>0</asrwt>
<pdfrwt beam="1">  1        2 0.33489683E+00 0.24212916E+04</pdfrwt>
<pdfrwt beam="2">  1       -2 0.10358490E+00 0.24212916E+04</pdfrwt>
<totfact> 0.36269551E+00</totfact>
</mgrwt>
</event>
<event>
 6    1  0.1934315E-005  0.3377803E+04  0.7818608E-02  0.8143376E-01
          2   -1    0    0  501    0  0.00000000000E+00  0.00000000000E+00  0.11563463831E+04  0.11563463831E+04  0.00000000000E+00 0.  1.
         -2   -1    0    0    0  501 -0.00000000000E+00 -0.00000000000E+00 -0.24667248120E+04  0.24667248120E+04  0.00000000000E+00 0. -1.
         23    2    1    2    0    0 -0.12308251626E+04  0.64106794381E+03 -0.16857933642E+04  0.21854220504E+04  0.90948239277E+02 0.  0.
         11    1    3    3    0    0 -0.60027284192E+03  0.33819901738E+03 -0.89847664552E+03  0.11322395253E+04  0.00000000000E+00 0.  1.
        -11    1    3    3    0    0 -0.63055232070E+03  0.30286892643E+03 -0.78731671863E+03  0.10531825251E+04  0.00000000000E+00 0. -1.
         22    1    1    2    0    0  0.12308251626E+04 -0.64106794381E+03  0.37541493523E+03  0.14376491446E+04  0.00000000000E+00 0.  1.
<mgrwt>
<rscale>  0 0.33778030E+04</rscale>
<asrwt>0</asrwt>
<pdfrwt beam="1">  1        2 0.17789945E+00 0.33778030E+04</pdfrwt>
<pdfrwt beam="2">  1       -2 0.37949612E+00 0.33778030E+04</pdfrwt>
<totfact> 0.16835189E-01</totfact>
</mgrwt>
</event>
<event>
 6    1  0.1934315E-005  0.2129107E+04  0.7818608E-02  0.8548529E-01
          2   -1    0    0  501    0  0.00000000000E+00  0.00000000000E+00  0.29395861334E+04  0.29395861334E+04  0.00000000000E+00 0.  1.
         -2   -1    0    0    0  501 -0.00000000000E+00 -0.00000000000E+00 -0.38552156540E+03  0.38552156540E+03  0.00000000000E+00 0. -1.
         23    2    1    2    0    0 -0.53646649761E+03  0.73483542136E+03  0.21364699860E+04  0.23240259667E+04  0.93879140823E+02 0.  0.
         13    1    3    3    0    0 -0.41278604841E+03  0.49340646201E+03  0.15170498476E+04  0.16478114269E+04  0.00000000000E+00 0.  1.
        -13    1    3    3    0    0 -0.12368044920E+03  0.24142895935E+03  0.61942013839E+03  0.67621453975E+03  0.00000000000E+00 0. -1.
         22    1    1    2    0    0  0.53646649761E+03 -0.73483542136E+03  0.41759458201E+03  0.10010817322E+04  0.00000000000E+00 0. -1.
<mgrwt>
<rscale>  0 0.21291067E+04</rscale>
<asrwt>0</asrwt>
<pdfrwt beam="1">  1        2 0.45224401E+00 0.21291067E+04</pdfrwt>
<pdfrwt beam="2">  1       -2 0.59311012E-01 0.21291067E+04</pdfrwt>
<totfact> 0.46399420E+00</totfact>
</mgrwt>
</event>
<event>
 6    1  0.1934315E-005  0.2430397E+04  0.7818608E-02  0.8428210E-01
          2   -1    0    0  501    0  0.00000000000E+00  0.00000000000E+00  0.13221957772E+04  0.13221957772E+04  0.00000000000E+00 0.  1.
         -2   -1    0    0    0  501 -0.00000000000E+00 -0.00000000000E+00 -0.11168596090E+04  0.11168596090E+04  0.00000000000E+00 0. -1.
         23    2    1    2    0    0  0.87533625924E+03  0.81702555845E+03  0.30051940217E+03  0.12378875470E+04  0.91155570215E+02 0.  0.
         13    1    3    3    0    0  0.77589567896E+03  0.71628712762E+03  0.23450307217E+03  0.10816991470E+04  0.00000000000E+00 0. -1.
        -13    1    3    3    0    0  0.99440580282E+02  0.10073843083E+03  0.66016329998E+02  0.15618839995E+03  0.00000000000E+00 0.  1.
         22    1    1    2    0    0 -0.87533625924E+03 -0.81702555845E+03 -0.95183233911E+02  0.12011678392E+04  0.00000000000E+00 0.  1.
<mgrwt>
<rscale>  0 0.24303967E+04</rscale>
<asrwt>0</asrwt>
<pdfrwt beam="1">  1        2 0.20341473E+00 0.24303967E+04</pdfrwt>
<pdfrwt beam="2">  1       -2 0.17182456E+00 0.24303967E+04</pdfrwt>
<totfact> 0.29779005E+00</totfact>
</mgrwt>
</event>
<event>
 6    1  0.1934315E-005  0.3384977E+04  0.7818608E-02  0.8141603E-01
          2   -1    0    0  501    0  0.00000000000E+00  0.00000000000E+00  0.13578622118E+04  0.13578622118E+04  0.00000000000E+00 0.  1.
         -2   -1    0    0    0  501 -0.00000000000E+00 -0.00000000000E+00 -0.21095788371E+04  0.21095788371E+04  0.00000000000E+00 0. -1.
         23    2    1    2    0    0 -0.12756246203E+04 -0.96917277248E+03  0.17622101944E+03  0.16160679619E+04  0.11877615413E+03 0.  0.
         13    1    3    3    0    0 -0.11004807647E+04 -0.85648545738E+03  0.11621763908E+03  0.13993326237E+04  0.00000000000E+00 0.  1.
        -13    1    3    3    0    0 -0.17514385563E+03 -0.11268731510E+03  0.60003380355E+02  0.21673533815E+03  0.00000000000E+00 0. -1.
         22    1    1    2    0    0  0.12756246203E+04  0.96917277248E+03 -0.92793764471E+03  0.18513730870E+04  0.00000000000E+00 0. -1.
<mgrwt>
<rscale>  0 0.33849770E+04</rscale>
<asrwt>0</asrwt>
<pdfrwt beam="1">  1        2 0.20890188E+00 0.33849770E+04</pdfrwt>
<pdfrwt beam="2">  1       -2 0.32455059E+00 0.33849770E+04</pdfrwt>
<totfact> 0.28473230E-01</totfact>
</mgrwt>
</event>
<event>
 6    1  0.1934315E-005  0.3018205E+04  0.7818608E-02  0.8238552E-01
         -2   -1    0    0    0  501 -0.00000000000E+00  0.00000000000E+00  0.69170621720E+03  0.69170621720E+03  0.00000000000E+00 0. -1.
          2   -1    0    0  501    0  0.00000000000E+00 -0.00000000000E+00 -0.32924232739E+04  0.32924232739E+04  0.00000000000E+00 0.  1.
         23    2    1    2    0    0 -0.11441273425E+04 -0.91296345295E+03 -0.82430056754E+03  0.16823507908E+04  0.91121431145E+02 0.  0.
         11    1    3    3    0    0 -0.54337584129E+03 -0.47202292914E+03 -0.36572574801E+03  0.80735263255E+03  0.00000000000E+00 0. -1.
        -11    1    3    3    0    0 -0.60075150122E+03 -0.44094052381E+03 -0.45857481953E+03  0.87499815821E+03  0.00000000000E+00 0.  1.
         22    1    1    2    0    0  0.11441273425E+04  0.91296345295E+03 -0.17764164892E+04  0.23017787003E+04  0.00000000000E+00 0. -1.
<mgrwt>
<rscale>  0 0.30182045E+04</rscale>
<asrwt>0</asrwt>
<pdfrwt beam="1">  1        2 0.50652666E+00 0.30182045E+04</pdfrwt>
<pdfrwt beam="2">  1       -2 0.10641634E+00 0.30182045E+04</pdfrwt>
<totfact> 0.68502938E-01</totfact>
</mgrwt>
</event>
<event>
 6    1  0.1934315E-005  0.4927862E+04  0.7818608E-02  0.7839732E-01
         -2   -1    0    0    0  501 -0.00000000000E+00  0.00000000000E+00  0.16678506647E+04  0.16678506647E+04  0.00000000000E+00 0. -1.
          2   -1    0    0  501    0  0.00000000000E+00 -0.00000000000E+00 -0.36399884385E+04  0.36399884385E+04  0.00000000000E+00 0.  1.
         23    2    1    2    0    0 -0.21907814911E+04  0.43361951224E+03  0.13254989037E+03  0.22390837224E+04  0.91526056827E+02 0.  0.
         11    1    3    3    0    0 -0.15475775521E+04  0.29374850192E+03  0.13338664356E+03  0.15808467538E+04  0.00000000000E+00 0. -1.
        -11    1    3    3    0    0 -0.64320393898E+03  0.13987101032E+03 -0.83675318530E+00  0.65823696858E+03  0.00000000000E+00 0.  1.
         22    1    1    2    0    0  0.21907814911E+04 -0.43361951224E+03 -0.21046876642E+04  0.30687553808E+04  0.00000000000E+00 0.  1.
<mgrwt>
<rscale>  0 0.49278625E+04</rscale>
<asrwt>0</asrwt>
<pdfrwt beam="1">  1        2 0.55999820E+00 0.49278625E+04</pdfrwt>
<pdfrwt beam="2">  1       -2 0.25659242E+00 0.49278625E+04</pdfrwt>
<totfact> 0.27615121E-02</totfact>
</mgrwt>
</event>
<event>
 6    1  0.1934315E-005  0.1740087E+04  0.7818608E-02  0.8738826E-01
         -2   -1    0    0    0  501 -0.00000000000E+00  0.00000000000E+00  0.10549630657E+04  0.10549630657E+04  0.00000000000E+00 0. -1.
          2   -1    0    0  501    0  0.00000000000E+00 -0.00000000000E+00 -0.71753744905E+03  0.71753744905E+03  0.00000000000E+00 0.  1.
         23    2    1    2    0    0 -0.38998531071E+03 -0.76714977764E+03  0.28205410640E+03  0.91013555256E+03  0.90470333229E+02 0.  0.
         13    1    3    3    0    0 -0.25998279323E+03 -0.58692954856E+03  0.18856873076E+03  0.66905568824E+03  0.00000000000E+00 0. -1.
        -13    1    3    3    0    0 -0.13000251748E+03 -0.18022022908E+03  0.93485375637E+02  0.24107986432E+03  0.00000000000E+00 0.  1.
         22    1    1    2    0    0  0.38998531071E+03  0.76714977764E+03  0.55371510269E+02  0.86236496221E+03  0.00000000000E+00 0. -1.
<mgrwt>
<rscale>  0 0.17400868E+04</rscale>
<asrwt>0</asrwt>
<pdfrwt beam="1">  1        2 0.11039038E+00 0.17400868E+04</pdfrwt>
<pdfrwt beam="2">  1       -2 0.16230201E+00 0.17400868E+04</pdfrwt>
<totfact> 0.91172163E+00</totfact>
</mgrwt>
</event>
<event>
 6    1  0.1934315E-005  0.1434997E+04  0.7818608E-02  0.8928868E-01
         -2   -1    0    0    0  501 -0.00000000000E+00  0.00000000000E+00  0.31755280990E+03  0.31755280990E+03  0.00000000000E+00 0. -1.
          2   -1    0    0  501    0  0.00000000000E+00 -0.00000000000E+00 -0.16211601962E+04  0.16211601962E+04  0.00000000000E+00 0.  1.
         23    2    1    2    0    0  0.65846800690E+03  0.23778970426E+03 -0.84825631298E+03  0.11035671149E+04  0.90540295529E+02 0.  0.
         13    1    3    3    0    0  0.42127695052E+03  0.10826842978E+03 -0.49908187606E+03  0.66202646544E+03  0.00000000000E+00 0.  1.
        -13    1    3    3    0    0  0.23719105638E+03  0.12952127448E+03 -0.34917443692E+03  0.44154064951E+03  0.00000000000E+00 0. -1.
         22    1    1    2    0    0 -0.65846800690E+03 -0.23778970426E+03 -0.45535107335E+03  0.83514589119E+03  0.00000000000E+00 0. -1.
<mgrwt>
<rscale>  0 0.14349968E+04</rscale>
<asrwt>0</asrwt>
<pdfrwt beam="1">  1        2 0.24940926E+00 0.14349968E+04</pdfrwt>
<pdfrwt beam="2">  1       -2 0.48854279E-01 0.14349968E+04</pdfrwt>
<totfact> 0.41791104E+01</totfact>
</mgrwt>
</event>
<event>
 6    1  0.1934315E-005  0.2702162E+04  0.7818608E-02  0.8334304E-01
         -1   -1    0    0    0  501 -0.00000000000E+00  0.00000000000E+00  0.47492485648E+03  0.47492485648E+03  0.00000000000E+00 0. -1.
          1   -1    0    0  501    0  0.00000000000E+00 -0.00000000000E+00 -0.38435963938E+04  0.38435963938E+04  0.00000000000E+00 0.  1.
         23    2    1    2    0    0  0.88700098663E+03 -0.72850553589E+03 -0.28206731966E+04  0.30465962338E+04  0.89778970658E+02 0.  0.
         13    1    3    3    0    0  0.50091790171E+03 -0.43689401765E+03 -0.17364180782E+04  0.18592855803E+04  0.00000000000E+00 0.  1.
        -13    1    3    3    0    0  0.38608308492E+03 -0.29161151825E+03 -0.10842551184E+04  0.11873106535E+04  0.00000000000E+00 0. -1.
         22    1    1    2    0    0 -0.88700098663E+03  0.72850553589E+03 -0.54799834069E+03  0.12719250165E+04  0.00000000000E+00 0. -1.
<mgrwt>
<rscale>  0 0.27021617E+04</rscale>
<asrwt>0</asrwt>
<pdfrwt beam="1">  1        1 0.59132254E+00 0.27021617E+04</pdfrwt>
<pdfrwt beam="2">  1       -1 0.73065361E-01 0.27021617E+04</pdfrwt>
<totfact> 0.21599439E-01</totfact>
</mgrwt>
</event>
<event>
 6    1  0.2072294E-005  0.2153388E+04  0.7818608E-02  0.8538084E-01
          2   -1    0    0  501    0  0.00000000000E+00  0.00000000000E+00  0.19455600143E+04  0.19455600143E+04  0.00000000000E+00 0.  1.
         -2   -1    0    0    0  501 -0.00000000000E+00 -0.00000000000E+00 -0.59585386773E+03  0.59585386773E+03  0.00000000000E+00 0. -1.
         23    2    1    2    0    0  0.32480209224E+02 -0.33848029396E+03  0.18793249266E+04  0.19120332933E+04  0.91571074670E+02 0.  0.
         13    1    3    3    0    0 -0.32095837411E+02 -0.11955488586E+03  0.63814748654E+03  0.65004286635E+03  0.00000000000E+00 0. -1.
        -13    1    3    3    0    0  0.64576046635E+02 -0.21892540810E+03  0.12411774400E+04  0.12619904270E+04  0.00000000000E+00 0.  1.
         22    1    1    2    0    0 -0.32480209224E+02  0.33848029396E+03 -0.52961877997E+03  0.62938058875E+03  0.00000000000E+00 0. -1.
<mgrwt>
<rscale>  0 0.21533875E+04</rscale>
<asrwt>0</asrwt>
<pdfrwt beam="1">  1        2 0.29931692E+00 0.21533875E+04</pdfrwt>
<pdfrwt beam="2">  1       -2 0.91669827E-01 0.21533875E+04</pdfrwt>
<totfact> 0.66564616E+00</totfact>
</mgrwt>
</event>
<event>
 6    1  0.1934315E-005  0.1317417E+04  0.7818608E-02  0.9015866E-01
         -2   -1    0    0    0  501 -0.00000000000E+00  0.00000000000E+00  0.23618798510E+03  0.23618798510E+03  0.00000000000E+00 0. -1.
          2   -1    0    0  501    0  0.00000000000E+00 -0.00000000000E+00 -0.18370819451E+04  0.18370819451E+04  0.00000000000E+00 0.  1.
         23    2    1    2    0    0  0.50790407241E+03  0.14461998661E+03 -0.14163437430E+04  0.15138592851E+04  0.82818169997E+02 0.  0.
         11    1    3    3    0    0  0.42655650873E+03  0.11963686756E+03 -0.10896797117E+04  0.11762930372E+04  0.00000000000E+00 0. -1.
        -11    1    3    3    0    0  0.81347563678E+02  0.24983119059E+02 -0.32666403131E+03  0.33756624788E+03  0.00000000000E+00 0.  1.
         22    1    1    2    0    0 -0.50790407241E+03 -0.14461998661E+03 -0.18455021697E+03  0.55941064513E+03  0.00000000000E+00 0. -1.
<mgrwt>
<rscale>  0 0.13174167E+04</rscale>
<asrwt>0</asrwt>
<pdfrwt beam="1">  1        2 0.28262799E+00 0.13174167E+04</pdfrwt>
<pdfrwt beam="2">  1       -2 0.36336614E-01 0.13174167E+04</pdfrwt>
<totfact> 0.57441463E+01</totfact>
</mgrwt>
</event>
<event>
 6    1  0.1934315E-005  0.3201962E+04  0.7818608E-02  0.8188299E-01
         -2   -1    0    0    0  501 -0.00000000000E+00  0.00000000000E+00  0.11107003095E+04  0.11107003095E+04  0.00000000000E+00 0. -1.
          2   -1    0    0  501    0  0.00000000000E+00 -0.00000000000E+00 -0.23076798564E+04  0.23076798564E+04  0.00000000000E+00 0.  1.
         23    2    1    2    0    0  0.55827991636E+03 -0.82505855171E+03  0.73722121503E+03  0.12427122992E+04  0.91873064200E+02 0.  0.
         11    1    3    3    0    0  0.14815389132E+03 -0.29526508844E+03  0.25091525428E+03  0.41483673029E+03  0.00000000000E+00 0.  1.
        -11    1    3    3    0    0  0.41012602504E+03 -0.52979346327E+03  0.48630596075E+03  0.82787556891E+03  0.00000000000E+00 0. -1.
         22    1    1    2    0    0 -0.55827991636E+03  0.82505855171E+03 -0.19342007620E+04  0.21756678667E+04  0.00000000000E+00 0.  1.
<mgrwt>
<rscale>  0 0.32019624E+04</rscale>
<asrwt>0</asrwt>
<pdfrwt beam="1">  1        2 0.35502767E+00 0.32019624E+04</pdfrwt>
<pdfrwt beam="2">  1       -2 0.17087697E+00 0.32019624E+04</pdfrwt>
<totfact> 0.79386680E-01</totfact>
</mgrwt>
</event>
<event>
 6    1  0.1934315E-005  0.5947456E+03  0.7818608E-02  0.9916368E-01
         -2   -1    0    0    0  501 -0.00000000000E+00  0.00000000000E+00  0.67429774642E+02  0.67429774642E+02  0.00000000000E+00 0. -1.
          2   -1    0    0  501    0  0.00000000000E+00 -0.00000000000E+00 -0.13114470604E+04  0.13114470604E+04  0.00000000000E+00 0.  1.
         23    2    1    2    0    0 -0.18685585039E+03  0.20842033384E+03 -0.81417558260E+03  0.86592651176E+03  0.92696818047E+02 0.  0.
         13    1    3    3    0    0 -0.86735243678E+02  0.12857557147E+03 -0.32262694184E+03  0.35797042291E+03  0.00000000000E+00 0.  1.
        -13    1    3    3    0    0 -0.10012060671E+03  0.79844762375E+02 -0.49154864076E+03  0.50795608885E+03  0.00000000000E+00 0. -1.
         22    1    1    2    0    0  0.18685585039E+03 -0.20842033384E+03 -0.42984170317E+03  0.51295032330E+03  0.00000000000E+00 0.  1.
<mgrwt>
<rscale>  0 0.59474559E+03</rscale>
<asrwt>0</asrwt>
<pdfrwt beam="1">  1        2 0.20176107E+00 0.59474559E+03</pdfrwt>
<pdfrwt beam="2">  1       -2 0.10373812E-01 0.59474559E+03</pdfrwt>
<totfact> 0.10674961E+03</totfact>
</mgrwt>
</event>
<event>
 6    1  0.1934315E-005  0.1978283E+04  0.7818608E-02  0.8616842E-01
         -2   -1    0    0    0  501 -0.00000000000E+00  0.00000000000E+00  0.96154486377E+03  0.96154486377E+03  0.00000000000E+00 0. -1.
          2   -1    0    0  501    0  0.00000000000E+00 -0.00000000000E+00 -0.10175299523E+04  0.10175299523E+04  0.00000000000E+00 0.  1.
         23    2    1    2    0    0 -0.29089620958E+03 -0.13470693484E+03 -0.96213883125E+03  0.10178874418E+04  0.87276288760E+02 0.  0.
         11    1    3    3    0    0 -0.17050231911E+03 -0.77731864885E+02 -0.68864135786E+03  0.71368074332E+03  0.00000000000E+00 0. -1.
        -11    1    3    3    0    0 -0.12039389047E+03 -0.56975069958E+02 -0.27349747339E+03  0.30420669850E+03  0.00000000000E+00 0.  1.
         22    1    1    2    0    0  0.29089620958E+03  0.13470693484E+03  0.90615374270E+03  0.96118737427E+03  0.00000000000E+00 0. -1.
<mgrwt>
<rscale>  0 0.19782828E+04</rscale>
<asrwt>0</asrwt>
<pdfrwt beam="1">  1        2 0.15654307E+00 0.19782828E+04</pdfrwt>
<pdfrwt beam="2">  1       -2 0.14792998E+00 0.19782828E+04</pdfrwt>
<totfact> 0.71004644E+00</totfact>
</mgrwt>
</event>
<event>
 6    1  0.1934315E-005  0.3726840E+04  0.7818608E-02  0.8062040E-01
         -2   -1    0    0    0  501 -0.00000000000E+00  0.00000000000E+00  0.11599323629E+04  0.11599323629E+04  0.00000000000E+00 0. -1.
          2   -1    0    0  501    0  0.00000000000E+00 -0.00000000000E+00 -0.29935667149E+04  0.29935667149E+04  0.00000000000E+00 0.  1.
         23    2    1    2    0    0 -0.11169342214E+04  0.13098060850E+04 -0.12552487203E+03  0.17284687623E+04  0.93347380612E+02 0.  0.
         13    1    3    3    0    0 -0.94042110734E+03  0.11312677146E+04 -0.13451072875E+03  0.14772446099E+04  0.00000000000E+00 0. -1.
        -13    1    3    3    0    0 -0.17651311401E+03  0.17853837040E+03  0.89858567220E+01  0.25122415239E+03  0.00000000000E+00 0.  1.
         22    1    1    2    0    0  0.11169342214E+04 -0.13098060850E+04 -0.17081094800E+04  0.24250303154E+04  0.00000000000E+00 0.  1.
<mgrwt>
<rscale>  0 0.37268404E+04</rscale>
<asrwt>0</asrwt>
<pdfrwt beam="1">  1        2 0.46054872E+00 0.37268404E+04</pdfrwt>
<pdfrwt beam="2">  1       -2 0.17845114E+00 0.37268404E+04</pdfrwt>
<totfact> 0.26330596E-01</totfact>
</mgrwt>
</event>
<event>
 6    1  0.1934315E-005  0.1250359E+04  0.7818608E-02  0.9069885E-01
          2   -1    0    0  501    0  0.00000000000E+00  0.00000000000E+00  0.33322725260E+04  0.33322725260E+04  0.00000000000E+00 0.  1.
         -2   -1    0    0    0  501 -0.00000000000E+00 -0.00000000000E+00 -0.11729211424E+03  0.11729211424E+03  0.00000000000E+00 0. -1.
         23    2    1    2    0    0  0.39045768378E+02  0.60043002222E+03  0.11835461997E+04  0.13308938915E+04  0.91957381440E+02 0.  0.
         13    1    3    3    0    0  0.58150532901E+02  0.56578946540E+03  0.11172085027E+04  0.12536562695E+04  0.00000000000E+00 0.  1.
        -13    1    3    3    0    0 -0.19104764523E+02  0.34640556823E+02  0.66337697030E+02  0.77237621996E+02  0.00000000000E+00 0. -1.
         22    1    1    2    0    0 -0.39045768378E+02 -0.60043002222E+03  0.20314342121E+04  0.21186707488E+04  0.00000000000E+00 0.  1.
<mgrwt>
<rscale>  0 0.12503588E+04</rscale>
<asrwt>0</asrwt>
<pdfrwt beam="1">  1        2 0.51265724E+00 0.12503588E+04</pdfrwt>
<pdfrwt beam="2">  1       -2 0.18044943E-01 0.12503588E+04</pdfrwt>
<totfact> 0.27182433E+01</totfact>
</mgrwt>
</event>
<event>
 6    1  0.1934315E-005  0.2915056E+04  0.7818608E-02  0.8268412E-01
         -2   -1    0    0    0  501 -0.00000000000E+00  0.00000000000E+00  0.12322111094E+04  0.12322111094E+04  0.00000000000E+00 0. -1.
          2   -1    0    0  501    0  0.00000000000E+00 -0.00000000000E+00 -0.17240452502E+04  0.17240452502E+04  0.00000000000E+00 0.  1.
         23    2    1    2    0    0  0.66452610533E+03 -0.10832066760E+03  0.10631008321E+04  0.12618092280E+04  0.93009875619E+02 0.  0.
         13    1    3    3    0    0  0.13815758827E+03  0.15285413515E+02  0.21589307903E+03  0.25677029547E+03  0.00000000000E+00 0. -1.
        -13    1    3    3    0    0  0.52636851706E+03 -0.12360608111E+03  0.84720775305E+03  0.10050389325E+04  0.00000000000E+00 0.  1.
         22    1    1    2    0    0 -0.66452610533E+03  0.10832066760E+03 -0.15549349729E+04  0.16944471316E+04  0.00000000000E+00 0.  1.
<mgrwt>
<rscale>  0 0.29150559E+04</rscale>
<asrwt>0</asrwt>
<pdfrwt beam="1">  1        2 0.26523773E+00 0.29150559E+04</pdfrwt>
<pdfrwt beam="2">  1       -2 0.18957094E+00 0.29150559E+04</pdfrwt>
<totfact> 0.12791840E+00</totfact>
</mgrwt>
</event>
<event>
 6    1  0.1934315E-005  0.3152750E+04  0.7818608E-02  0.8201408E-01
          2   -1    0    0  501    0  0.00000000000E+00  0.00000000000E+00  0.19277281249E+04  0.19277281249E+04  0.00000000000E+00 0. -1.
         -2   -1    0    0    0  501 -0.00000000000E+00 -0.00000000000E+00 -0.12890608507E+04  0.12890608507E+04  0.00000000000E+00 0.  1.
         23    2    1    2    0    0 -0.14817737722E+04  0.46733580913E+03  0.58332329944E+03  0.16620802485E+04  0.90489835657E+02 0.  0.
         13    1    3    3    0    0 -0.76286370483E+03  0.26913982199E+03  0.34204290128E+03  0.87828846187E+03  0.00000000000E+00 0. -1.
        -13    1    3    3    0    0 -0.71891006737E+03  0.19819598714E+03  0.24128039816E+03  0.78379178665E+03  0.00000000000E+00 0.  1.
         22    1    1    2    0    0  0.14817737722E+04 -0.46733580913E+03  0.55343974739E+02  0.15547087271E+04  0.00000000000E+00 0.  1.
<mgrwt>
<rscale>  0 0.31527505E+04</rscale>
<asrwt>0</asrwt>
<pdfrwt beam="1">  1        2 0.29657356E+00 0.31527505E+04</pdfrwt>
<pdfrwt beam="2">  1       -2 0.19831705E+00 0.31527505E+04</pdfrwt>
<totfact> 0.84536839E-01</totfact>
</mgrwt>
</event>
<event>
 6    1  0.1934315E-005  0.2935960E+04  0.7818608E-02  0.8262258E-01
          2   -1    0    0  501    0  0.00000000000E+00  0.00000000000E+00  0.17180896192E+04  0.17180896192E+04  0.00000000000E+00 0.  1.
         -2   -1    0    0    0  501 -0.00000000000E+00 -0.00000000000E+00 -0.12542800771E+04  0.12542800771E+04  0.00000000000E+00 0. -1.
         23    2    1    2    0    0  0.96269991943E+03 -0.85258435992E+03  0.94589952334E+03  0.15990154173E+04  0.91832298000E+02 0.  0.
         13    1    3    3    0    0  0.57667609517E+03 -0.48190927048E+03  0.50280081448E+03  0.90421265350E+03  0.00000000000E+00 0.  1.
        -13    1    3    3    0    0  0.38602382426E+03 -0.37067508944E+03  0.44309870887E+03  0.69480276383E+03  0.00000000000E+00 0. -1.
         22    1    1    2    0    0 -0.96269991943E+03  0.85258435992E+03 -0.48208998127E+03  0.13733542790E+04  0.00000000000E+00 0. -1.
<mgrwt>
<rscale>  0 0.29359602E+04</rscale>
<asrwt>0</asrwt>
<pdfrwt beam="1">  1        2 0.26432148E+00 0.29359602E+04</pdfrwt>
<pdfrwt beam="2">  1       -2 0.19296617E+00 0.29359602E+04</pdfrwt>
<totfact> 0.12210975E+00</totfact>
</mgrwt>
</event>
<event>
 6    1  0.1934315E-005  0.3341031E+04  0.7818608E-02  0.8152533E-01
         -2   -1    0    0    0  501 -0.00000000000E+00  0.00000000000E+00  0.96007901073E+03  0.96007901073E+03  0.00000000000E+00 0. -1.
          2   -1    0    0  501    0  0.00000000000E+00 -0.00000000000E+00 -0.29066592385E+04  0.29066592385E+04  0.00000000000E+00 0.  1.
         23    2    1    2    0    0 -0.12513720301E+04  0.93454449470E+02 -0.22480668493E+04  0.25761725303E+04  0.90524334113E+02 0.  0.
         11    1    3    3    0    0 -0.23169004137E+03  0.27661732182E+01 -0.48354840242E+03  0.53619677775E+03  0.00000000000E+00 0. -1.
        -11    1    3    3    0    0 -0.10196819887E+04  0.90688276252E+02 -0.17645184469E+04  0.20399757525E+04  0.00000000000E+00 0.  1.
         22    1    1    2    0    0  0.12513720301E+04 -0.93454449470E+02  0.30148662157E+03  0.12905657189E+04  0.00000000000E+00 0. -1.
<mgrwt>
<rscale>  0 0.33410313E+04</rscale>
<asrwt>0</asrwt>
<pdfrwt beam="1">  1        2 0.44717835E+00 0.33410313E+04</pdfrwt>
<pdfrwt beam="2">  1       -2 0.14770446E+00 0.33410313E+04</pdfrwt>
<totfact> 0.51674201E-01</totfact>
</mgrwt>
</event>
<event>
 6    1  0.3237972E-005  0.4824580E+04  0.7818608E-02  0.7856152E-01
         -2   -1    0    0    0  501 -0.00000000000E+00  0.00000000000E+00  0.29891867992E+04  0.29891867992E+04  0.00000000000E+00 0. -1.
          2   -1    0    0  501    0  0.00000000000E+00 -0.00000000000E+00 -0.19467309662E+04  0.19467309662E+04  0.00000000000E+00 0.  1.
         23    2    1    2    0    0 -0.10194977970E+04  0.11564745677E+04 -0.13756712756E+04  0.20681402465E+04  0.89013689622E+02 0.  0.
         11    1    3    3    0    0 -0.34294336760E+03  0.43106901648E+03 -0.44824424889E+03  0.71017853883E+03  0.00000000000E+00 0.  1.
        -11    1    3    3    0    0 -0.67655442941E+03  0.72540555120E+03 -0.92742702674E+03  0.13579617077E+04  0.00000000000E+00 0. -1.
         22    1    1    2    0    0  0.10194977970E+04 -0.11564745677E+04  0.24181271087E+04  0.28677775188E+04  0.00000000000E+00 0. -1.
<mgrwt>
<rscale>  0 0.48245798E+04</rscale>
<asrwt>0</asrwt>
<pdfrwt beam="1">  1        2 0.29949707E+00 0.48245798E+04</pdfrwt>
<pdfrwt beam="2">  1       -2 0.45987489E+00 0.48245798E+04</pdfrwt>
<totfact> 0.15818925E-02</totfact>
</mgrwt>
</event>
<event>
 6    1  0.1934315E-005  0.2011527E+04  0.7818608E-02  0.8601251E-01
          2   -1    0    0  501    0  0.00000000000E+00  0.00000000000E+00  0.13008199543E+04  0.13008199543E+04  0.00000000000E+00 0.  1.
         -2   -1    0    0    0  501 -0.00000000000E+00 -0.00000000000E+00 -0.77763242195E+03  0.77763242195E+03  0.00000000000E+00 0. -1.
         23    2    1    2    0    0 -0.64914270939E+03  0.70283711525E+03 -0.51130268849E+02  0.96256384933E+03  0.92458595754E+02 0.  0.
         11    1    3    3    0    0 -0.32607913335E+03  0.28651139804E+03 -0.14204863720E+02  0.43430192328E+03  0.00000000000E+00 0. -1.
        -11    1    3    3    0    0 -0.32306357604E+03  0.41632571721E+03 -0.36925405129E+02  0.52826192605E+03  0.00000000000E+00 0.  1.
         22    1    1    2    0    0  0.64914270939E+03 -0.70283711525E+03  0.57431780118E+03  0.11158885269E+04  0.00000000000E+00 0.  1.
<mgrwt>
<rscale>  0 0.20115266E+04</rscale>
<asrwt>0</asrwt>
<pdfrwt beam="1">  1        2 0.20012615E+00 0.20115266E+04</pdfrwt>
<pdfrwt beam="2">  1       -2 0.11963576E+00 0.20115266E+04</pdfrwt>
<totfact> 0.82021460E+00</totfact>
</mgrwt>
</event>
<event>
 6    1  0.1934315E-005  0.2928768E+04  0.7818608E-02  0.8264369E-01
          2   -1    0    0  501    0  0.00000000000E+00  0.00000000000E+00  0.33032839903E+04  0.33032839903E+04  0.00000000000E+00 0.  1.
         -2   -1    0    0    0  501 -0.00000000000E+00 -0.00000000000E+00 -0.64917833178E+03  0.64917833178E+03  0.00000000000E+00 0. -1.
         23    2    1    2    0    0  0.11565737983E+04 -0.88692142521E+03  0.11518386348E+04  0.18593548771E+04  0.78585959203E+02 0.  0.
         11    1    3    3    0    0  0.85819315057E+03 -0.63277638021E+03  0.87798092425E+03  0.13812139351E+04  0.00000000000E+00 0. -1.
        -11    1    3    3    0    0  0.29838064778E+03 -0.25414504500E+03  0.27385771054E+03  0.47814094207E+03  0.00000000000E+00 0.  1.
         22    1    1    2    0    0 -0.11565737983E+04  0.88692142521E+03  0.15022670237E+04  0.20931074449E+04  0.00000000000E+00 0. -1.
<mgrwt>
<rscale>  0 0.29287679E+04</rscale>
<asrwt>0</asrwt>
<pdfrwt beam="1">  1        2 0.50819753E+00 0.29287679E+04</pdfrwt>
<pdfrwt beam="2">  1       -2 0.99873591E-01 0.29287679E+04</pdfrwt>
<totfact> 0.79008958E-01</totfact>
</mgrwt>
</event>
<event>
 6    1  0.1934315E-005  0.1366587E+04  0.7818608E-02  0.8978366E-01
          2   -1    0    0  501    0  0.00000000000E+00  0.00000000000E+00  0.90201336810E+03  0.90201336810E+03  0.00000000000E+00 0.  1.
         -2   -1    0    0    0  501 -0.00000000000E+00 -0.00000000000E+00 -0.51760849655E+03  0.51760849655E+03  0.00000000000E+00 0. -1.
         23    2    1    2    0    0 -0.38612920697E+03  0.22295658510E+03 -0.34092217062E+03  0.56820849770E+03  0.88473539083E+02 0.  0.
         13    1    3    3    0    0 -0.91397701835E+02  0.33746960025E+02 -0.36110078385E+02  0.10390541359E+03  0.00000000000E+00 0. -1.
        -13    1    3    3    0    0 -0.29473150514E+03  0.18920962508E+03 -0.30481209223E+03  0.46430308411E+03  0.00000000000E+00 0.  1.
         22    1    1    2    0    0  0.38612920697E+03 -0.22295658510E+03  0.72532704217E+03  0.85141336695E+03  0.00000000000E+00 0.  1.
<mgrwt>
<rscale>  0 0.13665867E+04</rscale>
<asrwt>0</asrwt>
<pdfrwt beam="1">  1        2 0.13877129E+00 0.13665867E+04</pdfrwt>
<pdfrwt beam="2">  1       -2 0.79632077E-01 0.13665867E+04</pdfrwt>
<totfact> 0.39843739E+01</totfact>
</mgrwt>
</event>
<event>
 6    1  0.1934315E-005  0.4654496E+03  0.7818608E-02  0.1023212E+00
          2   -1    0    0  501    0  0.00000000000E+00  0.00000000000E+00  0.23210752872E+04  0.23210752872E+04  0.00000000000E+00 0.  1.
         -2   -1    0    0    0  501 -0.00000000000E+00 -0.00000000000E+00 -0.23334369890E+02  0.23334369890E+02  0.00000000000E+00 0. -1.
         23    2    1    2    0    0  0.68277200757E+02  0.15809706364E+03  0.19146767398E+04  0.19244160598E+04  0.87941432747E+02 0.  0.
         11    1    3    3    0    0  0.53163182901E+02  0.14092707928E+03  0.12058813386E+04  0.12152516482E+04  0.00000000000E+00 0. -1.
        -11    1    3    3    0    0  0.15114017856E+02  0.17169984356E+02  0.70879540120E+03  0.70916441159E+03  0.00000000000E+00 0.  1.
         22    1    1    2    0    0 -0.68277200757E+02 -0.15809706364E+03  0.38306417748E+03  0.41999359726E+03  0.00000000000E+00 0. -1.
<mgrwt>
<rscale>  0 0.46544959E+03</rscale>
<asrwt>0</asrwt>
<pdfrwt beam="1">  1        2 0.35708832E+00 0.46544959E+03</pdfrwt>
<pdfrwt beam="2">  1       -2 0.35899049E-02 0.46544959E+03</pdfrwt>
<totfact> 0.15957959E+03</totfact>
</mgrwt>
</event>
<event>
 6    1  0.1934315E-005  0.7984856E+03  0.7818608E-02  0.9562212E-01
          1   -1    0    0  501    0  0.00000000000E+00  0.00000000000E+00  0.91672204906E+03  0.91672204906E+03  0.00000000000E+00 0.  1.
         -1   -1    0    0    0  501 -0.00000000000E+00 -0.00000000000E+00 -0.17387473178E+03  0.17387473178E+03  0.00000000000E+00 0. -1.
         23    2    1    2    0    0 -0.18292954994E+03  0.34694116165E+03  0.32301340094E+03  0.51606052681E+03  0.90274139457E+02 0.  0.
         13    1    3    3    0    0 -0.77804768035E+02  0.20255882056E+03  0.22394497518E+03  0.31182528702E+03  0.00000000000E+00 0.  1.
        -13    1    3    3    0    0 -0.10512478190E+03  0.14438234109E+03  0.99068425756E+02  0.20423523979E+03  0.00000000000E+00 0. -1.
         22    1    1    2    0    0  0.18292954994E+03 -0.34694116165E+03  0.41983391634E+03  0.57453625403E+03  0.00000000000E+00 0.  1.
<mgrwt>
<rscale>  0 0.79848557E+03</rscale>
<asrwt>0</asrwt>
<pdfrwt beam="1">  1        1 0.14103416E+00 0.79848557E+03</pdfrwt>
<pdfrwt beam="2">  1       -1 0.26749959E-01 0.79848557E+03</pdfrwt>
<totfact> 0.22189840E+02</totfact>
</mgrwt>
</event>
<event>
 6    1  0.1934315E-005  0.3626877E+04  0.7818608E-02  0.8084363E-01
          2   -1    0    0  501    0  0.00000000000E+00  0.00000000000E+00  0.26652690453E+04  0.26652690453E+04  0.00000000000E+00 0.  1.
         -2   -1    0    0    0  501 -0.00000000000E+00 -0.00000000000E+00 -0.12338563876E+04  0.12338563876E+04  0.00000000000E+00 0. -1.
         23    2    1    2    0    0 -0.98628775465E+03  0.47263625798E+03 -0.83733595998E+03  0.13805208872E+04  0.92508609964E+02 0.  0.
         13    1    3    3    0    0 -0.52588006115E+03  0.20605646899E+03 -0.45696078813E+03  0.72651377758E+03  0.00000000000E+00 0. -1.
        -13    1    3    3    0    0 -0.46040769350E+03  0.26657978899E+03 -0.38037517184E+03  0.65400710966E+03  0.00000000000E+00 0.  1.
         22    1    1    2    0    0  0.98628775465E+03 -0.47263625798E+03  0.22687486177E+04  0.25186045457E+04  0.00000000000E+00 0.  1.
<mgrwt>
<rscale>  0 0.36268770E+04</rscale>
<asrwt>0</asrwt>
<pdfrwt beam="1">  1        2 0.41004139E+00 0.36268770E+04</pdfrwt>
<pdfrwt beam="2">  1       -2 0.18982406E+00 0.36268770E+04</pdfrwt>
<totfact> 0.35191655E-01</totfact>
</mgrwt>
</event>
<event>
 6    1  0.1934315E-005  0.1789220E+04  0.7818608E-02  0.8712053E-01
          2   -1    0    0  501    0  0.00000000000E+00  0.00000000000E+00  0.92085314524E+03  0.92085314524E+03  0.00000000000E+00 0.  1.
         -2   -1    0    0    0  501 -0.00000000000E+00 -0.00000000000E+00 -0.86911511895E+03  0.86911511895E+03  0.00000000000E+00 0. -1.
         23    2    1    2    0    0  0.16273752166E+03  0.55915912503E+03  0.70223818190E+03  0.91687440869E+03  0.91530263464E+02 0.  0.
         13    1    3    3    0    0  0.16374229898E+03  0.45807429808E+03  0.60814247936E+03  0.77876882208E+03  0.00000000000E+00 0.  1.
        -13    1    3    3    0    0 -0.10047773205E+01  0.10108482695E+03  0.94095702540E+02  0.13810558661E+03  0.00000000000E+00 0. -1.
         22    1    1    2    0    0 -0.16273752166E+03 -0.55915912503E+03 -0.65050015561E+03  0.87309385550E+03  0.00000000000E+00 0. -1.
<mgrwt>
<rscale>  0 0.17892204E+04</rscale>
<asrwt>0</asrwt>
<pdfrwt beam="1">  1        2 0.14166971E+00 0.17892204E+04</pdfrwt>
<pdfrwt beam="2">  1       -2 0.13371002E+00 0.17892204E+04</pdfrwt>
<totfact> 0.10843933E+01</totfact>
</mgrwt>
</event>
<event>
 6    1  0.1934315E-005  0.4208999E+04  0.7818608E-02  0.7963663E-01
          2   -1    0    0  501    0  0.00000000000E+00  0.00000000000E+00  0.22141642851E+04  0.22141642851E+04  0.00000000000E+00 0.  1.
         -2   -1    0    0    0  501 -0.00000000000E+00 -0.00000000000E+00 -0.20002666256E+04  0.20002666256E+04  0.00000000000E+00 0. -1.
         23    2    1    2    0    0  0.17205947481E+04 -0.71198859276E+03 -0.87273033666E+03  0.20584776539E+04  0.91093181113E+02 0.  0.
         13    1    3    3    0    0  0.68793955423E+03 -0.33007231517E+03 -0.37459520844E+03  0.85001772552E+03  0.00000000000E+00 0. -1.
        -13    1    3    3    0    0  0.10326551939E+04 -0.38191627760E+03 -0.49813512822E+03  0.12084599284E+04  0.00000000000E+00 0.  1.
         22    1    1    2    0    0 -0.17205947481E+04  0.71198859276E+03  0.10866279962E+04  0.21559532568E+04  0.00000000000E+00 0.  1.
<mgrwt>
<rscale>  0 0.42089994E+04</rscale>
<asrwt>0</asrwt>
<pdfrwt beam="1">  1        2 0.34064066E+00 0.42089994E+04</pdfrwt>
<pdfrwt beam="2">  1       -2 0.30773333E+00 0.42089994E+04</pdfrwt>
<totfact> 0.11206320E-01</totfact>
</mgrwt>
</event>
<event>
 6    1  0.1934315E-005  0.4922179E+04  0.7818608E-02  0.7840625E-01
          2   -1    0    0  501    0  0.00000000000E+00  0.00000000000E+00  0.25790793831E+04  0.25790793831E+04  0.00000000000E+00 0.  1.
         -2   -1    0    0    0  501 -0.00000000000E+00 -0.00000000000E+00 -0.23484974163E+04  0.23484974163E+04  0.00000000000E+00 0. -1.
         23    2    1    2    0    0 -0.18635501743E+03  0.19245384169E+04 -0.14069712776E+04  0.23937739383E+04  0.10958640876E+03 0.  0.
         13    1    3    3    0    0 -0.89547772844E+02  0.13998449115E+04 -0.99775349067E+03  0.17213647516E+04  0.00000000000E+00 0. -1.
        -13    1    3    3    0    0 -0.96807244581E+02  0.52469350539E+03 -0.40921778695E+03  0.67240918670E+03  0.00000000000E+00 0.  1.
         22    1    1    2    0    0  0.18635501743E+03 -0.19245384169E+04  0.16375532444E+04  0.25338028611E+04  0.00000000000E+00 0.  1.
<mgrwt>
<rscale>  0 0.49221789E+04</rscale>
<asrwt>0</asrwt>
<pdfrwt beam="1">  1        2 0.39678144E+00 0.49221789E+04</pdfrwt>
<pdfrwt beam="2">  1       -2 0.36130729E+00 0.49221789E+04</pdfrwt>
<totfact> 0.30256334E-02</totfact>
</mgrwt>
</event>
<event>
 6    1  0.1934315E-005  0.3953456E+04  0.7818608E-02  0.8014002E-01
          2   -1    0    0  501    0  0.00000000000E+00  0.00000000000E+00  0.15368540663E+04  0.15368540663E+04  0.00000000000E+00 0.  1.
         -2   -1    0    0    0  501 -0.00000000000E+00 -0.00000000000E+00 -0.25425007745E+04  0.25425007745E+04  0.00000000000E+00 0. -1.
         23    2    1    2    0    0 -0.18438746908E+04 -0.50525163559E+02 -0.12332986590E+04  0.22207930102E+04  0.92029042529E+02 0.  0.
         11    1    3    3    0    0 -0.57369537330E+03 -0.50458750786E+02 -0.41467813587E+03  0.70966923510E+03  0.00000000000E+00 0. -1.
        -11    1    3    3    0    0 -0.12701793175E+04 -0.66412773087E-01 -0.81862052313E+03  0.15111237751E+04  0.00000000000E+00 0.  1.
         22    1    1    2    0    0  0.18438746908E+04  0.50525163559E+02  0.22765195085E+03  0.18585618306E+04  0.00000000000E+00 0. -1.
<mgrwt>
<rscale>  0 0.39534555E+04</rscale>
<asrwt>0</asrwt>
<pdfrwt beam="1">  1        2 0.23643909E+00 0.39534555E+04</pdfrwt>
<pdfrwt beam="2">  1       -2 0.39115397E+00 0.39534555E+04</pdfrwt>
<totfact> 0.81185367E-02</totfact>
</mgrwt>
</event>
<event>
 6    1  0.1934315E-005  0.2685463E+04  0.7818608E-02  0.8339737E-01
          2   -1    0    0  501    0  0.00000000000E+00  0.00000000000E+00  0.33345697033E+04  0.33345697033E+04  0.00000000000E+00 0.  1.
         -2   -1    0    0    0  501 -0.00000000000E+00 -0.00000000000E+00 -0.54067782830E+03  0.54067782830E+03  0.00000000000E+00 0. -1.
         23    2    1    2    0    0  0.74641628842E+03 -0.98807633221E+03  0.21419384868E+04  0.24757921610E+04  0.90632386666E+02 0.  0.
         11    1    3    3    0    0  0.47391114783E+03 -0.66062700095E+03  0.13281364205E+04  0.15572302855E+04  0.00000000000E+00 0. -1.
        -11    1    3    3    0    0  0.27250514059E+03 -0.32744933126E+03  0.81380206624E+03  0.91856187555E+03  0.00000000000E+00 0.  1.
         22    1    1    2    0    0 -0.74641628842E+03  0.98807633221E+03  0.65195338826E+03  0.13994553706E+04  0.00000000000E+00 0.  1.
<mgrwt>
<rscale>  0 0.26854630E+04</rscale>
<asrwt>0</asrwt>
<pdfrwt beam="1">  1        2 0.51301071E+00 0.26854630E+04</pdfrwt>
<pdfrwt beam="2">  1       -2 0.83181206E-01 0.26854630E+04</pdfrwt>
<totfact> 0.11739213E+00</totfact>
</mgrwt>
</event>
<event>
 6    1  0.1934315E-005  0.3192929E+04  0.7818608E-02  0.8190687E-01
          2   -1    0    0  501    0  0.00000000000E+00  0.00000000000E+00  0.37224417682E+04  0.37224417682E+04  0.00000000000E+00 0.  1.
         -2   -1    0    0    0  501 -0.00000000000E+00 -0.00000000000E+00 -0.68468471965E+03  0.68468471965E+03  0.00000000000E+00 0. -1.
         23    2    1    2    0    0 -0.14594565645E+04  0.26727796107E+02  0.63200743341E+03  0.15931685902E+04  0.89581929829E+02 0.  0.
         11    1    3    3    0    0 -0.84967726992E+03 -0.14193501029E+01  0.41205995512E+03  0.94432350611E+03  0.00000000000E+00 0. -1.
        -11    1    3    3    0    0 -0.60977929461E+03  0.28147146210E+02  0.21994747829E+03  0.64884508412E+03  0.00000000000E+00 0.  1.
         22    1    1    2    0    0  0.14594565645E+04 -0.26727796107E+02  0.24057496151E+04  0.28139578976E+04  0.00000000000E+00 0.  1.
<mgrwt>
<rscale>  0 0.31929291E+04</rscale>
<asrwt>0</asrwt>
<pdfrwt beam="1">  1        2 0.57268334E+00 0.31929291E+04</pdfrwt>
<pdfrwt beam="2">  1       -2 0.10533611E+00 0.31929291E+04</pdfrwt>
<totfact> 0.34475578E-01</totfact>
</mgrwt>
</event>
<event>
 6    1  0.1934315E-005  0.2653428E+04  0.7818608E-02  0.8350276E-01
         -2   -1    0    0    0  501 -0.00000000000E+00  0.00000000000E+00  0.13986576122E+04  0.13986576122E+04  0.00000000000E+00 0. -1.
          2   -1    0    0  501    0  0.00000000000E+00 -0.00000000000E+00 -0.12584710473E+04  0.12584710473E+04  0.00000000000E+00 0.  1.
         23    2    1    2    0    0  0.11701567401E+04 -0.34536982402E+03 -0.44805895061E+03  0.13026620124E+04  0.87317716704E+02 0.  0.
         13    1    3    3    0    0  0.27170970522E+03 -0.10603109409E+03 -0.77729800289E+02  0.30184545495E+03  0.00000000000E+00 0.  1.
        -13    1    3    3    0    0  0.89844703485E+03 -0.23933872993E+03 -0.37032915032E+03  0.10008165574E+04  0.00000000000E+00 0. -1.
         22    1    1    2    0    0 -0.11701567401E+04  0.34536982402E+03  0.58824551552E+03  0.13544666471E+04  0.00000000000E+00 0. -1.
<mgrwt>
<rscale>  0 0.26534281E+04</rscale>
<asrwt>0</asrwt>
<pdfrwt beam="1">  1        2 0.19361093E+00 0.26534281E+04</pdfrwt>
<pdfrwt beam="2">  1       -2 0.21517809E+00 0.26534281E+04</pdfrwt>
<totfact> 0.16333873E+00</totfact>
</mgrwt>
</event>
<event>
 6    1  0.1934315E-005  0.2903491E+04  0.7818608E-02  0.8271840E-01
          2   -1    0    0  501    0  0.00000000000E+00  0.00000000000E+00  0.15102831628E+04  0.15102831628E+04  0.00000000000E+00 0.  1.
         -2   -1    0    0    0  501 -0.00000000000E+00 -0.00000000000E+00 -0.13954768085E+04  0.13954768085E+04  0.00000000000E+00 0. -1.
         23    2    1    2    0    0  0.13099690494E+04 -0.37736039994E+03  0.55253501124E+03  0.14739687298E+04  0.94175877571E+02 0.  0.
         11    1    3    3    0    0  0.30145202132E+03 -0.10060458946E+03  0.88854250345E+02  0.32998436688E+03  0.00000000000E+00 0.  1.
        -11    1    3    3    0    0  0.10085170281E+04 -0.27675581048E+03  0.46368076090E+03  0.11439843629E+04  0.00000000000E+00 0. -1.
         22    1    1    2    0    0 -0.13099690494E+04  0.37736039994E+03 -0.43772865700E+03  0.14317912415E+04  0.00000000000E+00 0. -1.
<mgrwt>
<rscale>  0 0.29034911E+04</rscale>
<asrwt>0</asrwt>
<pdfrwt beam="1">  1        2 0.23235126E+00 0.29034911E+04</pdfrwt>
<pdfrwt beam="2">  1       -2 0.21468874E+00 0.29034911E+04</pdfrwt>
<totfact> 0.11546963E+00</totfact>
</mgrwt>
</event>
<event>
 6    1  0.1934315E-005  0.1917883E+04  0.7818608E-02  0.8646006E-01
         -2   -1    0    0    0  501 -0.00000000000E+00  0.00000000000E+00  0.68346268210E+03  0.68346268210E+03  0.00000000000E+00 0. -1.
          2   -1    0    0  501    0  0.00000000000E+00 -0.00000000000E+00 -0.13454561789E+04  0.13454561789E+04  0.00000000000E+00 0.  1.
         23    2    1    2    0    0  0.68238555259E+03 -0.26352705115E+03  0.32053504158E+03  0.80398666786E+03  0.92494865507E+02 0.  0.
         13    1    3    3    0    0  0.14297319666E+03 -0.96185445302E+02  0.83630023595E+02  0.19153839223E+03  0.00000000000E+00 0. -1.
        -13    1    3    3    0    0  0.53941235593E+03 -0.16734160585E+03  0.23690501799E+03  0.61244827563E+03  0.00000000000E+00 0.  1.
         22    1    1    2    0    0 -0.68238555259E+03  0.26352705115E+03 -0.98252853839E+03  0.12249321932E+04  0.00000000000E+00 0.  1.
<mgrwt>
<rscale>  0 0.19178833E+04</rscale>
<asrwt>0</asrwt>
<pdfrwt beam="1">  1        2 0.20699326E+00 0.19178833E+04</pdfrwt>
<pdfrwt beam="2">  1       -2 0.10514810E+00 0.19178833E+04</pdfrwt>
<totfact> 0.10659651E+01</totfact>
</mgrwt>
</event>
<event>
 6    1  0.1934315E-005  0.8872251E+03  0.7818608E-02  0.9441693E-01
         -3   -1    0    0    0  501 -0.00000000000E+00  0.00000000000E+00  0.53072448946E+03  0.53072448946E+03  0.00000000000E+00 0. -1.
          3   -1    0    0  501    0  0.00000000000E+00 -0.00000000000E+00 -0.37079895931E+03  0.37079895931E+03  0.00000000000E+00 0.  1.
         23    2    1    2    0    0 -0.20653536062E+03  0.14638186036E+03 -0.28367597190E+03  0.39077224040E+03  0.90257313283E+02 0.  0.
         13    1    3    3    0    0 -0.12815127134E+03  0.41628991261E+02 -0.17385134364E+03  0.21995456564E+03  0.00000000000E+00 0. -1.
        -13    1    3    3    0    0 -0.78384089276E+02  0.10475286910E+03 -0.10982462826E+03  0.17081767476E+03  0.00000000000E+00 0.  1.
         22    1    1    2    0    0  0.20653536062E+03 -0.14638186036E+03  0.44360150205E+03  0.51075120837E+03  0.00000000000E+00 0. -1.
<mgrwt>
<rscale>  0 0.88722509E+03</rscale>
<asrwt>0</asrwt>
<pdfrwt beam="1">  1        3 0.57045994E-01 0.88722509E+03</pdfrwt>
<pdfrwt beam="2">  1       -3 0.81649922E-01 0.88722509E+03</pdfrwt>
<totfact> 0.11028154E+01</totfact>
</mgrwt>
</event>
<event>
 6    1  0.1934315E-005  0.3050724E+04  0.7818608E-02  0.8229393E-01
         -1   -1    0    0    0  501 -0.00000000000E+00  0.00000000000E+00  0.14539938377E+04  0.14539938377E+04  0.00000000000E+00 0. -1.
          1   -1    0    0  501    0  0.00000000000E+00 -0.00000000000E+00 -0.16002329706E+04  0.16002329706E+04  0.00000000000E+00 0.  1.
         23    2    1    2    0    0 -0.30107642150E+03  0.72765393866E+03  0.12330204893E+04  0.14659937110E+04  0.93116956717E+02 0.  0.
         11    1    3    3    0    0 -0.10176535172E+03  0.36755321206E+03  0.59623016475E+03  0.70777253399E+03  0.00000000000E+00 0.  1.
        -11    1    3    3    0    0 -0.19931106977E+03  0.36010072660E+03  0.63679032456E+03  0.75822117702E+03  0.00000000000E+00 0. -1.
         22    1    1    2    0    0  0.30107642150E+03 -0.72765393866E+03 -0.13792596221E+04  0.15882330973E+04  0.00000000000E+00 0.  1.
<mgrwt>
<rscale>  0 0.30507238E+04</rscale>
<asrwt>0</asrwt>
<pdfrwt beam="1">  1        1 0.24618969E+00 0.30507238E+04</pdfrwt>
<pdfrwt beam="2">  1       -1 0.22369136E+00 0.30507238E+04</pdfrwt>
<totfact> 0.49145261E-01</totfact>
</mgrwt>
</event>
<event>
 6    1  0.1934315E-005  0.1750426E+04  0.7818608E-02  0.8733116E-01
          2   -1    0    0  501    0  0.00000000000E+00  0.00000000000E+00  0.26484646233E+04  0.26484646233E+04  0.00000000000E+00 0.  1.
         -2   -1    0    0    0  501 -0.00000000000E+00 -0.00000000000E+00 -0.28922348194E+03  0.28922348194E+03  0.00000000000E+00 0. -1.
         23    2    1    2    0    0 -0.62639803390E+03 -0.21816543491E+03  0.22992526949E+03  0.70745118149E+03  0.87469370494E+02 0.  0.
         13    1    3    3    0    0 -0.21979634911E+03 -0.69537811467E+02  0.12399600929E+03  0.26176507143E+03  0.00000000000E+00 0. -1.
        -13    1    3    3    0    0 -0.40660168479E+03 -0.14862762344E+03  0.10592926021E+03  0.44568611005E+03  0.00000000000E+00 0.  1.
         22    1    1    2    0    0  0.62639803390E+03  0.21816543491E+03  0.21293158719E+04  0.22302369238E+04  0.00000000000E+00 0.  1.
<mgrwt>
<rscale>  0 0.17504264E+04</rscale>
<asrwt>0</asrwt>
<pdfrwt beam="1">  1        2 0.40745608E+00 0.17504264E+04</pdfrwt>
<pdfrwt beam="2">  1       -2 0.44495922E-01 0.17504264E+04</pdfrwt>
<totfact> 0.12963100E+01</totfact>
</mgrwt>
</event>
<event>
 6    1  0.1934315E-005  0.2839718E+04  0.7818608E-02  0.8291042E-01
          2   -1    0    0  501    0  0.00000000000E+00  0.00000000000E+00  0.38854049741E+04  0.38854049741E+04  0.00000000000E+00 0.  1.
         -2   -1    0    0    0  501 -0.00000000000E+00 -0.00000000000E+00 -0.51886486037E+03  0.51886486037E+03  0.00000000000E+00 0. -1.
         23    2    1    2    0    0 -0.13530162178E+04 -0.18338036791E+03  0.10893200836E+04  0.17490839068E+04  0.91624359927E+02 0.  0.
         13    1    3    3    0    0 -0.83569451939E+03 -0.13866120045E+03  0.62808492783E+03  0.10545629117E+04  0.00000000000E+00 0.  1.
        -13    1    3    3    0    0 -0.51732169844E+03 -0.44719167460E+02  0.46123515579E+03  0.69452099504E+03  0.00000000000E+00 0. -1.
         22    1    1    2    0    0  0.13530162178E+04  0.18338036791E+03  0.22772200301E+04  0.26551859277E+04  0.00000000000E+00 0.  1.
<mgrwt>
<rscale>  0 0.28397184E+04</rscale>
<asrwt>0</asrwt>
<pdfrwt beam="1">  1        2 0.59775459E+00 0.28397184E+04</pdfrwt>
<pdfrwt beam="2">  1       -2 0.79825366E-01 0.28397184E+04</pdfrwt>
<totfact> 0.50858462E-01</totfact>
</mgrwt>
</event>
<event>
 6    1  0.1934315E-005  0.1443387E+04  0.7818608E-02  0.8922998E-01
          2   -1    0    0  501    0  0.00000000000E+00  0.00000000000E+00  0.19563023171E+04  0.19563023171E+04  0.00000000000E+00 0.  1.
         -2   -1    0    0    0  501 -0.00000000000E+00 -0.00000000000E+00 -0.26623761318E+03  0.26623761318E+03  0.00000000000E+00 0. -1.
         23    2    1    2    0    0  0.12565271128E+03  0.28401634466E+03 -0.14875589278E+03  0.35767664447E+03  0.96697355064E+02 0.  0.
         13    1    3    3    0    0  0.85797520726E+02  0.14689476990E+03 -0.12905321212E+03  0.21352756156E+03  0.00000000000E+00 0. -1.
        -13    1    3    3    0    0  0.39855190555E+02  0.13712157476E+03 -0.19702680660E+02  0.14414908291E+03  0.00000000000E+00 0.  1.
         22    1    1    2    0    0 -0.12565271128E+03 -0.28401634466E+03  0.18388205967E+04  0.18648632858E+04  0.00000000000E+00 0.  1.
<mgrwt>
<rscale>  0 0.14433867E+04</rscale>
<asrwt>0</asrwt>
<pdfrwt beam="1">  1        2 0.30096958E+00 0.14433867E+04</pdfrwt>
<pdfrwt beam="2">  1       -2 0.40959634E-01 0.14433867E+04</pdfrwt>
<totfact> 0.38714708E+01</totfact>
</mgrwt>
</event>
<event>
 6    1  0.1934315E-005  0.2137776E+04  0.7818608E-02  0.8544783E-01
          2   -1    0    0  501    0  0.00000000000E+00  0.00000000000E+00  0.40334203269E+04  0.40334203269E+04  0.00000000000E+00 0.  1.
         -2   -1    0    0    0  501 -0.00000000000E+00 -0.00000000000E+00 -0.28326368165E+03  0.28326368165E+03  0.00000000000E+00 0. -1.
         23    2    1    2    0    0  0.51146718293E+02 -0.10523211294E+04  0.15388774429E+04  0.18672450000E+04  0.92001953278E+02 0.  0.
         11    1    3    3    0    0  0.40783499354E+01 -0.76045770023E+03  0.10629635541E+04  0.13069828095E+04  0.00000000000E+00 0.  1.
        -11    1    3    3    0    0  0.47068368357E+02 -0.29186342916E+03  0.47591388878E+03  0.56026219051E+03  0.00000000000E+00 0. -1.
         22    1    1    2    0    0 -0.51146718293E+02  0.10523211294E+04  0.22112792024E+04  0.24494390086E+04  0.00000000000E+00 0.  1.
<mgrwt>
<rscale>  0 0.21377759E+04</rscale>
<asrwt>0</asrwt>
<pdfrwt beam="1">  1        2 0.62052617E+00 0.21377759E+04</pdfrwt>
<pdfrwt beam="2">  1       -2 0.43579031E-01 0.21377759E+04</pdfrwt>
<totfact> 0.14865617E+00</totfact>
</mgrwt>
</event>
<event>
 6    1  0.1934315E-005  0.2642647E+04  0.7818608E-02  0.8353857E-01
          2   -1    0    0  501    0  0.00000000000E+00  0.00000000000E+00  0.27523397531E+04  0.27523397531E+04  0.00000000000E+00 0.  1.
         -2   -1    0    0    0  501 -0.00000000000E+00 -0.00000000000E+00 -0.63433169049E+03  0.63433169049E+03  0.00000000000E+00 0. -1.
         23    2    1    2    0    0  0.15928238145E+03  0.86583865643E+03 -0.19966159114E+03  0.90742960789E+03  0.92283727122E+02 0.  0.
         13    1    3    3    0    0  0.16788500160E+03  0.74548318548E+03 -0.16329998990E+03  0.78140734594E+03  0.00000000000E+00 0.  1.
        -13    1    3    3    0    0 -0.86026201540E+01  0.12035547095E+03 -0.36361601234E+02  0.12602226195E+03  0.00000000000E+00 0. -1.
         22    1    1    2    0    0 -0.15928238145E+03 -0.86583865643E+03  0.23176696538E+04  0.24792418357E+04  0.00000000000E+00 0.  1.
<mgrwt>
<rscale>  0 0.26426474E+04</rscale>
<asrwt>0</asrwt>
<pdfrwt beam="1">  1        2 0.42343688E+00 0.26426474E+04</pdfrwt>
<pdfrwt beam="2">  1       -2 0.97589492E-01 0.26426474E+04</pdfrwt>
<totfact> 0.19050916E+00</totfact>
</mgrwt>
</event>
<event>
 6    1  0.1934315E-005  0.2755220E+04  0.7818608E-02  0.8317307E-01
          2   -1    0    0  501    0  0.00000000000E+00  0.00000000000E+00  0.23869837509E+04  0.23869837509E+04  0.00000000000E+00 0.  1.
         -2   -1    0    0    0  501 -0.00000000000E+00 -0.00000000000E+00 -0.79506587195E+03  0.79506587195E+03  0.00000000000E+00 0. -1.
         23    2    1    2    0    0 -0.69185095535E+03 -0.26740209399E+03  0.21354199294E+04  0.22625083768E+04  0.93617605673E+02 0.  0.
         13    1    3    3    0    0 -0.31716077532E+03 -0.16199122765E+03  0.93309901318E+03  0.99875216327E+03  0.00000000000E+00 0.  1.
        -13    1    3    3    0    0 -0.37469018002E+03 -0.10541086635E+03  0.12023209162E+04  0.12637562135E+04  0.00000000000E+00 0. -1.
         22    1    1    2    0    0  0.69185095535E+03  0.26740209399E+03 -0.54350205045E+03  0.91954124602E+03  0.00000000000E+00 0. -1.
<mgrwt>
<rscale>  0 0.27552200E+04</rscale>
<asrwt>0</asrwt>
<pdfrwt beam="1">  1        2 0.36722827E+00 0.27552200E+04</pdfrwt>
<pdfrwt beam="2">  1       -2 0.12231783E+00 0.27552200E+04</pdfrwt>
<totfact> 0.17878877E+00</totfact>
</mgrwt>
</event>
<event>
 6    1  0.1934315E-005  0.2348225E+04  0.7818608E-02  0.8459146E-01
          2   -1    0    0  501    0  0.00000000000E+00  0.00000000000E+00  0.14901815813E+04  0.14901815813E+04  0.00000000000E+00 0.  1.
         -2   -1    0    0    0  501 -0.00000000000E+00 -0.00000000000E+00 -0.92508214119E+03  0.92508214119E+03  0.00000000000E+00 0. -1.
         23    2    1    2    0    0 -0.11067636650E+04 -0.17974225614E+02  0.68007231668E+03  0.13023991102E+04  0.92174852805E+02 0.  0.
         13    1    3    3    0    0 -0.26882755081E+03 -0.43169966684E+02  0.15743854728E+03  0.31451358360E+03  0.00000000000E+00 0. -1.
        -13    1    3    3    0    0 -0.83793611416E+03  0.25195741070E+02  0.52263376940E+03  0.98788552662E+03  0.00000000000E+00 0.  1.
         22    1    1    2    0    0  0.11067636650E+04  0.17974225614E+02 -0.11497287658E+03  0.11128646123E+04  0.00000000000E+00 0.  1.
<mgrwt>
<rscale>  0 0.23482252E+04</rscale>
<asrwt>0</asrwt>
<pdfrwt beam="1">  1        2 0.22925870E+00 0.23482252E+04</pdfrwt>
<pdfrwt beam="2">  1       -2 0.14232033E+00 0.23482252E+04</pdfrwt>
<totfact> 0.39958411E+00</totfact>
</mgrwt>
</event>
<event>
 6    1  0.1934315E-005  0.1077949E+04  0.7818608E-02  0.9226955E-01
          1   -1    0    0  501    0  0.00000000000E+00  0.00000000000E+00  0.10759663834E+04  0.10759663834E+04  0.00000000000E+00 0.  1.
         -1   -1    0    0    0  501 -0.00000000000E+00 -0.00000000000E+00 -0.26998358432E+03  0.26998358432E+03  0.00000000000E+00 0. -1.
         23    2    1    2    0    0 -0.39127212349E+03 -0.28498363677E+03  0.69153655522E+03  0.84854923336E+03  0.86622435854E+02 0.  0.
         13    1    3    3    0    0 -0.12706950485E+03 -0.10856974442E+03  0.30893564446E+03  0.35124817563E+03  0.00000000000E+00 0. -1.
        -13    1    3    3    0    0 -0.26420261863E+03 -0.17641389235E+03  0.38260091076E+03  0.49730105773E+03  0.00000000000E+00 0.  1.
         22    1    1    2    0    0  0.39127212349E+03  0.28498363677E+03  0.11444624390E+03  0.49740073440E+03  0.00000000000E+00 0. -1.
<mgrwt>
<rscale>  0 0.10779485E+04</rscale>
<asrwt>0</asrwt>
<pdfrwt beam="1">  1        1 0.16553329E+00 0.10779485E+04</pdfrwt>
<pdfrwt beam="2">  1       -1 0.41535937E-01 0.10779485E+04</pdfrwt>
<totfact> 0.74925277E+01</totfact>
</mgrwt>
</event>
<event>
 6    1  0.1934315E-005  0.1716541E+04  0.7818608E-02  0.8751986E-01
          2   -1    0    0  501    0  0.00000000000E+00  0.00000000000E+00  0.12386229011E+04  0.12386229011E+04  0.00000000000E+00 0.  1.
         -2   -1    0    0    0  501 -0.00000000000E+00 -0.00000000000E+00 -0.59471523979E+03  0.59471523979E+03  0.00000000000E+00 0. -1.
         23    2    1    2    0    0  0.13372367165E+03 -0.25056986213E+03  0.11853117271E+04  0.12219580311E+04  0.86892249662E+02 0.  0.
         11    1    3    3    0    0  0.94251043758E+02 -0.23734563447E+03  0.10155275430E+04  0.10471448801E+04  0.00000000000E+00 0.  1.
        -11    1    3    3    0    0  0.39472627891E+02 -0.13224227659E+02  0.16978418416E+03  0.17481315093E+03  0.00000000000E+00 0. -1.
         22    1    1    2    0    0 -0.13372367165E+03  0.25056986213E+03 -0.54140406584E+03  0.61138010981E+03  0.00000000000E+00 0. -1.
<mgrwt>
<rscale>  0 0.17165406E+04</rscale>
<asrwt>0</asrwt>
<pdfrwt beam="1">  1        2 0.19055737E+00 0.17165406E+04</pdfrwt>
<pdfrwt beam="2">  1       -2 0.91494652E-01 0.17165406E+04</pdfrwt>
<totfact> 0.17369196E+01</totfact>
</mgrwt>
</event>
<event>
 6    1  0.1934315E-005  0.1129255E+04  0.7818608E-02  0.9177138E-01
         -2   -1    0    0    0  501 -0.00000000000E+00  0.00000000000E+00  0.10340784938E+04  0.10340784938E+04  0.00000000000E+00 0. -1.
          2   -1    0    0  501    0  0.00000000000E+00 -0.00000000000E+00 -0.30829766085E+03  0.30829766085E+03  0.00000000000E+00 0.  1.
         23    2    1    2    0    0  0.43792746682E+03  0.33792552496E+03  0.47644734121E+03  0.73562965345E+03  0.90414553470E+02 0.  0.
         11    1    3    3    0    0  0.24120338732E+03  0.12907872452E+03  0.23476886050E+03  0.36049522748E+03  0.00000000000E+00 0.  1.
        -11    1    3    3    0    0  0.19672407949E+03  0.20884680044E+03  0.24167848071E+03  0.37513442596E+03  0.00000000000E+00 0. -1.
         22    1    1    2    0    0 -0.43792746682E+03 -0.33792552496E+03  0.24933349172E+03  0.60674650119E+03  0.00000000000E+00 0. -1.
<mgrwt>
<rscale>  0 0.11292546E+04</rscale>
<asrwt>0</asrwt>
<pdfrwt beam="1">  1        2 0.47430410E-01 0.11292546E+04</pdfrwt>
<pdfrwt beam="2">  1       -2 0.15908900E+00 0.11292546E+04</pdfrwt>
<totfact> 0.26973387E+01</totfact>
</mgrwt>
</event>
<event>
 6    1  0.1934315E-005  0.1663462E+04  0.7818608E-02  0.8782482E-01
         -2   -1    0    0    0  501 -0.00000000000E+00  0.00000000000E+00  0.43204835641E+03  0.43204835641E+03  0.00000000000E+00 0. -1.
          2   -1    0    0  501    0  0.00000000000E+00 -0.00000000000E+00 -0.16011556551E+04  0.16011556551E+04  0.00000000000E+00 0.  1.
         23    2    1    2    0    0  0.67548110259E+03  0.12012345984E+03 -0.11574414636E+04  0.13470258588E+04  0.64059011276E+02 0.  0.
         13    1    3    3    0    0  0.40647074265E+03  0.72184931831E+02 -0.63412845895E+03  0.75666903694E+03  0.00000000000E+00 0. -1.
        -13    1    3    3    0    0  0.26901035994E+03  0.47938528013E+02 -0.52331300467E+03  0.59035682183E+03  0.00000000000E+00 0.  1.
         22    1    1    2    0    0 -0.67548110259E+03 -0.12012345984E+03 -0.11665835049E+02  0.68617815272E+03  0.00000000000E+00 0. -1.
<mgrwt>
<rscale>  0 0.16634623E+04</rscale>
<asrwt>0</asrwt>
<pdfrwt beam="1">  1        2 0.24633163E+00 0.16634623E+04</pdfrwt>
<pdfrwt beam="2">  1       -2 0.66468980E-01 0.16634623E+04</pdfrwt>
<totfact> 0.22103769E+01</totfact>
</mgrwt>
</event>
<event>
 6    1  0.1934315E-005  0.3316427E+04  0.7818608E-02  0.8158728E-01
          2   -1    0    0  501    0  0.00000000000E+00  0.00000000000E+00  0.12096489777E+04  0.12096489777E+04  0.00000000000E+00 0.  1.
         -2   -1    0    0    0  501 -0.00000000000E+00 -0.00000000000E+00 -0.22731162336E+04  0.22731162336E+04  0.00000000000E+00 0. -1.
         23    2    1    2    0    0 -0.14729625142E+04 -0.32705291244E+03  0.18687137029E+03  0.15231915699E+04  0.92787250015E+02 0.  0.
         13    1    3    3    0    0 -0.67768142575E+03 -0.17235304630E+03  0.45235038296E+02  0.70071670172E+03  0.00000000000E+00 0. -1.
        -13    1    3    3    0    0 -0.79528108844E+03 -0.15469986614E+03  0.14163633200E+03  0.82247486816E+03  0.00000000000E+00 0.  1.
         22    1    1    2    0    0  0.14729625142E+04  0.32705291244E+03 -0.12503386262E+04  0.19595736414E+04  0.00000000000E+00 0. -1.
<mgrwt>
<rscale>  0 0.33164274E+04</rscale>
<asrwt>0</asrwt>
<pdfrwt beam="1">  1        2 0.18609985E+00 0.33164274E+04</pdfrwt>
<pdfrwt beam="2">  1       -2 0.34971018E+00 0.33164274E+04</pdfrwt>
<totfact> 0.24347108E-01</totfact>
</mgrwt>
</event>
<event>
 6    1  0.2043547E-005  0.3339557E+04  0.7818608E-02  0.8152903E-01
          2   -1    0    0  501    0  0.00000000000E+00  0.00000000000E+00  0.14543852788E+04  0.14543852788E+04  0.00000000000E+00 0.  1.
         -2   -1    0    0    0  501 -0.00000000000E+00 -0.00000000000E+00 -0.19170707312E+04  0.19170707312E+04  0.00000000000E+00 0. -1.
         23    2    1    2    0    0 -0.83777204776E+03  0.85594700328E+03 -0.14036327803E+04  0.18483377775E+04  0.10798278338E+03 0.  0.
         11    1    3    3    0    0 -0.46863250264E+03  0.53794900956E+03 -0.78266453434E+03  0.10590417049E+04  0.00000000000E+00 0.  1.
        -11    1    3    3    0    0 -0.36913954513E+03  0.31799799372E+03 -0.62096824591E+03  0.78929607259E+03  0.00000000000E+00 0. -1.
         22    1    1    2    0    0  0.83777204776E+03 -0.85594700328E+03  0.94094732786E+03  0.15231182325E+04  0.00000000000E+00 0.  1.
<mgrwt>
<rscale>  0 0.33395565E+04</rscale>
<asrwt>0</asrwt>
<pdfrwt beam="1">  1        2 0.22375158E+00 0.33395565E+04</pdfrwt>
<pdfrwt beam="2">  1       -2 0.29493396E+00 0.33395565E+04</pdfrwt>
<totfact> 0.38283107E-01</totfact>
</mgrwt>
</event>
<event>
 6    1  0.1934315E-005  0.2730722E+04  0.7818608E-02  0.8325105E-01
          2   -1    0    0  501    0  0.00000000000E+00  0.00000000000E+00  0.42487818492E+04  0.42487818492E+04  0.00000000000E+00 0.  1.
         -2   -1    0    0    0  501 -0.00000000000E+00 -0.00000000000E+00 -0.43876353478E+03  0.43876353478E+03  0.00000000000E+00 0. -1.
         23    2    1    2    0    0  0.14038896752E+03 -0.34184576965E+03  0.41607155069E+04  0.41780788853E+04  0.90675521759E+02 0.  0.
         13    1    3    3    0    0  0.51704067499E+01 -0.95880129620E+02  0.82304671415E+03  0.82862876249E+03  0.00000000000E+00 0.  1.
        -13    1    3    3    0    0  0.13521856077E+03 -0.24596564003E+03  0.33376687927E+04  0.33494501228E+04  0.00000000000E+00 0. -1.
         22    1    1    2    0    0 -0.14038896752E+03  0.34184576965E+03 -0.35069719248E+03  0.50946649864E+03  0.00000000000E+00 0. -1.
<mgrwt>
<rscale>  0 0.27307219E+04</rscale>
<asrwt>0</asrwt>
<pdfrwt beam="1">  1        2 0.65365872E+00 0.27307219E+04</pdfrwt>
<pdfrwt beam="2">  1       -2 0.67502085E-01 0.27307219E+04</pdfrwt>
<totfact> 0.37171701E-01</totfact>
</mgrwt>
</event>
<event>
 6    1  0.1934315E-005  0.1160791E+04  0.7818608E-02  0.9147886E-01
          2   -1    0    0  501    0  0.00000000000E+00  0.00000000000E+00  0.26822478076E+04  0.26822478076E+04  0.00000000000E+00 0.  1.
         -2   -1    0    0    0  501 -0.00000000000E+00 -0.00000000000E+00 -0.12558825697E+03  0.12558825697E+03  0.00000000000E+00 0. -1.
         23    2    1    2    0    0  0.30373813755E+03 -0.48853843546E+03  0.13897747292E+04  0.15068568774E+04  0.90648727045E+02 0.  0.
         13    1    3    3    0    0  0.50173368345E+02 -0.13393810088E+03  0.27714663173E+03  0.31187663785E+03  0.00000000000E+00 0. -1.
        -13    1    3    3    0    0  0.25356476921E+03 -0.35460033458E+03  0.11126280975E+04  0.11949802395E+04  0.00000000000E+00 0.  1.
         22    1    1    2    0    0 -0.30373813755E+03  0.48853843546E+03  0.11668848214E+04  0.13009791872E+04  0.00000000000E+00 0. -1.
<mgrwt>
<rscale>  0 0.11607908E+04</rscale>
<asrwt>0</asrwt>
<pdfrwt beam="1">  1        2 0.41265347E+00 0.11607908E+04</pdfrwt>
<pdfrwt beam="2">  1       -2 0.19321272E-01 0.11607908E+04</pdfrwt>
<totfact> 0.61746271E+01</totfact>
</mgrwt>
</event>
<event>
 6    1  0.1934315E-005  0.1799951E+04  0.7818608E-02  0.8706325E-01
         -2   -1    0    0    0  501 -0.00000000000E+00  0.00000000000E+00  0.14525800058E+04  0.14525800058E+04  0.00000000000E+00 0. -1.
          2   -1    0    0  501    0  0.00000000000E+00 -0.00000000000E+00 -0.55759827411E+03  0.55759827411E+03  0.00000000000E+00 0.  1.
         23    2    1    2    0    0  0.76906498055E+03  0.27873090468E+03  0.35982421859E+02  0.82399461966E+03  0.92306755024E+02 0.  0.
         13    1    3    3    0    0  0.24268127892E+03  0.11640866118E+03  0.46007145241E+02  0.27306013431E+03  0.00000000000E+00 0.  1.
        -13    1    3    3    0    0  0.52638370163E+03  0.16232224351E+03 -0.10024723381E+02  0.55093448535E+03  0.00000000000E+00 0. -1.
         22    1    1    2    0    0 -0.76906498055E+03 -0.27873090468E+03  0.85899930980E+03  0.11861836602E+04  0.00000000000E+00 0. -1.
<mgrwt>
<rscale>  0 0.17999512E+04</rscale>
<asrwt>0</asrwt>
<pdfrwt beam="1">  1        2 0.85784350E-01 0.17999512E+04</pdfrwt>
<pdfrwt beam="2">  1       -2 0.22347385E+00 0.17999512E+04</pdfrwt>
<totfact> 0.48013542E+00</totfact>
</mgrwt>
</event>
<event>
 6    1  0.1934315E-005  0.3273478E+04  0.7818608E-02  0.8169677E-01
         -4   -1    0    0    0  501 -0.00000000000E+00  0.00000000000E+00  0.19322656125E+04  0.19322656125E+04  0.00000000000E+00 0. -1.
          4   -1    0    0  501    0  0.00000000000E+00 -0.00000000000E+00 -0.13864111102E+04  0.13864111102E+04  0.00000000000E+00 0.  1.
         23    2    1    2    0    0 -0.15952038944E+04 -0.35922713046E+03  0.30596834466E+03  0.16660228071E+04  0.91081116755E+02 0.  0.
         13    1    3    3    0    0 -0.98317558972E+03 -0.26019603836E+03  0.21324519937E+03  0.10391389386E+04  0.00000000000E+00 0. -1.
        -13    1    3    3    0    0 -0.61202830470E+03 -0.99031092107E+02  0.92723145282E+02  0.62688386854E+03  0.00000000000E+00 0.  1.
         22    1    1    2    0    0  0.15952038944E+04  0.35922713046E+03  0.23988615772E+03  0.16526539156E+04  0.00000000000E+00 0. -1.
<mgrwt>
<rscale>  0 0.32734780E+04</rscale>
<asrwt>0</asrwt>
<pdfrwt beam="1">  1        4 0.21329402E+00 0.32734780E+04</pdfrwt>
<pdfrwt beam="2">  1       -4 0.29727163E+00 0.32734780E+04</pdfrwt>
<totfact> 0.57288176E-03</totfact>
</mgrwt>
</event>
<event>
 6    1  0.1934315E-005  0.3077011E+04  0.7818608E-02  0.8222075E-01
          2   -1    0    0  501    0  0.00000000000E+00  0.00000000000E+00  0.97544230938E+03  0.97544230938E+03  0.00000000000E+00 0.  1.
         -2   -1    0    0    0  501 -0.00000000000E+00 -0.00000000000E+00 -0.24265912697E+04  0.24265912697E+04  0.00000000000E+00 0. -1.
         23    2    1    2    0    0 -0.10052200991E+03 -0.33738204176E+03 -0.23806533783E+04  0.24080970722E+04  0.86542966407E+02 0.  0.
         11    1    3    3    0    0 -0.26948963195E+02 -0.23420424558E+03 -0.15295782619E+04  0.15476393425E+04  0.00000000000E+00 0.  1.
        -11    1    3    3    0    0 -0.73573046710E+02 -0.10317779618E+03 -0.85107511640E+03  0.86045772969E+03  0.00000000000E+00 0. -1.
         22    1    1    2    0    0  0.10052200991E+03  0.33738204176E+03  0.92950441800E+03  0.99393650685E+03  0.00000000000E+00 0.  1.
<mgrwt>
<rscale>  0 0.30770114E+04</rscale>
<asrwt>0</asrwt>
<pdfrwt beam="1">  1        2 0.15006805E+00 0.30770114E+04</pdfrwt>
<pdfrwt beam="2">  1       -2 0.37332173E+00 0.30770114E+04</pdfrwt>
<totfact> 0.24555077E-01</totfact>
</mgrwt>
</event>
<event>
 6    1  0.1934315E-005  0.3330334E+04  0.7818608E-02  0.8155219E-01
          2   -1    0    0  501    0  0.00000000000E+00  0.00000000000E+00  0.21558933926E+04  0.21558933926E+04  0.00000000000E+00 0.  1.
         -2   -1    0    0    0  501 -0.00000000000E+00 -0.00000000000E+00 -0.12861402565E+04  0.12861402565E+04  0.00000000000E+00 0. -1.
         23    2    1    2    0    0  0.29205136514E+03  0.16123861370E+04  0.73397427048E+03  0.17977955413E+04  0.90925925692E+02 0.  0.
         11    1    3    3    0    0  0.11793482109E+03  0.79399086656E+03  0.40063273931E+03  0.89712691968E+03  0.00000000000E+00 0.  1.
        -11    1    3    3    0    0  0.17411654405E+03  0.81839527047E+03  0.33334153117E+03  0.90066862166E+03  0.00000000000E+00 0. -1.
         22    1    1    2    0    0 -0.29205136514E+03 -0.16123861370E+04  0.13577886564E+03  0.16442381078E+04  0.00000000000E+00 0.  1.
<mgrwt>
<rscale>  0 0.33303341E+04</rscale>
<asrwt>0</asrwt>
<pdfrwt beam="1">  1        2 0.33167590E+00 0.33303341E+04</pdfrwt>
<pdfrwt beam="2">  1       -2 0.19786773E+00 0.33303341E+04</pdfrwt>
<totfact> 0.62574655E-01</totfact>
</mgrwt>
</event>
<event>
 6    1  0.1934315E-005  0.3135335E+04  0.7818608E-02  0.8206107E-01
         -2   -1    0    0    0  501 -0.00000000000E+00  0.00000000000E+00  0.91400821551E+03  0.91400821551E+03  0.00000000000E+00 0. -1.
          2   -1    0    0  501    0  0.00000000000E+00 -0.00000000000E+00 -0.26887956191E+04  0.26887956191E+04  0.00000000000E+00 0.  1.
         23    2    1    2    0    0 -0.67535131075E+03  0.44650503562E+03  0.65267405653E+03  0.10438909248E+04  0.90877384387E+02 0.  0.
         11    1    3    3    0    0 -0.63686154684E+03  0.44187093385E+03  0.63081771322E+03  0.99938658153E+03  0.00000000000E+00 0. -1.
        -11    1    3    3    0    0 -0.38489763912E+02  0.46341017767E+01  0.21856343306E+02  0.44504343248E+02  0.00000000000E+00 0.  1.
         22    1    1    2    0    0  0.67535131075E+03 -0.44650503562E+03 -0.24274614601E+04  0.25589129098E+04  0.00000000000E+00 0.  1.
<mgrwt>
<rscale>  0 0.31353349E+04</rscale>
<asrwt>0</asrwt>
<pdfrwt beam="1">  1        2 0.41366087E+00 0.31353349E+04</pdfrwt>
<pdfrwt beam="2">  1       -2 0.14061665E+00 0.31353349E+04</pdfrwt>
<totfact> 0.81028651E-01</totfact>
</mgrwt>
</event>
<event>
 6    1  0.1934315E-005  0.3664087E+04  0.7818608E-02  0.8075968E-01
          2   -1    0    0  501    0  0.00000000000E+00  0.00000000000E+00  0.40137130650E+04  0.40137130650E+04  0.00000000000E+00 0.  1.
         -2   -1    0    0    0  501 -0.00000000000E+00 -0.00000000000E+00 -0.83622882814E+03  0.83622882814E+03  0.00000000000E+00 0. -1.
         23    2    1    2    0    0  0.15042669948E+02 -0.79195663591E+03  0.37746628351E+04  0.38579520377E+04  0.91064876837E+02 0.  0.
         11    1    3    3    0    0 -0.34831647628E+02 -0.25706356503E+03  0.11550506435E+04  0.11838230059E+04  0.00000000000E+00 0. -1.
        -11    1    3    3    0    0  0.49874317575E+02 -0.53489307087E+03  0.26196121916E+04  0.26741290319E+04  0.00000000000E+00 0.  1.
         22    1    1    2    0    0 -0.15042669948E+02  0.79195663591E+03 -0.59717859822E+03  0.99198985542E+03  0.00000000000E+00 0. -1.
<mgrwt>
<rscale>  0 0.36640866E+04</rscale>
<asrwt>0</asrwt>
<pdfrwt beam="1">  1        2 0.61749431E+00 0.36640866E+04</pdfrwt>
<pdfrwt beam="2">  1       -2 0.12865059E+00 0.36640866E+04</pdfrwt>
<totfact> 0.12018415E-01</totfact>
</mgrwt>
</event>
<event>
 6    1  0.1934315E-005  0.3134697E+04  0.7818608E-02  0.8206280E-01
         -2   -1    0    0    0  501 -0.00000000000E+00  0.00000000000E+00  0.18696715762E+04  0.18696715762E+04  0.00000000000E+00 0. -1.
          2   -1    0    0  501    0  0.00000000000E+00 -0.00000000000E+00 -0.13139102030E+04  0.13139102030E+04  0.00000000000E+00 0.  1.
         23    2    1    2    0    0  0.46277238216E+03  0.90544235156E+01  0.17974483292E+04  0.18584301814E+04  0.93284418526E+02 0.  0.
         11    1    3    3    0    0  0.43421134664E+03  0.72918034241E+01  0.17494892616E+04  0.18025829635E+04  0.00000000000E+00 0.  1.
        -11    1    3    3    0    0  0.28561035519E+02  0.17626200915E+01  0.47959067595E+02  0.55847217872E+02  0.00000000000E+00 0. -1.
         22    1    1    2    0    0 -0.46277238216E+03 -0.90544235156E+01 -0.12416869560E+04  0.13251515977E+04  0.00000000000E+00 0.  1.
<mgrwt>
<rscale>  0 0.31346965E+04</rscale>
<asrwt>0</asrwt>
<pdfrwt beam="1">  1        2 0.20214003E+00 0.31346965E+04</pdfrwt>
<pdfrwt beam="2">  1       -2 0.28764178E+00 0.31346965E+04</pdfrwt>
<totfact> 0.51953754E-01</totfact>
</mgrwt>
</event>
<event>
 6    1  0.1934315E-005  0.1151582E+04  0.7818608E-02  0.9156325E-01
          2   -1    0    0  501    0  0.00000000000E+00  0.00000000000E+00  0.58249449292E+03  0.58249449292E+03  0.00000000000E+00 0.  1.
         -2   -1    0    0    0  501 -0.00000000000E+00 -0.00000000000E+00 -0.56916479721E+03  0.56916479721E+03  0.00000000000E+00 0. -1.
         23    2    1    2    0    0  0.21381891901E+03 -0.52345987440E+03  0.94551810730E+02  0.58040995559E+03  0.90591950002E+02 0.  0.
         13    1    3    3    0    0  0.15109331853E+03 -0.38456527509E+03  0.10902053074E+03  0.42732320068E+03  0.00000000000E+00 0.  1.
        -13    1    3    3    0    0  0.62725600476E+02 -0.13889459931E+03 -0.14468720015E+02  0.15308675492E+03  0.00000000000E+00 0. -1.
         22    1    1    2    0    0 -0.21381891901E+03  0.52345987440E+03 -0.81222115019E+02  0.57124933453E+03  0.00000000000E+00 0.  1.
<mgrwt>
<rscale>  0 0.11515821E+04</rscale>
<asrwt>0</asrwt>
<pdfrwt beam="1">  1        2 0.89614538E-01 0.11515821E+04</pdfrwt>
<pdfrwt beam="2">  1       -2 0.87563815E-01 0.11515821E+04</pdfrwt>
<totfact> 0.57301367E+01</totfact>
</mgrwt>
</event>
<event>
 6    1  0.1934315E-005  0.3450672E+04  0.7818608E-02  0.8125581E-01
         -2   -1    0    0    0  501 -0.00000000000E+00  0.00000000000E+00  0.11875852688E+04  0.11875852688E+04  0.00000000000E+00 0. -1.
          2   -1    0    0  501    0  0.00000000000E+00 -0.00000000000E+00 -0.25065854610E+04  0.25065854610E+04  0.00000000000E+00 0.  1.
         23    2    1    2    0    0 -0.15516209303E+03 -0.15252760748E+04  0.18405760632E+03  0.15471436864E+04  0.96093726620E+02 0.  0.
         11    1    3    3    0    0 -0.14909550110E+03 -0.10275388405E+04  0.11689037183E+03  0.10448583140E+04  0.00000000000E+00 0. -1.
        -11    1    3    3    0    0 -0.60665919264E+01 -0.49773723433E+03  0.67167234496E+02  0.50228537243E+03  0.00000000000E+00 0.  1.
         22    1    1    2    0    0  0.15516209303E+03  0.15252760748E+04 -0.15030577985E+04  0.21470270434E+04  0.00000000000E+00 0.  1.
<mgrwt>
<rscale>  0 0.34506718E+04</rscale>
<asrwt>0</asrwt>
<pdfrwt beam="1">  1        2 0.38562853E+00 0.34506718E+04</pdfrwt>
<pdfrwt beam="2">  1       -2 0.18270543E+00 0.34506718E+04</pdfrwt>
<totfact> 0.49446696E-01</totfact>
</mgrwt>
</event>
<event>
 6    1  0.1934315E-005  0.4525106E+04  0.7818608E-02  0.7906256E-01
         -2   -1    0    0    0  501 -0.00000000000E+00  0.00000000000E+00  0.12033696647E+04  0.12033696647E+04  0.00000000000E+00 0. -1.
          2   -1    0    0  501    0  0.00000000000E+00 -0.00000000000E+00 -0.42540099492E+04  0.42540099492E+04  0.00000000000E+00 0.  1.
         23    2    1    2    0    0 -0.12304434808E+04  0.11040595043E+04 -0.33873327263E+04  0.37702814103E+04  0.89779537862E+02 0.  0.
         11    1    3    3    0    0 -0.38649799640E+03  0.36181460790E+03 -0.99439228831E+03  0.11265462861E+04  0.00000000000E+00 0. -1.
        -11    1    3    3    0    0 -0.84394548441E+03  0.74224489639E+03 -0.23929404380E+04  0.26437351241E+04  0.00000000000E+00 0.  1.
         22    1    1    2    0    0  0.12304434808E+04 -0.11040595043E+04  0.33669244183E+03  0.16870982037E+04  0.00000000000E+00 0. -1.
<mgrwt>
<rscale>  0 0.45251062E+04</rscale>
<asrwt>0</asrwt>
<pdfrwt beam="1">  1        2 0.65446306E+00 0.45251062E+04</pdfrwt>
<pdfrwt beam="2">  1       -2 0.18513380E+00 0.45251062E+04</pdfrwt>
<totfact> 0.26199073E-02</totfact>
</mgrwt>
</event>
<event>
 6    1  0.1934315E-005  0.1753962E+04  0.7818608E-02  0.8731172E-01
         -2   -1    0    0    0  501 -0.00000000000E+00  0.00000000000E+00  0.13131821675E+04  0.13131821675E+04  0.00000000000E+00 0. -1.
          2   -1    0    0  501    0  0.00000000000E+00 -0.00000000000E+00 -0.58567321676E+03  0.58567321676E+03  0.00000000000E+00 0.  1.
         23    2    1    2    0    0  0.46266359282E+03 -0.17393642622E+03  0.11453393128E+04  0.12516354124E+04  0.10236006877E+03 0.  0.
         13    1    3    3    0    0  0.22353609760E+03 -0.57377417045E+02  0.42287830029E+03  0.48175368371E+03  0.00000000000E+00 0.  1.
        -13    1    3    3    0    0  0.23912749522E+03 -0.11655900918E+03  0.72246101247E+03  0.76988172867E+03  0.00000000000E+00 0. -1.
         22    1    1    2    0    0 -0.46266359282E+03  0.17393642622E+03 -0.41783036206E+03  0.64721997184E+03  0.00000000000E+00 0. -1.
<mgrwt>
<rscale>  0 0.17539619E+04</rscale>
<asrwt>0</asrwt>
<pdfrwt beam="1">  1        2 0.90103572E-01 0.17539619E+04</pdfrwt>
<pdfrwt beam="2">  1       -2 0.20202802E+00 0.17539619E+04</pdfrwt>
<totfact> 0.62359705E+00</totfact>
</mgrwt>
</event>
<event>
 6    1  0.1934315E-005  0.3280477E+04  0.7818608E-02  0.8167881E-01
          2   -1    0    0  501    0  0.00000000000E+00  0.00000000000E+00  0.14211803677E+04  0.14211803677E+04  0.00000000000E+00 0.  1.
         -2   -1    0    0    0  501 -0.00000000000E+00 -0.00000000000E+00 -0.18930620690E+04  0.18930620690E+04  0.00000000000E+00 0. -1.
         23    2    1    2    0    0  0.25586611784E+03  0.16131852281E+04 -0.37288088077E+03  0.16778943034E+04  0.91951572877E+02 0.  0.
         11    1    3    3    0    0  0.78360379014E+02  0.47788221463E+03 -0.15379889554E+03  0.50810024633E+03  0.00000000000E+00 0. -1.
        -11    1    3    3    0    0  0.17750573883E+03  0.11353030135E+04 -0.21908198524E+03  0.11697940571E+04  0.00000000000E+00 0.  1.
         22    1    1    2    0    0 -0.25586611784E+03 -0.16131852281E+04 -0.99000820536E+02  0.16363481332E+04  0.00000000000E+00 0. -1.
<mgrwt>
<rscale>  0 0.32804772E+04</rscale>
<asrwt>0</asrwt>
<pdfrwt beam="1">  1        2 0.21864314E+00 0.32804772E+04</pdfrwt>
<pdfrwt beam="2">  1       -2 0.29124032E+00 0.32804772E+04</pdfrwt>
<totfact> 0.42325328E-01</totfact>
</mgrwt>
</event>
<event>
 6    1  0.1934315E-005  0.2914946E+03  0.7818608E-02  0.1089571E+00
          1   -1    0    0  501    0  0.00000000000E+00  0.00000000000E+00  0.41084940864E+03  0.41084940864E+03  0.00000000000E+00 0. -1.
         -1   -1    0    0    0  501 -0.00000000000E+00 -0.00000000000E+00 -0.51703327929E+02  0.51703327929E+02  0.00000000000E+00 0.  1.
         23    2    1    2    0    0  0.39253739397E+02  0.11765058129E+03  0.26732708583E+03  0.30823733502E+03  0.90354681924E+02 0.  0.
         11    1    3    3    0    0  0.16006896711E+02  0.10733653768E+03  0.13364642464E+03  0.17215899594E+03  0.00000000000E+00 0.  1.
        -11    1    3    3    0    0  0.23246842686E+02  0.10314043613E+02  0.13368066119E+03  0.13607833908E+03  0.00000000000E+00 0. -1.
         22    1    1    2    0    0 -0.39253739397E+02 -0.11765058129E+03  0.91818994876E+02  0.15431540155E+03  0.00000000000E+00 0. -1.
<mgrwt>
<rscale>  0 0.29149464E+03</rscale>
<asrwt>0</asrwt>
<pdfrwt beam="1">  1        1 0.63207599E-01 0.29149464E+03</pdfrwt>
<pdfrwt beam="2">  1       -1 0.79543584E-02 0.29149464E+03</pdfrwt>
<totfact> 0.50680898E+03</totfact>
</mgrwt>
</event>
<event>
 6    1  0.1934315E-005  0.1996876E+04  0.7818608E-02  0.8608083E-01
          2   -1    0    0  501    0  0.00000000000E+00  0.00000000000E+00  0.20976909081E+04  0.20976909081E+04  0.00000000000E+00 0.  1.
         -2   -1    0    0    0  501 -0.00000000000E+00 -0.00000000000E+00 -0.47522656749E+03  0.47522656749E+03  0.00000000000E+00 0. -1.
         23    2    1    2    0    0  0.45261060492E+03 -0.10161120678E+03  0.19490163999E+04  0.20056279160E+04  0.93258850151E+02 0.  0.
         13    1    3    3    0    0  0.16300116427E+02 -0.12337285659E+02  0.19053842279E+03  0.19163192055E+03  0.00000000000E+00 0. -1.
        -13    1    3    3    0    0  0.43631048849E+03 -0.89273921116E+02  0.17584779771E+04  0.18139959954E+04  0.00000000000E+00 0.  1.
         22    1    1    2    0    0 -0.45261060492E+03  0.10161120678E+03 -0.32655205931E+03  0.56728955963E+03  0.00000000000E+00 0. -1.
<mgrwt>
<rscale>  0 0.19968760E+04</rscale>
<asrwt>0</asrwt>
<pdfrwt beam="1">  1        2 0.32272167E+00 0.19968760E+04</pdfrwt>
<pdfrwt beam="2">  1       -2 0.73111781E-01 0.19968760E+04</pdfrwt>
<totfact> 0.92524961E+00</totfact>
</mgrwt>
</event>
<event>
 6    1  0.1934315E-005  0.2093533E+04  0.7818608E-02  0.8564097E-01
         -1   -1    0    0    0  501 -0.00000000000E+00  0.00000000000E+00  0.60533633116E+03  0.60533633116E+03  0.00000000000E+00 0. -1.
          1   -1    0    0  501    0  0.00000000000E+00 -0.00000000000E+00 -0.18101013597E+04  0.18101013597E+04  0.00000000000E+00 0.  1.
         23    2    1    2    0    0 -0.57144483267E+03 -0.27735225688E+03 -0.15605767276E+04  0.16873748939E+04  0.91437621245E+02 0.  0.
         11    1    3    3    0    0 -0.33072249995E+03 -0.12038746502E+03 -0.78576604447E+03  0.86098710231E+03  0.00000000000E+00 0. -1.
        -11    1    3    3    0    0 -0.24072233272E+03 -0.15696479186E+03 -0.77481068317E+03  0.82638779160E+03  0.00000000000E+00 0.  1.
         22    1    1    2    0    0  0.57144483267E+03  0.27735225688E+03  0.35581169905E+03  0.72806279699E+03  0.00000000000E+00 0. -1.
<mgrwt>
<rscale>  0 0.20935330E+04</rscale>
<asrwt>0</asrwt>
<pdfrwt beam="1">  1        1 0.27847713E+00 0.20935330E+04</pdfrwt>
<pdfrwt beam="2">  1       -1 0.93128668E-01 0.20935330E+04</pdfrwt>
<totfact> 0.41308782E+00</totfact>
</mgrwt>
</event>
<event>
 6    1  0.1934315E-005  0.5994247E+03  0.7818608E-02  0.9906600E-01
          2   -1    0    0  501    0  0.00000000000E+00  0.00000000000E+00  0.96890272022E+03  0.96890272022E+03  0.00000000000E+00 0.  1.
         -2   -1    0    0    0  501 -0.00000000000E+00 -0.00000000000E+00 -0.92710540366E+02  0.92710540366E+02  0.00000000000E+00 0. -1.
         23    2    1    2    0    0  0.12120267836E+03  0.23438795840E+03  0.67219872271E+03  0.72808494868E+03  0.92891148175E+02 0.  0.
         13    1    3    3    0    0  0.61500058860E+02  0.14297744348E+03  0.27327164592E+03  0.31448720013E+03  0.00000000000E+00 0. -1.
        -13    1    3    3    0    0  0.59702619497E+02  0.91410514914E+02  0.39892707679E+03  0.41359774855E+03  0.00000000000E+00 0.  1.
         22    1    1    2    0    0 -0.12120267836E+03 -0.23438795840E+03  0.20399345714E+03  0.33352831190E+03  0.00000000000E+00 0. -1.
<mgrwt>
<rscale>  0 0.59942471E+03</rscale>
<asrwt>0</asrwt>
<pdfrwt beam="1">  1        2 0.14906195E+00 0.59942471E+03</pdfrwt>
<pdfrwt beam="2">  1       -2 0.14263161E-01 0.59942471E+03</pdfrwt>
<totfact> 0.10140603E+03</totfact>
</mgrwt>
</event>
<event>
 6    1  0.1934315E-005  0.2038699E+04  0.7818608E-02  0.8588738E-01
          2   -1    0    0  501    0  0.00000000000E+00  0.00000000000E+00  0.32807071412E+04  0.32807071412E+04  0.00000000000E+00 0.  1.
         -2   -1    0    0    0  501 -0.00000000000E+00 -0.00000000000E+00 -0.31672251957E+03  0.31672251957E+03  0.00000000000E+00 0. -1.
         23    2    1    2    0    0  0.54660186766E+03 -0.67260018428E+03  0.24250526165E+04  0.25768355613E+04  0.89647687828E+02 0.  0.
         11    1    3    3    0    0  0.47832284834E+03 -0.62080669148E+03  0.22328424086E+04  0.23663852005E+04  0.00000000000E+00 0.  1.
        -11    1    3    3    0    0  0.68279019320E+02 -0.51793492805E+02  0.19221020783E+03  0.21045036083E+03  0.00000000000E+00 0. -1.
         22    1    1    2    0    0 -0.54660186766E+03  0.67260018428E+03  0.53893200521E+03  0.10205940995E+04  0.00000000000E+00 0. -1.
<mgrwt>
<rscale>  0 0.20386994E+04</rscale>
<asrwt>0</asrwt>
<pdfrwt beam="1">  1        2 0.50472415E+00 0.20386994E+04</pdfrwt>
<pdfrwt beam="2">  1       -2 0.48726544E-01 0.20386994E+04</pdfrwt>
<totfact> 0.42538536E+00</totfact>
</mgrwt>
</event>
<event>
 6    1  0.1934315E-005  0.1221032E+04  0.7818608E-02  0.9094644E-01
         -2   -1    0    0    0  501 -0.00000000000E+00  0.00000000000E+00  0.21703777443E+03  0.21703777443E+03  0.00000000000E+00 0. -1.
          2   -1    0    0  501    0  0.00000000000E+00 -0.00000000000E+00 -0.17173500519E+04  0.17173500519E+04  0.00000000000E+00 0.  1.
         23    2    1    2    0    0  0.35168792893E+03 -0.21024116322E+02 -0.15374988348E+04  0.15801149754E+04  0.93457240617E+02 0.  0.
         11    1    3    3    0    0  0.23535729654E+03 -0.38586575141E+02 -0.85913963442E+03  0.89162934690E+03  0.00000000000E+00 0.  1.
        -11    1    3    3    0    0  0.11633063239E+03  0.17562458819E+02 -0.67835920036E+03  0.68848562854E+03  0.00000000000E+00 0. -1.
         22    1    1    2    0    0 -0.35168792893E+03  0.21024116322E+02  0.37186557320E+02  0.35427285088E+03  0.00000000000E+00 0. -1.
<mgrwt>
<rscale>  0 0.12210321E+04</rscale>
<asrwt>0</asrwt>
<pdfrwt beam="1">  1        2 0.26420770E+00 0.12210321E+04</pdfrwt>
<pdfrwt beam="2">  1       -2 0.33390427E-01 0.12210321E+04</pdfrwt>
<totfact> 0.79200569E+01</totfact>
</mgrwt>
</event>
<event>
 6    1  0.1934315E-005  0.3684438E+04  0.7818608E-02  0.8071419E-01
         -2   -1    0    0    0  501 -0.00000000000E+00  0.00000000000E+00  0.12319141459E+04  0.12319141459E+04  0.00000000000E+00 0. -1.
          2   -1    0    0  501    0  0.00000000000E+00 -0.00000000000E+00 -0.27548758796E+04  0.27548758796E+04  0.00000000000E+00 0.  1.
         23    2    1    2    0    0 -0.13852807653E+03  0.43570853477E+03 -0.26917343596E+04  0.27317755212E+04  0.90175828788E+02 0.  0.
         11    1    3    3    0    0 -0.10915940276E+03  0.33106355171E+03 -0.18002398266E+04  0.18336799840E+04  0.00000000000E+00 0.  1.
        -11    1    3    3    0    0 -0.29368673765E+02  0.10464498306E+03 -0.89149453302E+03  0.89809553717E+03  0.00000000000E+00 0. -1.
         22    1    1    2    0    0  0.13852807653E+03 -0.43570853477E+03  0.11687726258E+04  0.12550145043E+04  0.00000000000E+00 0. -1.
<mgrwt>
<rscale>  0 0.36844378E+04</rscale>
<asrwt>0</asrwt>
<pdfrwt beam="1">  1        2 0.42382705E+00 0.36844378E+04</pdfrwt>
<pdfrwt beam="2">  1       -2 0.18952526E+00 0.36844378E+04</pdfrwt>
<totfact> 0.31107288E-01</totfact>
</mgrwt>
</event>
<event>
 6    1  0.1934315E-005  0.2058720E+04  0.7818608E-02  0.8579649E-01
          2   -1    0    0  501    0  0.00000000000E+00  0.00000000000E+00  0.20883310021E+04  0.20883310021E+04  0.00000000000E+00 0.  1.
         -2   -1    0    0    0  501 -0.00000000000E+00 -0.00000000000E+00 -0.50738203810E+03  0.50738203810E+03  0.00000000000E+00 0. -1.
         23    2    1    2    0    0  0.19781526642E+03  0.93876197982E+03  0.12551632437E+04  0.15825293106E+04  0.92516572133E+02 0.  0.
         13    1    3    3    0    0  0.14705088730E+03  0.49909969490E+03  0.71283398050E+03  0.88252861294E+03  0.00000000000E+00 0.  1.
        -13    1    3    3    0    0  0.50764379111E+02  0.43966228493E+03  0.54232926324E+03  0.70000069767E+03  0.00000000000E+00 0. -1.
         22    1    1    2    0    0 -0.19781526642E+03 -0.93876197982E+03  0.32578572026E+03  0.10131837296E+04  0.00000000000E+00 0. -1.
<mgrwt>
<rscale>  0 0.20587196E+04</rscale>
<asrwt>0</asrwt>
<pdfrwt beam="1">  1        2 0.32128169E+00 0.20587196E+04</pdfrwt>
<pdfrwt beam="2">  1       -2 0.78058776E-01 0.20587196E+04</pdfrwt>
<totfact> 0.80554648E+00</totfact>
</mgrwt>
</event>
<event>
 6    1  0.1934315E-005  0.2419700E+04  0.7818608E-02  0.8432165E-01
         -2   -1    0    0    0  501 -0.00000000000E+00  0.00000000000E+00  0.11058711184E+04  0.11058711184E+04  0.00000000000E+00 0.  1.
          2   -1    0    0  501    0  0.00000000000E+00 -0.00000000000E+00 -0.13236056620E+04  0.13236056620E+04  0.00000000000E+00 0. -1.
         23    2    1    2    0    0  0.10186383820E+04  0.18458107916E+03 -0.73421415594E+03  0.12725647189E+04  0.93038749813E+02 0.  0.
         11    1    3    3    0    0  0.68004836267E+03  0.16748048231E+03 -0.49218855790E+03  0.85601697650E+03  0.00000000000E+00 0.  1.
        -11    1    3    3    0    0  0.33859001930E+03  0.17100596846E+02 -0.24202559804E+03  0.41654774239E+03  0.00000000000E+00 0. -1.
         22    1    1    2    0    0 -0.10186383820E+04 -0.18458107916E+03  0.51647961236E+03  0.11569120615E+04  0.00000000000E+00 0.  1.
<mgrwt>
<rscale>  0 0.24197002E+04</rscale>
<asrwt>0</asrwt>
<pdfrwt beam="1">  1        2 0.20363164E+00 0.24197002E+04</pdfrwt>
<pdfrwt beam="2">  1       -2 0.17013402E+00 0.24197002E+04</pdfrwt>
<totfact> 0.30582270E+00</totfact>
</mgrwt>
</event>
<event>
 6    1  0.1934315E-005  0.1659896E+04  0.7818608E-02  0.8784573E-01
          2   -1    0    0  501    0  0.00000000000E+00  0.00000000000E+00  0.37544065683E+04  0.37544065683E+04  0.00000000000E+00 0.  1.
         -2   -1    0    0    0  501 -0.00000000000E+00 -0.00000000000E+00 -0.18346809035E+03  0.18346809035E+03  0.00000000000E+00 0. -1.
         23    2    1    2    0    0  0.89684078987E+02 -0.60190020655E+03  0.46058264101E+03  0.76854657134E+03  0.90555896845E+02 0.  0.
         11    1    3    3    0    0  0.83319252213E+02 -0.59314523447E+03  0.43350264711E+03  0.73938346750E+03  0.00000000000E+00 0. -1.
        -11    1    3    3    0    0  0.63648267742E+01 -0.87549720781E+01  0.27079993897E+02  0.29163103837E+02  0.00000000000E+00 0.  1.
         22    1    1    2    0    0 -0.89684078987E+02  0.60190020655E+03  0.31103558369E+04  0.31693280873E+04  0.00000000000E+00 0.  1.
<mgrwt>
<rscale>  0 0.16598961E+04</rscale>
<asrwt>0</asrwt>
<pdfrwt beam="1">  1        2 0.57760096E+00 0.16598961E+04</pdfrwt>
<pdfrwt beam="2">  1       -2 0.28225863E-01 0.16598961E+04</pdfrwt>
<totfact> 0.59128400E+00</totfact>
</mgrwt>
</event>
<event>
 6    1  0.1934315E-005  0.1261751E+04  0.7818608E-02  0.9060459E-01
         -2   -1    0    0    0  501 -0.00000000000E+00  0.00000000000E+00  0.17082683428E+03  0.17082683428E+03  0.00000000000E+00 0. -1.
          2   -1    0    0  501    0  0.00000000000E+00 -0.00000000000E+00 -0.23298691673E+04  0.23298691673E+04  0.00000000000E+00 0.  1.
         23    2    1    2    0    0 -0.29254619931E+03  0.54413922969E+03 -0.86386579509E+03  0.10657210734E+04  0.88467589686E+02 0.  0.
         13    1    3    3    0    0 -0.11422063770E+03  0.21876209312E+03 -0.42064820091E+03  0.48769674634E+03  0.00000000000E+00 0.  1.
        -13    1    3    3    0    0 -0.17832556161E+03  0.32537713656E+03 -0.44321759419E+03  0.57802432710E+03  0.00000000000E+00 0. -1.
         22    1    1    2    0    0  0.29254619931E+03 -0.54413922969E+03 -0.12951765379E+04  0.14349749282E+04  0.00000000000E+00 0.  1.
<mgrwt>
<rscale>  0 0.12617514E+04</rscale>
<asrwt>0</asrwt>
<pdfrwt beam="1">  1        2 0.35844140E+00 0.12617514E+04</pdfrwt>
<pdfrwt beam="2">  1       -2 0.26281052E-01 0.12617514E+04</pdfrwt>
<totfact> 0.56311959E+01</totfact>
</mgrwt>
</event>
<event>
 6    1  0.1934315E-005  0.4402504E+03  0.7818608E-02  0.1030670E+00
          2   -1    0    0  501    0  0.00000000000E+00  0.00000000000E+00  0.58272781007E+03  0.58272781007E+03  0.00000000000E+00 0.  1.
         -2   -1    0    0    0  501 -0.00000000000E+00 -0.00000000000E+00 -0.83152216218E+02  0.83152216218E+02  0.00000000000E+00 0. -1.
         23    2    1    2    0    0 -0.89526271961E+02 -0.12854157354E+03  0.47351144372E+03  0.50708068932E+03  0.91541513233E+02 0.  0.
         13    1    3    3    0    0 -0.35704827266E+02 -0.11746096420E+03  0.27609918519E+03  0.30216332150E+03  0.00000000000E+00 0. -1.
        -13    1    3    3    0    0 -0.53821444695E+02 -0.11080609339E+02  0.19741225853E+03  0.20491736781E+03  0.00000000000E+00 0.  1.
         22    1    1    2    0    0  0.89526271961E+02  0.12854157354E+03  0.26064150130E+02  0.15879933697E+03  0.00000000000E+00 0. -1.
<mgrwt>
<rscale>  0 0.44025042E+03</rscale>
<asrwt>0</asrwt>
<pdfrwt beam="1">  1        2 0.89650430E-01 0.44025042E+03</pdfrwt>
<pdfrwt beam="2">  1       -2 0.12792649E-01 0.44025042E+03</pdfrwt>
<totfact> 0.23386292E+03</totfact>
</mgrwt>
</event>
<event>
 6    1  0.1934315E-005  0.2702150E+04  0.7818608E-02  0.8334308E-01
          2   -1    0    0  501    0  0.00000000000E+00  0.00000000000E+00  0.40260314522E+03  0.40260314522E+03  0.00000000000E+00 0. -1.
         -2   -1    0    0    0  501 -0.00000000000E+00 -0.00000000000E+00 -0.45340011334E+04  0.45340011334E+04  0.00000000000E+00 0.  1.
         23    2    1    2    0    0 -0.85124151113E+03 -0.89455967255E+03 -0.30626281756E+04  0.33034729213E+04  0.91612671422E+02 0.  0.
         11    1    3    3    0    0 -0.67056595467E+03 -0.75467317565E+03 -0.24744637410E+04  0.26724821996E+04  0.00000000000E+00 0.  1.
        -11    1    3    3    0    0 -0.18067555646E+03 -0.13988649690E+03 -0.58816443460E+03  0.63099072169E+03  0.00000000000E+00 0. -1.
         22    1    1    2    0    0  0.85124151113E+03  0.89455967255E+03 -0.10687698125E+04  0.16331313573E+04  0.00000000000E+00 0. -1.
<mgrwt>
<rscale>  0 0.27021496E+04</rscale>
<asrwt>0</asrwt>
<pdfrwt beam="1">  1        2 0.61938943E-01 0.27021496E+04</pdfrwt>
<pdfrwt beam="2">  1       -2 0.69753866E+00 0.27021496E+04</pdfrwt>
<totfact> 0.15927341E-02</totfact>
</mgrwt>
</event>
<event>
 6    1  0.1934315E-005  0.1473926E+04  0.7818608E-02  0.8901979E-01
         -2   -1    0    0    0  501 -0.00000000000E+00  0.00000000000E+00  0.19715419996E+03  0.19715419996E+03  0.00000000000E+00 0. -1.
          2   -1    0    0  501    0  0.00000000000E+00 -0.00000000000E+00 -0.27547697699E+04  0.27547697699E+04  0.00000000000E+00 0.  1.
         23    2    1    2    0    0 -0.48328443916E+03  0.23954139468E+03 -0.22815453888E+04  0.23459877737E+04  0.85236988835E+02 0.  0.
         11    1    3    3    0    0 -0.37029786712E+03  0.21984785893E+03 -0.17496931189E+04  0.18019099872E+04  0.00000000000E+00 0.  1.
        -11    1    3    3    0    0 -0.11298657204E+03  0.19693535757E+02 -0.53185226986E+03  0.54407778651E+03  0.00000000000E+00 0. -1.
         22    1    1    2    0    0  0.48328443916E+03 -0.23954139468E+03 -0.27607018112E+03  0.60593619615E+03  0.00000000000E+00 0. -1.
<mgrwt>
<rscale>  0 0.14739260E+04</rscale>
<asrwt>0</asrwt>
<pdfrwt beam="1">  1        2 0.42381072E+00 0.14739260E+04</pdfrwt>
<pdfrwt beam="2">  1       -2 0.30331416E-01 0.14739260E+04</pdfrwt>
<totfact> 0.24071161E+01</totfact>
</mgrwt>
</event>
<event>
 6    1  0.1934315E-005  0.1236509E+04  0.7818608E-02  0.9081487E-01
         -2   -1    0    0    0  501 -0.00000000000E+00  0.00000000000E+00  0.23686984168E+03  0.23686984168E+03  0.00000000000E+00 0.  1.
          2   -1    0    0  501    0  0.00000000000E+00 -0.00000000000E+00 -0.16137072561E+04  0.16137072561E+04  0.00000000000E+00 0. -1.
         23    2    1    2    0    0  0.39587062601E+03 -0.13446199505E+03 -0.13667559983E+04  0.14323723446E+04  0.94207186071E+02 0.  0.
         11    1    3    3    0    0  0.34474811825E+03 -0.11970672964E+03 -0.10606719442E+04  0.11216977932E+04  0.00000000000E+00 0.  1.
        -11    1    3    3    0    0  0.51122507765E+02 -0.14755265410E+02 -0.30608405414E+03  0.31067455135E+03  0.00000000000E+00 0. -1.
         22    1    1    2    0    0 -0.39587062601E+03  0.13446199505E+03 -0.10081416104E+02  0.41820475320E+03  0.00000000000E+00 0.  1.
<mgrwt>
<rscale>  0 0.12365089E+04</rscale>
<asrwt>0</asrwt>
<pdfrwt beam="1">  1        2 0.24826266E+00 0.12365089E+04</pdfrwt>
<pdfrwt beam="2">  1       -2 0.36441514E-01 0.12365089E+04</pdfrwt>
<totfact> 0.76430607E+01</totfact>
</mgrwt>
</event>
<event>
 6    1  0.1934315E-005  0.3415040E+04  0.7818608E-02  0.8134225E-01
          1   -1    0    0  501    0  0.00000000000E+00  0.00000000000E+00  0.16119889416E+04  0.16119889416E+04  0.00000000000E+00 0.  1.
         -1   -1    0    0    0  501 -0.00000000000E+00 -0.00000000000E+00 -0.18087122906E+04  0.18087122906E+04  0.00000000000E+00 0. -1.
         23    2    1    2    0    0  0.52945760365E+03  0.11162960599E+04 -0.12772406573E+04  0.17793725324E+04  0.91545972151E+02 0.  0.
         11    1    3    3    0    0  0.16665099180E+03  0.42426126464E+03 -0.42620405774E+03  0.62403531356E+03  0.00000000000E+00 0. -1.
        -11    1    3    3    0    0  0.36280661185E+03  0.69203479524E+03 -0.85103659957E+03  0.11553372188E+04  0.00000000000E+00 0.  1.
         22    1    1    2    0    0 -0.52945760365E+03 -0.11162960599E+04  0.10805173082E+04  0.16413286998E+04  0.00000000000E+00 0.  1.
<mgrwt>
<rscale>  0 0.34150398E+04</rscale>
<asrwt>0</asrwt>
<pdfrwt beam="1">  1        1 0.24799830E+00 0.34150398E+04</pdfrwt>
<pdfrwt beam="2">  1       -1 0.27826343E+00 0.34150398E+04</pdfrwt>
<totfact> 0.20547155E-01</totfact>
</mgrwt>
</event>
<event>
 6    1  0.1934315E-005  0.3744969E+04  0.7818608E-02  0.8058069E-01
          2   -1    0    0  501    0  0.00000000000E+00  0.00000000000E+00  0.24955559615E+04  0.24955559615E+04  0.00000000000E+00 0.  1.
         -2   -1    0    0    0  501 -0.00000000000E+00 -0.00000000000E+00 -0.14049768161E+04  0.14049768161E+04  0.00000000000E+00 0. -1.
         23    2    1    2    0    0 -0.15124520331E+04 -0.87831552550E+03  0.12387745674E+04  0.21452803177E+04  0.93358973462E+02 0.  0.
         13    1    3    3    0    0 -0.12241868223E+04 -0.66745622891E+03  0.98533763391E+03  0.17073433885E+04  0.00000000000E+00 0. -1.
        -13    1    3    3    0    0 -0.28826521079E+03 -0.21085929659E+03  0.25343693347E+03  0.43793692920E+03  0.00000000000E+00 0.  1.
         22    1    1    2    0    0  0.15124520331E+04  0.87831552550E+03 -0.14819542194E+03  0.17552524599E+04  0.00000000000E+00 0. -1.
<mgrwt>
<rscale>  0 0.37449690E+04</rscale>
<asrwt>0</asrwt>
<pdfrwt beam="1">  1        2 0.38393169E+00 0.37449690E+04</pdfrwt>
<pdfrwt beam="2">  1       -2 0.21615028E+00 0.37449690E+04</pdfrwt>
<totfact> 0.29491679E-01</totfact>
</mgrwt>
</event>
<event>
 6    1  0.1934315E-005  0.2309936E+04  0.7818608E-02  0.8474014E-01
         -2   -1    0    0    0  501 -0.00000000000E+00  0.00000000000E+00  0.13057110290E+04  0.13057110290E+04  0.00000000000E+00 0. -1.
          2   -1    0    0  501    0  0.00000000000E+00 -0.00000000000E+00 -0.10216277664E+04  0.10216277664E+04  0.00000000000E+00 0.  1.
         23    2    1    2    0    0 -0.82931580720E+03 -0.43798692898E+03  0.81873716222E+03  0.12477777501E+04  0.83794479749E+02 0.  0.
         11    1    3    3    0    0 -0.48641495821E+02 -0.44423388950E+02  0.76279661787E+02  0.10078700017E+03  0.00000000000E+00 0.  1.
        -11    1    3    3    0    0 -0.78067431138E+03 -0.39356354003E+03  0.74245750043E+03  0.11469907499E+04  0.00000000000E+00 0. -1.
         22    1    1    2    0    0  0.82931580720E+03  0.43798692898E+03 -0.53465389962E+03  0.10795610452E+04  0.00000000000E+00 0.  1.
<mgrwt>
<rscale>  0 0.23099356E+04</rscale>
<asrwt>0</asrwt>
<pdfrwt beam="1">  1        2 0.15717350E+00 0.23099356E+04</pdfrwt>
<pdfrwt beam="2">  1       -2 0.20087862E+00 0.23099356E+04</pdfrwt>
<totfact> 0.29001035E+00</totfact>
</mgrwt>
</event>
<event>
 6    1  0.1934315E-005  0.1413352E+04  0.7818608E-02  0.8944210E-01
         -2   -1    0    0    0  501 -0.00000000000E+00  0.00000000000E+00  0.40275350803E+03  0.40275350803E+03  0.00000000000E+00 0. -1.
          2   -1    0    0  501    0  0.00000000000E+00 -0.00000000000E+00 -0.12399417133E+04  0.12399417133E+04  0.00000000000E+00 0.  1.
         23    2    1    2    0    0  0.47948918175E+03  0.37533711405E+03 -0.83034029291E+03  0.10337332205E+04  0.91386784828E+02 0.  0.
         13    1    3    3    0    0  0.29720765704E+03  0.25009102013E+03 -0.45669739918E+03  0.59954184522E+03  0.00000000000E+00 0.  1.
        -13    1    3    3    0    0  0.18228152471E+03  0.12524609393E+03 -0.37364289373E+03  0.43419137524E+03  0.00000000000E+00 0. -1.
         22    1    1    2    0    0 -0.47948918175E+03 -0.37533711405E+03 -0.68479123594E+01  0.60896200087E+03  0.00000000000E+00 0. -1.
<mgrwt>
<rscale>  0 0.14133519E+04</rscale>
<asrwt>0</asrwt>
<pdfrwt beam="1">  1        2 0.19076026E+00 0.14133519E+04</pdfrwt>
<pdfrwt beam="2">  1       -2 0.61962078E-01 0.14133519E+04</pdfrwt>
<totfact> 0.42174860E+01</totfact>
</mgrwt>
</event>
<event>
 6    1  0.1934315E-005  0.1994002E+04  0.7818608E-02  0.8609430E-01
          2   -1    0    0  501    0  0.00000000000E+00  0.00000000000E+00  0.95787526826E+03  0.95787526826E+03  0.00000000000E+00 0.  1.
         -2   -1    0    0    0  501 -0.00000000000E+00 -0.00000000000E+00 -0.10377250409E+04  0.10377250409E+04  0.00000000000E+00 0. -1.
         23    2    1    2    0    0  0.57839476711E+03  0.30996504711E+03  0.70838730616E+03  0.96996073824E+03  0.91610158554E+02 0.  0.
         13    1    3    3    0    0  0.17722323939E+03  0.58496957906E+02  0.23922278755E+03  0.30340980991E+03  0.00000000000E+00 0. -1.
        -13    1    3    3    0    0  0.40117152772E+03  0.25146808920E+03  0.46916451861E+03  0.66655092833E+03  0.00000000000E+00 0.  1.
         22    1    1    2    0    0 -0.57839476711E+03 -0.30996504711E+03 -0.78823707882E+03  0.10256395709E+04  0.00000000000E+00 0. -1.
<mgrwt>
<rscale>  0 0.19940022E+04</rscale>
<asrwt>0</asrwt>
<pdfrwt beam="1">  1        2 0.14736543E+00 0.19940022E+04</pdfrwt>
<pdfrwt beam="2">  1       -2 0.15965001E+00 0.19940022E+04</pdfrwt>
<totfact> 0.63176630E+00</totfact>
</mgrwt>
</event>
<event>
 6    1  0.1934315E-005  0.3482254E+04  0.7818608E-02  0.8118009E-01
          2   -1    0    0  501    0  0.00000000000E+00  0.00000000000E+00  0.11932366923E+04  0.11932366923E+04  0.00000000000E+00 0.  1.
         -2   -1    0    0    0  501 -0.00000000000E+00 -0.00000000000E+00 -0.25405878546E+04  0.25405878546E+04  0.00000000000E+00 0. -1.
         23    2    1    2    0    0  0.53286249577E+03 -0.60485597000E+03  0.97915048643E+03  0.12716297728E+04  0.92268196784E+02 0.  0.
         13    1    3    3    0    0  0.18777577498E+03 -0.20098599885E+03  0.40341172123E+03  0.48825826182E+03  0.00000000000E+00 0. -1.
        -13    1    3    3    0    0  0.34508672079E+03 -0.40386997115E+03  0.57573876520E+03  0.78337151098E+03  0.00000000000E+00 0.  1.
         22    1    1    2    0    0 -0.53286249577E+03  0.60485597000E+03 -0.23265016488E+04  0.24621947741E+04  0.00000000000E+00 0. -1.
<mgrwt>
<rscale>  0 0.34822537E+04</rscale>
<asrwt>0</asrwt>
<pdfrwt beam="1">  1        2 0.18357488E+00 0.34822537E+04</pdfrwt>
<pdfrwt beam="2">  1       -2 0.39085967E+00 0.34822537E+04</pdfrwt>
<totfact> 0.13385214E-01</totfact>
</mgrwt>
</event>
<event>
 6    1  0.1934315E-005  0.1991923E+04  0.7818608E-02  0.8610406E-01
          2   -1    0    0  501    0  0.00000000000E+00  0.00000000000E+00  0.11137116093E+04  0.11137116093E+04  0.00000000000E+00 0.  1.
         -2   -1    0    0    0  501 -0.00000000000E+00 -0.00000000000E+00 -0.89066082025E+03  0.89066082025E+03  0.00000000000E+00 0. -1.
         23    2    1    2    0    0  0.99262927990E+03  0.30332319496E+02  0.15605179708E+03  0.10090223394E+04  0.86838822859E+02 0.  0.
         11    1    3    3    0    0  0.82404838952E+03  0.53863397008E+02  0.14507804419E+03  0.83845372723E+03  0.00000000000E+00 0.  1.
        -11    1    3    3    0    0  0.16858089038E+03 -0.23531077512E+02  0.10973752888E+02  0.17056861219E+03  0.00000000000E+00 0. -1.
         22    1    1    2    0    0 -0.99262927990E+03 -0.30332319496E+02  0.66998991944E+02  0.99535009009E+03  0.00000000000E+00 0. -1.
<mgrwt>
<rscale>  0 0.19919230E+04</rscale>
<asrwt>0</asrwt>
<pdfrwt beam="1">  1        2 0.17134025E+00 0.19919230E+04</pdfrwt>
<pdfrwt beam="2">  1       -2 0.13702474E+00 0.19919230E+04</pdfrwt>
<totfact> 0.75432819E+00</totfact>
</mgrwt>
</event>
<event>
 6    1  0.1934315E-005  0.1326978E+04  0.7818608E-02  0.9008441E-01
         -2   -1    0    0    0  501 -0.00000000000E+00  0.00000000000E+00  0.19282765008E+03  0.19282765008E+03  0.00000000000E+00 0. -1.
          2   -1    0    0  501    0  0.00000000000E+00 -0.00000000000E+00 -0.22829591901E+04  0.22829591901E+04  0.00000000000E+00 0.  1.
         23    2    1    2    0    0 -0.44295873006E+03 -0.19799838802E+01 -0.19637562927E+04  0.20151491735E+04  0.90945354232E+02 0.  0.
         11    1    3    3    0    0 -0.27429843145E+03  0.42748620107E+02 -0.12266436897E+04  0.12576652240E+04  0.00000000000E+00 0.  1.
        -11    1    3    3    0    0 -0.16866029861E+03 -0.44728603987E+02 -0.73711260295E+03  0.75748394951E+03  0.00000000000E+00 0. -1.
         22    1    1    2    0    0  0.44295873006E+03  0.19799838802E+01 -0.12637524739E+03  0.46063766675E+03  0.00000000000E+00 0. -1.
<mgrwt>
<rscale>  0 0.13269780E+04</rscale>
<asrwt>0</asrwt>
<pdfrwt beam="1">  1        2 0.35122448E+00 0.13269780E+04</pdfrwt>
<pdfrwt beam="2">  1       -2 0.29665793E-01 0.13269780E+04</pdfrwt>
<totfact> 0.47610612E+01</totfact>
</mgrwt>
</event>
<event>
 6    1  0.1934315E-005  0.2086351E+04  0.7818608E-02  0.8567280E-01
          2   -1    0    0  501    0  0.00000000000E+00  0.00000000000E+00  0.14692634809E+04  0.14692634809E+04  0.00000000000E+00 0.  1.
         -2   -1    0    0    0  501 -0.00000000000E+00 -0.00000000000E+00 -0.74065317293E+03  0.74065317293E+03  0.00000000000E+00 0. -1.
         23    2    1    2    0    0 -0.11590672413E+03 -0.63156209284E+03  0.12330534760E+04  0.13933580488E+04  0.93384857497E+02 0.  0.
         11    1    3    3    0    0 -0.63275364795E+02 -0.31452407553E+03  0.71558634635E+03  0.78421488442E+03  0.00000000000E+00 0.  1.
        -11    1    3    3    0    0 -0.52631359338E+02 -0.31703801731E+03  0.51746712965E+03  0.60914316435E+03  0.00000000000E+00 0. -1.
         22    1    1    2    0    0  0.11590672413E+03  0.63156209284E+03 -0.50444316799E+03  0.81655860508E+03  0.00000000000E+00 0. -1.
<mgrwt>
<rscale>  0 0.20863506E+04</rscale>
<asrwt>0</asrwt>
<pdfrwt beam="1">  1        2 0.22604054E+00 0.20863506E+04</pdfrwt>
<pdfrwt beam="2">  1       -2 0.11394664E+00 0.20863506E+04</pdfrwt>
<totfact> 0.73522643E+00</totfact>
</mgrwt>
</event>
<event>
 6    1  0.1934315E-005  0.1267519E+04  0.7818608E-02  0.9055727E-01
         -2   -1    0    0    0  501 -0.00000000000E+00  0.00000000000E+00  0.24759110593E+03  0.24759110593E+03  0.00000000000E+00 0. -1.
          2   -1    0    0  501    0  0.00000000000E+00 -0.00000000000E+00 -0.16222348064E+04  0.16222348064E+04  0.00000000000E+00 0.  1.
         23    2    1    2    0    0  0.28744806083E+03 -0.47736839163E+03 -0.25554799652E+03  0.61967305624E+03  0.90459654536E+02 0.  0.
         13    1    3    3    0    0  0.12507034906E+03 -0.29286683929E+03 -0.13432958979E+03  0.34562699035E+03  0.00000000000E+00 0. -1.
        -13    1    3    3    0    0  0.16237771177E+03 -0.18450155235E+03 -0.12121840673E+03  0.27404606589E+03  0.00000000000E+00 0.  1.
         22    1    1    2    0    0 -0.28744806083E+03  0.47736839163E+03 -0.11190957040E+04  0.12501528561E+04  0.00000000000E+00 0.  1.
<mgrwt>
<rscale>  0 0.12675187E+04</rscale>
<asrwt>0</asrwt>
<pdfrwt beam="1">  1        2 0.24957459E+00 0.12675187E+04</pdfrwt>
<pdfrwt beam="2">  1       -2 0.38090939E-01 0.12675187E+04</pdfrwt>
<totfact> 0.69245058E+01</totfact>
</mgrwt>
</event>
<event>
 6    1  0.1934315E-005  0.4545940E+04  0.7818608E-02  0.7902643E-01
          2   -1    0    0  501    0  0.00000000000E+00  0.00000000000E+00  0.35779748583E+04  0.35779748583E+04  0.00000000000E+00 0.  1.
         -2   -1    0    0    0  501 -0.00000000000E+00 -0.00000000000E+00 -0.14439431539E+04  0.14439431539E+04  0.00000000000E+00 0. -1.
         23    2    1    2    0    0 -0.81092910976E+03 -0.19300138935E+04  0.20426291522E+04  0.29264672071E+04  0.96523629492E+02 0.  0.
         11    1    3    3    0    0 -0.13594228700E+03 -0.32716485356E+03  0.39765646658E+03  0.53258596697E+03  0.00000000000E+00 0.  1.
        -11    1    3    3    0    0 -0.67498682276E+03 -0.16028490399E+04  0.16449726856E+04  0.23938812402E+04  0.00000000000E+00 0. -1.
         22    1    1    2    0    0  0.81092910976E+03  0.19300138935E+04  0.91402552250E+02  0.20954508051E+04  0.00000000000E+00 0. -1.
<mgrwt>
<rscale>  0 0.45459399E+04</rscale>
<asrwt>0</asrwt>
<pdfrwt beam="1">  1        2 0.55045767E+00 0.45459399E+04</pdfrwt>
<pdfrwt beam="2">  1       -2 0.22214510E+00 0.45459399E+04</pdfrwt>
<totfact> 0.51660417E-02</totfact>
</mgrwt>
</event>
<event>
 6    1  0.1934315E-005  0.4317557E+04  0.7818608E-02  0.7943380E-01
          2   -1    0    0  501    0  0.00000000000E+00  0.00000000000E+00  0.28044404192E+04  0.28044404192E+04  0.00000000000E+00 0.  1.
         -2   -1    0    0    0  501 -0.00000000000E+00 -0.00000000000E+00 -0.16617659401E+04  0.16617659401E+04  0.00000000000E+00 0. -1.
         23    2    1    2    0    0  0.61322711003E+03 -0.19170133008E+04  0.13763052234E+04  0.24399855400E+04  0.91246280973E+02 0.  0.
         11    1    3    3    0    0  0.54241245770E+03 -0.17390833851E+04  0.12163059172E+04  0.21904388553E+04  0.00000000000E+00 0. -1.
        -11    1    3    3    0    0  0.70814652328E+02 -0.17792991565E+03  0.15999930617E+03  0.24954668470E+03  0.00000000000E+00 0.  1.
         22    1    1    2    0    0 -0.61322711003E+03  0.19170133008E+04 -0.23363074431E+03  0.20262208193E+04  0.00000000000E+00 0. -1.
<mgrwt>
<rscale>  0 0.43175565E+04</rscale>
<asrwt>0</asrwt>
<pdfrwt beam="1">  1        2 0.43145237E+00 0.43175565E+04</pdfrwt>
<pdfrwt beam="2">  1       -2 0.25565630E+00 0.43175565E+04</pdfrwt>
<totfact> 0.10479924E-01</totfact>
</mgrwt>
</event>
<event>
 6    1  0.1934315E-005  0.6890748E+03  0.7818608E-02  0.9736100E-01
         -2   -1    0    0    0  501 -0.00000000000E+00  0.00000000000E+00  0.21560554884E+03  0.21560554884E+03  0.00000000000E+00 0. -1.
          2   -1    0    0  501    0  0.00000000000E+00 -0.00000000000E+00 -0.55057039565E+03  0.55057039565E+03  0.00000000000E+00 0.  1.
         23    2    1    2    0    0  0.11827541935E+03  0.28254180982E+03 -0.33083163478E+03  0.45984926827E+03  0.90514252169E+02 0.  0.
         11    1    3    3    0    0  0.95655814117E+01  0.13819172020E+03 -0.15088486622E+03  0.20482845196E+03  0.00000000000E+00 0. -1.
        -11    1    3    3    0    0  0.10870983794E+03  0.14435008961E+03 -0.17994676856E+03  0.25502081631E+03  0.00000000000E+00 0.  1.
         22    1    1    2    0    0 -0.11827541935E+03 -0.28254180982E+03 -0.41332120370E+01  0.30632667621E+03  0.00000000000E+00 0. -1.
<mgrwt>
<rscale>  0 0.68907484E+03</rscale>
<asrwt>0</asrwt>
<pdfrwt beam="1">  1        2 0.84703138E-01 0.68907484E+03</pdfrwt>
<pdfrwt beam="2">  1       -2 0.33170084E-01 0.68907484E+03</pdfrwt>
<totfact> 0.46979055E+02</totfact>
</mgrwt>
</event>
<event>
 6    1  0.1934315E-005  0.1464840E+04  0.7818608E-02  0.8908177E-01
          2   -1    0    0  501    0  0.00000000000E+00  0.00000000000E+00  0.24010673467E+04  0.24010673467E+04  0.00000000000E+00 0.  1.
         -2   -1    0    0    0  501 -0.00000000000E+00 -0.00000000000E+00 -0.22341682743E+03  0.22341682743E+03  0.00000000000E+00 0. -1.
         23    2    1    2    0    0 -0.36587079814E+03  0.44876340383E+03  0.18885187488E+04  0.19773001089E+04  0.89233527961E+02 0.  0.
         11    1    3    3    0    0 -0.18649764477E+03  0.21470203884E+03  0.77997689769E+03  0.83020617795E+03  0.00000000000E+00 0. -1.
        -11    1    3    3    0    0 -0.17937315338E+03  0.23406136499E+03  0.11085418511E+04  0.11470939310E+04  0.00000000000E+00 0.  1.
         22    1    1    2    0    0  0.36587079814E+03 -0.44876340383E+03  0.28913177039E+03  0.64718406516E+03  0.00000000000E+00 0. -1.
<mgrwt>
<rscale>  0 0.14648397E+04</rscale>
<asrwt>0</asrwt>
<pdfrwt beam="1">  1        2 0.36939496E+00 0.14648397E+04</pdfrwt>
<pdfrwt beam="2">  1       -2 0.34371821E-01 0.14648397E+04</pdfrwt>
<totfact> 0.30572697E+01</totfact>
</mgrwt>
</event>
<event>
 6    1  0.1934315E-005  0.2367934E+04  0.7818608E-02  0.8451607E-01
          2   -1    0    0  501    0  0.00000000000E+00  0.00000000000E+00  0.16521513602E+04  0.16521513602E+04  0.00000000000E+00 0.  1.
         -2   -1    0    0    0  501 -0.00000000000E+00 -0.00000000000E+00 -0.84845591746E+03  0.84845591746E+03  0.00000000000E+00 0. -1.
         23    2    1    2    0    0 -0.10327502483E+04  0.34633148896E+03  0.88784782465E+03  0.14080871639E+04  0.88978233147E+02 0.  0.
         13    1    3    3    0    0 -0.85942575937E+03  0.25713665026E+03  0.70693090205E+03  0.11421397432E+04  0.00000000000E+00 0. -1.
        -13    1    3    3    0    0 -0.17332448890E+03  0.89194838709E+02  0.18091692261E+03  0.26594742072E+03  0.00000000000E+00 0.  1.
         22    1    1    2    0    0  0.10327502483E+04 -0.34633148896E+03 -0.84152381885E+02  0.10925201137E+04  0.00000000000E+00 0. -1.
<mgrwt>
<rscale>  0 0.23679338E+04</rscale>
<asrwt>0</asrwt>
<pdfrwt beam="1">  1        2 0.25417713E+00 0.23679338E+04</pdfrwt>
<pdfrwt beam="2">  1       -2 0.13053168E+00 0.23679338E+04</pdfrwt>
<totfact> 0.40417779E+00</totfact>
</mgrwt>
</event>
<event>
 6    1  0.1934315E-005  0.2083259E+04  0.7818608E-02  0.8568654E-01
          2   -1    0    0  501    0  0.00000000000E+00  0.00000000000E+00  0.17144270949E+04  0.17144270949E+04  0.00000000000E+00 0.  1.
         -2   -1    0    0    0  501 -0.00000000000E+00 -0.00000000000E+00 -0.63286006486E+03  0.63286006486E+03  0.00000000000E+00 0. -1.
         23    2    1    2    0    0 -0.46883462936E+03  0.85575668419E+03  0.94649800641E+03  0.13622140389E+04  0.87425393868E+02 0.  0.
         13    1    3    3    0    0 -0.20368320203E+03  0.39607560493E+03  0.37386576719E+03  0.58149664100E+03  0.00000000000E+00 0. -1.
        -13    1    3    3    0    0 -0.26515142733E+03  0.45968107926E+03  0.57263223922E+03  0.78071739793E+03  0.00000000000E+00 0.  1.
         22    1    1    2    0    0  0.46883462936E+03 -0.85575668419E+03  0.13506902363E+03  0.98507312082E+03  0.00000000000E+00 0.  1.
<mgrwt>
<rscale>  0 0.20832594E+04</rscale>
<asrwt>0</asrwt>
<pdfrwt beam="1">  1        2 0.26375801E+00 0.20832594E+04</pdfrwt>
<pdfrwt beam="2">  1       -2 0.97363088E-01 0.20832594E+04</pdfrwt>
<totfact> 0.78164639E+00</totfact>
</mgrwt>
</event>
<event>
 6    1  0.1934315E-005  0.1884252E+04  0.7818608E-02  0.8662735E-01
          4   -1    0    0  501    0  0.00000000000E+00  0.00000000000E+00  0.45903868754E+03  0.45903868754E+03  0.00000000000E+00 0.  1.
         -4   -1    0    0    0  501 -0.00000000000E+00 -0.00000000000E+00 -0.19336100563E+04  0.19336100563E+04  0.00000000000E+00 0. -1.
         23    2    1    2    0    0 -0.89155629857E+03  0.82172702537E+02 -0.37477935339E+03  0.97449238304E+03  0.86895651931E+02 0.  0.
         13    1    3    3    0    0 -0.21530670284E+03  0.33081942678E+02 -0.54087214735E+02  0.22444780688E+03  0.00000000000E+00 0. -1.
        -13    1    3    3    0    0 -0.67624959573E+03  0.49090759859E+02 -0.32069213865E+03  0.75004457616E+03  0.00000000000E+00 0.  1.
         22    1    1    2    0    0  0.89155629857E+03 -0.82172702537E+02 -0.10997920154E+04  0.14181563608E+04  0.00000000000E+00 0.  1.
<mgrwt>
<rscale>  0 0.18842524E+04</rscale>
<asrwt>0</asrwt>
<pdfrwt beam="1">  1        4 0.70621337E-01 0.18842524E+04</pdfrwt>
<pdfrwt beam="2">  1       -4 0.29747847E+00 0.18842524E+04</pdfrwt>
<totfact> 0.11058362E-01</totfact>
</mgrwt>
</event>
<event>
 6    1  0.1934315E-005  0.2106515E+04  0.7818608E-02  0.8558379E-01
          2   -1    0    0  501    0  0.00000000000E+00  0.00000000000E+00  0.21804640922E+04  0.21804640922E+04  0.00000000000E+00 0.  1.
         -2   -1    0    0    0  501 -0.00000000000E+00 -0.00000000000E+00 -0.50876823344E+03  0.50876823344E+03  0.00000000000E+00 0. -1.
         23    2    1    2    0    0  0.31308197714E+03 -0.49800520590E+03 -0.27474308043E+03  0.65584744975E+03  0.92857996891E+02 0.  0.
         11    1    3    3    0    0  0.11737557548E+03 -0.25437371631E+03 -0.97798234928E+02  0.29672800344E+03  0.00000000000E+00 0.  1.
        -11    1    3    3    0    0  0.19570640166E+03 -0.24363148958E+03 -0.17694484550E+03  0.35911944631E+03  0.00000000000E+00 0. -1.
         22    1    1    2    0    0 -0.31308197714E+03  0.49800520590E+03  0.19464389392E+04  0.20333848759E+04  0.00000000000E+00 0.  1.
<mgrwt>
<rscale>  0 0.21065145E+04</rscale>
<asrwt>0</asrwt>
<pdfrwt beam="1">  1        2 0.33545601E+00 0.21065145E+04</pdfrwt>
<pdfrwt beam="2">  1       -2 0.78272037E-01 0.21065145E+04</pdfrwt>
<totfact> 0.70813640E+00</totfact>
</mgrwt>
</event>
<event>
 6    1  0.1934315E-005  0.2624390E+04  0.7818608E-02  0.8359963E-01
          2   -1    0    0  501    0  0.00000000000E+00  0.00000000000E+00  0.33118346513E+04  0.33118346513E+04  0.00000000000E+00 0.  1.
         -2   -1    0    0    0  501 -0.00000000000E+00 -0.00000000000E+00 -0.51990984413E+03  0.51990984413E+03  0.00000000000E+00 0. -1.
         23    2    1    2    0    0 -0.66128396206E+03 -0.86456139338E+03  0.33290493182E+03  0.11425919098E+04  0.99637830741E+02 0.  0.
         11    1    3    3    0    0 -0.39903484613E+03 -0.48741127791E+03  0.23894032063E+03  0.67371436016E+03  0.00000000000E+00 0. -1.
        -11    1    3    3    0    0 -0.26224911594E+03 -0.37715011546E+03  0.93964611190E+02  0.46887754964E+03  0.00000000000E+00 0.  1.
         22    1    1    2    0    0  0.66128396206E+03  0.86456139338E+03  0.24590198753E+04  0.26891525856E+04  0.00000000000E+00 0.  1.
<mgrwt>
<rscale>  0 0.26243898E+04</rscale>
<asrwt>0</asrwt>
<pdfrwt beam="1">  1        2 0.50951301E+00 0.26243898E+04</pdfrwt>
<pdfrwt beam="2">  1       -2 0.79986132E-01 0.26243898E+04</pdfrwt>
<totfact> 0.13354771E+00</totfact>
</mgrwt>
</event>
<event>
 6    1  0.1934315E-005  0.1005845E+04  0.7818608E-02  0.9302158E-01
         -2   -1    0    0    0  501 -0.00000000000E+00  0.00000000000E+00  0.14333040990E+03  0.14333040990E+03  0.00000000000E+00 0. -1.
          2   -1    0    0  501    0  0.00000000000E+00 -0.00000000000E+00 -0.17646694944E+04  0.17646694944E+04  0.00000000000E+00 0.  1.
         23    2    1    2    0    0  0.47682944658E+03 -0.14294160730E+03 -0.78219206434E+03  0.93231227720E+03  0.97893475180E+02 0.  0.
         13    1    3    3    0    0  0.91139070959E+02 -0.69225069209E+02 -0.16554821856E+03  0.20125767844E+03  0.00000000000E+00 0.  1.
        -13    1    3    3    0    0  0.38569037562E+03 -0.73716538089E+02 -0.61664384578E+03  0.73105459876E+03  0.00000000000E+00 0. -1.
         22    1    1    2    0    0 -0.47682944658E+03  0.14294160730E+03 -0.83914702015E+03  0.97568762709E+03  0.00000000000E+00 0.  1.
<mgrwt>
<rscale>  0 0.10058445E+04</rscale>
<asrwt>0</asrwt>
<pdfrwt beam="1">  1        2 0.27148762E+00 0.10058445E+04</pdfrwt>
<pdfrwt beam="2">  1       -2 0.22050832E-01 0.10058445E+04</pdfrwt>
<totfact> 0.16217162E+02</totfact>
</mgrwt>
</event>
<event>
 6    1  0.1934315E-005  0.1324264E+04  0.7818608E-02  0.9010542E-01
          2   -1    0    0  501    0  0.00000000000E+00  0.00000000000E+00  0.11078985920E+04  0.11078985920E+04  0.00000000000E+00 0.  1.
         -2   -1    0    0    0  501 -0.00000000000E+00 -0.00000000000E+00 -0.39572106849E+03  0.39572106849E+03  0.00000000000E+00 0. -1.
         23    2    1    2    0    0 -0.48912103138E+03  0.76181541655E+02  0.85173542206E+03  0.98930514805E+03  0.90710727764E+02 0.  0.
         11    1    3    3    0    0 -0.30633189400E+03  0.89996058133E+02  0.51616351894E+03  0.60692940120E+03  0.00000000000E+00 0. -1.
        -11    1    3    3    0    0 -0.18278913738E+03 -0.13814516477E+02  0.33557190312E+03  0.38237574685E+03  0.00000000000E+00 0.  1.
         22    1    1    2    0    0  0.48912103138E+03 -0.76181541655E+02 -0.13955789859E+03  0.51431451242E+03  0.00000000000E+00 0. -1.
<mgrwt>
<rscale>  0 0.13242640E+04</rscale>
<asrwt>0</asrwt>
<pdfrwt beam="1">  1        2 0.17044594E+00 0.13242640E+04</pdfrwt>
<pdfrwt beam="2">  1       -2 0.60880165E-01 0.13242640E+04</pdfrwt>
<totfact> 0.52940372E+01</totfact>
</mgrwt>
</event>
<event>
 6    1  0.1934315E-005  0.1017238E+04  0.7818608E-02  0.9289838E-01
         -2   -1    0    0    0  501 -0.00000000000E+00  0.00000000000E+00  0.39397813711E+04  0.39397813711E+04  0.00000000000E+00 0. -1.
          2   -1    0    0  501    0  0.00000000000E+00 -0.00000000000E+00 -0.65661799388E+02  0.65661799388E+02  0.00000000000E+00 0.  1.
         23    2    1    2    0    0  0.37247190733E+02  0.76603199343E+02  0.39107282511E+04  0.39127307184E+04  0.91710508911E+02 0.  0.
         13    1    3    3    0    0 -0.82254587354E+01 -0.10429485374E+02  0.12036080480E+03  0.12109151774E+03  0.00000000000E+00 0. -1.
        -13    1    3    3    0    0  0.45472649468E+02  0.87032684717E+02  0.37903674463E+04  0.37916392006E+04  0.00000000000E+00 0.  1.
         22    1    1    2    0    0 -0.37247190733E+02 -0.76603199343E+02 -0.36608679378E+02  0.92712452092E+02  0.00000000000E+00 0.  1.
<mgrwt>
<rscale>  0 0.10172377E+04</rscale>
<asrwt>0</asrwt>
<pdfrwt beam="1">  1        2 0.10101818E-01 0.10172377E+04</pdfrwt>
<pdfrwt beam="2">  1       -2 0.60612003E+00 0.10172377E+04</pdfrwt>
<totfact> 0.31395892E-01</totfact>
</mgrwt>
</event>
<event>
 6    1  0.1934315E-005  0.1824274E+04  0.7818608E-02  0.8693497E-01
         -2   -1    0    0    0  501 -0.00000000000E+00  0.00000000000E+00  0.44611178751E+03  0.44611178751E+03  0.00000000000E+00 0. -1.
          2   -1    0    0  501    0  0.00000000000E+00 -0.00000000000E+00 -0.18649887827E+04  0.18649887827E+04  0.00000000000E+00 0.  1.
         23    2    1    2    0    0  0.11933999866E+03 -0.78253872089E+03 -0.14310239414E+03  0.80969798673E+03  0.92323613096E+02 0.  0.
         13    1    3    3    0    0  0.12154850305E+03 -0.51419618160E+03 -0.85628762708E+02  0.53526071849E+03  0.00000000000E+00 0.  1.
        -13    1    3    3    0    0 -0.22085043908E+01 -0.26834253929E+03 -0.57473631434E+02  0.27443726824E+03  0.00000000000E+00 0. -1.
         22    1    1    2    0    0 -0.11933999866E+03  0.78253872089E+03 -0.12757746010E+04  0.15014025835E+04  0.00000000000E+00 0.  1.
<mgrwt>
<rscale>  0 0.18242735E+04</rscale>
<asrwt>0</asrwt>
<pdfrwt beam="1">  1        2 0.28692135E+00 0.18242735E+04</pdfrwt>
<pdfrwt beam="2">  1       -2 0.68632583E-01 0.18242735E+04</pdfrwt>
<totfact> 0.14519428E+01</totfact>
</mgrwt>
</event>
<event>
 6    1  0.1934315E-005  0.5372748E+04  0.7818608E-02  0.7773446E-01
         -2   -1    0    0    0  501 -0.00000000000E+00  0.00000000000E+00  0.13793738640E+04  0.13793738640E+04  0.00000000000E+00 0. -1.
          2   -1    0    0  501    0  0.00000000000E+00 -0.00000000000E+00 -0.52317983410E+04  0.52317983410E+04  0.00000000000E+00 0.  1.
         23    2    1    2    0    0 -0.22752190107E+04 -0.13794393378E+04 -0.23754095879E+04  0.35679752979E+04  0.91665602138E+02 0.  0.
         13    1    3    3    0    0 -0.80474779565E+03 -0.53014272050E+03 -0.89393110000E+03  0.13144516462E+04  0.00000000000E+00 0. -1.
        -13    1    3    3    0    0 -0.14704712150E+04 -0.84929661734E+03 -0.14814784879E+04  0.22535236516E+04  0.00000000000E+00 0.  1.
         22    1    1    2    0    0  0.22752190107E+04  0.13794393378E+04 -0.14770148891E+04  0.30431969072E+04  0.00000000000E+00 0. -1.
<mgrwt>
<rscale>  0 0.53727482E+04</rscale>
<asrwt>0</asrwt>
<pdfrwt beam="1">  1        2 0.80489205E+00 0.53727482E+04</pdfrwt>
<pdfrwt beam="2">  1       -2 0.21221136E+00 0.53727482E+04</pdfrwt>
<totfact> 0.12661418E-03</totfact>
</mgrwt>
</event>
<event>
 6    1  0.1934315E-005  0.1537373E+04  0.7818608E-02  0.8859974E-01
          2   -1    0    0  501    0  0.00000000000E+00  0.00000000000E+00  0.23520023702E+04  0.23520023702E+04  0.00000000000E+00 0. -1.
         -2   -1    0    0    0  501 -0.00000000000E+00 -0.00000000000E+00 -0.25122376146E+03  0.25122376146E+03  0.00000000000E+00 0.  1.
         23    2    1    2    0    0  0.40353577618E+03  0.64743771178E+03  0.11710696201E+04  0.14005726001E+04  0.90459050967E+02 0.  0.
         11    1    3    3    0    0  0.20109475637E+03  0.33009249965E+03  0.51104758109E+03  0.64075720012E+03  0.00000000000E+00 0.  1.
        -11    1    3    3    0    0  0.20244101981E+03  0.31734521213E+03  0.66002203896E+03  0.75981540000E+03  0.00000000000E+00 0. -1.
         22    1    1    2    0    0 -0.40353577618E+03 -0.64743771178E+03  0.92970898869E+03  0.12026535315E+04  0.00000000000E+00 0. -1.
<mgrwt>
<rscale>  0 0.15373729E+04</rscale>
<asrwt>0</asrwt>
<pdfrwt beam="1">  1        2 0.36184650E+00 0.15373729E+04</pdfrwt>
<pdfrwt beam="2">  1       -2 0.38649811E-01 0.15373729E+04</pdfrwt>
<totfact> 0.25849872E+01</totfact>
</mgrwt>
</event>
<event>
 6    1  0.1934315E-005  0.3627475E+04  0.7818608E-02  0.8084227E-01
         -1   -1    0    0    0  501 -0.00000000000E+00  0.00000000000E+00  0.14680338754E+04  0.14680338754E+04  0.00000000000E+00 0.  1.
          1   -1    0    0  501    0  0.00000000000E+00 -0.00000000000E+00 -0.22408499788E+04  0.22408499788E+04  0.00000000000E+00 0. -1.
         23    2    1    2    0    0 -0.21567465817E+03  0.17509785453E+04 -0.81167236875E+03  0.19442447314E+04  0.93989983708E+02 0.  0.
         11    1    3    3    0    0 -0.14969020762E+03  0.12838938766E+04 -0.63899892719E+03  0.14419120201E+04  0.00000000000E+00 0.  1.
        -11    1    3    3    0    0 -0.65984450550E+02  0.46708466872E+03 -0.17267344156E+03  0.50233271135E+03  0.00000000000E+00 0. -1.
         22    1    1    2    0    0  0.21567465817E+03 -0.17509785453E+04  0.38856265322E+02  0.17646391228E+04  0.00000000000E+00 0.  1.
<mgrwt>
<rscale>  0 0.36274750E+04</rscale>
<asrwt>0</asrwt>
<pdfrwt beam="1">  1        1 0.34474615E+00 0.36274750E+04</pdfrwt>
<pdfrwt beam="2">  1       -1 0.22585136E+00 0.36274750E+04</pdfrwt>
<totfact> 0.16587314E-01</totfact>
</mgrwt>
</event>
<event>
 6    1  0.1934315E-005  0.7134568E+03  0.7818608E-02  0.9694492E-01
         -2   -1    0    0    0  501 -0.00000000000E+00  0.00000000000E+00  0.91212018505E+03  0.91212018505E+03  0.00000000000E+00 0.  1.
          2   -1    0    0  501    0  0.00000000000E+00 -0.00000000000E+00 -0.13951575848E+03  0.13951575848E+03  0.00000000000E+00 0. -1.
         23    2    1    2    0    0 -0.23526187551E+03  0.12285191518E+03  0.73073541038E+03  0.78294698274E+03  0.92687618769E+02 0.  0.
         11    1    3    3    0    0 -0.17927868583E+03  0.46812934655E+02  0.44579464818E+03  0.48276823258E+03  0.00000000000E+00 0.  1.
        -11    1    3    3    0    0 -0.55983189678E+02  0.76038980522E+02  0.28494076220E+03  0.30017875016E+03  0.00000000000E+00 0. -1.
         22    1    1    2    0    0  0.23526187551E+03 -0.12285191518E+03  0.41869016198E+02  0.26868896079E+03  0.00000000000E+00 0. -1.
<mgrwt>
<rscale>  0 0.71345677E+03</rscale>
<asrwt>0</asrwt>
<pdfrwt beam="1">  1        2 0.21463963E-01 0.71345677E+03</pdfrwt>
<pdfrwt beam="2">  1       -2 0.14032618E+00 0.71345677E+03</pdfrwt>
<totfact> 0.94468556E+01</totfact>
</mgrwt>
</event>
<event>
 6    1  0.1934315E-005  0.3742288E+04  0.7818608E-02  0.8058654E-01
          2   -1    0    0  501    0  0.00000000000E+00  0.00000000000E+00  0.21407048765E+04  0.21407048765E+04  0.00000000000E+00 0.  1.
         -2   -1    0    0    0  501 -0.00000000000E+00 -0.00000000000E+00 -0.16355262961E+04  0.16355262961E+04  0.00000000000E+00 0. -1.
         23    2    1    2    0    0 -0.12072694409E+04 -0.14173042517E+04  0.75298477003E+02  0.18654596665E+04  0.89549214265E+02 0.  0.
         13    1    3    3    0    0 -0.29427674847E+03 -0.39504107555E+03  0.42878042718E+02  0.49446413683E+03  0.00000000000E+00 0. -1.
        -13    1    3    3    0    0 -0.91299269246E+03 -0.10222631762E+04  0.32420434285E+02  0.13709955297E+04  0.00000000000E+00 0.  1.
         22    1    1    2    0    0  0.12072694409E+04  0.14173042517E+04  0.42988010344E+03  0.19107715060E+04  0.00000000000E+00 0.  1.
<mgrwt>
<rscale>  0 0.37422876E+04</rscale>
<asrwt>0</asrwt>
<pdfrwt beam="1">  1        2 0.32933921E+00 0.37422876E+04</pdfrwt>
<pdfrwt beam="2">  1       -2 0.25161943E+00 0.37422876E+04</pdfrwt>
<totfact> 0.28211357E-01</totfact>
</mgrwt>
</event>
<event>
 6    1  0.3761374E-005  0.2740261E+04  0.7818608E-02  0.8322059E-01
          2   -1    0    0  501    0  0.00000000000E+00  0.00000000000E+00  0.17908578989E+04  0.17908578989E+04  0.00000000000E+00 0.  1.
         -2   -1    0    0    0  501 -0.00000000000E+00 -0.00000000000E+00 -0.10482446736E+04  0.10482446736E+04  0.00000000000E+00 0. -1.
         23    2    1    2    0    0  0.40710499644E+03  0.80061066193E+02  0.17234503276E+04  0.17741210357E+04  0.71275277553E+02 0.  0.
         13    1    3    3    0    0  0.29548303058E+03  0.35837485525E+02  0.13224399796E+04  0.13555227945E+04  0.00000000000E+00 0. -1.
        -13    1    3    3    0    0  0.11162196586E+03  0.44223580668E+02  0.40101034796E+03  0.41859824118E+03  0.00000000000E+00 0.  1.
         22    1    1    2    0    0 -0.40710499644E+03 -0.80061066193E+02 -0.98083710233E+03  0.10649815368E+04  0.00000000000E+00 0. -1.
<mgrwt>
<rscale>  0 0.27402608E+04</rscale>
<asrwt>0</asrwt>
<pdfrwt beam="1">  1        2 0.27551660E+00 0.27402608E+04</pdfrwt>
<pdfrwt beam="2">  1       -2 0.16126841E+00 0.27402608E+04</pdfrwt>
<totfact> 0.18821832E+00</totfact>
</mgrwt>
</event>
<event>
 6    1  0.1934315E-005  0.1709240E+04  0.7818608E-02  0.8756112E-01
          2   -1    0    0  501    0  0.00000000000E+00  0.00000000000E+00  0.97937170779E+03  0.97937170779E+03  0.00000000000E+00 0.  1.
         -2   -1    0    0    0  501 -0.00000000000E+00 -0.00000000000E+00 -0.74575906604E+03  0.74575906604E+03  0.00000000000E+00 0. -1.
         23    2    1    2    0    0  0.48133676134E+03 -0.59340418041E+03  0.49829155309E+03  0.91650940059E+03  0.88777307610E+02 0.  0.
         11    1    3    3    0    0  0.28412398058E+03 -0.35857084879E+03  0.24619217157E+03  0.51952870497E+03  0.00000000000E+00 0. -1.
        -11    1    3    3    0    0  0.19721278076E+03 -0.23483333161E+03  0.25209938152E+03  0.39698069562E+03  0.00000000000E+00 0.  1.
         22    1    1    2    0    0 -0.48133676134E+03  0.59340418041E+03 -0.26467891134E+03  0.80862137323E+03  0.00000000000E+00 0. -1.
<mgrwt>
<rscale>  0 0.17092400E+04</rscale>
<asrwt>0</asrwt>
<pdfrwt beam="1">  1        2 0.15067257E+00 0.17092400E+04</pdfrwt>
<pdfrwt beam="2">  1       -2 0.11473216E+00 0.17092400E+04</pdfrwt>
<totfact> 0.14647639E+01</totfact>
</mgrwt>
</event>
<event>
 6    1  0.1934315E-005  0.1581657E+04  0.7818608E-02  0.8831897E-01
         -2   -1    0    0    0  501 -0.00000000000E+00  0.00000000000E+00  0.19249122320E+03  0.19249122320E+03  0.00000000000E+00 0. -1.
          2   -1    0    0  501    0  0.00000000000E+00 -0.00000000000E+00 -0.32490278063E+04  0.32490278063E+04  0.00000000000E+00 0.  1.
         23    2    1    2    0    0 -0.43404830869E+03 -0.75774144540E+02 -0.29553589108E+04  0.29894387528E+04  0.91967982300E+02 0.  0.
         13    1    3    3    0    0 -0.34184382333E+03 -0.23921071796E+02 -0.23610825155E+04  0.23858206265E+04  0.00000000000E+00 0. -1.
        -13    1    3    3    0    0 -0.92204485368E+02 -0.51853072744E+02 -0.59427639530E+03  0.60361812621E+03  0.00000000000E+00 0.  1.
         22    1    1    2    0    0  0.43404830869E+03  0.75774144540E+02 -0.10117767235E+03  0.45208027677E+03  0.00000000000E+00 0. -1.
<mgrwt>
<rscale>  0 0.15816565E+04</rscale>
<asrwt>0</asrwt>
<pdfrwt beam="1">  1        2 0.49985042E+00 0.15816565E+04</pdfrwt>
<pdfrwt beam="2">  1       -2 0.29614035E-01 0.15816565E+04</pdfrwt>
<totfact> 0.12256170E+01</totfact>
</mgrwt>
</event>
<event>
 6    1  0.1934315E-005  0.2095368E+04  0.7818608E-02  0.8563287E-01
          2   -1    0    0  501    0  0.00000000000E+00  0.00000000000E+00  0.80165862447E+03  0.80165862447E+03  0.00000000000E+00 0.  1.
         -2   -1    0    0    0  501 -0.00000000000E+00 -0.00000000000E+00 -0.13692131991E+04  0.13692131991E+04  0.00000000000E+00 0. -1.
         23    2    1    2    0    0  0.43607103528E+03 -0.21056480560E+03 -0.12445434410E+04  0.13385200887E+04  0.90841433812E+02 0.  0.
         11    1    3    3    0    0  0.25330049258E+03 -0.12905424242E+03 -0.60631930580E+03  0.66965605919E+03  0.00000000000E+00 0. -1.
        -11    1    3    3    0    0  0.18277054269E+03 -0.81510563180E+02 -0.63822413523E+03  0.66886402951E+03  0.00000000000E+00 0.  1.
         22    1    1    2    0    0 -0.43607103528E+03  0.21056480560E+03  0.67698886645E+03  0.83235173482E+03  0.00000000000E+00 0.  1.
<mgrwt>
<rscale>  0 0.20953678E+04</rscale>
<asrwt>0</asrwt>
<pdfrwt beam="1">  1        2 0.12333210E+00 0.20953678E+04</pdfrwt>
<pdfrwt beam="2">  1       -2 0.21064818E+00 0.20953678E+04</pdfrwt>
<totfact> 0.35899520E+00</totfact>
</mgrwt>
</event>
<event>
 6    1  0.1934315E-005  0.1908730E+04  0.7818608E-02  0.8650523E-01
         -1   -1    0    0    0  501 -0.00000000000E+00  0.00000000000E+00  0.48669184381E+03  0.48669184381E+03  0.00000000000E+00 0. -1.
          1   -1    0    0  501    0  0.00000000000E+00 -0.00000000000E+00 -0.18714351895E+04  0.18714351895E+04  0.00000000000E+00 0.  1.
         23    2    1    2    0    0  0.93552126601E+03 -0.91768072120E+01 -0.47808352789E+03  0.10553161191E+04  0.99216927296E+02 0.  0.
         11    1    3    3    0    0  0.37369006330E+03  0.34833220769E+02 -0.15804159559E+03  0.40722814566E+03  0.00000000000E+00 0. -1.
        -11    1    3    3    0    0  0.56183120271E+03 -0.44010027981E+02 -0.32004193230E+03  0.64808797345E+03  0.00000000000E+00 0.  1.
         22    1    1    2    0    0 -0.93552126601E+03  0.91768072120E+01 -0.90665981777E+03  0.13028109142E+04  0.00000000000E+00 0.  1.
<mgrwt>
<rscale>  0 0.19087297E+04</rscale>
<asrwt>0</asrwt>
<pdfrwt beam="1">  1        1 0.28791311E+00 0.19087297E+04</pdfrwt>
<pdfrwt beam="2">  1       -1 0.74875668E-01 0.19087297E+04</pdfrwt>
<totfact> 0.61105845E+00</totfact>
</mgrwt>
</event>
<event>
 6    1  0.1934315E-005  0.1091404E+04  0.7818608E-02  0.9213611E-01
          2   -1    0    0  501    0  0.00000000000E+00  0.00000000000E+00  0.20970423798E+04  0.20970423798E+04  0.00000000000E+00 0.  1.
         -2   -1    0    0    0  501 -0.00000000000E+00 -0.00000000000E+00 -0.14200502050E+03  0.14200502050E+03  0.00000000000E+00 0. -1.
         23    2    1    2    0    0  0.30779729189E+03 -0.25995265362E+03  0.23543631311E+03  0.47288140780E+03  0.76629062999E+02 0.  0.
         13    1    3    3    0    0  0.12485558953E+03 -0.14510118108E+03  0.83793390219E+02  0.20896076960E+03  0.00000000000E+00 0.  1.
        -13    1    3    3    0    0  0.18294170236E+03 -0.11485147255E+03  0.15164292289E+03  0.26392063820E+03  0.00000000000E+00 0. -1.
         22    1    1    2    0    0 -0.30779729189E+03  0.25995265362E+03  0.17196010462E+04  0.17661659925E+04  0.00000000000E+00 0.  1.
<mgrwt>
<rscale>  0 0.10914038E+04</rscale>
<asrwt>0</asrwt>
<pdfrwt beam="1">  1        2 0.32262188E+00 0.10914038E+04</pdfrwt>
<pdfrwt beam="2">  1       -2 0.21846928E-01 0.10914038E+04</pdfrwt>
<totfact> 0.10746870E+02</totfact>
</mgrwt>
</event>
<event>
 6    1  0.1934315E-005  0.2258792E+04  0.7818608E-02  0.8494349E-01
         -2   -1    0    0    0  501 -0.00000000000E+00  0.00000000000E+00  0.11066701893E+04  0.11066701893E+04  0.00000000000E+00 0. -1.
          2   -1    0    0  501    0  0.00000000000E+00 -0.00000000000E+00 -0.11525880516E+04  0.11525880516E+04  0.00000000000E+00 0.  1.
         23    2    1    2    0    0 -0.27364107065E+03  0.31255754324E+02 -0.11166450717E+04  0.11536755372E+04  0.90634823796E+02 0.  0.
         11    1    3    3    0    0 -0.26139538249E+03  0.48671877354E+02 -0.98208666874E+03  0.10174432282E+04  0.00000000000E+00 0. -1.
        -11    1    3    3    0    0 -0.12245688159E+02 -0.17416123030E+02 -0.13455840293E+03  0.13623230901E+03  0.00000000000E+00 0.  1.
         22    1    1    2    0    0  0.27364107065E+03 -0.31255754324E+02  0.10707272094E+04  0.11055827037E+04  0.00000000000E+00 0. -1.
<mgrwt>
<rscale>  0 0.22587916E+04</rscale>
<asrwt>0</asrwt>
<pdfrwt beam="1">  1        2 0.17732124E+00 0.22587916E+04</pdfrwt>
<pdfrwt beam="2">  1       -2 0.17025695E+00 0.22587916E+04</pdfrwt>
<totfact> 0.39054701E+00</totfact>
</mgrwt>
</event>
<event>
 6    1  0.1934315E-005  0.3792372E+04  0.7818608E-02  0.8047794E-01
          1   -1    0    0  501    0  0.00000000000E+00  0.00000000000E+00  0.15398053826E+04  0.15398053826E+04  0.00000000000E+00 0.  1.
         -1   -1    0    0    0  501 -0.00000000000E+00 -0.00000000000E+00 -0.23350488766E+04  0.23350488766E+04  0.00000000000E+00 0. -1.
         23    2    1    2    0    0 -0.52024029374E+03 -0.12520633557E+04  0.95476104810E+03  0.16610727643E+04  0.96340331231E+02 0.  0.
         13    1    3    3    0    0 -0.36684521779E+03 -0.98525507201E+03  0.74941374153E+03  0.12910940813E+04  0.00000000000E+00 0.  1.
        -13    1    3    3    0    0 -0.15339507596E+03 -0.26680828371E+03  0.20534730657E+03  0.36997868303E+03  0.00000000000E+00 0. -1.
         22    1    1    2    0    0  0.52024029374E+03  0.12520633557E+04 -0.17500045421E+04  0.22137814950E+04  0.00000000000E+00 0. -1.
<mgrwt>
<rscale>  0 0.37923717E+04</rscale>
<asrwt>0</asrwt>
<pdfrwt beam="1">  1        1 0.23689314E+00 0.37923717E+04</pdfrwt>
<pdfrwt beam="2">  1       -1 0.35923829E+00 0.37923717E+04</pdfrwt>
<totfact> 0.65895711E-02</totfact>
</mgrwt>
</event>
<event>
 6    1  0.1934315E-005  0.5587505E+04  0.7818608E-02  0.7743762E-01
          1   -1    0    0  501    0  0.00000000000E+00  0.00000000000E+00  0.26299499533E+04  0.26299499533E+04  0.00000000000E+00 0.  1.
         -1   -1    0    0    0  501 -0.00000000000E+00 -0.00000000000E+00 -0.29677572815E+04  0.29677572815E+04  0.00000000000E+00 0. -1.
         23    2    1    2    0    0  0.17566746311E+04 -0.65715838620E+03  0.19043802471E+04  0.26744952981E+04  0.92184977831E+02 0.  0.
         13    1    3    3    0    0  0.11293428239E+04 -0.46875544764E+03  0.12502599885E+04  0.17487987084E+04  0.00000000000E+00 0. -1.
        -13    1    3    3    0    0  0.62733180727E+03 -0.18840293856E+03  0.65412025853E+03  0.92569658976E+03  0.00000000000E+00 0.  1.
         22    1    1    2    0    0 -0.17566746311E+04  0.65715838620E+03 -0.22421875753E+04  0.29232119367E+04  0.00000000000E+00 0. -1.
<mgrwt>
<rscale>  0 0.55875050E+04</rscale>
<asrwt>0</asrwt>
<pdfrwt beam="1">  1        1 0.40460768E+00 0.55875050E+04</pdfrwt>
<pdfrwt beam="2">  1       -1 0.45657804E+00 0.55875050E+04</pdfrwt>
<totfact> 0.22186787E-03</totfact>
</mgrwt>
</event>
<event>
 6    1  0.1934315E-005  0.3308493E+04  0.7818608E-02  0.8160738E-01
          2   -1    0    0  501    0  0.00000000000E+00  0.00000000000E+00  0.16196899473E+04  0.16196899473E+04  0.00000000000E+00 0.  1.
         -2   -1    0    0    0  501 -0.00000000000E+00 -0.00000000000E+00 -0.16895404486E+04  0.16895404486E+04  0.00000000000E+00 0. -1.
         23    2    1    2    0    0 -0.36990403095E+03  0.77737252825E+03  0.13764578977E+04  0.16260949215E+04  0.91713194198E+02 0.  0.
         13    1    3    3    0    0 -0.88638999479E+02  0.18876078957E+03  0.26347724718E+03  0.33601751099E+03  0.00000000000E+00 0.  1.
        -13    1    3    3    0    0 -0.28126503147E+03  0.58861173868E+03  0.11129806505E+04  0.12900774106E+04  0.00000000000E+00 0. -1.
         22    1    1    2    0    0  0.36990403095E+03 -0.77737252825E+03 -0.14463083990E+04  0.16831354743E+04  0.00000000000E+00 0. -1.
<mgrwt>
<rscale>  0 0.33084931E+04</rscale>
<asrwt>0</asrwt>
<pdfrwt beam="1">  1        2 0.24918307E+00 0.33084931E+04</pdfrwt>
<pdfrwt beam="2">  1       -2 0.25992930E+00 0.33084931E+04</pdfrwt>
<totfact> 0.50681033E-01</totfact>
</mgrwt>
</event>
<event>
 6    1  0.1934315E-005  0.2593985E+04  0.7818608E-02  0.8370247E-01
          2   -1    0    0  501    0  0.00000000000E+00  0.00000000000E+00  0.37373486006E+04  0.37373486006E+04  0.00000000000E+00 0.  1.
         -2   -1    0    0    0  501 -0.00000000000E+00 -0.00000000000E+00 -0.45010235556E+03  0.45010235556E+03  0.00000000000E+00 0. -1.
         23    2    1    2    0    0  0.10704110394E+04  0.32579344548E+03  0.59165593635E+03  0.12688676912E+04  0.89706791301E+02 0.  0.
         13    1    3    3    0    0  0.30928533518E+03  0.13296165813E+03  0.15781280981E+03  0.37180788592E+03  0.00000000000E+00 0. -1.
        -13    1    3    3    0    0  0.76112570417E+03  0.19283178735E+03  0.43384312654E+03  0.89705980526E+03  0.00000000000E+00 0.  1.
         22    1    1    2    0    0 -0.10704110394E+04 -0.32579344548E+03  0.26955903087E+04  0.29185832650E+04  0.00000000000E+00 0.  1.
<mgrwt>
<rscale>  0 0.25939849E+04</rscale>
<asrwt>0</asrwt>
<pdfrwt beam="1">  1        2 0.57497669E+00 0.25939849E+04</pdfrwt>
<pdfrwt beam="2">  1       -2 0.69246519E-01 0.25939849E+04</pdfrwt>
<totfact> 0.92370116E-01</totfact>
</mgrwt>
</event>
<event>
 6    1  0.1934315E-005  0.1164898E+04  0.7818608E-02  0.9144149E-01
          2   -1    0    0  501    0  0.00000000000E+00  0.00000000000E+00  0.74242580638E+03  0.74242580638E+03  0.00000000000E+00 0.  1.
         -2   -1    0    0    0  501 -0.00000000000E+00 -0.00000000000E+00 -0.45694364515E+03  0.45694364515E+03  0.00000000000E+00 0. -1.
         23    2    1    2    0    0 -0.19474762374E+03  0.28032245010E+03  0.62494764826E+03  0.71797135238E+03  0.91738687530E+02 0.  0.
         11    1    3    3    0    0 -0.14600808842E+03  0.23880641838E+03  0.43268072501E+03  0.51532463277E+03  0.00000000000E+00 0.  1.
        -11    1    3    3    0    0 -0.48739535317E+02  0.41516031723E+02  0.19226692325E+03  0.20264671961E+03  0.00000000000E+00 0. -1.
         22    1    1    2    0    0  0.19474762374E+03 -0.28032245010E+03 -0.33946548703E+03  0.48139809915E+03  0.00000000000E+00 0. -1.
<mgrwt>
<rscale>  0 0.11648979E+04</rscale>
<asrwt>0</asrwt>
<pdfrwt beam="1">  1        2 0.11421935E+00 0.11648979E+04</pdfrwt>
<pdfrwt beam="2">  1       -2 0.70299022E-01 0.11648979E+04</pdfrwt>
<totfact> 0.69239940E+01</totfact>
</mgrwt>
</event>
<event>
 6    1  0.1934315E-005  0.2558137E+04  0.7818608E-02  0.8382562E-01
          2   -1    0    0  501    0  0.00000000000E+00  0.00000000000E+00  0.12955880478E+04  0.12955880478E+04  0.00000000000E+00 0.  1.
         -2   -1    0    0    0  501 -0.00000000000E+00 -0.00000000000E+00 -0.12627598724E+04  0.12627598724E+04  0.00000000000E+00 0. -1.
         23    2    1    2    0    0 -0.52018094222E+03 -0.55840825536E+03 -0.10080736411E+04  0.12676564065E+04  0.91281469571E+02 0.  0.
         13    1    3    3    0    0 -0.25799670263E+03 -0.22053525031E+03 -0.40667775594E+03  0.52970264524E+03  0.00000000000E+00 0. -1.
        -13    1    3    3    0    0 -0.26218423959E+03 -0.33787300505E+03 -0.60139588513E+03  0.73795376121E+03  0.00000000000E+00 0.  1.
         22    1    1    2    0    0  0.52018094222E+03  0.55840825536E+03  0.10409018164E+04  0.12906915138E+04  0.00000000000E+00 0.  1.
<mgrwt>
<rscale>  0 0.25581373E+04</rscale>
<asrwt>0</asrwt>
<pdfrwt beam="1">  1        2 0.19932124E+00 0.25581373E+04</pdfrwt>
<pdfrwt beam="2">  1       -2 0.19427075E+00 0.25581373E+04</pdfrwt>
<totfact> 0.21423694E+00</totfact>
</mgrwt>
</event>
<event>
 6    1  0.1934315E-005  0.2818388E+04  0.7818608E-02  0.8297582E-01
         -2   -1    0    0    0  501 -0.00000000000E+00  0.00000000000E+00  0.30449436599E+04  0.30449436599E+04  0.00000000000E+00 0. -1.
          2   -1    0    0  501    0  0.00000000000E+00 -0.00000000000E+00 -0.65217201910E+03  0.65217201910E+03  0.00000000000E+00 0.  1.
         23    2    1    2    0    0 -0.12452010104E+04 -0.65551296316E+03  0.11487988634E+04  0.18189008159E+04  0.91861570695E+02 0.  0.
         13    1    3    3    0    0 -0.78785828484E+02 -0.66121750678E+02  0.71867415592E+02  0.12547596625E+03  0.00000000000E+00 0. -1.
        -13    1    3    3    0    0 -0.11664151819E+04 -0.58939121248E+03  0.10769314478E+04  0.16934248496E+04  0.00000000000E+00 0.  1.
         22    1    1    2    0    0  0.12452010104E+04  0.65551296316E+03  0.12439727774E+04  0.18782148632E+04  0.00000000000E+00 0.  1.
<mgrwt>
<rscale>  0 0.28183875E+04</rscale>
<asrwt>0</asrwt>
<pdfrwt beam="1">  1        2 0.10033416E+00 0.28183875E+04</pdfrwt>
<pdfrwt beam="2">  1       -2 0.46845286E+00 0.28183875E+04</pdfrwt>
<totfact> 0.10189302E-01</totfact>
</mgrwt>
</event>
<event>
 6    1  0.1934315E-005  0.1278336E+04  0.7818608E-02  0.9046924E-01
          2   -1    0    0  501    0  0.00000000000E+00  0.00000000000E+00  0.54251626691E+03  0.54251626691E+03  0.00000000000E+00 0.  1.
         -2   -1    0    0    0  501 -0.00000000000E+00 -0.00000000000E+00 -0.75303812107E+03  0.75303812107E+03  0.00000000000E+00 0. -1.
         23    2    1    2    0    0  0.24181441713E+03 -0.19610137954E+03  0.45627604511E+03  0.55965398584E+03  0.89971057243E+02 0.  0.
         13    1    3    3    0    0  0.80061495802E+02 -0.99825296376E+02  0.12650035540E+03  0.17993685788E+03  0.00000000000E+00 0. -1.
        -13    1    3    3    0    0  0.16175292133E+03 -0.96276083162E+02  0.32977568971E+03  0.37971712797E+03  0.00000000000E+00 0.  1.
         22    1    1    2    0    0 -0.24181441713E+03  0.19610137954E+03 -0.66679789927E+03  0.73590040213E+03  0.00000000000E+00 0. -1.
<mgrwt>
<rscale>  0 0.12783355E+04</rscale>
<asrwt>0</asrwt>
<pdfrwt beam="1">  1        2 0.83464041E-01 0.12783355E+04</pdfrwt>
<pdfrwt beam="2">  1       -2 0.11585202E+00 0.12783355E+04</pdfrwt>
<totfact> 0.31802128E+01</totfact>
</mgrwt>
</event>
<event>
 6    1  0.1934315E-005  0.2802009E+04  0.7818608E-02  0.8302645E-01
          2   -1    0    0  501    0  0.00000000000E+00  0.00000000000E+00  0.32168615190E+04  0.32168615190E+04  0.00000000000E+00 0.  1.
         -2   -1    0    0    0  501 -0.00000000000E+00 -0.00000000000E+00 -0.61016418652E+03  0.61016418652E+03  0.00000000000E+00 0. -1.
         23    2    1    2    0    0  0.88497417291E+02 -0.47167401039E+03  0.31002550566E+04  0.31386163855E+04  0.94990707205E+02 0.  0.
         11    1    3    3    0    0  0.72312879289E+02 -0.23419025831E+03  0.18188576613E+04  0.18352976384E+04  0.00000000000E+00 0.  1.
        -11    1    3    3    0    0  0.16184538001E+02 -0.23748375208E+03  0.12813973953E+04  0.13033187471E+04  0.00000000000E+00 0. -1.
         22    1    1    2    0    0 -0.88497417291E+02  0.47167401039E+03 -0.49355772407E+03  0.68840932005E+03  0.00000000000E+00 0. -1.
<mgrwt>
<rscale>  0 0.28020091E+04</rscale>
<asrwt>0</asrwt>
<pdfrwt beam="1">  1        2 0.49490176E+00 0.28020091E+04</pdfrwt>
<pdfrwt beam="2">  1       -2 0.93871415E-01 0.28020091E+04</pdfrwt>
<totfact> 0.10537423E+00</totfact>
</mgrwt>
</event>
<event>
 6    1  0.1934315E-005  0.1798801E+04  0.7818608E-02  0.8706938E-01
          2   -1    0    0  501    0  0.00000000000E+00  0.00000000000E+00  0.34134854305E+03  0.34134854305E+03  0.00000000000E+00 0.  1.
         -2   -1    0    0    0  501 -0.00000000000E+00 -0.00000000000E+00 -0.23697799308E+04  0.23697799308E+04  0.00000000000E+00 0. -1.
         23    2    1    2    0    0  0.58998657352E+01 -0.88812072042E+03 -0.82562527513E+03  0.12159576585E+04  0.90015053984E+02 0.  0.
         13    1    3    3    0    0 -0.39964518213E+02 -0.36304626263E+03 -0.35538626477E+03  0.50960685701E+03  0.00000000000E+00 0.  1.
        -13    1    3    3    0    0  0.45864383948E+02 -0.52507445779E+03 -0.47023901035E+03  0.70635080151E+03  0.00000000000E+00 0. -1.
         22    1    1    2    0    0 -0.58998657352E+01  0.88812072042E+03 -0.12028061126E+04  0.14951708154E+04  0.00000000000E+00 0. -1.
<mgrwt>
<rscale>  0 0.17988006E+04</rscale>
<asrwt>0</asrwt>
<pdfrwt beam="1">  1        2 0.52515159E-01 0.17988006E+04</pdfrwt>
<pdfrwt beam="2">  1       -2 0.36458154E+00 0.17988006E+04</pdfrwt>
<totfact> 0.11329832E+00</totfact>
</mgrwt>
</event>
<event>
 6    1  0.1934315E-005  0.2240739E+04  0.7818608E-02  0.8501660E-01
          2   -1    0    0  501    0  0.00000000000E+00  0.00000000000E+00  0.40938375238E+04  0.40938375238E+04  0.00000000000E+00 0.  1.
         -2   -1    0    0    0  501 -0.00000000000E+00 -0.00000000000E+00 -0.30661393861E+03  0.30661393861E+03  0.00000000000E+00 0. -1.
         23    2    1    2    0    0  0.82171209940E+03  0.49959372795E+03  0.30186842300E+04  0.31694123047E+04  0.88967464327E+02 0.  0.
         13    1    3    3    0    0  0.77638478716E+03  0.47511491413E+03  0.27795239692E+04  0.29247668308E+04  0.00000000000E+00 0. -1.
        -13    1    3    3    0    0  0.45327312239E+02  0.24478813813E+02  0.23916026081E+03  0.24464547392E+03  0.00000000000E+00 0.  1.
         22    1    1    2    0    0 -0.82171209940E+03 -0.49959372795E+03  0.76853935527E+03  0.12310391577E+04  0.00000000000E+00 0. -1.
<mgrwt>
<rscale>  0 0.22407388E+04</rscale>
<asrwt>0</asrwt>
<pdfrwt beam="1">  1        2 0.62982112E+00 0.22407388E+04</pdfrwt>
<pdfrwt beam="2">  1       -2 0.47171378E-01 0.22407388E+04</pdfrwt>
<totfact> 0.11194558E+00</totfact>
</mgrwt>
</event>
<event>
 6    1  0.1934315E-005  0.2988281E+04  0.7818608E-02  0.8247085E-01
          2   -1    0    0  501    0  0.00000000000E+00  0.00000000000E+00  0.25627904442E+04  0.25627904442E+04  0.00000000000E+00 0.  1.
         -2   -1    0    0    0  501 -0.00000000000E+00 -0.00000000000E+00 -0.87110331432E+03  0.87110331432E+03  0.00000000000E+00 0. -1.
         23    2    1    2    0    0  0.63116178710E+03  0.76142124527E+03 -0.43821379154E+03  0.10855740509E+04  0.91171149998E+02 0.  0.
         13    1    3    3    0    0  0.29206857402E+03  0.37624842191E+03 -0.25792164765E+03  0.54165533622E+03  0.00000000000E+00 0. -1.
        -13    1    3    3    0    0  0.33909321308E+03  0.38517282335E+03 -0.18029214389E+03  0.54391871466E+03  0.00000000000E+00 0.  1.
         22    1    1    2    0    0 -0.63116178710E+03 -0.76142124527E+03  0.21299009214E+04  0.23483197076E+04  0.00000000000E+00 0.  1.
<mgrwt>
<rscale>  0 0.29882806E+04</rscale>
<asrwt>0</asrwt>
<pdfrwt beam="1">  1        2 0.39427545E+00 0.29882806E+04</pdfrwt>
<pdfrwt beam="2">  1       -2 0.13401590E+00 0.29882806E+04</pdfrwt>
<totfact> 0.11018353E+00</totfact>
</mgrwt>
</event>
<event>
 6    1  0.1934315E-005  0.1087125E+04  0.7818608E-02  0.9217832E-01
         -2   -1    0    0    0  501 -0.00000000000E+00  0.00000000000E+00  0.69252183087E+03  0.69252183087E+03  0.00000000000E+00 0. -1.
          2   -1    0    0  501    0  0.00000000000E+00 -0.00000000000E+00 -0.42664420061E+03  0.42664420061E+03  0.00000000000E+00 0.  1.
         23    2    1    2    0    0 -0.38328959787E+03 -0.17306359136E+03  0.48213436277E+03  0.64627186061E+03  0.91388465137E+02 0.  0.
         13    1    3    3    0    0 -0.27620724024E+03 -0.11041504840E+03  0.27655308648E+03  0.40615702888E+03  0.00000000000E+00 0.  1.
        -13    1    3    3    0    0 -0.10708235763E+03 -0.62648542963E+02  0.20558127629E+03  0.24011483172E+03  0.00000000000E+00 0. -1.
         22    1    1    2    0    0  0.38328959787E+03  0.17306359136E+03 -0.21625673251E+03  0.47289417087E+03  0.00000000000E+00 0.  1.
<mgrwt>
<rscale>  0 0.10871254E+04</rscale>
<asrwt>0</asrwt>
<pdfrwt beam="1">  1        2 0.65637569E-01 0.10871254E+04</pdfrwt>
<pdfrwt beam="2">  1       -2 0.10654182E+00 0.10871254E+04</pdfrwt>
<totfact> 0.52126782E+01</totfact>
</mgrwt>
</event>
<event>
 6    1  0.1934315E-005  0.2889563E+04  0.7818608E-02  0.8275989E-01
          2   -1    0    0  501    0  0.00000000000E+00  0.00000000000E+00  0.15935184425E+04  0.15935184425E+04  0.00000000000E+00 0.  1.
         -2   -1    0    0    0  501 -0.00000000000E+00 -0.00000000000E+00 -0.13099278246E+04  0.13099278246E+04  0.00000000000E+00 0. -1.
         23    2    1    2    0    0  0.91825566054E+01  0.26647732548E+03  0.15672060915E+04  0.15924301846E+04  0.92760309396E+02 0.  0.
         11    1    3    3    0    0 -0.29978205603E+02  0.19079197976E+03  0.95612888130E+03  0.97543975211E+03  0.00000000000E+00 0.  1.
        -11    1    3    3    0    0  0.39160762209E+02  0.75685345717E+02  0.61107721025E+03  0.61699043245E+03  0.00000000000E+00 0. -1.
         22    1    1    2    0    0 -0.91825566054E+01 -0.26647732548E+03 -0.12836154737E+04  0.13110160825E+04  0.00000000000E+00 0. -1.
<mgrwt>
<rscale>  0 0.28895634E+04</rscale>
<asrwt>0</asrwt>
<pdfrwt beam="1">  1        2 0.24515668E+00 0.28895634E+04</pdfrwt>
<pdfrwt beam="2">  1       -2 0.20152736E+00 0.28895634E+04</pdfrwt>
<totfact> 0.12626198E+00</totfact>
</mgrwt>
</event>
<event>
 6    1  0.1934315E-005  0.3362957E+04  0.7818608E-02  0.8147058E-01
         -2   -1    0    0    0  501 -0.00000000000E+00  0.00000000000E+00  0.12804394877E+04  0.12804394877E+04  0.00000000000E+00 0. -1.
          2   -1    0    0  501    0  0.00000000000E+00 -0.00000000000E+00 -0.22081240669E+04  0.22081240669E+04  0.00000000000E+00 0.  1.
         23    2    1    2    0    0 -0.57093356868E+03  0.14863562770E+04 -0.10209685161E+04  0.18935958387E+04  0.90046473766E+02 0.  0.
         11    1    3    3    0    0 -0.82527038109E+02  0.31542183259E+03 -0.20398277535E+03  0.38459149383E+03  0.00000000000E+00 0.  1.
        -11    1    3    3    0    0 -0.48840653057E+03  0.11709344444E+04 -0.81698574077E+03  0.15090043448E+04  0.00000000000E+00 0. -1.
         22    1    1    2    0    0  0.57093356868E+03 -0.14863562770E+04  0.93283936873E+02  0.15949677159E+04  0.00000000000E+00 0. -1.
<mgrwt>
<rscale>  0 0.33629566E+04</rscale>
<asrwt>0</asrwt>
<pdfrwt beam="1">  1        2 0.33971139E+00 0.33629566E+04</pdfrwt>
<pdfrwt beam="2">  1       -2 0.19699069E+00 0.33629566E+04</pdfrwt>
<totfact> 0.59111327E-01</totfact>
</mgrwt>
</event>
<event>
 6    1  0.1934315E-005  0.2156219E+04  0.7818608E-02  0.8536875E-01
          2   -1    0    0  501    0  0.00000000000E+00  0.00000000000E+00  0.97446837490E+03  0.97446837490E+03  0.00000000000E+00 0.  1.
         -2   -1    0    0    0  501 -0.00000000000E+00 -0.00000000000E+00 -0.11927736998E+04  0.11927736998E+04  0.00000000000E+00 0. -1.
         23    2    1    2    0    0 -0.91507437061E+03 -0.38584742897E+03  0.30756855597E+03  0.10435060378E+04  0.89816991820E+02 0.  0.
         11    1    3    3    0    0 -0.35818333252E+03 -0.10631697157E+03  0.12982904710E+03  0.39554289225E+03  0.00000000000E+00 0. -1.
        -11    1    3    3    0    0 -0.55689103809E+03 -0.27953045740E+03  0.17773950887E+03  0.64796314550E+03  0.00000000000E+00 0.  1.
         22    1    1    2    0    0  0.91507437061E+03  0.38584742897E+03 -0.52587388089E+03  0.11237360370E+04  0.00000000000E+00 0. -1.
<mgrwt>
<rscale>  0 0.21562191E+04</rscale>
<asrwt>0</asrwt>
<pdfrwt beam="1">  1        2 0.14991821E+00 0.21562191E+04</pdfrwt>
<pdfrwt beam="2">  1       -2 0.18350365E+00 0.21562191E+04</pdfrwt>
<totfact> 0.41163608E+00</totfact>
</mgrwt>
</event>
<event>
 6    1  0.1934315E-005  0.4662122E+04  0.7818608E-02  0.7882853E-01
          2   -1    0    0  501    0  0.00000000000E+00  0.00000000000E+00  0.19746477959E+04  0.19746477959E+04  0.00000000000E+00 0.  1.
         -2   -1    0    0    0  501 -0.00000000000E+00 -0.00000000000E+00 -0.27518052467E+04  0.27518052467E+04  0.00000000000E+00 0. -1.
         23    2    1    2    0    0 -0.64983516131E+03  0.42342613422E+03 -0.26166254767E+04  0.27301519514E+04  0.73657073013E+02 0.  0.
         13    1    3    3    0    0 -0.44591279232E+02  0.15709302099E+02 -0.21315871245E+03  0.21833873007E+03  0.00000000000E+00 0. -1.
        -13    1    3    3    0    0 -0.60524388208E+03  0.40771683212E+03 -0.24034667643E+04  0.25118132213E+04  0.00000000000E+00 0.  1.
         22    1    1    2    0    0  0.64983516131E+03 -0.42342613422E+03  0.18394680259E+04  0.19963010911E+04  0.00000000000E+00 0.  1.
<mgrwt>
<rscale>  0 0.46621223E+04</rscale>
<asrwt>0</asrwt>
<pdfrwt beam="1">  1        2 0.30379197E+00 0.46621223E+04</pdfrwt>
<pdfrwt beam="2">  1       -2 0.42335466E+00 0.46621223E+04</pdfrwt>
<totfact> 0.26913951E-02</totfact>
</mgrwt>
</event>
<event>
 6    1  0.1934315E-005  0.3893029E+04  0.7818608E-02  0.8026481E-01
         -2   -1    0    0    0  501 -0.00000000000E+00  0.00000000000E+00  0.38658908974E+04  0.38658908974E+04  0.00000000000E+00 0. -1.
          2   -1    0    0  501    0  0.00000000000E+00 -0.00000000000E+00 -0.98008960532E+03  0.98008960532E+03  0.00000000000E+00 0.  1.
         23    2    1    2    0    0  0.10883704239E+04  0.64300300185E+03  0.32844187749E+04  0.35204998588E+04  0.92247097390E+02 0.  0.
         13    1    3    3    0    0  0.10302190722E+04  0.63099706804E+03  0.31323475938E+04  0.33572473971E+04  0.00000000000E+00 0.  1.
        -13    1    3    3    0    0  0.58151351680E+02  0.12005933802E+02  0.15207118105E+03  0.16325246171E+03  0.00000000000E+00 0. -1.
         22    1    1    2    0    0 -0.10883704239E+04 -0.64300300185E+03 -0.39861748274E+03  0.13254806440E+04  0.00000000000E+00 0.  1.
<mgrwt>
<rscale>  0 0.38930294E+04</rscale>
<asrwt>0</asrwt>
<pdfrwt beam="1">  1        2 0.15078302E+00 0.38930294E+04</pdfrwt>
<pdfrwt beam="2">  1       -2 0.59475244E+00 0.38930294E+04</pdfrwt>
<totfact> 0.10973927E-02</totfact>
</mgrwt>
</event>
<event>
 6    1  0.1934315E-005  0.2556091E+04  0.7818608E-02  0.8383271E-01
          2   -1    0    0  501    0  0.00000000000E+00  0.00000000000E+00  0.18322301339E+04  0.18322301339E+04  0.00000000000E+00 0.  1.
         -2   -1    0    0    0  501 -0.00000000000E+00 -0.00000000000E+00 -0.89148209518E+03  0.89148209518E+03  0.00000000000E+00 0. -1.
         23    2    1    2    0    0 -0.10122625894E+04 -0.62088396850E+03  0.96972723093E+03  0.15358518645E+04  0.91091136593E+02 0.  0.
         13    1    3    3    0    0 -0.78004142689E+03 -0.50517201887E+03  0.79571162751E+03  0.12234461126E+04  0.00000000000E+00 0.  1.
        -13    1    3    3    0    0 -0.23222116249E+03 -0.11571194963E+03  0.17401560342E+03  0.31240575191E+03  0.00000000000E+00 0. -1.
         22    1    1    2    0    0  0.10122625894E+04  0.62088396850E+03 -0.28979192169E+02  0.11878603646E+04  0.00000000000E+00 0. -1.
<mgrwt>
<rscale>  0 0.25560910E+04</rscale>
<asrwt>0</asrwt>
<pdfrwt beam="1">  1        2 0.28188156E+00 0.25560910E+04</pdfrwt>
<pdfrwt beam="2">  1       -2 0.13715109E+00 0.25560910E+04</pdfrwt>
<totfact> 0.27851654E+00</totfact>
</mgrwt>
</event>
<event>
 6    1  0.1934315E-005  0.1754275E+04  0.7818608E-02  0.8731001E-01
          2   -1    0    0  501    0  0.00000000000E+00  0.00000000000E+00  0.17214303140E+04  0.17214303140E+04  0.00000000000E+00 0.  1.
         -2   -1    0    0    0  501 -0.00000000000E+00 -0.00000000000E+00 -0.44693670283E+03  0.44693670283E+03  0.00000000000E+00 0. -1.
         23    2    1    2    0    0 -0.29293986520E+03 -0.41400435164E+03  0.15199568968E+04  0.16049261660E+04  0.91135407511E+02 0.  0.
         13    1    3    3    0    0 -0.16550028199E+03 -0.22724249951E+03  0.69925328591E+03  0.75364756669E+03  0.00000000000E+00 0. -1.
        -13    1    3    3    0    0 -0.12743958321E+03 -0.18676185213E+03  0.82070361084E+03  0.85127859930E+03  0.00000000000E+00 0.  1.
         22    1    1    2    0    0  0.29293986520E+03  0.41400435164E+03 -0.24546328560E+03  0.56344085082E+03  0.00000000000E+00 0. -1.
<mgrwt>
<rscale>  0 0.17542752E+04</rscale>
<asrwt>0</asrwt>
<pdfrwt beam="1">  1        2 0.26483543E+00 0.17542752E+04</pdfrwt>
<pdfrwt beam="2">  1       -2 0.68759494E-01 0.17542752E+04</pdfrwt>
<totfact> 0.17472188E+01</totfact>
</mgrwt>
</event>
<event>
 6    1  0.1934315E-005  0.1364989E+04  0.7818608E-02  0.8979559E-01
          2   -1    0    0  501    0  0.00000000000E+00  0.00000000000E+00  0.94593309977E+03  0.94593309977E+03  0.00000000000E+00 0.  1.
         -2   -1    0    0    0  501 -0.00000000000E+00 -0.00000000000E+00 -0.49242250872E+03  0.49242250872E+03  0.00000000000E+00 0. -1.
         23    2    1    2    0    0 -0.36975944974E+03  0.55613365850E+02 -0.37014445288E+03  0.53379907154E+03  0.90109020891E+02 0.  0.
         13    1    3    3    0    0 -0.63900333191E+01  0.13834901883E+02 -0.33033153728E+02  0.36378926333E+02  0.00000000000E+00 0. -1.
        -13    1    3    3    0    0 -0.36336941642E+03  0.41778463966E+02 -0.33711129915E+03  0.49742014521E+03  0.00000000000E+00 0.  1.
         22    1    1    2    0    0  0.36975944974E+03 -0.55613365850E+02  0.82365504393E+03  0.90455653695E+03  0.00000000000E+00 0.  1.
<mgrwt>
<rscale>  0 0.13649890E+04</rscale>
<asrwt>0</asrwt>
<pdfrwt beam="1">  1        2 0.14552817E+00 0.13649890E+04</pdfrwt>
<pdfrwt beam="2">  1       -2 0.75757309E-01 0.13649890E+04</pdfrwt>
<totfact> 0.41636805E+01</totfact>
</mgrwt>
</event>
<event>
 6    1  0.1934315E-005  0.4151367E+04  0.7818608E-02  0.7974688E-01
          2   -1    0    0  501    0  0.00000000000E+00  0.00000000000E+00  0.20769801874E+04  0.20769801874E+04  0.00000000000E+00 0.  1.
         -2   -1    0    0    0  501 -0.00000000000E+00 -0.00000000000E+00 -0.20743871535E+04  0.20743871535E+04  0.00000000000E+00 0. -1.
         23    2    1    2    0    0 -0.13325071009E+04  0.90758917780E+03 -0.13044500498E+04  0.20758782630E+04  0.91582426842E+02 0.  0.
         13    1    3    3    0    0 -0.37056561267E+03  0.29287917707E+03 -0.35015486368E+03  0.58796727308E+03  0.00000000000E+00 0.  1.
        -13    1    3    3    0    0 -0.96194148827E+03  0.61471000073E+03 -0.95429518607E+03  0.14879109900E+04  0.00000000000E+00 0. -1.
         22    1    1    2    0    0  0.13325071009E+04 -0.90758917780E+03  0.13070430837E+04  0.20754890779E+04  0.00000000000E+00 0.  1.
<mgrwt>
<rscale>  0 0.41513665E+04</rscale>
<asrwt>0</asrwt>
<pdfrwt beam="1">  1        2 0.31953541E+00 0.41513665E+04</pdfrwt>
<pdfrwt beam="2">  1       -2 0.31913649E+00 0.41513665E+04</pdfrwt>
<totfact> 0.11433365E-01</totfact>
</mgrwt>
</event>
<event>
 6    1  0.1934315E-005  0.3417337E+04  0.7818608E-02  0.8133664E-01
          2   -1    0    0  501    0  0.00000000000E+00  0.00000000000E+00  0.17647639237E+04  0.17647639237E+04  0.00000000000E+00 0.  1.
         -2   -1    0    0    0  501 -0.00000000000E+00 -0.00000000000E+00 -0.16543563650E+04  0.16543563650E+04  0.00000000000E+00 0. -1.
         23    2    1    2    0    0 -0.63628272319E+03  0.11585433572E+04 -0.10262013701E+04  0.16758594731E+04  0.91308857960E+02 0.  0.
         11    1    3    3    0    0 -0.20637553726E+03  0.29175709687E+03 -0.27408831272E+03  0.45037480960E+03  0.00000000000E+00 0. -1.
        -11    1    3    3    0    0 -0.42990718593E+03  0.86678626030E+03 -0.75211305734E+03  0.12254846635E+04  0.00000000000E+00 0.  1.
         22    1    1    2    0    0  0.63628272319E+03 -0.11585433572E+04  0.11366089287E+04  0.17432608156E+04  0.00000000000E+00 0.  1.
<mgrwt>
<rscale>  0 0.34173372E+04</rscale>
<asrwt>0</asrwt>
<pdfrwt beam="1">  1        2 0.27150214E+00 0.34173372E+04</pdfrwt>
<pdfrwt beam="2">  1       -2 0.25451636E+00 0.34173372E+04</pdfrwt>
<totfact> 0.45016697E-01</totfact>
</mgrwt>
</event>
<event>
 6    1  0.1934315E-005  0.2306700E+04  0.7818608E-02  0.8475284E-01
          2   -1    0    0  501    0  0.00000000000E+00  0.00000000000E+00  0.68764683314E+03  0.68764683314E+03  0.00000000000E+00 0.  1.
         -2   -1    0    0    0  501 -0.00000000000E+00 -0.00000000000E+00 -0.19344460818E+04  0.19344460818E+04  0.00000000000E+00 0. -1.
         23    2    1    2    0    0 -0.65149121982E+03 -0.94978688839E+03 -0.61625021732E+03  0.13090323589E+04  0.85237571090E+02 0.  0.
         13    1    3    3    0    0 -0.29178600694E+03 -0.46571065240E+03 -0.25312977656E+03  0.60506212027E+03  0.00000000000E+00 0. -1.
        -13    1    3    3    0    0 -0.35970521288E+03 -0.48407623599E+03 -0.36312044077E+03  0.70397023866E+03  0.00000000000E+00 0.  1.
         22    1    1    2    0    0  0.65149121982E+03  0.94978688839E+03 -0.63054903134E+03  0.13130605560E+04  0.00000000000E+00 0. -1.
<mgrwt>
<rscale>  0 0.23066996E+04</rscale>
<asrwt>0</asrwt>
<pdfrwt beam="1">  1        2 0.10579182E+00 0.23066996E+04</pdfrwt>
<pdfrwt beam="2">  1       -2 0.29760709E+00 0.23066996E+04</pdfrwt>
<totfact> 0.12487300E+00</totfact>
</mgrwt>
</event>
<event>
 6    1  0.1934315E-005  0.1486924E+03  0.7818608E-02  0.1202089E+00
         -2   -1    0    0    0  501 -0.00000000000E+00  0.00000000000E+00  0.11289547876E+02  0.11289547876E+02  0.00000000000E+00 0. -1.
          2   -1    0    0  501    0  0.00000000000E+00 -0.00000000000E+00 -0.48959922542E+03  0.48959922542E+03  0.00000000000E+00 0.  1.
         23    2    1    2    0    0  0.10271321667E+01  0.45273186816E+02 -0.31050834900E+03  0.32708427880E+03  0.92292871861E+02 0.  0.
         11    1    3    3    0    0  0.15589043602E+02 -0.21247765646E+02 -0.38320214945E+02  0.46507254260E+02  0.00000000000E+00 0.  1.
        -11    1    3    3    0    0 -0.14561911435E+02  0.66520952462E+02 -0.27218813405E+03  0.28057702454E+03  0.00000000000E+00 0. -1.
         22    1    1    2    0    0 -0.10271321667E+01 -0.45273186816E+02 -0.16780132854E+03  0.17380449449E+03  0.00000000000E+00 0. -1.
<mgrwt>
<rscale>  0 0.14869235E+03</rscale>
<asrwt>0</asrwt>
<pdfrwt beam="1">  1        2 0.75322941E-01 0.14869235E+03</pdfrwt>
<pdfrwt beam="2">  1       -2 0.17368539E-02 0.14869235E+03</pdfrwt>
<totfact> 0.56662940E+04</totfact>
</mgrwt>
</event>
<event>
 6    1  0.1934315E-005  0.1433430E+04  0.7818608E-02  0.8929969E-01
          2   -1    0    0  501    0  0.00000000000E+00  0.00000000000E+00  0.17174254950E+04  0.17174254950E+04  0.00000000000E+00 0.  1.
         -2   -1    0    0    0  501 -0.00000000000E+00 -0.00000000000E+00 -0.29909925157E+03  0.29909925157E+03  0.00000000000E+00 0. -1.
         23    2    1    2    0    0 -0.65214288011E+03  0.16928228550E+03  0.38118460164E+03  0.77975087337E+03  0.93610339911E+02 0.  0.
         13    1    3    3    0    0 -0.12118896343E+03  0.33634812197E+02  0.31412639100E+02  0.12963340366E+03  0.00000000000E+00 0.  1.
        -13    1    3    3    0    0 -0.53095391668E+03  0.13564747331E+03  0.34977196254E+03  0.65011746971E+03  0.00000000000E+00 0. -1.
         22    1    1    2    0    0  0.65214288011E+03 -0.16928228550E+03  0.10371416418E+04  0.12367738732E+04  0.00000000000E+00 0.  1.
<mgrwt>
<rscale>  0 0.14334304E+04</rscale>
<asrwt>0</asrwt>
<pdfrwt beam="1">  1        2 0.26421930E+00 0.14334304E+04</pdfrwt>
<pdfrwt beam="2">  1       -2 0.46015271E-01 0.14334304E+04</pdfrwt>
<totfact> 0.41694728E+01</totfact>
</mgrwt>
</event>
<event>
 6    1  0.1934315E-005  0.2480133E+04  0.7818608E-02  0.8410098E-01
          1   -1    0    0  501    0  0.00000000000E+00  0.00000000000E+00  0.10733470983E+04  0.10733470983E+04  0.00000000000E+00 0.  1.
         -1   -1    0    0    0  501 -0.00000000000E+00 -0.00000000000E+00 -0.14326815286E+04  0.14326815286E+04  0.00000000000E+00 0. -1.
         23    2    1    2    0    0  0.94140583845E+03 -0.39037768979E+03  0.53092540405E+03  0.11528094038E+04  0.91913238281E+02 0.  0.
         13    1    3    3    0    0  0.11281828896E+03 -0.25417581367E+02  0.85181201248E+02  0.14363097442E+03  0.00000000000E+00 0.  1.
        -13    1    3    3    0    0  0.82858754949E+03 -0.36496010842E+03  0.44574420281E+03  0.10091784293E+04  0.00000000000E+00 0. -1.
         22    1    1    2    0    0 -0.94140583845E+03  0.39037768979E+03 -0.89025983433E+03  0.13532192232E+04  0.00000000000E+00 0.  1.
<mgrwt>
<rscale>  0 0.24801327E+04</rscale>
<asrwt>0</asrwt>
<pdfrwt beam="1">  1        1 0.16513032E+00 0.24801327E+04</pdfrwt>
<pdfrwt beam="2">  1       -1 0.22041254E+00 0.24801327E+04</pdfrwt>
<totfact> 0.12925270E+00</totfact>
</mgrwt>
</event>
<event>
 6    1  0.1934315E-005  0.3905853E+04  0.7818608E-02  0.8023813E-01
          2   -1    0    0  501    0  0.00000000000E+00  0.00000000000E+00  0.35287990632E+04  0.35287990632E+04  0.00000000000E+00 0.  1.
         -2   -1    0    0    0  501 -0.00000000000E+00 -0.00000000000E+00 -0.10807988276E+04  0.10807988276E+04  0.00000000000E+00 0. -1.
         23    2    1    2    0    0 -0.65434215833E+03 -0.91795983995E+03  0.31051693604E+04  0.33047280940E+04  0.91307673295E+02 0.  0.
         11    1    3    3    0    0 -0.21049965178E+03 -0.36796744754E+03  0.12030221383E+04  0.12755282871E+04  0.00000000000E+00 0. -1.
        -11    1    3    3    0    0 -0.44384250655E+03 -0.54999239241E+03  0.19021472220E+04  0.20291998070E+04  0.00000000000E+00 0.  1.
         22    1    1    2    0    0  0.65434215833E+03  0.91795983995E+03 -0.65716912480E+03  0.13048697968E+04  0.00000000000E+00 0. -1.
<mgrwt>
<rscale>  0 0.39058530E+04</rscale>
<asrwt>0</asrwt>
<pdfrwt beam="1">  1        2 0.54289216E+00 0.39058530E+04</pdfrwt>
<pdfrwt beam="2">  1       -2 0.16627675E+00 0.39058530E+04</pdfrwt>
<totfact> 0.13952578E-01</totfact>
</mgrwt>
</event>
<event>
 6    1  0.1934315E-005  0.3876226E+04  0.7818608E-02  0.8029992E-01
         -2   -1    0    0    0  501 -0.00000000000E+00  0.00000000000E+00  0.16068311709E+04  0.16068311709E+04  0.00000000000E+00 0. -1.
          2   -1    0    0  501    0  0.00000000000E+00 -0.00000000000E+00 -0.23376950299E+04  0.23376950299E+04  0.00000000000E+00 0.  1.
         23    2    1    2    0    0 -0.13570540113E+04 -0.47297109251E+03 -0.16873257467E+04  0.22182247826E+04  0.90309284093E+02 0.  0.
         13    1    3    3    0    0 -0.20963368263E+03 -0.46024154885E+02 -0.28265147125E+03  0.35490330786E+03  0.00000000000E+00 0.  1.
        -13    1    3    3    0    0 -0.11474203286E+04 -0.42694693763E+03 -0.14046742754E+04  0.18633214747E+04  0.00000000000E+00 0. -1.
         22    1    1    2    0    0  0.13570540113E+04  0.47297109251E+03  0.95646188770E+03  0.17263014182E+04  0.00000000000E+00 0. -1.
<mgrwt>
<rscale>  0 0.38762256E+04</rscale>
<asrwt>0</asrwt>
<pdfrwt beam="1">  1        2 0.35964539E+00 0.38762256E+04</pdfrwt>
<pdfrwt beam="2">  1       -2 0.24720480E+00 0.38762256E+04</pdfrwt>
<totfact> 0.22991435E-01</totfact>
</mgrwt>
</event>
<event>
 6    1  0.1934315E-005  0.5274697E+03  0.7818608E-02  0.1006848E+00
          2   -1    0    0  501    0  0.00000000000E+00  0.00000000000E+00  0.20397304509E+03  0.20397304509E+03  0.00000000000E+00 0.  1.
         -2   -1    0    0    0  501 -0.00000000000E+00 -0.00000000000E+00 -0.34100615384E+03  0.34100615384E+03  0.00000000000E+00 0. -1.
         23    2    1    2    0    0  0.26197279383E+02  0.22201423482E+03  0.57421391523E+02  0.24868682544E+03  0.92581331975E+02 0.  0.
         11    1    3    3    0    0  0.53487395305E+02  0.12092901201E+03  0.68440797553E+01  0.13240683075E+03  0.00000000000E+00 0. -1.
        -11    1    3    3    0    0 -0.27290115922E+02  0.10108522282E+03  0.50577311768E+02  0.11627999469E+03  0.00000000000E+00 0.  1.
         22    1    1    2    0    0 -0.26197279383E+02 -0.22201423482E+03 -0.19445450028E+03  0.29629237349E+03  0.00000000000E+00 0. -1.
<mgrwt>
<rscale>  0 0.52746967E+03</rscale>
<asrwt>0</asrwt>
<pdfrwt beam="1">  1        2 0.31380468E-01 0.52746967E+03</pdfrwt>
<pdfrwt beam="2">  1       -2 0.52462485E-01 0.52746967E+03</pdfrwt>
<totfact> 0.58411536E+02</totfact>
</mgrwt>
</event>
<event>
 6    1  0.1934315E-005  0.1298269E+04  0.7818608E-02  0.9030939E-01
          2   -1    0    0  501    0  0.00000000000E+00  0.00000000000E+00  0.23831602831E+03  0.23831602831E+03  0.00000000000E+00 0.  1.
         -2   -1    0    0    0  501 -0.00000000000E+00 -0.00000000000E+00 -0.17681380072E+04  0.17681380072E+04  0.00000000000E+00 0. -1.
         23    2    1    2    0    0 -0.37336028235E+03  0.31868943513E+03 -0.14179277764E+04  0.15029849014E+04  0.86507676758E+02 0.  0.
         13    1    3    3    0    0 -0.83462919493E+02  0.49446511009E+02 -0.38058067588E+03  0.39275013334E+03  0.00000000000E+00 0.  1.
        -13    1    3    3    0    0 -0.28989736285E+03  0.26924292412E+03 -0.10373471005E+04  0.11102347680E+04  0.00000000000E+00 0. -1.
         22    1    1    2    0    0  0.37336028235E+03 -0.31868943513E+03 -0.11189420250E+03  0.50346913416E+03  0.00000000000E+00 0. -1.
<mgrwt>
<rscale>  0 0.12982690E+04</rscale>
<asrwt>0</asrwt>
<pdfrwt beam="1">  1        2 0.36664005E-01 0.12982690E+04</pdfrwt>
<pdfrwt beam="2">  1       -2 0.27202123E+00 0.12982690E+04</pdfrwt>
<totfact> 0.65822544E+00</totfact>
</mgrwt>
</event>
<event>
 6    1  0.1934315E-005  0.1516790E+04  0.7818608E-02  0.8873364E-01
         -2   -1    0    0    0  501 -0.00000000000E+00  0.00000000000E+00  0.84825463823E+03  0.84825463823E+03  0.00000000000E+00 0. -1.
          2   -1    0    0  501    0  0.00000000000E+00 -0.00000000000E+00 -0.67805498722E+03  0.67805498722E+03  0.00000000000E+00 0.  1.
         23    2    1    2    0    0  0.32219343014E+03 -0.65396223782E+03 -0.11287515260E+03  0.74425683992E+03  0.98499892225E+02 0.  0.
         11    1    3    3    0    0  0.11279537987E+03 -0.21934599856E+03 -0.85512226241E+02  0.26105134675E+03  0.00000000000E+00 0. -1.
        -11    1    3    3    0    0  0.20939805027E+03 -0.43461623926E+03 -0.27362926355E+02  0.48320549316E+03  0.00000000000E+00 0.  1.
         22    1    1    2    0    0 -0.32219343014E+03  0.65396223782E+03  0.28307480361E+03  0.78205278553E+03  0.00000000000E+00 0. -1.
<mgrwt>
<rscale>  0 0.15167904E+04</rscale>
<asrwt>0</asrwt>
<pdfrwt beam="1">  1        2 0.10431615E+00 0.15167904E+04</pdfrwt>
<pdfrwt beam="2">  1       -2 0.13050071E+00 0.15167904E+04</pdfrwt>
<totfact> 0.17696654E+01</totfact>
</mgrwt>
</event>
<event>
 6    1  0.1934315E-005  0.1184998E+04  0.7818608E-02  0.9126090E-01
         -2   -1    0    0    0  501 -0.00000000000E+00  0.00000000000E+00  0.64391040183E+03  0.64391040183E+03  0.00000000000E+00 0. -1.
          2   -1    0    0  501    0  0.00000000000E+00 -0.00000000000E+00 -0.54519246882E+03  0.54519246882E+03  0.00000000000E+00 0.  1.
         23    2    1    2    0    0  0.44909485745E+03 -0.70457185883E+02 -0.32527928307E+03  0.56747271914E+03  0.97817528844E+02 0.  0.
         13    1    3    3    0    0  0.42588065843E+03 -0.62290548653E+02 -0.27299585040E+03  0.50968733751E+03  0.00000000000E+00 0. -1.
        -13    1    3    3    0    0  0.23214199017E+02 -0.81666372303E+01 -0.52283432664E+02  0.57785381636E+02  0.00000000000E+00 0.  1.
         22    1    1    2    0    0 -0.44909485745E+03  0.70457185883E+02  0.42399721607E+03  0.62163015151E+03  0.00000000000E+00 0. -1.
<mgrwt>
<rscale>  0 0.11849981E+04</rscale>
<asrwt>0</asrwt>
<pdfrwt beam="1">  1        2 0.83875764E-01 0.11849981E+04</pdfrwt>
<pdfrwt beam="2">  1       -2 0.99063139E-01 0.11849981E+04</pdfrwt>
<totfact> 0.46418081E+01</totfact>
</mgrwt>
</event>
<event>
 6    1  0.1934315E-005  0.4251307E+03  0.7818608E-02  0.1035409E+00
          2   -1    0    0  501    0  0.00000000000E+00  0.00000000000E+00  0.51429640794E+03  0.51429640794E+03  0.00000000000E+00 0.  1.
         -2   -1    0    0    0  501 -0.00000000000E+00 -0.00000000000E+00 -0.87856015780E+02  0.87856015780E+02  0.00000000000E+00 0. -1.
         23    2    1    2    0    0 -0.31925354127E+02  0.18996446402E+03  0.15043299312E+03  0.26557284895E+03  0.10388997475E+03 0.  0.
         11    1    3    3    0    0  0.21224700823E+02  0.13277991090E+03  0.12465345662E+03  0.18335614773E+03  0.00000000000E+00 0.  1.
        -11    1    3    3    0    0 -0.53150054949E+02  0.57184553125E+02  0.25779536494E+02  0.82216701217E+02  0.00000000000E+00 0. -1.
         22    1    1    2    0    0  0.31925354127E+02 -0.18996446402E+03  0.27600739904E+03  0.33657957477E+03  0.00000000000E+00 0. -1.
<mgrwt>
<rscale>  0 0.42513072E+03</rscale>
<asrwt>0</asrwt>
<pdfrwt beam="1">  1        2 0.79122522E-01 0.42513072E+03</pdfrwt>
<pdfrwt beam="2">  1       -2 0.13516310E-01 0.42513072E+03</pdfrwt>
<totfact> 0.24678879E+03</totfact>
</mgrwt>
</event>
<event>
 6    1  0.1934315E-005  0.2806378E+04  0.7818608E-02  0.8301291E-01
          2   -1    0    0  501    0  0.00000000000E+00  0.00000000000E+00  0.17853968448E+04  0.17853968448E+04  0.00000000000E+00 0.  1.
         -2   -1    0    0    0  501 -0.00000000000E+00 -0.00000000000E+00 -0.11028024269E+04  0.11028024269E+04  0.00000000000E+00 0. -1.
         23    2    1    2    0    0  0.98175144338E+02  0.13258818246E+04 -0.11541103430E+03  0.13375820806E+04  0.90582247371E+02 0.  0.
         13    1    3    3    0    0  0.20914858712E+02  0.50389492262E+02 -0.94067799950E+01  0.55362620560E+02  0.00000000000E+00 0.  1.
        -13    1    3    3    0    0  0.77260285626E+02  0.12754923324E+04 -0.10600425430E+03  0.12822194600E+04  0.00000000000E+00 0. -1.
         22    1    1    2    0    0 -0.98175144338E+02 -0.13258818246E+04  0.79800545215E+03  0.15506171912E+04  0.00000000000E+00 0.  1.
<mgrwt>
<rscale>  0 0.28063784E+04</rscale>
<asrwt>0</asrwt>
<pdfrwt beam="1">  1        2 0.27467644E+00 0.28063784E+04</pdfrwt>
<pdfrwt beam="2">  1       -2 0.16966191E+00 0.28063784E+04</pdfrwt>
<totfact> 0.16389016E+00</totfact>
</mgrwt>
</event>
<event>
 6    1  0.1934315E-005  0.2955810E+04  0.7818608E-02  0.8256463E-01
         -2   -1    0    0    0  501 -0.00000000000E+00  0.00000000000E+00  0.15948755557E+04  0.15948755557E+04  0.00000000000E+00 0. -1.
          2   -1    0    0  501    0  0.00000000000E+00 -0.00000000000E+00 -0.13695133120E+04  0.13695133120E+04  0.00000000000E+00 0.  1.
         23    2    1    2    0    0 -0.64187390633E+03  0.26284613865E+03 -0.11944868589E+04  0.13841794898E+04  0.89798661766E+02 0.  0.
         11    1    3    3    0    0 -0.26217939219E+03  0.84525259650E+02 -0.55127229721E+03  0.61626593195E+03  0.00000000000E+00 0. -1.
        -11    1    3    3    0    0 -0.37969451414E+03  0.17832087900E+03 -0.64321456167E+03  0.76791355783E+03  0.00000000000E+00 0.  1.
         22    1    1    2    0    0  0.64187390633E+03 -0.26284613865E+03  0.14198491026E+04  0.15802093780E+04  0.00000000000E+00 0. -1.
<mgrwt>
<rscale>  0 0.29558101E+04</rscale>
<asrwt>0</asrwt>
<pdfrwt beam="1">  1        2 0.21069436E+00 0.29558101E+04</pdfrwt>
<pdfrwt beam="2">  1       -2 0.24536547E+00 0.29558101E+04</pdfrwt>
<totfact> 0.88833917E-01</totfact>
</mgrwt>
</event>
<event>
 6    1  0.1934315E-005  0.1936067E+04  0.7818608E-02  0.8637109E-01
         -2   -1    0    0    0  501 -0.00000000000E+00  0.00000000000E+00  0.44643318575E+03  0.44643318575E+03  0.00000000000E+00 0. -1.
          2   -1    0    0  501    0  0.00000000000E+00 -0.00000000000E+00 -0.20990575632E+04  0.20990575632E+04  0.00000000000E+00 0.  1.
         23    2    1    2    0    0 -0.87394481265E+03 -0.19414011105E+03 -0.13054183567E+04  0.15852710142E+04  0.86586280585E+02 0.  0.
         11    1    3    3    0    0 -0.50389606326E+03 -0.11313262350E+03 -0.82750085553E+03  0.97543216011E+03  0.00000000000E+00 0. -1.
        -11    1    3    3    0    0 -0.37004874938E+03 -0.81007487548E+02 -0.47791750119E+03  0.60983885405E+03  0.00000000000E+00 0.  1.
         22    1    1    2    0    0  0.87394481265E+03  0.19414011105E+03 -0.34720602074E+03  0.96021973480E+03  0.00000000000E+00 0. -1.
<mgrwt>
<rscale>  0 0.19360671E+04</rscale>
<asrwt>0</asrwt>
<pdfrwt beam="1">  1        2 0.32293193E+00 0.19360671E+04</pdfrwt>
<pdfrwt beam="2">  1       -2 0.68682029E-01 0.19360671E+04</pdfrwt>
<totfact> 0.10645094E+01</totfact>
</mgrwt>
</event>
<event>
 6    1  0.1934315E-005  0.1125859E+04  0.7818608E-02  0.9180348E-01
         -2   -1    0    0    0  501 -0.00000000000E+00  0.00000000000E+00  0.10142773376E+03  0.10142773376E+03  0.00000000000E+00 0. -1.
          2   -1    0    0  501    0  0.00000000000E+00 -0.00000000000E+00 -0.31242908991E+04  0.31242908991E+04  0.00000000000E+00 0.  1.
         23    2    1    2    0    0  0.38536880443E+02 -0.54790218419E+03 -0.18233123402E+04  0.19063990822E+04  0.90596226218E+02 0.  0.
         11    1    3    3    0    0  0.21022485999E+02 -0.50591336330E+03 -0.17301299659E+04  0.18027035183E+04  0.00000000000E+00 0.  1.
        -11    1    3    3    0    0  0.17514394445E+02 -0.41988820882E+02 -0.93182374253E+02  0.10369556386E+03  0.00000000000E+00 0. -1.
         22    1    1    2    0    0 -0.38536880443E+02  0.54790218419E+03 -0.11995508252E+04  0.13193195507E+04  0.00000000000E+00 0.  1.
<mgrwt>
<rscale>  0 0.11258592E+04</rscale>
<asrwt>0</asrwt>
<pdfrwt beam="1">  1        2 0.48066018E+00 0.11258592E+04</pdfrwt>
<pdfrwt beam="2">  1       -2 0.15604265E-01 0.11258592E+04</pdfrwt>
<totfact> 0.48234429E+01</totfact>
</mgrwt>
</event>
<event>
 6    1  0.1934315E-005  0.1403604E+04  0.7818608E-02  0.8951214E-01
          2   -1    0    0  501    0  0.00000000000E+00  0.00000000000E+00  0.33003965537E+04  0.33003965537E+04  0.00000000000E+00 0.  1.
         -2   -1    0    0    0  501 -0.00000000000E+00 -0.00000000000E+00 -0.14923242638E+03  0.14923242638E+03  0.00000000000E+00 0. -1.
         23    2    1    2    0    0 -0.47151651341E+03 -0.47485193444E+03  0.20745251062E+04  0.21819682353E+04  0.97564243255E+02 0.  0.
         13    1    3    3    0    0 -0.12859477371E+03 -0.84251594722E+02  0.39542616991E+03  0.42426030087E+03  0.00000000000E+00 0. -1.
        -13    1    3    3    0    0 -0.34292173970E+03 -0.39060033972E+03  0.16790989363E+04  0.17577079344E+04  0.00000000000E+00 0.  1.
         22    1    1    2    0    0  0.47151651341E+03  0.47485193444E+03  0.10766390211E+04  0.12676607448E+04  0.00000000000E+00 0. -1.
<mgrwt>
<rscale>  0 0.14036042E+04</rscale>
<asrwt>0</asrwt>
<pdfrwt beam="1">  1        2 0.50775326E+00 0.14036042E+04</pdfrwt>
<pdfrwt beam="2">  1       -2 0.22958837E-01 0.14036042E+04</pdfrwt>
<totfact> 0.18368836E+01</totfact>
</mgrwt>
</event>
<event>
 6    1  0.1934315E-005  0.2148745E+04  0.7818608E-02  0.8540070E-01
          2   -1    0    0  501    0  0.00000000000E+00  0.00000000000E+00  0.22269910891E+04  0.22269910891E+04  0.00000000000E+00 0.  1.
         -2   -1    0    0    0  501 -0.00000000000E+00 -0.00000000000E+00 -0.51831196391E+03  0.51831196391E+03  0.00000000000E+00 0. -1.
         23    2    1    2    0    0 -0.96042626760E+03  0.32514523865E+03  0.40948613973E+03  0.10972616533E+04  0.90367004215E+02 0.  0.
         13    1    3    3    0    0 -0.71166975932E+03  0.27273129097E+03  0.33365166127E+03  0.83197333760E+03  0.00000000000E+00 0. -1.
        -13    1    3    3    0    0 -0.24875650828E+03  0.52413947684E+02  0.75834478459E+02  0.26528831570E+03  0.00000000000E+00 0.  1.
         22    1    1    2    0    0  0.96042626760E+03 -0.32514523865E+03  0.12991929855E+04  0.16480413997E+04  0.00000000000E+00 0.  1.
<mgrwt>
<rscale>  0 0.21487449E+04</rscale>
<asrwt>0</asrwt>
<pdfrwt beam="1">  1        2 0.34261401E+00 0.21487449E+04</pdfrwt>
<pdfrwt beam="2">  1       -2 0.79740304E-01 0.21487449E+04</pdfrwt>
<totfact> 0.63722908E+00</totfact>
</mgrwt>
</event>
<event>
 6    1  0.1934315E-005  0.1156255E+04  0.7818608E-02  0.9152033E-01
          2   -1    0    0  501    0  0.00000000000E+00  0.00000000000E+00  0.82802528327E+03  0.82802528327E+03  0.00000000000E+00 0.  1.
         -2   -1    0    0    0  501 -0.00000000000E+00 -0.00000000000E+00 -0.40364852557E+03  0.40364852557E+03  0.00000000000E+00 0. -1.
         23    2    1    2    0    0 -0.23175419296E+03  0.17764312362E+03  0.74098992036E+03  0.80096395280E+03  0.84912344656E+02 0.  0.
         13    1    3    3    0    0 -0.88912260294E+02  0.37515753974E+02  0.16429196479E+03  0.19053784800E+03  0.00000000000E+00 0.  1.
        -13    1    3    3    0    0 -0.14284193267E+03  0.14012736964E+03  0.57669795557E+03  0.61042610479E+03  0.00000000000E+00 0. -1.
         22    1    1    2    0    0  0.23175419296E+03 -0.17764312362E+03 -0.31661316266E+03  0.43070985604E+03  0.00000000000E+00 0. -1.
<mgrwt>
<rscale>  0 0.11562546E+04</rscale>
<asrwt>0</asrwt>
<pdfrwt beam="1">  1        2 0.12738850E+00 0.11562546E+04</pdfrwt>
<pdfrwt beam="2">  1       -2 0.62099773E-01 0.11562546E+04</pdfrwt>
<totfact> 0.78373421E+01</totfact>
</mgrwt>
</event>
<event>
 6    1  0.1934315E-005  0.5466886E+03  0.7818608E-02  0.1002263E+00
         -2   -1    0    0    0  501 -0.00000000000E+00  0.00000000000E+00  0.48040754746E+03  0.48040754746E+03  0.00000000000E+00 0. -1.
          2   -1    0    0  501    0  0.00000000000E+00 -0.00000000000E+00 -0.15552860703E+03  0.15552860703E+03  0.00000000000E+00 0.  1.
         23    2    1    2    0    0  0.19805841817E+03  0.25692167849E+02 -0.34769931291E+02  0.22455490135E+03  0.96585356563E+02 0.  0.
         11    1    3    3    0    0  0.19623422853E+03  0.22524097720E+02 -0.81559210718E+01  0.19769098734E+03  0.00000000000E+00 0.  1.
        -11    1    3    3    0    0  0.18241896367E+01  0.31680701284E+01 -0.26614010220E+02  0.26863914014E+02  0.00000000000E+00 0. -1.
         22    1    1    2    0    0 -0.19805841817E+03 -0.25692167849E+02  0.35964887173E+03  0.41138125314E+03  0.00000000000E+00 0. -1.
<mgrwt>
<rscale>  0 0.54668864E+03</rscale>
<asrwt>0</asrwt>
<pdfrwt beam="1">  1        2 0.23927478E-01 0.54668864E+03</pdfrwt>
<pdfrwt beam="2">  1       -2 0.73908853E-01 0.54668864E+03</pdfrwt>
<totfact> 0.38410269E+02</totfact>
</mgrwt>
</event>
<event>
 6    1  0.1934315E-005  0.3485710E+04  0.7818608E-02  0.8117185E-01
         -2   -1    0    0    0  501 -0.00000000000E+00  0.00000000000E+00  0.10605737319E+04  0.10605737319E+04  0.00000000000E+00 0.  1.
          2   -1    0    0  501    0  0.00000000000E+00 -0.00000000000E+00 -0.28640563181E+04  0.28640563181E+04  0.00000000000E+00 0. -1.
         23    2    1    2    0    0  0.16226414365E+03 -0.15137716654E+04 -0.18548045381E+04  0.24013217260E+04  0.90619258626E+02 0.  0.
         13    1    3    3    0    0  0.10116086791E+03 -0.55413807703E+03 -0.70686321987E+03  0.90385736774E+03  0.00000000000E+00 0.  1.
        -13    1    3    3    0    0  0.61103275746E+02 -0.95963358836E+03 -0.11479413182E+04  0.14974643583E+04  0.00000000000E+00 0. -1.
         22    1    1    2    0    0 -0.16226414365E+03  0.15137716654E+04  0.51321951943E+02  0.15233083240E+04  0.00000000000E+00 0.  1.
<mgrwt>
<rscale>  0 0.34857096E+04</rscale>
<asrwt>0</asrwt>
<pdfrwt beam="1">  1        2 0.44062404E+00 0.34857096E+04</pdfrwt>
<pdfrwt beam="2">  1       -2 0.16316519E+00 0.34857096E+04</pdfrwt>
<totfact> 0.41496337E-01</totfact>
</mgrwt>
</event>
<event>
 6    1  0.1934315E-005  0.3569666E+04  0.7818608E-02  0.8097476E-01
          2   -1    0    0  501    0  0.00000000000E+00  0.00000000000E+00  0.37731207551E+04  0.37731207551E+04  0.00000000000E+00 0.  1.
         -2   -1    0    0    0  501 -0.00000000000E+00 -0.00000000000E+00 -0.84429548284E+03  0.84429548284E+03  0.00000000000E+00 0. -1.
         23    2    1    2    0    0  0.81369055760E+03  0.13414154637E+04  0.25629346633E+04  0.30064029830E+04  0.91307379795E+02 0.  0.
         11    1    3    3    0    0  0.12647555308E+03  0.15933235958E+03  0.30043649782E+03  0.36282909965E+03  0.00000000000E+00 0. -1.
        -11    1    3    3    0    0  0.68721500452E+03  0.11820831042E+04  0.22624981655E+04  0.26435738833E+04  0.00000000000E+00 0.  1.
         22    1    1    2    0    0 -0.81369055760E+03 -0.13414154637E+04  0.36589060889E+03  0.16110132549E+04  0.00000000000E+00 0. -1.
<mgrwt>
<rscale>  0 0.35696660E+04</rscale>
<asrwt>0</asrwt>
<pdfrwt beam="1">  1        2 0.58048011E+00 0.35696660E+04</pdfrwt>
<pdfrwt beam="2">  1       -2 0.12989161E+00 0.35696660E+04</pdfrwt>
<totfact> 0.18261455E-01</totfact>
</mgrwt>
</event>
<event>
 6    1  0.1934315E-005  0.9623600E+03  0.7818608E-02  0.9350819E-01
          1   -1    0    0  501    0  0.00000000000E+00  0.00000000000E+00  0.36225169032E+03  0.36225169032E+03  0.00000000000E+00 0.  1.
         -1   -1    0    0    0  501 -0.00000000000E+00 -0.00000000000E+00 -0.63915285536E+03  0.63915285536E+03  0.00000000000E+00 0. -1.
         23    2    1    2    0    0  0.21333414019E+03 -0.35235762452E+03  0.10590936317E+03  0.43907790445E+03  0.10911123704E+03 0.  0.
         11    1    3    3    0    0  0.13378360377E+03 -0.22331743309E+03  0.12035706356E+03  0.28680054273E+03  0.00000000000E+00 0. -1.
        -11    1    3    3    0    0  0.79550536414E+02 -0.12904019143E+03 -0.14447700391E+02  0.15227736172E+03  0.00000000000E+00 0.  1.
         22    1    1    2    0    0 -0.21333414019E+03  0.35235762452E+03 -0.38281052822E+03  0.56232664123E+03  0.00000000000E+00 0. -1.
<mgrwt>
<rscale>  0 0.96236002E+03</rscale>
<asrwt>0</asrwt>
<pdfrwt beam="1">  1        1 0.55731030E-01 0.96236002E+03</pdfrwt>
<pdfrwt beam="2">  1       -1 0.98331208E-01 0.96236002E+03</pdfrwt>
<totfact> 0.68145123E+01</totfact>
</mgrwt>
</event>
<event>
 6    1  0.1934315E-005  0.2917788E+04  0.7818608E-02  0.8267604E-01
         -2   -1    0    0    0  501 -0.00000000000E+00  0.00000000000E+00  0.68214255806E+03  0.68214255806E+03  0.00000000000E+00 0. -1.
          2   -1    0    0  501    0  0.00000000000E+00 -0.00000000000E+00 -0.31201284922E+04  0.31201284922E+04  0.00000000000E+00 0.  1.
         23    2    1    2    0    0  0.10877413628E+04 -0.44198259849E+03 -0.94394035452E+02  0.11810207995E+04  0.85848733762E+02 0.  0.
         13    1    3    3    0    0  0.37123928128E+03 -0.17060044401E+03  0.37968145217E+01  0.40857989581E+03  0.00000000000E+00 0.  1.
        -13    1    3    3    0    0  0.71650208152E+03 -0.27138215449E+03 -0.98190849974E+02  0.77244090364E+03  0.00000000000E+00 0. -1.
         22    1    1    2    0    0 -0.10877413628E+04  0.44198259849E+03 -0.23435918987E+04  0.26212502508E+04  0.00000000000E+00 0.  1.
<mgrwt>
<rscale>  0 0.29177885E+04</rscale>
<asrwt>0</asrwt>
<pdfrwt beam="1">  1        2 0.48001978E+00 0.29177885E+04</pdfrwt>
<pdfrwt beam="2">  1       -2 0.10494501E+00 0.29177885E+04</pdfrwt>
<totfact> 0.92604580E-01</totfact>
</mgrwt>
</event>
<event>
 6    1  0.1934315E-005  0.1805616E+04  0.7818608E-02  0.8703319E-01
         -4   -1    0    0    0  501 -0.00000000000E+00  0.00000000000E+00  0.79028724121E+03  0.79028724121E+03  0.00000000000E+00 0. -1.
          4   -1    0    0  501    0  0.00000000000E+00 -0.00000000000E+00 -0.10313488784E+04  0.10313488784E+04  0.00000000000E+00 0.  1.
         23    2    1    2    0    0  0.25958899533E+03  0.69254154619E+03 -0.63898929276E+03  0.98178693145E+03  0.92725524051E+02 0.  0.
         11    1    3    3    0    0  0.58759627693E+02  0.11626630777E+03 -0.72332601403E+02  0.14900521264E+03  0.00000000000E+00 0. -1.
        -11    1    3    3    0    0  0.20082936764E+03  0.57627523842E+03 -0.56665669135E+03  0.83278171881E+03  0.00000000000E+00 0.  1.
         22    1    1    2    0    0 -0.25958899533E+03 -0.69254154619E+03  0.39792765560E+03  0.83984918812E+03  0.00000000000E+00 0. -1.
<mgrwt>
<rscale>  0 0.18056155E+04</rscale>
<asrwt>0</asrwt>
<pdfrwt beam="1">  1        4 0.15866906E+00 0.18056155E+04</pdfrwt>
<pdfrwt beam="2">  1       -4 0.12158265E+00 0.18056155E+04</pdfrwt>
<totfact> 0.24762909E-01</totfact>
</mgrwt>
</event>
<event>
 6    1  0.1934315E-005  0.1060756E+04  0.7818608E-02  0.9244309E-01
          2   -1    0    0  501    0  0.00000000000E+00  0.00000000000E+00  0.81714255343E+03  0.81714255343E+03  0.00000000000E+00 0.  1.
         -2   -1    0    0    0  501 -0.00000000000E+00 -0.00000000000E+00 -0.34424957256E+03  0.34424957256E+03  0.00000000000E+00 0. -1.
         23    2    1    2    0    0  0.40574459523E+03 -0.33437161815E+03  0.20865945361E+03  0.57295996125E+03  0.91166298776E+02 0.  0.
         13    1    3    3    0    0  0.23651819666E+03 -0.25109248846E+03  0.13079940144E+03  0.36891296877E+03  0.00000000000E+00 0. -1.
        -13    1    3    3    0    0  0.16922639857E+03 -0.83279129692E+02  0.77860052166E+02  0.20404699248E+03  0.00000000000E+00 0.  1.
         22    1    1    2    0    0 -0.40574459523E+03  0.33437161815E+03  0.26423352726E+03  0.58843216475E+03  0.00000000000E+00 0. -1.
<mgrwt>
<rscale>  0 0.10607563E+04</rscale>
<asrwt>0</asrwt>
<pdfrwt beam="1">  1        2 0.12571424E+00 0.10607563E+04</pdfrwt>
<pdfrwt beam="2">  1       -2 0.52961473E-01 0.10607563E+04</pdfrwt>
<totfact> 0.11203805E+02</totfact>
</mgrwt>
</event>
<event>
 6    1  0.1934315E-005  0.1094071E+04  0.7818608E-02  0.9210990E-01
         -2   -1    0    0    0  501 -0.00000000000E+00  0.00000000000E+00  0.22167724912E+03  0.22167724912E+03  0.00000000000E+00 0. -1.
          2   -1    0    0  501    0  0.00000000000E+00 -0.00000000000E+00 -0.13499257974E+04  0.13499257974E+04  0.00000000000E+00 0.  1.
         23    2    1    2    0    0  0.10206257230E+03 -0.18931749909E+03  0.14884430932E+03  0.27652619510E+03  0.89745328744E+02 0.  0.
         11    1    3    3    0    0  0.10836957090E+03 -0.11828073623E+03  0.11626487113E+03  0.19812071250E+03  0.00000000000E+00 0. -1.
        -11    1    3    3    0    0 -0.63069986012E+01 -0.71036762865E+02  0.32579438189E+02  0.78405482605E+02  0.00000000000E+00 0.  1.
         22    1    1    2    0    0 -0.10206257230E+03  0.18931749909E+03 -0.12770928576E+04  0.12950768514E+04  0.00000000000E+00 0.  1.
<mgrwt>
<rscale>  0 0.10940710E+04</rscale>
<asrwt>0</asrwt>
<pdfrwt beam="1">  1        2 0.20768090E+00 0.10940710E+04</pdfrwt>
<pdfrwt beam="2">  1       -2 0.34104192E-01 0.10940710E+04</pdfrwt>
<totfact> 0.12351606E+02</totfact>
</mgrwt>
</event>
<event>
 6    1  0.1934315E-005  0.1088001E+04  0.7818608E-02  0.9216967E-01
         -2   -1    0    0    0  501 -0.00000000000E+00  0.00000000000E+00  0.12850816340E+03  0.12850816340E+03  0.00000000000E+00 0. -1.
          2   -1    0    0  501    0  0.00000000000E+00 -0.00000000000E+00 -0.23028598522E+04  0.23028598522E+04  0.00000000000E+00 0.  1.
         23    2    1    2    0    0 -0.52679266204E+03 -0.80379890530E+02 -0.88631571355E+03  0.10374497579E+04  0.82310512856E+02 0.  0.
         11    1    3    3    0    0 -0.43630893636E+03 -0.93928016637E+02 -0.76225079170E+03  0.88329736199E+03  0.00000000000E+00 0.  1.
        -11    1    3    3    0    0 -0.90483725684E+02  0.13548126106E+02 -0.12406492185E+03  0.15415239592E+03  0.00000000000E+00 0. -1.
         22    1    1    2    0    0  0.52679266204E+03  0.80379890530E+02 -0.12880359752E+04  0.13939182577E+04  0.00000000000E+00 0.  1.
<mgrwt>
<rscale>  0 0.10880005E+04</rscale>
<asrwt>0</asrwt>
<pdfrwt beam="1">  1        2 0.35428613E+00 0.10880005E+04</pdfrwt>
<pdfrwt beam="2">  1       -2 0.19770487E-01 0.10880005E+04</pdfrwt>
<totfact> 0.98479603E+01</totfact>
</mgrwt>
</event>
<event>
 6    1  0.1934315E-005  0.3952686E+04  0.7818608E-02  0.8014160E-01
         -2   -1    0    0    0  501 -0.00000000000E+00  0.00000000000E+00  0.32530070023E+04  0.32530070023E+04  0.00000000000E+00 0. -1.
          2   -1    0    0  501    0  0.00000000000E+00 -0.00000000000E+00 -0.12007142921E+04  0.12007142921E+04  0.00000000000E+00 0.  1.
         23    2    1    2    0    0 -0.77028729508E+03  0.97765977008E+03 -0.70156166537E+03  0.14316565921E+04  0.91053195491E+02 0.  0.
         13    1    3    3    0    0 -0.22750298921E+03  0.31686505922E+03 -0.17619072900E+03  0.42802365453E+03  0.00000000000E+00 0. -1.
        -13    1    3    3    0    0 -0.54278430587E+03  0.66079471086E+03 -0.52537093637E+03  0.10036329376E+04  0.00000000000E+00 0.  1.
         22    1    1    2    0    0  0.77028729508E+03 -0.97765977008E+03  0.27538543755E+04  0.30220647023E+04  0.00000000000E+00 0. -1.
<mgrwt>
<rscale>  0 0.39526862E+04</rscale>
<asrwt>0</asrwt>
<pdfrwt beam="1">  1        2 0.18472528E+00 0.39526862E+04</pdfrwt>
<pdfrwt beam="2">  1       -2 0.50046261E+00 0.39526862E+04</pdfrwt>
<totfact> 0.24578295E-02</totfact>
</mgrwt>
</event>
<event>
 6    1  0.2082940E-005  0.2963168E+04  0.7818608E-02  0.8254327E-01
         -2   -1    0    0    0  501 -0.00000000000E+00  0.00000000000E+00  0.16089032515E+04  0.16089032515E+04  0.00000000000E+00 0. -1.
          2   -1    0    0  501    0  0.00000000000E+00 -0.00000000000E+00 -0.13643399439E+04  0.13643399439E+04  0.00000000000E+00 0.  1.
         23    2    1    2    0    0 -0.74786142991E+03  0.84191084274E+03  0.10861343533E+04  0.15674151795E+04  0.94825767542E+02 0.  0.
         13    1    3    3    0    0 -0.24851751628E+03  0.21608034402E+03  0.30540489286E+03  0.44913674928E+03  0.00000000000E+00 0. -1.
        -13    1    3    3    0    0 -0.49934391362E+03  0.62583049872E+03  0.78072946039E+03  0.11182784302E+04  0.00000000000E+00 0.  1.
         22    1    1    2    0    0  0.74786142991E+03 -0.84191084274E+03 -0.84157104558E+03  0.14058280159E+04  0.00000000000E+00 0.  1.
<mgrwt>
<rscale>  0 0.29631679E+04</rscale>
<asrwt>0</asrwt>
<pdfrwt beam="1">  1        2 0.20989845E+00 0.29631679E+04</pdfrwt>
<pdfrwt beam="2">  1       -2 0.24752358E+00 0.29631679E+04</pdfrwt>
<totfact> 0.86695038E-01</totfact>
</mgrwt>
</event>
<event>
 6    1  0.1934315E-005  0.1747814E+04  0.7818608E-02  0.8734554E-01
         -2   -1    0    0    0  501 -0.00000000000E+00  0.00000000000E+00  0.10017540031E+04  0.10017540031E+04  0.00000000000E+00 0. -1.
          2   -1    0    0  501    0  0.00000000000E+00 -0.00000000000E+00 -0.76237666275E+03  0.76237666275E+03  0.00000000000E+00 0.  1.
         23    2    1    2    0    0  0.29495391854E+03 -0.69977406913E+03 -0.31154827958E+03  0.82594059950E+03  0.91836711109E+02 0.  0.
         11    1    3    3    0    0  0.28482441069E+03 -0.60675115667E+03 -0.25865237034E+03  0.71845177968E+03  0.00000000000E+00 0. -1.
        -11    1    3    3    0    0  0.10129507849E+02 -0.93022912458E+02 -0.52895909244E+02  0.10748881982E+03  0.00000000000E+00 0.  1.
         22    1    1    2    0    0 -0.29495391854E+03  0.69977406913E+03  0.55092561991E+03  0.93819006633E+03  0.00000000000E+00 0. -1.
<mgrwt>
<rscale>  0 0.17478145E+04</rscale>
<asrwt>0</asrwt>
<pdfrwt beam="1">  1        2 0.11728872E+00 0.17478145E+04</pdfrwt>
<pdfrwt beam="2">  1       -2 0.15411600E+00 0.17478145E+04</pdfrwt>
<totfact> 0.96959228E+00</totfact>
</mgrwt>
</event>
<event>
 6    1  0.1934315E-005  0.1876943E+04  0.7818608E-02  0.8666419E-01
          2   -1    0    0  501    0  0.00000000000E+00  0.00000000000E+00  0.77842047252E+03  0.77842047252E+03  0.00000000000E+00 0.  1.
         -2   -1    0    0    0  501 -0.00000000000E+00 -0.00000000000E+00 -0.11314302991E+04  0.11314302991E+04  0.00000000000E+00 0. -1.
         23    2    1    2    0    0 -0.52717487664E+03  0.33480015269E+03 -0.88608373152E+03  0.10887708236E+04  0.10135597832E+03 0.  0.
         13    1    3    3    0    0 -0.34416418799E+03  0.24333100943E+03 -0.51977075507E+03  0.66919399749E+03  0.00000000000E+00 0.  1.
        -13    1    3    3    0    0 -0.18301068865E+03  0.91469143260E+02 -0.36631297645E+03  0.41957682615E+03  0.00000000000E+00 0. -1.
         22    1    1    2    0    0  0.52717487664E+03 -0.33480015269E+03  0.53307390496E+03  0.82107994797E+03  0.00000000000E+00 0.  1.
<mgrwt>
<rscale>  0 0.18769427E+04</rscale>
<asrwt>0</asrwt>
<pdfrwt beam="1">  1        2 0.11975700E+00 0.18769427E+04</pdfrwt>
<pdfrwt beam="2">  1       -2 0.17406620E+00 0.18769427E+04</pdfrwt>
<totfact> 0.66814527E+00</totfact>
</mgrwt>
</event>
<event>
 6    1  0.4013641E-005  0.4548696E+04  0.7818608E-02  0.7902167E-01
          2   -1    0    0  501    0  0.00000000000E+00  0.00000000000E+00  0.27703634922E+04  0.27703634922E+04  0.00000000000E+00 0.  1.
         -2   -1    0    0    0  501 -0.00000000000E+00 -0.00000000000E+00 -0.18671411688E+04  0.18671411688E+04  0.00000000000E+00 0. -1.
         23    2    1    2    0    0 -0.35105958774E+03  0.16606502453E+03  0.27355246554E+04  0.27644984511E+04  0.92391120671E+02 0.  0.
         11    1    3    3    0    0 -0.23481001971E+03  0.15704938674E+03  0.19650875542E+04  0.19852882287E+04  0.00000000000E+00 0. -1.
        -11    1    3    3    0    0 -0.11624956804E+03  0.90156377908E+01  0.77043710119E+03  0.77921022240E+03  0.00000000000E+00 0.  1.
         22    1    1    2    0    0  0.35105958774E+03 -0.16606502453E+03 -0.18323023320E+04  0.18730062099E+04  0.00000000000E+00 0. -1.
<mgrwt>
<rscale>  0 0.45486964E+04</rscale>
<asrwt>0</asrwt>
<pdfrwt beam="1">  1        2 0.42620977E+00 0.45486964E+04</pdfrwt>
<pdfrwt beam="2">  1       -2 0.28725249E+00 0.45486964E+04</pdfrwt>
<totfact> 0.69156464E-02</totfact>
</mgrwt>
</event>
<event>
 6    1  0.1934315E-005  0.3553329E+04  0.7818608E-02  0.8101267E-01
          2   -1    0    0  501    0  0.00000000000E+00  0.00000000000E+00  0.29955422099E+04  0.29955422099E+04  0.00000000000E+00 0.  1.
         -2   -1    0    0    0  501 -0.00000000000E+00 -0.00000000000E+00 -0.10537448863E+04  0.10537448863E+04  0.00000000000E+00 0. -1.
         23    2    1    2    0    0 -0.86398884652E+03 -0.15493740759E+04  0.88519769172E+03  0.19844772899E+04  0.86823999172E+02 0.  0.
         11    1    3    3    0    0 -0.82481854413E+03 -0.14864910313E+04  0.86640546688E+03  0.19080460293E+04  0.00000000000E+00 0. -1.
        -11    1    3    3    0    0 -0.39170302385E+02 -0.62883044592E+02  0.18792224844E+02  0.76431260625E+02  0.00000000000E+00 0.  1.
         22    1    1    2    0    0  0.86398884652E+03  0.15493740759E+04  0.10565996319E+04  0.20648098063E+04  0.00000000000E+00 0. -1.
<mgrwt>
<rscale>  0 0.35533293E+04</rscale>
<asrwt>0</asrwt>
<pdfrwt beam="1">  1        2 0.46085264E+00 0.35533293E+04</pdfrwt>
<pdfrwt beam="2">  1       -2 0.16211460E+00 0.35533293E+04</pdfrwt>
<totfact> 0.34817229E-01</totfact>
</mgrwt>
</event>
<event>
 6    1  0.1934315E-005  0.3641414E+04  0.7818608E-02  0.8081071E-01
          2   -1    0    0  501    0  0.00000000000E+00  0.00000000000E+00  0.36497648412E+04  0.36497648412E+04  0.00000000000E+00 0.  1.
         -2   -1    0    0    0  501 -0.00000000000E+00 -0.00000000000E+00 -0.90827068081E+03  0.90827068081E+03  0.00000000000E+00 0. -1.
         23    2    1    2    0    0  0.12358521925E+04 -0.12552293662E+04  0.19422592689E+04  0.26236860667E+04  0.91793819964E+02 0.  0.
         11    1    3    3    0    0  0.73268422058E+03 -0.68192842596E+03  0.11210972186E+04  0.15029010343E+04  0.00000000000E+00 0. -1.
        -11    1    3    3    0    0  0.50316797192E+03 -0.57330094027E+03  0.82116205027E+03  0.11207850324E+04  0.00000000000E+00 0.  1.
         22    1    1    2    0    0 -0.12358521925E+04  0.12552293662E+04  0.79923489152E+03  0.19343494553E+04  0.00000000000E+00 0. -1.
<mgrwt>
<rscale>  0 0.36414142E+04</rscale>
<asrwt>0</asrwt>
<pdfrwt beam="1">  1        2 0.56150227E+00 0.36414142E+04</pdfrwt>
<pdfrwt beam="2">  1       -2 0.13973395E+00 0.36414142E+04</pdfrwt>
<totfact> 0.18591486E-01</totfact>
</mgrwt>
</event>
<event>
 6    1  0.1934315E-005  0.2767442E+04  0.7818608E-02  0.8313448E-01
         -2   -1    0    0    0  501 -0.00000000000E+00  0.00000000000E+00  0.10453089864E+04  0.10453089864E+04  0.00000000000E+00 0. -1.
          2   -1    0    0  501    0  0.00000000000E+00 -0.00000000000E+00 -0.18316920120E+04  0.18316920120E+04  0.00000000000E+00 0.  1.
         23    2    1    2    0    0 -0.10079290341E+04 -0.16911633720E+03 -0.13600263041E+04  0.17049993413E+04  0.11326929353E+03 0.  0.
         13    1    3    3    0    0 -0.64102643147E+03 -0.56708963323E+02 -0.88820689612E+03  0.10968328417E+04  0.00000000000E+00 0. -1.
        -13    1    3    3    0    0 -0.36690260259E+03 -0.11240737388E+03 -0.47181940795E+03  0.60816649957E+03  0.00000000000E+00 0.  1.
         22    1    1    2    0    0  0.10079290341E+04  0.16911633720E+03  0.57364327851E+03  0.11720016571E+04  0.00000000000E+00 0. -1.
<mgrwt>
<rscale>  0 0.27674422E+04</rscale>
<asrwt>0</asrwt>
<pdfrwt beam="1">  1        2 0.28179877E+00 0.27674422E+04</pdfrwt>
<pdfrwt beam="2">  1       -2 0.16081677E+00 0.27674422E+04</pdfrwt>
<totfact> 0.17961825E+00</totfact>
</mgrwt>
</event>
<event>
 6    1  0.1934315E-005  0.6558860E+03  0.7818608E-02  0.9795797E-01
         -3   -1    0    0    0  501 -0.00000000000E+00  0.00000000000E+00  0.14412455907E+04  0.14412455907E+04  0.00000000000E+00 0. -1.
          3   -1    0    0  501    0  0.00000000000E+00 -0.00000000000E+00 -0.74620598748E+02  0.74620598748E+02  0.00000000000E+00 0.  1.
         23    2    1    2    0    0  0.22225868086E+02  0.16841399210E+03  0.13273204426E+04  0.13415041823E+04  0.94850681883E+02 0.  0.
         13    1    3    3    0    0 -0.84606452071E+01  0.83258681123E+02  0.34428302830E+03  0.35430833193E+03  0.00000000000E+00 0.  1.
        -13    1    3    3    0    0  0.30686513293E+02  0.85155310973E+02  0.98303741429E+03  0.98719585037E+03  0.00000000000E+00 0. -1.
         22    1    1    2    0    0 -0.22225868086E+02 -0.16841399210E+03  0.39304549393E+02  0.17436200718E+03  0.00000000000E+00 0.  1.
<mgrwt>
<rscale>  0 0.65588599E+03</rscale>
<asrwt>0</asrwt>
<pdfrwt beam="1">  1        3 0.11480093E-01 0.65588599E+03</pdfrwt>
<pdfrwt beam="2">  1       -3 0.22173007E+00 0.65588599E+03</pdfrwt>
<totfact> 0.17482638E+01</totfact>
</mgrwt>
</event>
<event>
 6    1  0.1934315E-005  0.3878060E+04  0.7818608E-02  0.8029608E-01
          2   -1    0    0  501    0  0.00000000000E+00  0.00000000000E+00  0.12042697429E+04  0.12042697429E+04  0.00000000000E+00 0. -1.
         -2   -1    0    0    0  501 -0.00000000000E+00 -0.00000000000E+00 -0.31220896093E+04  0.31220896093E+04  0.00000000000E+00 0.  1.
         23    2    1    2    0    0  0.18380483902E+04  0.60358610874E+03 -0.10862474991E+04  0.22205932974E+04  0.91448826461E+02 0.  0.
         11    1    3    3    0    0  0.14680803923E+04  0.44614389473E+03 -0.87713819276E+03  0.17673923793E+04  0.00000000000E+00 0. -1.
        -11    1    3    3    0    0  0.36996799787E+03  0.15744221402E+03 -0.20910930631E+03  0.45320091812E+03  0.00000000000E+00 0.  1.
         22    1    1    2    0    0 -0.18380483902E+04 -0.60358610874E+03 -0.83157236737E+03  0.21057660548E+04  0.00000000000E+00 0. -1.
<mgrwt>
<rscale>  0 0.38780604E+04</rscale>
<asrwt>0</asrwt>
<pdfrwt beam="1">  1        2 0.18527227E+00 0.38780604E+04</pdfrwt>
<pdfrwt beam="2">  1       -2 0.48032148E+00 0.38780604E+04</pdfrwt>
<totfact> 0.32976745E-02</totfact>
</mgrwt>
</event>
<event>
 6    1  0.1934315E-005  0.1771573E+04  0.7818608E-02  0.8721564E-01
          2   -1    0    0  501    0  0.00000000000E+00  0.00000000000E+00  0.31689608810E+04  0.31689608810E+04  0.00000000000E+00 0.  1.
         -2   -1    0    0    0  501 -0.00000000000E+00 -0.00000000000E+00 -0.24759464806E+03  0.24759464806E+03  0.00000000000E+00 0. -1.
         23    2    1    2    0    0  0.75702812205E+03  0.42395977813E+03  0.11451594662E+04  0.14397540850E+04  0.93102906524E+02 0.  0.
         13    1    3    3    0    0  0.43099391857E+03  0.19066243689E+03  0.64179721942E+03  0.79624844963E+03  0.00000000000E+00 0.  1.
        -13    1    3    3    0    0  0.32603420348E+03  0.23329734124E+03  0.50336224675E+03  0.64350563534E+03  0.00000000000E+00 0. -1.
         22    1    1    2    0    0 -0.75702812205E+03 -0.42395977813E+03  0.17762067668E+04  0.19768014441E+04  0.00000000000E+00 0.  1.
<mgrwt>
<rscale>  0 0.17715730E+04</rscale>
<asrwt>0</asrwt>
<pdfrwt beam="1">  1        2 0.48753242E+00 0.17715730E+04</pdfrwt>
<pdfrwt beam="2">  1       -2 0.38091486E-01 0.17715730E+04</pdfrwt>
<totfact> 0.84095465E+00</totfact>
</mgrwt>
</event>
<event>
 6    1  0.1934315E-005  0.5000154E+04  0.7818608E-02  0.7828484E-01
          2   -1    0    0  501    0  0.00000000000E+00  0.00000000000E+00  0.31119594326E+04  0.31119594326E+04  0.00000000000E+00 0.  1.
         -2   -1    0    0    0  501 -0.00000000000E+00 -0.00000000000E+00 -0.20085043687E+04  0.20085043687E+04  0.00000000000E+00 0. -1.
         23    2    1    2    0    0 -0.10765962555E+04 -0.18014479578E+04  0.19416897401E+04  0.28606161042E+04  0.93226643184E+02 0.  0.
         11    1    3    3    0    0 -0.81574699908E+02 -0.10392589103E+03  0.14371218857E+03  0.19521325681E+03  0.00000000000E+00 0. -1.
        -11    1    3    3    0    0 -0.99502155560E+03 -0.16975220667E+04  0.17979775515E+04  0.26654028474E+04  0.00000000000E+00 0.  1.
         22    1    1    2    0    0  0.10765962555E+04  0.18014479578E+04 -0.83823467619E+03  0.22598476971E+04  0.00000000000E+00 0. -1.
<mgrwt>
<rscale>  0 0.50001536E+04</rscale>
<asrwt>0</asrwt>
<pdfrwt beam="1">  1        2 0.47876299E+00 0.50001536E+04</pdfrwt>
<pdfrwt beam="2">  1       -2 0.30900067E+00 0.50001536E+04</pdfrwt>
<totfact> 0.30104682E-02</totfact>
</mgrwt>
</event>
<event>
 6    1  0.1934315E-005  0.2767524E+04  0.7818608E-02  0.8313422E-01
          2   -1    0    0  501    0  0.00000000000E+00  0.00000000000E+00  0.19151982837E+04  0.19151982837E+04  0.00000000000E+00 0.  1.
         -2   -1    0    0    0  501 -0.00000000000E+00 -0.00000000000E+00 -0.99979048104E+03  0.99979048104E+03  0.00000000000E+00 0. -1.
         23    2    1    2    0    0 -0.34294160279E+03 -0.37959752122E+03 -0.89441229313E+03  0.10342569922E+04  0.89503937332E+02 0.  0.
         11    1    3    3    0    0 -0.11501997278E+03 -0.71263241775E+02 -0.21190472673E+03  0.25141928521E+03  0.00000000000E+00 0. -1.
        -11    1    3    3    0    0 -0.22792163002E+03 -0.30833427945E+03 -0.68250756640E+03  0.78283770701E+03  0.00000000000E+00 0.  1.
         22    1    1    2    0    0  0.34294160279E+03  0.37959752122E+03  0.18098200958E+04  0.18807317725E+04  0.00000000000E+00 0.  1.
<mgrwt>
<rscale>  0 0.27675238E+04</rscale>
<asrwt>0</asrwt>
<pdfrwt beam="1">  1        2 0.29464589E+00 0.27675238E+04</pdfrwt>
<pdfrwt beam="2">  1       -2 0.15381392E+00 0.27675238E+04</pdfrwt>
<totfact> 0.18210134E+00</totfact>
</mgrwt>
</event>
<event>
 6    1  0.1934315E-005  0.1191987E+04  0.7818608E-02  0.9119900E-01
          2   -1    0    0  501    0  0.00000000000E+00  0.00000000000E+00  0.24236185114E+03  0.24236185114E+03  0.00000000000E+00 0.  1.
         -2   -1    0    0    0  501 -0.00000000000E+00 -0.00000000000E+00 -0.14656101469E+04  0.14656101469E+04  0.00000000000E+00 0. -1.
         23    2    1    2    0    0 -0.40262290940E+02 -0.10417053241E+03 -0.14489656123E+04  0.14561370145E+04  0.91439092387E+02 0.  0.
         11    1    3    3    0    0 -0.63745342865E+02 -0.45289646647E+02 -0.65663674007E+03  0.66127636374E+03  0.00000000000E+00 0.  1.
        -11    1    3    3    0    0  0.23483051925E+02 -0.58880885767E+02 -0.79232887222E+03  0.79486065080E+03  0.00000000000E+00 0. -1.
         22    1    1    2    0    0  0.40262290940E+02  0.10417053241E+03  0.22571731657E+03  0.25183498346E+03  0.00000000000E+00 0.  1.
<mgrwt>
<rscale>  0 0.11919866E+04</rscale>
<asrwt>0</asrwt>
<pdfrwt beam="1">  1        2 0.37286440E-01 0.11919866E+04</pdfrwt>
<pdfrwt beam="2">  1       -2 0.22547848E+00 0.11919866E+04</pdfrwt>
<totfact> 0.12567989E+01</totfact>
</mgrwt>
</event>
<event>
 6    1  0.1934315E-005  0.2271314E+04  0.7818608E-02  0.8489318E-01
          2   -1    0    0  501    0  0.00000000000E+00  0.00000000000E+00  0.10144567629E+04  0.10144567629E+04  0.00000000000E+00 0.  1.
         -2   -1    0    0    0  501 -0.00000000000E+00 -0.00000000000E+00 -0.12713375651E+04  0.12713375651E+04  0.00000000000E+00 0. -1.
         23    2    1    2    0    0 -0.44035379070E+03 -0.94501029504E+03 -0.57685227441E+03  0.11952267410E+04  0.94087710345E+02 0.  0.
         13    1    3    3    0    0 -0.16324281825E+03 -0.45301261747E+03 -0.24517585043E+03  0.54035159566E+03  0.00000000000E+00 0.  1.
        -13    1    3    3    0    0 -0.27711097244E+03 -0.49199767758E+03 -0.33167642398E+03  0.65487514536E+03  0.00000000000E+00 0. -1.
         22    1    1    2    0    0  0.44035379070E+03  0.94501029504E+03  0.31997147230E+03  0.10905675870E+04  0.00000000000E+00 0.  1.
<mgrwt>
<rscale>  0 0.22713141E+04</rscale>
<asrwt>0</asrwt>
<pdfrwt beam="1">  1        2 0.15607027E+00 0.22713141E+04</pdfrwt>
<pdfrwt beam="2">  1       -2 0.19559039E+00 0.22713141E+04</pdfrwt>
<totfact> 0.31860829E+00</totfact>
</mgrwt>
</event>
<event>
 6    1  0.1934315E-005  0.3503478E+04  0.7818608E-02  0.8112966E-01
          2   -1    0    0  501    0  0.00000000000E+00  0.00000000000E+00  0.36511637355E+04  0.36511637355E+04  0.00000000000E+00 0. -1.
         -2   -1    0    0    0  501 -0.00000000000E+00 -0.00000000000E+00 -0.84044132631E+03  0.84044132631E+03  0.00000000000E+00 0.  1.
         23    2    1    2    0    0  0.52736569996E+03  0.10455075728E+04  0.30745381635E+04  0.32912720170E+04  0.92118968516E+02 0.  0.
         13    1    3    3    0    0  0.20265112968E+03  0.44692909422E+03  0.11750005249E+04  0.12733575025E+04  0.00000000000E+00 0. -1.
        -13    1    3    3    0    0  0.32471457028E+03  0.59857847863E+03  0.18995376386E+04  0.20179145144E+04  0.00000000000E+00 0.  1.
         22    1    1    2    0    0 -0.52736569996E+03 -0.10455075728E+04 -0.26381575431E+03  0.12003330449E+04  0.00000000000E+00 0.  1.
<mgrwt>
<rscale>  0 0.35034776E+04</rscale>
<asrwt>0</asrwt>
<pdfrwt beam="1">  1        2 0.56171749E+00 0.35034776E+04</pdfrwt>
<pdfrwt beam="2">  1       -2 0.12929867E+00 0.35034776E+04</pdfrwt>
<totfact> 0.22885005E-01</totfact>
</mgrwt>
</event>
<event>
 6    1  0.1934315E-005  0.3262040E+04  0.7818608E-02  0.8172622E-01
          2   -1    0    0  501    0  0.00000000000E+00  0.00000000000E+00  0.19085523373E+04  0.19085523373E+04  0.00000000000E+00 0.  1.
         -2   -1    0    0    0  501 -0.00000000000E+00 -0.00000000000E+00 -0.13938452946E+04  0.13938452946E+04  0.00000000000E+00 0. -1.
         23    2    1    2    0    0  0.52878876789E+03 -0.58634358760E+03 -0.11865296929E+04  0.14268649624E+04  0.68370642610E+02 0.  0.
         11    1    3    3    0    0  0.46542418656E+03 -0.52406561081E+03 -0.10119517717E+04  0.12309796205E+04  0.00000000000E+00 0. -1.
        -11    1    3    3    0    0  0.63364581333E+02 -0.62277976793E+02 -0.17457792125E+03  0.19588534184E+03  0.00000000000E+00 0.  1.
         22    1    1    2    0    0 -0.52878876789E+03  0.58634358760E+03  0.17012367357E+04  0.18755326696E+04  0.00000000000E+00 0.  1.
<mgrwt>
<rscale>  0 0.32620403E+04</rscale>
<asrwt>0</asrwt>
<pdfrwt beam="1">  1        2 0.29362344E+00 0.32620403E+04</pdfrwt>
<pdfrwt beam="2">  1       -2 0.21443774E+00 0.32620403E+04</pdfrwt>
<totfact> 0.67483714E-01</totfact>
</mgrwt>
</event>
<event>
 6    1  0.1934315E-005  0.4221469E+04  0.7818608E-02  0.7961301E-01
          2   -1    0    0  501    0  0.00000000000E+00  0.00000000000E+00  0.20613121638E+04  0.20613121638E+04  0.00000000000E+00 0.  1.
         -2   -1    0    0    0  501 -0.00000000000E+00 -0.00000000000E+00 -0.21613413898E+04  0.21613413898E+04  0.00000000000E+00 0. -1.
         23    2    1    2    0    0 -0.65911041273E+03  0.96757773224E+03  0.17055584707E+04  0.20707288024E+04  0.91404988310E+02 0.  0.
         13    1    3    3    0    0 -0.30531543534E+03  0.46252746481E+03  0.72836482213E+03  0.91524012416E+03  0.00000000000E+00 0. -1.
        -13    1    3    3    0    0 -0.35379497739E+03  0.50505026743E+03  0.97719364858E+03  0.11554886782E+04  0.00000000000E+00 0.  1.
         22    1    1    2    0    0  0.65911041273E+03 -0.96757773224E+03 -0.18055876968E+04  0.21519247512E+04  0.00000000000E+00 0. -1.
<mgrwt>
<rscale>  0 0.42214686E+04</rscale>
<asrwt>0</asrwt>
<pdfrwt beam="1">  1        2 0.31712495E+00 0.42214686E+04</pdfrwt>
<pdfrwt beam="2">  1       -2 0.33251406E+00 0.42214686E+04</pdfrwt>
<totfact> 0.95822692E-02</totfact>
</mgrwt>
</event>
<event>
 6    1  0.1934315E-005  0.1270109E+04  0.7818608E-02  0.9053611E-01
         -2   -1    0    0    0  501 -0.00000000000E+00  0.00000000000E+00  0.75974420946E+03  0.75974420946E+03  0.00000000000E+00 0. -1.
          2   -1    0    0  501    0  0.00000000000E+00 -0.00000000000E+00 -0.53082878844E+03  0.53082878844E+03  0.00000000000E+00 0.  1.
         23    2    1    2    0    0  0.39054402107E+03  0.39324793890E+03 -0.19425575571E+03  0.59326214996E+03  0.84000631568E+02 0.  0.
         13    1    3    3    0    0  0.44324095134E+02  0.60979055179E+02 -0.55896930020E+02  0.93848480891E+02  0.00000000000E+00 0. -1.
        -13    1    3    3    0    0  0.34621992594E+03  0.33226888372E+03 -0.13835882569E+03  0.49941366907E+03  0.00000000000E+00 0.  1.
         22    1    1    2    0    0 -0.39054402107E+03 -0.39324793890E+03  0.42317117672E+03  0.69731084794E+03  0.00000000000E+00 0. -1.
<mgrwt>
<rscale>  0 0.12701088E+04</rscale>
<asrwt>0</asrwt>
<pdfrwt beam="1">  1        2 0.81665967E-01 0.12701088E+04</pdfrwt>
<pdfrwt beam="2">  1       -2 0.11688372E+00 0.12701088E+04</pdfrwt>
<totfact> 0.31946307E+01</totfact>
</mgrwt>
</event>
<event>
 6    1  0.1934315E-005  0.8531631E+03  0.7818608E-02  0.9486101E-01
          2   -1    0    0  501    0  0.00000000000E+00  0.00000000000E+00  0.85637253526E+03  0.85637253526E+03  0.00000000000E+00 0.  1.
         -2   -1    0    0    0  501 -0.00000000000E+00 -0.00000000000E+00 -0.21249142553E+03  0.21249142553E+03  0.00000000000E+00 0. -1.
         23    2    1    2    0    0 -0.25025276147E+03 -0.84761744215E+02 -0.85984433095E+02  0.29264575144E+03  0.91854315083E+02 0.  0.
         13    1    3    3    0    0 -0.13807920430E+03 -0.10443343061E+02 -0.75400630024E+02  0.15767112951E+03  0.00000000000E+00 0.  1.
        -13    1    3    3    0    0 -0.11217355717E+03 -0.74318401154E+02 -0.10583803071E+02  0.13497462193E+03  0.00000000000E+00 0. -1.
         22    1    1    2    0    0  0.25025276147E+03  0.84761744215E+02  0.72986554283E+03  0.77621820934E+03  0.00000000000E+00 0.  1.
<mgrwt>
<rscale>  0 0.85316310E+03</rscale>
<asrwt>0</asrwt>
<pdfrwt beam="1">  1        2 0.13174962E+00 0.85316310E+03</pdfrwt>
<pdfrwt beam="2">  1       -2 0.32690989E-01 0.85316310E+03</pdfrwt>
<totfact> 0.27492997E+02</totfact>
</mgrwt>
</event>
<event>
 6    1  0.1934315E-005  0.3974451E+04  0.7818608E-02  0.8009720E-01
         -2   -1    0    0    0  501 -0.00000000000E+00  0.00000000000E+00  0.15195258463E+04  0.15195258463E+04  0.00000000000E+00 0. -1.
          2   -1    0    0  501    0  0.00000000000E+00 -0.00000000000E+00 -0.25988803325E+04  0.25988803325E+04  0.00000000000E+00 0.  1.
         23    2    1    2    0    0  0.14969639333E+04 -0.85965152792E+02  0.80978059257E+03  0.17065350441E+04  0.90698530398E+02 0.  0.
         13    1    3    3    0    0  0.28437057070E+03  0.10753352135E+02  0.12769840437E+03  0.31191206860E+03  0.00000000000E+00 0.  1.
        -13    1    3    3    0    0  0.12125933626E+04 -0.96718504927E+02  0.68208218820E+03  0.13946229755E+04  0.00000000000E+00 0. -1.
         22    1    1    2    0    0 -0.14969639333E+04  0.85965152792E+02 -0.18891350788E+04  0.24118711348E+04  0.00000000000E+00 0.  1.
<mgrwt>
<rscale>  0 0.39744513E+04</rscale>
<asrwt>0</asrwt>
<pdfrwt beam="1">  1        2 0.39982774E+00 0.39744513E+04</pdfrwt>
<pdfrwt beam="2">  1       -2 0.23377321E+00 0.39744513E+04</pdfrwt>
<totfact> 0.19509545E-01</totfact>
</mgrwt>
</event>
<event>
 6    1  0.1934315E-005  0.1836585E+04  0.7818608E-02  0.8687082E-01
         -2   -1    0    0    0  501 -0.00000000000E+00  0.00000000000E+00  0.11766556701E+04  0.11766556701E+04  0.00000000000E+00 0. -1.
          2   -1    0    0  501    0  0.00000000000E+00 -0.00000000000E+00 -0.71665950819E+03  0.71665950819E+03  0.00000000000E+00 0.  1.
         23    2    1    2    0    0  0.70996534344E+03 -0.83442649973E+02 -0.35989943236E+03  0.80554578627E+03  0.91449153309E+02 0.  0.
         11    1    3    3    0    0  0.48308489477E+03 -0.46957074362E+02 -0.19675000733E+03  0.52372373229E+03  0.00000000000E+00 0. -1.
        -11    1    3    3    0    0  0.22688044867E+03 -0.36485575611E+02 -0.16314942503E+03  0.28182205397E+03  0.00000000000E+00 0.  1.
         22    1    1    2    0    0 -0.70996534344E+03  0.83442649973E+02  0.81989559429E+03  0.10877693920E+04  0.00000000000E+00 0. -1.
<mgrwt>
<rscale>  0 0.18365854E+04</rscale>
<asrwt>0</asrwt>
<pdfrwt beam="1">  1        2 0.11025531E+00 0.18365854E+04</pdfrwt>
<pdfrwt beam="2">  1       -2 0.18102395E+00 0.18365854E+04</pdfrwt>
<totfact> 0.66729663E+00</totfact>
</mgrwt>
</event>
<event>
 6    1  0.1934315E-005  0.1759219E+04  0.7818608E-02  0.8728292E-01
          2   -1    0    0  501    0  0.00000000000E+00  0.00000000000E+00  0.28815903651E+04  0.28815903651E+04  0.00000000000E+00 0.  1.
         -2   -1    0    0    0  501 -0.00000000000E+00 -0.00000000000E+00 -0.26850191495E+03  0.26850191495E+03  0.00000000000E+00 0. -1.
         23    2    1    2    0    0 -0.85923437925E+03 -0.74163326941E+02  0.10248359129E+04  0.13427931793E+04  0.94978715661E+02 0.  0.
         13    1    3    3    0    0 -0.22296694777E+03  0.14146252578E+01  0.21085323950E+03  0.30688002471E+03  0.00000000000E+00 0.  1.
        -13    1    3    3    0    0 -0.63626743148E+03 -0.75577952199E+02  0.81398267341E+03  0.10359131546E+04  0.00000000000E+00 0. -1.
         22    1    1    2    0    0  0.85923437925E+03  0.74163326941E+02  0.15882525373E+04  0.18072991008E+04  0.00000000000E+00 0. -1.
<mgrwt>
<rscale>  0 0.17592186E+04</rscale>
<asrwt>0</asrwt>
<pdfrwt beam="1">  1        2 0.44332157E+00 0.17592186E+04</pdfrwt>
<pdfrwt beam="2">  1       -2 0.41307989E-01 0.17592186E+04</pdfrwt>
<totfact> 0.10880099E+01</totfact>
</mgrwt>
</event>
<event>
 6    1  0.1934315E-005  0.2465898E+04  0.7818608E-02  0.8415236E-01
         -2   -1    0    0    0  501 -0.00000000000E+00  0.00000000000E+00  0.10836195856E+04  0.10836195856E+04  0.00000000000E+00 0. -1.
          2   -1    0    0  501    0  0.00000000000E+00 -0.00000000000E+00 -0.14028574704E+04  0.14028574704E+04  0.00000000000E+00 0.  1.
         23    2    1    2    0    0  0.95271938585E+03 -0.76321163814E+03  0.49882047352E+00  0.12245746059E+04  0.97038569245E+02 0.  0.
         13    1    3    3    0    0  0.28072018279E+03 -0.21488837396E+03  0.43490205860E+02  0.35619128610E+03  0.00000000000E+00 0. -1.
        -13    1    3    3    0    0  0.67199920306E+03 -0.54832326418E+03 -0.42991385387E+02  0.86838331984E+03  0.00000000000E+00 0.  1.
         22    1    1    2    0    0 -0.95271938585E+03  0.76321163814E+03 -0.31973670531E+03  0.12619024501E+04  0.00000000000E+00 0.  1.
<mgrwt>
<rscale>  0 0.24658985E+04</rscale>
<asrwt>0</asrwt>
<pdfrwt beam="1">  1        2 0.21582423E+00 0.24658985E+04</pdfrwt>
<pdfrwt beam="2">  1       -2 0.16671071E+00 0.24658985E+04</pdfrwt>
<totfact> 0.29016568E+00</totfact>
</mgrwt>
</event>
<event>
 6    1  0.1934315E-005  0.1787928E+04  0.7818608E-02  0.8712746E-01
         -2   -1    0    0    0  501 -0.00000000000E+00  0.00000000000E+00  0.85550753676E+03  0.85550753676E+03  0.00000000000E+00 0.  1.
          2   -1    0    0  501    0  0.00000000000E+00 -0.00000000000E+00 -0.93414911184E+03  0.93414911184E+03  0.00000000000E+00 0. -1.
         23    2    1    2    0    0 -0.70848288879E+03  0.29903043656E+03  0.41316544128E+03  0.87683610379E+03  0.82271898856E+02 0.  0.
         13    1    3    3    0    0 -0.56327698214E+03  0.20273725618E+03  0.33315974384E+03  0.68511223064E+03  0.00000000000E+00 0. -1.
        -13    1    3    3    0    0 -0.14520590665E+03  0.96293180379E+02  0.80005697447E+02  0.19172387315E+03  0.00000000000E+00 0.  1.
         22    1    1    2    0    0  0.70848288879E+03 -0.29903043656E+03 -0.49180701636E+03  0.91282054481E+03  0.00000000000E+00 0. -1.
<mgrwt>
<rscale>  0 0.17879280E+04</rscale>
<asrwt>0</asrwt>
<pdfrwt beam="1">  1        2 0.14371525E+00 0.17879280E+04</pdfrwt>
<pdfrwt beam="2">  1       -2 0.13161654E+00 0.17879280E+04</pdfrwt>
<totfact> 0.11061785E+01</totfact>
</mgrwt>
</event>
<event>
 6    1  0.1934315E-005  0.8672161E+03  0.7818608E-02  0.9467517E-01
         -2   -1    0    0    0  501 -0.00000000000E+00  0.00000000000E+00  0.82535860615E+02  0.82535860615E+02  0.00000000000E+00 0. -1.
          2   -1    0    0  501    0  0.00000000000E+00 -0.00000000000E+00 -0.22779907047E+04  0.22779907047E+04  0.00000000000E+00 0.  1.
         23    2    1    2    0    0  0.63200042051E+02 -0.34880522559E+03 -0.17672176246E+04  0.18046071046E+04  0.88821947503E+02 0.  0.
         11    1    3    3    0    0  0.63863750011E+02 -0.35368738571E+03 -0.17210313347E+04  0.17581587529E+04  0.00000000000E+00 0.  1.
        -11    1    3    3    0    0 -0.66370795979E+00  0.48821601212E+01 -0.46186289939E+02  0.46448351682E+02  0.00000000000E+00 0. -1.
         22    1    1    2    0    0 -0.63200042051E+02  0.34880522559E+03 -0.42823721949E+03  0.55591946078E+03  0.00000000000E+00 0. -1.
<mgrwt>
<rscale>  0 0.86721606E+03</rscale>
<asrwt>0</asrwt>
<pdfrwt beam="1">  1        2 0.35046009E+00 0.86721606E+03</pdfrwt>
<pdfrwt beam="2">  1       -2 0.12697825E-01 0.86721606E+03</pdfrwt>
<totfact> 0.22066491E+02</totfact>
</mgrwt>
</event>
<event>
 6    1  0.1934315E-005  0.2389885E+04  0.7818608E-02  0.8443300E-01
         -2   -1    0    0    0  501 -0.00000000000E+00  0.00000000000E+00  0.75554697329E+03  0.75554697329E+03  0.00000000000E+00 0. -1.
          2   -1    0    0  501    0  0.00000000000E+00 -0.00000000000E+00 -0.18898733793E+04  0.18898733793E+04  0.00000000000E+00 0.  1.
         23    2    1    2    0    0 -0.25109021215E+03  0.82531835408E+03 -0.14805340352E+04  0.17158740102E+04  0.89698992254E+02 0.  0.
         11    1    3    3    0    0 -0.68988037585E+02  0.28811724423E+03 -0.43350125641E+03  0.52506593401E+03  0.00000000000E+00 0. -1.
        -11    1    3    3    0    0 -0.18210217457E+03  0.53720110985E+03 -0.10470327788E+04  0.11908080762E+04  0.00000000000E+00 0.  1.
         22    1    1    2    0    0  0.25109021215E+03 -0.82531835408E+03  0.34620762917E+03  0.92954634242E+03  0.00000000000E+00 0. -1.
<mgrwt>
<rscale>  0 0.23898854E+04</rscale>
<asrwt>0</asrwt>
<pdfrwt beam="1">  1        2 0.29074975E+00 0.23898854E+04</pdfrwt>
<pdfrwt beam="2">  1       -2 0.11623800E+00 0.23898854E+04</pdfrwt>
<totfact> 0.39767146E+00</totfact>
</mgrwt>
</event>
<event>
 6    1  0.1934315E-005  0.1723304E+04  0.7818608E-02  0.8748184E-01
         -2   -1    0    0    0  501 -0.00000000000E+00  0.00000000000E+00  0.10768919908E+04  0.10768919908E+04  0.00000000000E+00 0. -1.
          2   -1    0    0  501    0  0.00000000000E+00 -0.00000000000E+00 -0.68943235120E+03  0.68943235120E+03  0.00000000000E+00 0.  1.
         23    2    1    2    0    0 -0.11809970820E+02  0.78502152124E+03 -0.16124729074E+03  0.80847385281E+03  0.10597649591E+03 0.  0.
         11    1    3    3    0    0 -0.58904475327E+02  0.39425068257E+03 -0.79655747951E+02  0.40650753511E+03  0.00000000000E+00 0.  1.
        -11    1    3    3    0    0  0.47094504507E+02  0.39077083867E+03 -0.81591542790E+02  0.40196631770E+03  0.00000000000E+00 0. -1.
         22    1    1    2    0    0  0.11809970820E+02 -0.78502152124E+03  0.54870693031E+03  0.95785048916E+03  0.00000000000E+00 0. -1.
<mgrwt>
<rscale>  0 0.17233040E+04</rscale>
<asrwt>0</asrwt>
<pdfrwt beam="1">  1        2 0.10606652E+00 0.17233040E+04</pdfrwt>
<pdfrwt beam="2">  1       -2 0.16567569E+00 0.17233040E+04</pdfrwt>
<totfact> 0.90757642E+00</totfact>
</mgrwt>
</event>
<event>
 6    1  0.1934315E-005  0.2522730E+04  0.7818608E-02  0.8394932E-01
         -2   -1    0    0    0  501 -0.00000000000E+00  0.00000000000E+00  0.10024755316E+04  0.10024755316E+04  0.00000000000E+00 0. -1.
          2   -1    0    0  501    0  0.00000000000E+00 -0.00000000000E+00 -0.15871125831E+04  0.15871125831E+04  0.00000000000E+00 0.  1.
         23    2    1    2    0    0  0.65988360900E+03 -0.79612081934E+03  0.44583618577E+03  0.11297491411E+04  0.91150868086E+02 0.  0.
         13    1    3    3    0    0  0.12107504506E+03 -0.96273356853E+02  0.73052085883E+02  0.17106821162E+03  0.00000000000E+00 0. -1.
        -13    1    3    3    0    0  0.53880856395E+03 -0.69984746249E+03  0.37278409989E+03  0.95868092943E+03  0.00000000000E+00 0.  1.
         22    1    1    2    0    0 -0.65988360900E+03  0.79612081934E+03 -0.10304732373E+04  0.14598389737E+04  0.00000000000E+00 0.  1.
<mgrwt>
<rscale>  0 0.25227299E+04</rscale>
<asrwt>0</asrwt>
<pdfrwt beam="1">  1        2 0.24417117E+00 0.25227299E+04</pdfrwt>
<pdfrwt beam="2">  1       -2 0.15422700E+00 0.25227299E+04</pdfrwt>
<totfact> 0.28088943E+00</totfact>
</mgrwt>
</event>
<event>
 6    1  0.1934315E-005  0.2846623E+04  0.7818608E-02  0.8288938E-01
         -2   -1    0    0    0  501 -0.00000000000E+00  0.00000000000E+00  0.58761196907E+03  0.58761196907E+03  0.00000000000E+00 0. -1.
          2   -1    0    0  501    0  0.00000000000E+00 -0.00000000000E+00 -0.34475403623E+04  0.34475403623E+04  0.00000000000E+00 0.  1.
         23    2    1    2    0    0 -0.70078304477E+03 -0.11273620844E+04 -0.70925900991E+03  0.15078175808E+04  0.91778912249E+02 0.  0.
         11    1    3    3    0    0 -0.13670194259E+03 -0.18766549736E+03 -0.90309684282E+02  0.24912165519E+03  0.00000000000E+00 0. -1.
        -11    1    3    3    0    0 -0.56408110218E+03 -0.93969658699E+03 -0.61894932563E+03  0.12586959256E+04  0.00000000000E+00 0.  1.
         22    1    1    2    0    0  0.70078304477E+03  0.11273620844E+04 -0.21506693833E+04  0.25273347506E+04  0.00000000000E+00 0.  1.
<mgrwt>
<rscale>  0 0.28466232E+04</rscale>
<asrwt>0</asrwt>
<pdfrwt beam="1">  1        2 0.53039081E+00 0.28466232E+04</pdfrwt>
<pdfrwt beam="2">  1       -2 0.90401843E-01 0.28466232E+04</pdfrwt>
<totfact> 0.80149359E-01</totfact>
</mgrwt>
</event>
<event>
 6    1  0.1934315E-005  0.1997278E+04  0.7818608E-02  0.8607894E-01
         -2   -1    0    0    0  501 -0.00000000000E+00  0.00000000000E+00  0.56437177902E+03  0.56437177902E+03  0.00000000000E+00 0. -1.
          2   -1    0    0  501    0  0.00000000000E+00 -0.00000000000E+00 -0.17670615940E+04  0.17670615940E+04  0.00000000000E+00 0.  1.
         23    2    1    2    0    0 -0.79042540993E+03 -0.14359682913E+03 -0.12909123920E+04  0.15232405735E+04  0.91731472915E+02 0.  0.
         13    1    3    3    0    0 -0.53401470355E+03 -0.13119801000E+03 -0.92853644555E+03  0.10791499211E+04  0.00000000000E+00 0. -1.
        -13    1    3    3    0    0 -0.25641070637E+03 -0.12398819131E+02 -0.36237594644E+03  0.44409065247E+03  0.00000000000E+00 0.  1.
         22    1    1    2    0    0  0.79042540993E+03  0.14359682913E+03  0.88222577022E+02  0.80819279945E+03  0.00000000000E+00 0. -1.
<mgrwt>
<rscale>  0 0.19972778E+04</rscale>
<asrwt>0</asrwt>
<pdfrwt beam="1">  1        2 0.27185562E+00 0.19972778E+04</pdfrwt>
<pdfrwt beam="2">  1       -2 0.86826429E-01 0.19972778E+04</pdfrwt>
<totfact> 0.95988818E+00</totfact>
</mgrwt>
</event>
<event>
 6    1  0.1934315E-005  0.1738101E+04  0.7818608E-02  0.8739927E-01
         -2   -1    0    0    0  501 -0.00000000000E+00  0.00000000000E+00  0.35296098295E+03  0.35296098295E+03  0.00000000000E+00 0. -1.
          2   -1    0    0  501    0  0.00000000000E+00 -0.00000000000E+00 -0.21397512570E+04  0.21397512570E+04  0.00000000000E+00 0.  1.
         23    2    1    2    0    0 -0.33004221527E+03  0.24707592870E+03  0.19728094175E+03  0.46625894225E+03  0.92213083929E+02 0.  0.
         11    1    3    3    0    0 -0.30289819010E+02  0.44805644115E+02  0.56484356335E+02  0.78201671279E+02  0.00000000000E+00 0.  1.
        -11    1    3    3    0    0 -0.29975239626E+03  0.20227028459E+03  0.14079658541E+03  0.38805727097E+03  0.00000000000E+00 0. -1.
         22    1    1    2    0    0  0.33004221527E+03 -0.24707592870E+03 -0.19840712158E+04  0.20264532977E+04  0.00000000000E+00 0.  1.
<mgrwt>
<rscale>  0 0.17381009E+04</rscale>
<asrwt>0</asrwt>
<pdfrwt beam="1">  1        2 0.32919250E+00 0.17381009E+04</pdfrwt>
<pdfrwt beam="2">  1       -2 0.54301690E-01 0.17381009E+04</pdfrwt>
<totfact> 0.16913392E+01</totfact>
</mgrwt>
</event>
<event>
 6    1  0.1934315E-005  0.3791717E+03  0.7818608E-02  0.1051240E+00
          2   -1    0    0  501    0  0.00000000000E+00  0.00000000000E+00  0.13131277543E+04  0.13131277543E+04  0.00000000000E+00 0.  1.
         -2   -1    0    0    0  501 -0.00000000000E+00 -0.00000000000E+00 -0.27371889704E+02  0.27371889704E+02  0.00000000000E+00 0. -1.
         23    2    1    2    0    0  0.57643689974E+02  0.10406308055E+03  0.11480773353E+04  0.11585455368E+04  0.99971361421E+02 0.  0.
         11    1    3    3    0    0  0.28195755810E+02  0.79221923349E+02  0.10470554490E+04  0.10504266881E+04  0.00000000000E+00 0.  1.
        -11    1    3    3    0    0  0.29447934163E+02  0.24841157202E+02  0.10102188637E+03  0.10811884869E+03  0.00000000000E+00 0. -1.
         22    1    1    2    0    0 -0.57643689974E+02 -0.10406308055E+03  0.13767852929E+03  0.18195410728E+03  0.00000000000E+00 0.  1.
<mgrwt>
<rscale>  0 0.37917167E+03</rscale>
<asrwt>0</asrwt>
<pdfrwt beam="1">  1        2 0.20201961E+00 0.37917167E+03</pdfrwt>
<pdfrwt beam="2">  1       -2 0.42110610E-02 0.37917167E+03</pdfrwt>
<totfact> 0.44012805E+03</totfact>
</mgrwt>
</event>
<event>
 6    1  0.1934315E-005  0.2104460E+04  0.7818608E-02  0.8559281E-01
          2   -1    0    0  501    0  0.00000000000E+00  0.00000000000E+00  0.16076605462E+04  0.16076605462E+04  0.00000000000E+00 0.  1.
         -2   -1    0    0    0  501 -0.00000000000E+00 -0.00000000000E+00 -0.68869522671E+03  0.68869522671E+03  0.00000000000E+00 0. -1.
         23    2    1    2    0    0  0.40384297703E+03  0.91622257111E+03  0.11315269174E+03  0.10110982342E+04  0.83445536558E+02 0.  0.
         13    1    3    3    0    0  0.26159552498E+03  0.64327256834E+03  0.11135609109E+03  0.70330078551E+03  0.00000000000E+00 0.  1.
        -13    1    3    3    0    0  0.14224745205E+03  0.27295000276E+03  0.17966006548E+01  0.30779744865E+03  0.00000000000E+00 0. -1.
         22    1    1    2    0    0 -0.40384297703E+03 -0.91622257111E+03  0.80581262777E+03  0.12852575388E+04  0.00000000000E+00 0.  1.
<mgrwt>
<rscale>  0 0.21044602E+04</rscale>
<asrwt>0</asrwt>
<pdfrwt beam="1">  1        2 0.24733239E+00 0.21044602E+04</pdfrwt>
<pdfrwt beam="2">  1       -2 0.10595311E+00 0.21044602E+04</pdfrwt>
<totfact> 0.73175034E+00</totfact>
</mgrwt>
</event>
<event>
 6    1  0.1934315E-005  0.2944858E+04  0.7818608E-02  0.8259655E-01
         -2   -1    0    0    0  501 -0.00000000000E+00  0.00000000000E+00  0.57213998570E+03  0.57213998570E+03  0.00000000000E+00 0. -1.
          2   -1    0    0  501    0  0.00000000000E+00 -0.00000000000E+00 -0.37893658633E+04  0.37893658633E+04  0.00000000000E+00 0.  1.
         23    2    1    2    0    0 -0.27092422691E+03 -0.13665095549E+04 -0.23093667486E+04  0.26986900148E+04  0.94893181602E+02 0.  0.
         13    1    3    3    0    0 -0.10949026085E+03 -0.54373668738E+03 -0.83080372256E+03  0.99893569755E+03  0.00000000000E+00 0.  1.
        -13    1    3    3    0    0 -0.16143396606E+03 -0.82277286753E+03 -0.14785630261E+04  0.16997543172E+04  0.00000000000E+00 0. -1.
         22    1    1    2    0    0  0.27092422691E+03  0.13665095549E+04 -0.90785912895E+03  0.16628158342E+04  0.00000000000E+00 0.  1.
<mgrwt>
<rscale>  0 0.29448584E+04</rscale>
<asrwt>0</asrwt>
<pdfrwt beam="1">  1        2 0.58297938E+00 0.29448584E+04</pdfrwt>
<pdfrwt beam="2">  1       -2 0.88021534E-01 0.29448584E+04</pdfrwt>
<totfact> 0.47835124E-01</totfact>
</mgrwt>
</event>
<event>
 6    1  0.1934315E-005  0.4001057E+04  0.7818608E-02  0.8004333E-01
          2   -1    0    0  501    0  0.00000000000E+00  0.00000000000E+00  0.12270310774E+04  0.12270310774E+04  0.00000000000E+00 0.  1.
         -2   -1    0    0    0  501 -0.00000000000E+00 -0.00000000000E+00 -0.32616249221E+04  0.32616249221E+04  0.00000000000E+00 0. -1.
         23    2    1    2    0    0  0.14625818132E+04 -0.13609594832E+04 -0.11091210982E+04  0.22868712508E+04  0.90962806016E+02 0.  0.
         11    1    3    3    0    0  0.72429487971E+03 -0.63815421812E+03 -0.49329085111E+03  0.10840570754E+04  0.00000000000E+00 0. -1.
        -11    1    3    3    0    0  0.73828693347E+03 -0.72280526512E+03 -0.61583024710E+03  0.12028141754E+04  0.00000000000E+00 0.  1.
         22    1    1    2    0    0 -0.14625818132E+04  0.13609594832E+04 -0.92547274645E+03  0.22017847487E+04  0.00000000000E+00 0. -1.
<mgrwt>
<rscale>  0 0.40010574E+04</rscale>
<asrwt>0</asrwt>
<pdfrwt beam="1">  1        2 0.18877401E+00 0.40010574E+04</pdfrwt>
<pdfrwt beam="2">  1       -2 0.50178845E+00 0.40010574E+04</pdfrwt>
<totfact> 0.23178927E-02</totfact>
</mgrwt>
</event>
<event>
 6    1  0.1934315E-005  0.2257420E+04  0.7818608E-02  0.8494902E-01
          2   -1    0    0  501    0  0.00000000000E+00  0.00000000000E+00  0.88711423849E+03  0.88711423849E+03  0.00000000000E+00 0.  1.
         -2   -1    0    0    0  501 -0.00000000000E+00 -0.00000000000E+00 -0.14361011189E+04  0.14361011189E+04  0.00000000000E+00 0. -1.
         23    2    1    2    0    0 -0.64852512287E+03  0.43419483389E+03  0.56160135594E+03  0.96582218683E+03  0.91139589704E+02 0.  0.
         13    1    3    3    0    0 -0.20209940229E+03  0.15920060166E+03  0.13919757070E+03  0.29251489477E+03  0.00000000000E+00 0.  1.
        -13    1    3    3    0    0 -0.44642572058E+03  0.27499423223E+03  0.42240378524E+03  0.67330729206E+03  0.00000000000E+00 0. -1.
         22    1    1    2    0    0  0.64852512287E+03 -0.43419483389E+03 -0.11105882364E+04  0.13573931706E+04  0.00000000000E+00 0. -1.
<mgrwt>
<rscale>  0 0.22574195E+04</rscale>
<asrwt>0</asrwt>
<pdfrwt beam="1">  1        2 0.13647911E+00 0.22574195E+04</pdfrwt>
<pdfrwt beam="2">  1       -2 0.22093863E+00 0.22574195E+04</pdfrwt>
<totfact> 0.26528512E+00</totfact>
</mgrwt>
</event>
<event>
 6    1  0.1934315E-005  0.3861098E+04  0.7818608E-02  0.8033169E-01
          2   -1    0    0  501    0  0.00000000000E+00  0.00000000000E+00  0.18814281941E+04  0.18814281941E+04  0.00000000000E+00 0.  1.
         -2   -1    0    0    0  501 -0.00000000000E+00 -0.00000000000E+00 -0.19809525522E+04  0.19809525522E+04  0.00000000000E+00 0. -1.
         23    2    1    2    0    0  0.19927881978E+03 -0.18905607881E+04  0.27952518339E+03  0.19239249959E+04  0.97061424238E+02 0.  0.
         11    1    3    3    0    0  0.10527057278E+03 -0.89137473942E+03  0.84350578590E+02  0.90152417587E+03  0.00000000000E+00 0.  1.
        -11    1    3    3    0    0  0.94008247005E+02 -0.99918604869E+03  0.19517460480E+03  0.10224008200E+04  0.00000000000E+00 0. -1.
         22    1    1    2    0    0 -0.19927881978E+03  0.18905607881E+04 -0.37904954149E+03  0.19384557504E+04  0.00000000000E+00 0. -1.
<mgrwt>
<rscale>  0 0.38610983E+04</rscale>
<asrwt>0</asrwt>
<pdfrwt beam="1">  1        2 0.28945049E+00 0.38610983E+04</pdfrwt>
<pdfrwt beam="2">  1       -2 0.30476193E+00 0.38610983E+04</pdfrwt>
<totfact> 0.18435435E-01</totfact>
</mgrwt>
</event>
<event>
 6    1  0.1934315E-005  0.4453895E+04  0.7818608E-02  0.7918759E-01
         -2   -1    0    0    0  501 -0.00000000000E+00  0.00000000000E+00  0.28031773641E+04  0.28031773641E+04  0.00000000000E+00 0. -1.
          2   -1    0    0  501    0  0.00000000000E+00 -0.00000000000E+00 -0.17691688445E+04  0.17691688445E+04  0.00000000000E+00 0.  1.
         23    2    1    2    0    0 -0.53509940814E+03 -0.20828201118E+04 -0.72361741896E+02  0.21539735843E+04  0.99473541795E+02 0.  0.
         11    1    3    3    0    0 -0.22362258632E+03 -0.69715784512E+03 -0.55900479891E+01  0.73216621798E+03  0.00000000000E+00 0.  1.
        -11    1    3    3    0    0 -0.31147682182E+03 -0.13856622667E+04 -0.66771693906E+02  0.14218073663E+04  0.00000000000E+00 0. -1.
         22    1    1    2    0    0  0.53509940814E+03  0.20828201118E+04  0.11063702615E+04  0.24183726243E+04  0.00000000000E+00 0. -1.
<mgrwt>
<rscale>  0 0.44538945E+04</rscale>
<asrwt>0</asrwt>
<pdfrwt beam="1">  1        2 0.27217982E+00 0.44538945E+04</pdfrwt>
<pdfrwt beam="2">  1       -2 0.43125806E+00 0.44538945E+04</pdfrwt>
<totfact> 0.31550160E-02</totfact>
</mgrwt>
</event>
<event>
 6    1  0.2679043E-005  0.3912527E+04  0.7818608E-02  0.8022429E-01
         -2   -1    0    0    0  501 -0.00000000000E+00  0.00000000000E+00  0.16772349296E+04  0.16772349296E+04  0.00000000000E+00 0. -1.
          2   -1    0    0  501    0  0.00000000000E+00 -0.00000000000E+00 -0.22817120768E+04  0.22817120768E+04  0.00000000000E+00 0.  1.
         23    2    1    2    0    0 -0.10932310503E+04 -0.61862838119E+03 -0.18184825194E+04  0.22120456792E+04  0.91718102171E+02 0.  0.
         11    1    3    3    0    0 -0.25154982943E+03 -0.18547620801E+03 -0.42951604497E+03  0.53118995972E+03  0.00000000000E+00 0. -1.
        -11    1    3    3    0    0 -0.84168122084E+03 -0.43315217318E+03 -0.13889664745E+04  0.16808557195E+04  0.00000000000E+00 0.  1.
         22    1    1    2    0    0  0.10932310503E+04  0.61862838119E+03  0.12140053722E+04  0.17469013272E+04  0.00000000000E+00 0. -1.
<mgrwt>
<rscale>  0 0.39125272E+04</rscale>
<asrwt>0</asrwt>
<pdfrwt beam="1">  1        2 0.35103263E+00 0.39125272E+04</pdfrwt>
<pdfrwt beam="2">  1       -2 0.25803614E+00 0.39125272E+04</pdfrwt>
<totfact> 0.21160592E-01</totfact>
</mgrwt>
</event>
<event>
 6    1  0.1934315E-005  0.1167555E+04  0.7818608E-02  0.9141740E-01
          2   -1    0    0  501    0  0.00000000000E+00  0.00000000000E+00  0.86139154117E+03  0.86139154117E+03  0.00000000000E+00 0.  1.
         -2   -1    0    0    0  501 -0.00000000000E+00 -0.00000000000E+00 -0.39563427096E+03  0.39563427096E+03  0.00000000000E+00 0. -1.
         23    2    1    2    0    0 -0.33133947194E+02 -0.58656809093E+02  0.85495463660E+03  0.86204091404E+03  0.87342012448E+02 0.  0.
         11    1    3    3    0    0  0.13579300359E+02 -0.50207790411E+02  0.62937343590E+03  0.63151891613E+03  0.00000000000E+00 0.  1.
        -11    1    3    3    0    0 -0.46713247553E+02 -0.84490186822E+01  0.22558120070E+03  0.23052199791E+03  0.00000000000E+00 0. -1.
         22    1    1    2    0    0  0.33133947194E+02  0.58656809093E+02 -0.38919736639E+03  0.39498489809E+03  0.00000000000E+00 0. -1.
<mgrwt>
<rscale>  0 0.11675547E+04</rscale>
<asrwt>0</asrwt>
<pdfrwt beam="1">  1        2 0.13252177E+00 0.11675547E+04</pdfrwt>
<pdfrwt beam="2">  1       -2 0.60866811E-01 0.11675547E+04</pdfrwt>
<totfact> 0.77439356E+01</totfact>
</mgrwt>
</event>
<event>
 6    1  0.1934315E-005  0.3493285E+04  0.7818608E-02  0.8115383E-01
          2   -1    0    0  501    0  0.00000000000E+00  0.00000000000E+00  0.37117762670E+04  0.37117762670E+04  0.00000000000E+00 0.  1.
         -2   -1    0    0    0  501 -0.00000000000E+00 -0.00000000000E+00 -0.82191391663E+03  0.82191391663E+03  0.00000000000E+00 0. -1.
         23    2    1    2    0    0 -0.53565275560E+03 -0.49266823959E+03 -0.61288517733E+03  0.95613709363E+03  0.94467096647E+02 0.  0.
         11    1    3    3    0    0 -0.36007819168E+03 -0.38622089071E+03 -0.45716392618E+03  0.69844236408E+03  0.00000000000E+00 0.  1.
        -11    1    3    3    0    0 -0.17557456392E+03 -0.10644734889E+03 -0.15572125115E+03  0.25769472955E+03  0.00000000000E+00 0. -1.
         22    1    1    2    0    0  0.53565275560E+03  0.49266823959E+03  0.35027475277E+04  0.35775530900E+04  0.00000000000E+00 0.  1.
<mgrwt>
<rscale>  0 0.34932853E+04</rscale>
<asrwt>0</asrwt>
<pdfrwt beam="1">  1        2 0.57104249E+00 0.34932853E+04</pdfrwt>
<pdfrwt beam="2">  1       -2 0.12644830E+00 0.34932853E+04</pdfrwt>
<totfact> 0.21864156E-01</totfact>
</mgrwt>
</event>
<event>
 6    1  0.1934315E-005  0.2199034E+04  0.7818608E-02  0.8518830E-01
         -2   -1    0    0    0  501 -0.00000000000E+00  0.00000000000E+00  0.16018858046E+04  0.16018858046E+04  0.00000000000E+00 0. -1.
          2   -1    0    0  501    0  0.00000000000E+00 -0.00000000000E+00 -0.75469681487E+03  0.75469681487E+03  0.00000000000E+00 0.  1.
         23    2    1    2    0    0  0.75798091115E+03  0.67033605854E+03  0.87998527386E+03  0.13441789997E+04  0.92507340385E+02 0.  0.
         11    1    3    3    0    0  0.10069247543E+03  0.10561572234E+03  0.89181274113E+02  0.17101741159E+03  0.00000000000E+00 0. -1.
        -11    1    3    3    0    0  0.65728843572E+03  0.56472033620E+03  0.79080399975E+03  0.11731615881E+04  0.00000000000E+00 0.  1.
         22    1    1    2    0    0 -0.75798091115E+03 -0.67033605854E+03 -0.32796284117E+02  0.10124036198E+04  0.00000000000E+00 0.  1.
<mgrwt>
<rscale>  0 0.21990344E+04</rscale>
<asrwt>0</asrwt>
<pdfrwt beam="1">  1        2 0.11610720E+00 0.21990344E+04</pdfrwt>
<pdfrwt beam="2">  1       -2 0.24644397E+00 0.21990344E+04</pdfrwt>
<totfact> 0.22975540E+00</totfact>
</mgrwt>
</event>
<event>
 6    1  0.1934315E-005  0.1256182E+04  0.7818608E-02  0.9065054E-01
         -2   -1    0    0    0  501 -0.00000000000E+00  0.00000000000E+00  0.27772314348E+03  0.27772314348E+03  0.00000000000E+00 0. -1.
          2   -1    0    0  501    0  0.00000000000E+00 -0.00000000000E+00 -0.14204735036E+04  0.14204735036E+04  0.00000000000E+00 0.  1.
         23    2    1    2    0    0 -0.29627650650E+03 -0.45185037912E+03 -0.99873941327E+03  0.11390118062E+04  0.88988458096E+02 0.  0.
         13    1    3    3    0    0 -0.18026715403E+03 -0.19448428502E+03 -0.47195150609E+03  0.54134887831E+03  0.00000000000E+00 0.  1.
        -13    1    3    3    0    0 -0.11600935247E+03 -0.25736609410E+03 -0.52678790717E+03  0.59766292791E+03  0.00000000000E+00 0. -1.
         22    1    1    2    0    0  0.29627650650E+03  0.45185037912E+03 -0.14401094683E+03  0.55918484084E+03  0.00000000000E+00 0. -1.
<mgrwt>
<rscale>  0 0.12561821E+04</rscale>
<asrwt>0</asrwt>
<pdfrwt beam="1">  1        2 0.21853438E+00 0.12561821E+04</pdfrwt>
<pdfrwt beam="2">  1       -2 0.42726638E-01 0.12561821E+04</pdfrwt>
<totfact> 0.71876033E+01</totfact>
</mgrwt>
</event>
<event>
 6    1  0.1934315E-005  0.3185706E+04  0.7818608E-02  0.8192602E-01
         -2   -1    0    0    0  501 -0.00000000000E+00  0.00000000000E+00  0.18353602362E+04  0.18353602362E+04  0.00000000000E+00 0. -1.
          2   -1    0    0  501    0  0.00000000000E+00 -0.00000000000E+00 -0.13823885413E+04  0.13823885413E+04  0.00000000000E+00 0.  1.
         23    2    1    2    0    0  0.40422586029E+03 -0.15343045611E+04  0.35261825701E+03  0.16279186466E+04  0.91051922961E+02 0.  0.
         11    1    3    3    0    0  0.37523062046E+02 -0.26812908478E+03  0.47834651925E+02  0.27493515638E+03  0.00000000000E+00 0.  1.
        -11    1    3    3    0    0  0.36670279824E+03 -0.12661754763E+04  0.30478360509E+03  0.13529834903E+04  0.00000000000E+00 0. -1.
         22    1    1    2    0    0 -0.40422586029E+03  0.15343045611E+04  0.10035343789E+03  0.15898301308E+04  0.00000000000E+00 0. -1.
<mgrwt>
<rscale>  0 0.31857062E+04</rscale>
<asrwt>0</asrwt>
<pdfrwt beam="1">  1        2 0.21267516E+00 0.31857062E+04</pdfrwt>
<pdfrwt beam="2">  1       -2 0.28236311E+00 0.31857062E+04</pdfrwt>
<totfact> 0.50865507E-01</totfact>
</mgrwt>
</event>
<event>
 6    1  0.1934315E-005  0.9593527E+03  0.7818608E-02  0.9354285E-01
         -2   -1    0    0    0  501 -0.00000000000E+00  0.00000000000E+00  0.74039494214E+02  0.74039494214E+02  0.00000000000E+00 0.  1.
          2   -1    0    0  501    0  0.00000000000E+00 -0.00000000000E+00 -0.31076578161E+04  0.31076578161E+04  0.00000000000E+00 0. -1.
         23    2    1    2    0    0 -0.18085508756E+03  0.41911579640E+03 -0.19692851753E+04  0.20236076504E+04  0.92397010701E+02 0.  0.
         13    1    3    3    0    0 -0.14307550777E+03  0.22030105796E+03 -0.11658626861E+04  0.11950895196E+04  0.00000000000E+00 0. -1.
        -13    1    3    3    0    0 -0.37779579791E+02  0.19881473844E+03 -0.80342248916E+03  0.82851813073E+03  0.00000000000E+00 0.  1.
         22    1    1    2    0    0  0.18085508756E+03 -0.41911579640E+03 -0.10643331466E+04  0.11580896599E+04  0.00000000000E+00 0.  1.
<mgrwt>
<rscale>  0 0.95935273E+03</rscale>
<asrwt>0</asrwt>
<pdfrwt beam="1">  1        2 0.47810114E+00 0.95935273E+03</pdfrwt>
<pdfrwt beam="2">  1       -2 0.11390693E-01 0.95935273E+03</pdfrwt>
<totfact> 0.85288381E+01</totfact>
</mgrwt>
</event>
<event>
 6    1  0.1934315E-005  0.2770549E+04  0.7818608E-02  0.8312471E-01
         -1   -1    0    0    0  501 -0.00000000000E+00  0.00000000000E+00  0.85345170603E+03  0.85345170603E+03  0.00000000000E+00 0. -1.
          1   -1    0    0  501    0  0.00000000000E+00 -0.00000000000E+00 -0.22484985727E+04  0.22484985727E+04  0.00000000000E+00 0.  1.
         23    2    1    2    0    0  0.41762245544E+03 -0.11519318155E+04  0.21634233777E+02  0.12288937491E+04  0.91413257068E+02 0.  0.
         11    1    3    3    0    0  0.34202454021E+03 -0.10223578495E+04  0.31941562209E+02  0.10785252069E+04  0.00000000000E+00 0.  1.
        -11    1    3    3    0    0  0.75597915225E+02 -0.12957396605E+03 -0.10307328433E+02  0.15036854221E+03  0.00000000000E+00 0. -1.
         22    1    1    2    0    0 -0.41762245544E+03  0.11519318155E+04 -0.14166811005E+04  0.18730565297E+04  0.00000000000E+00 0.  1.
<mgrwt>
<rscale>  0 0.27705486E+04</rscale>
<asrwt>0</asrwt>
<pdfrwt beam="1">  1        1 0.34592286E+00 0.27705486E+04</pdfrwt>
<pdfrwt beam="2">  1       -1 0.13130026E+00 0.27705486E+04</pdfrwt>
<totfact> 0.86610477E-01</totfact>
</mgrwt>
</event>
<event>
 6    1  0.1934315E-005  0.1112256E+04  0.7818608E-02  0.9193328E-01
         -2   -1    0    0    0  501 -0.00000000000E+00  0.00000000000E+00  0.20095660474E+03  0.20095660474E+03  0.00000000000E+00 0. -1.
          2   -1    0    0  501    0  0.00000000000E+00 -0.00000000000E+00 -0.15390316827E+04  0.15390316827E+04  0.00000000000E+00 0.  1.
         23    2    1    2    0    0 -0.31127576943E+03  0.43183341107E+03 -0.90383920188E+03  0.10530141281E+04  0.92416186629E+02 0.  0.
         13    1    3    3    0    0 -0.18508158481E+03  0.26022574989E+03 -0.62775074079E+03  0.70430364652E+03  0.00000000000E+00 0. -1.
        -13    1    3    3    0    0 -0.12619418462E+03  0.17160766119E+03 -0.27608846109E+03  0.34871048157E+03  0.00000000000E+00 0.  1.
         22    1    1    2    0    0  0.31127576943E+03 -0.43183341107E+03 -0.43423587610E+03  0.68697415937E+03  0.00000000000E+00 0.  1.
<mgrwt>
<rscale>  0 0.11122564E+04</rscale>
<asrwt>0</asrwt>
<pdfrwt beam="1">  1        2 0.23677410E+00 0.11122564E+04</pdfrwt>
<pdfrwt beam="2">  1       -2 0.30916401E-01 0.11122564E+04</pdfrwt>
<totfact> 0.11596017E+02</totfact>
</mgrwt>
</event>
<event>
 6    1  0.1934315E-005  0.2170495E+04  0.7818608E-02  0.8530810E-01
          2   -1    0    0  501    0  0.00000000000E+00  0.00000000000E+00  0.13025553724E+04  0.13025553724E+04  0.00000000000E+00 0.  1.
         -2   -1    0    0    0  501 -0.00000000000E+00 -0.00000000000E+00 -0.90419381657E+03  0.90419381657E+03  0.00000000000E+00 0. -1.
         23    2    1    2    0    0  0.94634607340E+03  0.50552369841E+03  0.35140531061E+03  0.11328171663E+04  0.93080285766E+02 0.  0.
         13    1    3    3    0    0  0.36645285986E+03  0.23710973827E+03  0.17167263166E+03  0.46902048883E+03  0.00000000000E+00 0. -1.
        -13    1    3    3    0    0  0.57989321354E+03  0.26841396014E+03  0.17973267894E+03  0.66379667745E+03  0.00000000000E+00 0.  1.
         22    1    1    2    0    0 -0.94634607340E+03 -0.50552369841E+03  0.46956245186E+02  0.10739320226E+04  0.00000000000E+00 0.  1.
<mgrwt>
<rscale>  0 0.21704953E+04</rscale>
<asrwt>0</asrwt>
<pdfrwt beam="1">  1        2 0.20039313E+00 0.21704953E+04</pdfrwt>
<pdfrwt beam="2">  1       -2 0.13910674E+00 0.21704953E+04</pdfrwt>
<totfact> 0.55133544E+00</totfact>
</mgrwt>
</event>
<event>
 6    1  0.1934315E-005  0.1548287E+04  0.7818608E-02  0.8852963E-01
         -2   -1    0    0    0  501 -0.00000000000E+00  0.00000000000E+00  0.70221673952E+03  0.70221673952E+03  0.00000000000E+00 0. -1.
          2   -1    0    0  501    0  0.00000000000E+00 -0.00000000000E+00 -0.85343745927E+03  0.85343745927E+03  0.00000000000E+00 0.  1.
         23    2    1    2    0    0  0.54712915531E+03  0.52553343194E+03  0.64450752573E+02  0.76695280748E+03  0.92341803783E+02 0.  0.
         13    1    3    3    0    0  0.12201353211E+03  0.17307473730E+03  0.26778619384E+02  0.21344615519E+03  0.00000000000E+00 0. -1.
        -13    1    3    3    0    0  0.42511562320E+03  0.35245869464E+03  0.37672133189E+02  0.55350665229E+03  0.00000000000E+00 0.  1.
         22    1    1    2    0    0 -0.54712915531E+03 -0.52553343194E+03 -0.21567147232E+03  0.78870139131E+03  0.00000000000E+00 0.  1.
<mgrwt>
<rscale>  0 0.15482869E+04</rscale>
<asrwt>0</asrwt>
<pdfrwt beam="1">  1        2 0.13129807E+00 0.15482869E+04</pdfrwt>
<pdfrwt beam="2">  1       -2 0.10803334E+00 0.15482869E+04</pdfrwt>
<totfact> 0.20858006E+01</totfact>
</mgrwt>
</event>
<event>
 6    1  0.1934315E-005  0.1500446E+04  0.7818608E-02  0.8884156E-01
         -2   -1    0    0    0  501 -0.00000000000E+00  0.00000000000E+00  0.28060423152E+03  0.28060423152E+03  0.00000000000E+00 0. -1.
          2   -1    0    0  501    0  0.00000000000E+00 -0.00000000000E+00 -0.20057960335E+04  0.20057960335E+04  0.00000000000E+00 0.  1.
         23    2    1    2    0    0 -0.93608030383E+02  0.71924297637E+03 -0.59006993680E+03  0.93933880717E+03  0.90010787895E+02 0.  0.
         11    1    3    3    0    0 -0.91744227183E+01  0.12781976490E+03 -0.63675123108E+02  0.14309641378E+03  0.00000000000E+00 0.  1.
        -11    1    3    3    0    0 -0.84433607665E+02  0.59142321147E+03 -0.52639481369E+03  0.79624239340E+03  0.00000000000E+00 0. -1.
         22    1    1    2    0    0  0.93608030383E+02 -0.71924297637E+03 -0.11351218651E+04  0.13470614578E+04  0.00000000000E+00 0.  1.
<mgrwt>
<rscale>  0 0.15004464E+04</rscale>
<asrwt>0</asrwt>
<pdfrwt beam="1">  1        2 0.30858401E+00 0.15004464E+04</pdfrwt>
<pdfrwt beam="2">  1       -2 0.43169881E-01 0.15004464E+04</pdfrwt>
<totfact> 0.32611324E+01</totfact>
</mgrwt>
</event>
<event>
 6    1  0.1934315E-005  0.3321667E+04  0.7818608E-02  0.8157404E-01
          1   -1    0    0  501    0  0.00000000000E+00  0.00000000000E+00  0.13181921768E+04  0.13181921768E+04  0.00000000000E+00 0.  1.
         -1   -1    0    0    0  501 -0.00000000000E+00 -0.00000000000E+00 -0.20925383623E+04  0.20925383623E+04  0.00000000000E+00 0. -1.
         23    2    1    2    0    0  0.96974403348E+03  0.24612697710E+03 -0.17470805182E+04  0.20153115836E+04  0.90600564266E+02 0.  0.
         13    1    3    3    0    0  0.25813699673E+03  0.36639067485E+02 -0.39947052706E+03  0.47702602899E+03  0.00000000000E+00 0.  1.
        -13    1    3    3    0    0  0.71160703675E+03  0.20948790961E+03 -0.13476099912E+04  0.15382855546E+04  0.00000000000E+00 0. -1.
         22    1    1    2    0    0 -0.96974403348E+03 -0.24612697710E+03  0.97273433275E+03  0.13954189555E+04  0.00000000000E+00 0. -1.
<mgrwt>
<rscale>  0 0.33216669E+04</rscale>
<asrwt>0</asrwt>
<pdfrwt beam="1">  1        1 0.20279880E+00 0.33216669E+04</pdfrwt>
<pdfrwt beam="2">  1       -1 0.32192898E+00 0.33216669E+04</pdfrwt>
<totfact> 0.17280180E-01</totfact>
</mgrwt>
</event>
<event>
 6    1  0.1934315E-005  0.3542979E+04  0.7818608E-02  0.8103679E-01
         -2   -1    0    0    0  501 -0.00000000000E+00  0.00000000000E+00  0.12800585240E+04  0.12800585240E+04  0.00000000000E+00 0. -1.
          2   -1    0    0  501    0  0.00000000000E+00 -0.00000000000E+00 -0.24515867010E+04  0.24515867010E+04  0.00000000000E+00 0.  1.
         23    2    1    2    0    0 -0.15170506516E+04  0.51147409224E+03  0.20980342139E+03  0.16171416399E+04  0.89895390965E+02 0.  0.
         11    1    3    3    0    0 -0.12308768344E+04  0.45001124576E+03  0.16126748765E+03  0.13204450406E+04  0.00000000000E+00 0. -1.
        -11    1    3    3    0    0 -0.28617381722E+03  0.61462846474E+02  0.48535933739E+02  0.29669659928E+03  0.00000000000E+00 0.  1.
         22    1    1    2    0    0  0.15170506516E+04 -0.51147409224E+03 -0.13813315984E+04  0.21145035851E+04  0.00000000000E+00 0.  1.
<mgrwt>
<rscale>  0 0.35429787E+04</rscale>
<asrwt>0</asrwt>
<pdfrwt beam="1">  1        2 0.37716718E+00 0.35429787E+04</pdfrwt>
<pdfrwt beam="2">  1       -2 0.19693208E+00 0.35429787E+04</pdfrwt>
<totfact> 0.42361884E-01</totfact>
</mgrwt>
</event>
<event>
 6    1  0.1934315E-005  0.3004567E+04  0.7818608E-02  0.8242428E-01
         -2   -1    0    0    0  501 -0.00000000000E+00  0.00000000000E+00  0.95132432724E+03  0.95132432724E+03  0.00000000000E+00 0. -1.
          2   -1    0    0  501    0  0.00000000000E+00 -0.00000000000E+00 -0.23723310210E+04  0.23723310210E+04  0.00000000000E+00 0.  1.
         23    2    1    2    0    0  0.79640718408E+03  0.46789726393E+03  0.59748244311E+03  0.11038601667E+04  0.91267438356E+02 0.  0.
         11    1    3    3    0    0  0.12205798276E+03  0.11208430571E+03  0.10522830958E+03  0.19630089119E+03  0.00000000000E+00 0.  1.
        -11    1    3    3    0    0  0.67434920132E+03  0.35581295821E+03  0.49225413352E+03  0.90755927549E+03  0.00000000000E+00 0. -1.
         22    1    1    2    0    0 -0.79640718408E+03 -0.46789726393E+03 -0.20184891368E+04  0.22197951815E+04  0.00000000000E+00 0.  1.
<mgrwt>
<rscale>  0 0.30045673E+04</rscale>
<asrwt>0</asrwt>
<pdfrwt beam="1">  1        2 0.36497400E+00 0.30045673E+04</pdfrwt>
<pdfrwt beam="2">  1       -2 0.14635759E+00 0.30045673E+04</pdfrwt>
<totfact> 0.11279708E+00</totfact>
</mgrwt>
</event>
<event>
 6    1  0.1934315E-005  0.1128866E+04  0.7818608E-02  0.9177505E-01
         -4   -1    0    0    0  501 -0.00000000000E+00  0.00000000000E+00  0.30290479704E+03  0.30290479704E+03  0.00000000000E+00 0. -1.
          4   -1    0    0  501    0  0.00000000000E+00 -0.00000000000E+00 -0.10517650818E+04  0.10517650818E+04  0.00000000000E+00 0.  1.
         23    2    1    2    0    0 -0.12766755671E+02  0.39326463885E+03 -0.85636654595E+03  0.94677569838E+03  0.90556588885E+02 0.  0.
         13    1    3    3    0    0  0.10426856693E+01  0.35375513423E+03 -0.69219313531E+03  0.77735134834E+03  0.00000000000E+00 0. -1.
        -13    1    3    3    0    0 -0.13809441340E+02  0.39509504620E+02 -0.16417341064E+03  0.16942435004E+03  0.00000000000E+00 0.  1.
         22    1    1    2    0    0  0.12766755671E+02 -0.39326463885E+03  0.10750626123E+03  0.40789418042E+03  0.00000000000E+00 0. -1.
<mgrwt>
<rscale>  0 0.11288661E+04</rscale>
<asrwt>0</asrwt>
<pdfrwt beam="1">  1        4 0.16181001E+00 0.11288661E+04</pdfrwt>
<pdfrwt beam="2">  1       -4 0.46600738E-01 0.11288661E+04</pdfrwt>
<totfact> 0.21405391E+00</totfact>
</mgrwt>
</event>
<event>
 6    1  0.1934315E-005  0.1775396E+04  0.7818608E-02  0.8719494E-01
          2   -1    0    0  501    0  0.00000000000E+00  0.00000000000E+00  0.45475693269E+03  0.45475693269E+03  0.00000000000E+00 0.  1.
         -2   -1    0    0    0  501 -0.00000000000E+00 -0.00000000000E+00 -0.17328099320E+04  0.17328099320E+04  0.00000000000E+00 0. -1.
         23    2    1    2    0    0 -0.51292159487E+03 -0.49544818461E+03 -0.12871936170E+04  0.14743761349E+04  0.91433656260E+02 0.  0.
         13    1    3    3    0    0 -0.41852892827E+03 -0.41817879150E+03 -0.99297584058E+03  0.11558723915E+04  0.00000000000E+00 0. -1.
        -13    1    3    3    0    0 -0.94392666600E+02 -0.77269393116E+02 -0.29421777640E+03  0.31850374342E+03  0.00000000000E+00 0.  1.
         22    1    1    2    0    0  0.51292159487E+03  0.49544818461E+03  0.91406176852E+01  0.71319072976E+03  0.00000000000E+00 0.  1.
<mgrwt>
<rscale>  0 0.17753955E+04</rscale>
<asrwt>0</asrwt>
<pdfrwt beam="1">  1        2 0.69962605E-01 0.17753955E+04</pdfrwt>
<pdfrwt beam="2">  1       -2 0.26658614E+00 0.17753955E+04</pdfrwt>
<totfact> 0.33069296E+00</totfact>
</mgrwt>
</event>
<event>
 6    1  0.1934315E-005  0.2671030E+04  0.7818608E-02  0.8344466E-01
          2   -1    0    0  501    0  0.00000000000E+00  0.00000000000E+00  0.25874146774E+04  0.25874146774E+04  0.00000000000E+00 0.  1.
         -2   -1    0    0    0  501 -0.00000000000E+00 -0.00000000000E+00 -0.68933708421E+03  0.68933708421E+03  0.00000000000E+00 0. -1.
         23    2    1    2    0    0 -0.73986108238E+03  0.11078474716E+04  0.86477402741E+03  0.15907990041E+04  0.89927256262E+02 0.  0.
         13    1    3    3    0    0 -0.13095294609E+03  0.19270793161E+03  0.11180826594E+03  0.25843008596E+03  0.00000000000E+00 0. -1.
        -13    1    3    3    0    0 -0.60890813628E+03  0.91513953997E+03  0.75296576147E+03  0.13323689181E+04  0.00000000000E+00 0.  1.
         22    1    1    2    0    0  0.73986108238E+03 -0.11078474716E+04  0.10333035658E+04  0.16859527575E+04  0.00000000000E+00 0.  1.
<mgrwt>
<rscale>  0 0.26710304E+04</rscale>
<asrwt>0</asrwt>
<pdfrwt beam="1">  1        2 0.39806379E+00 0.26710304E+04</pdfrwt>
<pdfrwt beam="2">  1       -2 0.10605186E+00 0.26710304E+04</pdfrwt>
<totfact> 0.19530482E+00</totfact>
</mgrwt>
</event>
<event>
 6    1  0.1934315E-005  0.4718486E+04  0.7818608E-02  0.7873464E-01
          2   -1    0    0  501    0  0.00000000000E+00  0.00000000000E+00  0.29641125623E+04  0.29641125623E+04  0.00000000000E+00 0.  1.
         -2   -1    0    0    0  501 -0.00000000000E+00 -0.00000000000E+00 -0.18778056160E+04  0.18778056160E+04  0.00000000000E+00 0. -1.
         23    2    1    2    0    0  0.21798473822E+04  0.22032324590E+03 -0.35214505212E+03  0.22209601294E+04  0.91546797025E+02 0.  0.
         11    1    3    3    0    0  0.12448124489E+04  0.13800953045E+03 -0.15704020570E+03  0.12622465249E+04  0.00000000000E+00 0. -1.
        -11    1    3    3    0    0  0.93503493334E+03  0.82313715453E+02 -0.19510484642E+03  0.95871360448E+03  0.00000000000E+00 0.  1.
         22    1    1    2    0    0 -0.21798473822E+04 -0.22032324590E+03  0.14384519984E+04  0.26209580489E+04  0.00000000000E+00 0.  1.
<mgrwt>
<rscale>  0 0.47184859E+04</rscale>
<asrwt>0</asrwt>
<pdfrwt beam="1">  1        2 0.45601732E+00 0.47184859E+04</pdfrwt>
<pdfrwt beam="2">  1       -2 0.28889317E+00 0.47184859E+04</pdfrwt>
<totfact> 0.50704582E-02</totfact>
</mgrwt>
</event>
<event>
 6    1  0.1934315E-005  0.3675793E+04  0.7818608E-02  0.8073348E-01
          2   -1    0    0  501    0  0.00000000000E+00  0.00000000000E+00  0.25642843058E+04  0.25642843058E+04  0.00000000000E+00 0.  1.
         -2   -1    0    0    0  501 -0.00000000000E+00 -0.00000000000E+00 -0.13172733883E+04  0.13172733883E+04  0.00000000000E+00 0. -1.
         23    2    1    2    0    0  0.10328419078E+04  0.97657781306E+03  0.18522533798E+04  0.23366353434E+04  0.92496019926E+02 0.  0.
         11    1    3    3    0    0  0.42305564270E+03  0.39321351567E+03  0.82742218940E+03  0.10090690884E+04  0.00000000000E+00 0. -1.
        -11    1    3    3    0    0  0.60978626506E+03  0.58336429739E+03  0.10248311904E+04  0.13275662549E+04  0.00000000000E+00 0.  1.
         22    1    1    2    0    0 -0.10328419078E+04 -0.97657781306E+03 -0.60524246226E+03  0.15449223506E+04  0.00000000000E+00 0. -1.
<mgrwt>
<rscale>  0 0.36757930E+04</rscale>
<asrwt>0</asrwt>
<pdfrwt beam="1">  1        2 0.39450528E+00 0.36757930E+04</pdfrwt>
<pdfrwt beam="2">  1       -2 0.20265745E+00 0.36757930E+04</pdfrwt>
<totfact> 0.33048137E-01</totfact>
</mgrwt>
</event>
<event>
 6    1  0.1934315E-005  0.1657101E+04  0.7818608E-02  0.8786217E-01
         -2   -1    0    0    0  501 -0.00000000000E+00  0.00000000000E+00  0.53583741443E+03  0.53583741443E+03  0.00000000000E+00 0. -1.
          2   -1    0    0  501    0  0.00000000000E+00 -0.00000000000E+00 -0.12811639526E+04  0.12811639526E+04  0.00000000000E+00 0.  1.
         23    2    1    2    0    0  0.10995277189E+03 -0.32179489123E+03 -0.11992467786E+04  0.12498284227E+04  0.90756191030E+02 0.  0.
         13    1    3    3    0    0  0.59363200347E+02 -0.17418897917E+03 -0.48507213107E+03  0.51880705697E+03  0.00000000000E+00 0. -1.
        -13    1    3    3    0    0  0.50589571546E+02 -0.14760591207E+03 -0.71417464754E+03  0.73102136577E+03  0.00000000000E+00 0.  1.
         22    1    1    2    0    0 -0.10995277189E+03  0.32179489123E+03  0.45392024043E+03  0.56717294429E+03  0.00000000000E+00 0. -1.
<mgrwt>
<rscale>  0 0.16571006E+04</rscale>
<asrwt>0</asrwt>
<pdfrwt beam="1">  1        2 0.19710214E+00 0.16571006E+04</pdfrwt>
<pdfrwt beam="2">  1       -2 0.82436526E-01 0.16571006E+04</pdfrwt>
<totfact> 0.20913574E+01</totfact>
</mgrwt>
</event>
<event>
 6    1  0.1934315E-005  0.1612267E+04  0.7818608E-02  0.8813047E-01
         -2   -1    0    0    0  501 -0.00000000000E+00  0.00000000000E+00  0.29203407012E+03  0.29203407012E+03  0.00000000000E+00 0. -1.
          2   -1    0    0  501    0  0.00000000000E+00 -0.00000000000E+00 -0.22252589503E+04  0.22252589503E+04  0.00000000000E+00 0.  1.
         23    2    1    2    0    0 -0.12907483032E+03  0.73581217653E+03 -0.14316794191E+04  0.16174998661E+04  0.92303775183E+02 0.  0.
         13    1    3    3    0    0 -0.12449370967E+03  0.45096422254E+03 -0.89402366411E+03  0.10090320737E+04  0.00000000000E+00 0. -1.
        -13    1    3    3    0    0 -0.45811206474E+01  0.28484795399E+03 -0.53765575498E+03  0.60846779243E+03  0.00000000000E+00 0.  1.
         22    1    1    2    0    0  0.12907483032E+03 -0.73581217653E+03 -0.50154546107E+03  0.89979315428E+03  0.00000000000E+00 0. -1.
<mgrwt>
<rscale>  0 0.16122673E+04</rscale>
<asrwt>0</asrwt>
<pdfrwt beam="1">  1        2 0.34234753E+00 0.16122673E+04</pdfrwt>
<pdfrwt beam="2">  1       -2 0.44928319E-01 0.16122673E+04</pdfrwt>
<totfact> 0.22511432E+01</totfact>
</mgrwt>
</event>
<event>
 6    1  0.1934315E-005  0.2730543E+04  0.7818608E-02  0.8325162E-01
         -1   -1    0    0    0  501 -0.00000000000E+00  0.00000000000E+00  0.16746286657E+04  0.16746286657E+04  0.00000000000E+00 0. -1.
          1   -1    0    0  501    0  0.00000000000E+00 -0.00000000000E+00 -0.11130626775E+04  0.11130626775E+04  0.00000000000E+00 0.  1.
         23    2    1    2    0    0 -0.46808832921E+03  0.45026608485E+03  0.15053506943E+04  0.16420143369E+04  0.91017243677E+02 0.  0.
         13    1    3    3    0    0 -0.98874591323E+02  0.14159084757E+03  0.45468548597E+03  0.48637747078E+03  0.00000000000E+00 0.  1.
        -13    1    3    3    0    0 -0.36921373789E+03  0.30867523728E+03  0.10506652084E+04  0.11556368662E+04  0.00000000000E+00 0. -1.
         22    1    1    2    0    0  0.46808832921E+03 -0.45026608485E+03 -0.94378470620E+03  0.11456770063E+04  0.00000000000E+00 0.  1.
<mgrwt>
<rscale>  0 0.27305433E+04</rscale>
<asrwt>0</asrwt>
<pdfrwt beam="1">  1        1 0.17124041E+00 0.27305433E+04</pdfrwt>
<pdfrwt beam="2">  1       -1 0.25763518E+00 0.27305433E+04</pdfrwt>
<totfact> 0.67101008E-01</totfact>
</mgrwt>
</event>
<event>
 6    1  0.1934315E-005  0.3659643E+04  0.7818608E-02  0.8076965E-01
         -2   -1    0    0    0  501 -0.00000000000E+00  0.00000000000E+00  0.18090294507E+04  0.18090294507E+04  0.00000000000E+00 0. -1.
          2   -1    0    0  501    0  0.00000000000E+00 -0.00000000000E+00 -0.18508528117E+04  0.18508528117E+04  0.00000000000E+00 0.  1.
         23    2    1    2    0    0  0.11741227227E+04 -0.14013579122E+04  0.25550014079E+02  0.18304267867E+04  0.86262691715E+02 0.  0.
         11    1    3    3    0    0  0.42187282294E+03 -0.49512524840E+03 -0.31854542641E+02  0.65126062542E+03  0.00000000000E+00 0. -1.
        -11    1    3    3    0    0  0.75224989974E+03 -0.90623266385E+03  0.57404556720E+02  0.11791661612E+04  0.00000000000E+00 0.  1.
         22    1    1    2    0    0 -0.11741227227E+04  0.14013579122E+04 -0.67373375025E+02  0.18294554758E+04  0.00000000000E+00 0.  1.
<mgrwt>
<rscale>  0 0.36596433E+04</rscale>
<asrwt>0</asrwt>
<pdfrwt beam="1">  1        2 0.28474659E+00 0.36596433E+04</pdfrwt>
<pdfrwt beam="2">  1       -2 0.27831222E+00 0.36596433E+04</pdfrwt>
<totfact> 0.28281173E-01</totfact>
</mgrwt>
</event>
<event>
 6    1  0.1934315E-005  0.4711419E+04  0.7818608E-02  0.7874634E-01
         -2   -1    0    0    0  501 -0.00000000000E+00  0.00000000000E+00  0.12632428592E+04  0.12632428592E+04  0.00000000000E+00 0. -1.
          2   -1    0    0  501    0  0.00000000000E+00 -0.00000000000E+00 -0.43929536032E+04  0.43929536032E+04  0.00000000000E+00 0.  1.
         23    2    1    2    0    0  0.74788752114E+03  0.19016580482E+04 -0.29704272165E+04  0.36065598315E+04  0.90536692867E+02 0.  0.
         13    1    3    3    0    0  0.43813713206E+03  0.10007419074E+04 -0.15551593783E+04  0.19005181408E+04  0.00000000000E+00 0.  1.
        -13    1    3    3    0    0  0.30975038908E+03  0.90091614081E+03 -0.14152678382E+04  0.17060416906E+04  0.00000000000E+00 0. -1.
         22    1    1    2    0    0 -0.74788752114E+03 -0.19016580482E+04 -0.15928352744E+03  0.20496366309E+04  0.00000000000E+00 0.  1.
<mgrwt>
<rscale>  0 0.47114190E+04</rscale>
<asrwt>0</asrwt>
<pdfrwt beam="1">  1        2 0.67583900E+00 0.47114190E+04</pdfrwt>
<pdfrwt beam="2">  1       -2 0.19434506E+00 0.47114190E+04</pdfrwt>
<totfact> 0.16693747E-02</totfact>
</mgrwt>
</event>
<event>
 6    1  0.1934315E-005  0.8616075E+03  0.7818608E-02  0.9474889E-01
         -4   -1    0    0    0  501 -0.00000000000E+00  0.00000000000E+00  0.53754381333E+03  0.53754381333E+03  0.00000000000E+00 0. -1.
          4   -1    0    0  501    0  0.00000000000E+00 -0.00000000000E+00 -0.34525904154E+03  0.34525904154E+03  0.00000000000E+00 0.  1.
         23    2    1    2    0    0 -0.14364804088E+03 -0.39987660677E+03  0.66520799606E+02  0.43968589853E+03  0.91447319782E+02 0.  0.
         13    1    3    3    0    0 -0.13837086515E+03 -0.34687303102E+03  0.85543454751E+02  0.38312540848E+03  0.00000000000E+00 0.  1.
        -13    1    3    3    0    0 -0.52771757293E+01 -0.53003575755E+02 -0.19022655146E+02  0.56560490055E+02  0.00000000000E+00 0. -1.
         22    1    1    2    0    0  0.14364804088E+03  0.39987660677E+03  0.12576397219E+03  0.44311695634E+03  0.00000000000E+00 0. -1.
<mgrwt>
<rscale>  0 0.86160748E+03</rscale>
<asrwt>0</asrwt>
<pdfrwt beam="1">  1        4 0.53116776E-01 0.86160748E+03</pdfrwt>
<pdfrwt beam="2">  1       -4 0.82699048E-01 0.86160748E+03</pdfrwt>
<totfact> 0.86973569E+00</totfact>
</mgrwt>
</event>
<event>
 6    1  0.1934315E-005  0.1296400E+04  0.7818608E-02  0.9032425E-01
          2   -1    0    0  501    0  0.00000000000E+00  0.00000000000E+00  0.23926540166E+04  0.23926540166E+04  0.00000000000E+00 0.  1.
         -2   -1    0    0    0  501 -0.00000000000E+00 -0.00000000000E+00 -0.17560539112E+03  0.17560539112E+03  0.00000000000E+00 0. -1.
         23    2    1    2    0    0  0.42265445889E+03  0.44466328507E+03  0.71575181562E+03  0.94645351921E+03  0.84328961485E+02 0.  0.
         11    1    3    3    0    0  0.20478983661E+03  0.20344177615E+03  0.40011716743E+03  0.49337732126E+03  0.00000000000E+00 0. -1.
        -11    1    3    3    0    0  0.21786462228E+03  0.24122150892E+03  0.31563464819E+03  0.45307619795E+03  0.00000000000E+00 0.  1.
         22    1    1    2    0    0 -0.42265445889E+03 -0.44466328507E+03  0.15012968099E+04  0.16218058885E+04  0.00000000000E+00 0. -1.
<mgrwt>
<rscale>  0 0.12963995E+04</rscale>
<asrwt>0</asrwt>
<pdfrwt beam="1">  1        2 0.36810059E+00 0.12963995E+04</pdfrwt>
<pdfrwt beam="2">  1       -2 0.27016216E-01 0.12963995E+04</pdfrwt>
<totfact> 0.49187732E+01</totfact>
</mgrwt>
</event>
<event>
 6    1  0.1934315E-005  0.9751818E+03  0.7818608E-02  0.9336192E-01
         -2   -1    0    0    0  501 -0.00000000000E+00  0.00000000000E+00  0.10796042717E+03  0.10796042717E+03  0.00000000000E+00 0. -1.
          2   -1    0    0  501    0  0.00000000000E+00 -0.00000000000E+00 -0.22021483793E+04  0.22021483793E+04  0.00000000000E+00 0.  1.
         23    2    1    2    0    0 -0.36554092121E+03  0.35743984206E+02 -0.18005262564E+04  0.18398588846E+04  0.91039099521E+02 0.  0.
         11    1    3    3    0    0 -0.31832486842E+03 -0.51939266532E+00 -0.15508965392E+04  0.15832280527E+04  0.00000000000E+00 0. -1.
        -11    1    3    3    0    0 -0.47216052789E+02  0.36263376871E+02 -0.24962971720E+03  0.25663083185E+03  0.00000000000E+00 0.  1.
         22    1    1    2    0    0  0.36554092121E+03 -0.35743984206E+02 -0.29366169566E+03  0.47024992184E+03  0.00000000000E+00 0. -1.
<mgrwt>
<rscale>  0 0.97518179E+03</rscale>
<asrwt>0</asrwt>
<pdfrwt beam="1">  1        2 0.33879202E+00 0.97518179E+03</pdfrwt>
<pdfrwt beam="2">  1       -2 0.16609298E-01 0.97518179E+03</pdfrwt>
<totfact> 0.15307270E+02</totfact>
</mgrwt>
</event>
<event>
 6    1  0.1934315E-005  0.4895725E+03  0.7818608E-02  0.1016537E+00
          1   -1    0    0  501    0  0.00000000000E+00  0.00000000000E+00  0.26538729894E+03  0.26538729894E+03  0.00000000000E+00 0.  1.
         -1   -1    0    0    0  501 -0.00000000000E+00 -0.00000000000E+00 -0.22578438530E+03  0.22578438530E+03  0.00000000000E+00 0. -1.
         23    2    1    2    0    0 -0.20017899366E+03  0.10554223054E+02  0.14632417514E+03  0.26407600224E+03  0.90234968841E+02 0.  0.
         11    1    3    3    0    0 -0.46461039289E+02  0.27469013956E+02  0.78371582849E+02  0.95159234433E+02  0.00000000000E+00 0. -1.
        -11    1    3    3    0    0 -0.15371795437E+03 -0.16914790903E+02  0.67952592290E+02  0.16891676781E+03  0.00000000000E+00 0.  1.
         22    1    1    2    0    0  0.20017899366E+03 -0.10554223054E+02 -0.10672126149E+03  0.22709568200E+03  0.00000000000E+00 0. -1.
<mgrwt>
<rscale>  0 0.48957250E+03</rscale>
<asrwt>0</asrwt>
<pdfrwt beam="1">  1        1 0.40828815E-01 0.48957250E+03</pdfrwt>
<pdfrwt beam="2">  1       -1 0.34736059E-01 0.48957250E+03</pdfrwt>
<totfact> 0.81339132E+02</totfact>
</mgrwt>
</event>
<event>
 6    1  0.1934315E-005  0.3078012E+04  0.7818608E-02  0.8221798E-01
         -2   -1    0    0    0  501 -0.00000000000E+00  0.00000000000E+00  0.90079733025E+03  0.90079733025E+03  0.00000000000E+00 0. -1.
          2   -1    0    0  501    0  0.00000000000E+00 -0.00000000000E+00 -0.26293806793E+04  0.26293806793E+04  0.00000000000E+00 0.  1.
         23    2    1    2    0    0 -0.15304523812E+04 -0.46973379682E+02 -0.10270731484E+04  0.18459548797E+04  0.90438800092E+02 0.  0.
         11    1    3    3    0    0 -0.89583642709E+03 -0.46456440034E+01 -0.55435962993E+03  0.10534984981E+04  0.00000000000E+00 0. -1.
        -11    1    3    3    0    0 -0.63461595407E+03 -0.42327735679E+02 -0.47271351843E+03  0.79245638169E+03  0.00000000000E+00 0.  1.
         22    1    1    2    0    0  0.15304523812E+04  0.46973379682E+02 -0.70151020073E+03  0.16842231298E+04  0.00000000000E+00 0. -1.
<mgrwt>
<rscale>  0 0.30780118E+04</rscale>
<asrwt>0</asrwt>
<pdfrwt beam="1">  1        2 0.40452010E+00 0.30780118E+04</pdfrwt>
<pdfrwt beam="2">  1       -2 0.13858421E+00 0.30780118E+04</pdfrwt>
<totfact> 0.91696564E-01</totfact>
</mgrwt>
</event>
<event>
 6    1  0.1934315E-005  0.3744580E+04  0.7818608E-02  0.8058154E-01
         -2   -1    0    0    0  501 -0.00000000000E+00  0.00000000000E+00  0.17506710639E+04  0.17506710639E+04  0.00000000000E+00 0. -1.
          2   -1    0    0  501    0  0.00000000000E+00 -0.00000000000E+00 -0.20023575421E+04  0.20023575421E+04  0.00000000000E+00 0.  1.
         23    2    1    2    0    0 -0.16023498868E+04 -0.14184707726E+01 -0.10943703797E+04  0.19426023220E+04  0.92358440700E+02 0.  0.
         13    1    3    3    0    0 -0.11420532319E+04 -0.28671966422E+02 -0.81718264397E+03  0.14045978570E+04  0.00000000000E+00 0. -1.
        -13    1    3    3    0    0 -0.46029665494E+03  0.27253495650E+02 -0.27718773573E+03  0.53800446505E+03  0.00000000000E+00 0.  1.
         22    1    1    2    0    0  0.16023498868E+04  0.14184707726E+01  0.84268390154E+03  0.18104262840E+04  0.00000000000E+00 0. -1.
<mgrwt>
<rscale>  0 0.37445798E+04</rscale>
<asrwt>0</asrwt>
<pdfrwt beam="1">  1        2 0.30805500E+00 0.37445798E+04</pdfrwt>
<pdfrwt beam="2">  1       -2 0.26933401E+00 0.37445798E+04</pdfrwt>
<totfact> 0.26249842E-01</totfact>
</mgrwt>
</event>
<event>
 6    1  0.1934315E-005  0.3372738E+04  0.7818608E-02  0.8144630E-01
         -2   -1    0    0    0  501 -0.00000000000E+00  0.00000000000E+00  0.94957339662E+03  0.94957339662E+03  0.00000000000E+00 0. -1.
          2   -1    0    0  501    0  0.00000000000E+00 -0.00000000000E+00 -0.29948612594E+04  0.29948612594E+04  0.00000000000E+00 0.  1.
         23    2    1    2    0    0 -0.15521519693E+04  0.36380010762E+03 -0.16620830682E+04  0.23048090375E+04  0.89990664690E+02 0.  0.
         11    1    3    3    0    0 -0.11556582483E+04  0.23272545393E+03 -0.12467505882E+04  0.17158362838E+04  0.00000000000E+00 0. -1.
        -11    1    3    3    0    0 -0.39649372106E+03  0.13107465368E+03 -0.41533247996E+03  0.58897275369E+03  0.00000000000E+00 0.  1.
         22    1    1    2    0    0  0.15521519693E+04 -0.36380010762E+03 -0.38320479458E+03  0.16396256185E+04  0.00000000000E+00 0. -1.
<mgrwt>
<rscale>  0 0.33727381E+04</rscale>
<asrwt>0</asrwt>
<pdfrwt beam="1">  1        2 0.46074790E+00 0.33727381E+04</pdfrwt>
<pdfrwt beam="2">  1       -2 0.14608821E+00 0.33727381E+04</pdfrwt>
<totfact> 0.46759999E-01</totfact>
</mgrwt>
</event>
<event>
 6    1  0.1934315E-005  0.2201170E+04  0.7818608E-02  0.8517941E-01
          2   -1    0    0  501    0  0.00000000000E+00  0.00000000000E+00  0.95660476665E+03  0.95660476665E+03  0.00000000000E+00 0.  1.
         -2   -1    0    0    0  501 -0.00000000000E+00 -0.00000000000E+00 -0.12662360877E+04  0.12662360877E+04  0.00000000000E+00 0. -1.
         23    2    1    2    0    0  0.76453009746E+03 -0.68294804516E+03 -0.55407340418E+03  0.11689546013E+04  0.92375431268E+02 0.  0.
         11    1    3    3    0    0  0.29803947097E+03 -0.21953692573E+03 -0.16863942172E+03  0.40677173276E+03  0.00000000000E+00 0.  1.
        -11    1    3    3    0    0  0.46649062649E+03 -0.46341111943E+03 -0.38543398247E+03  0.76218286852E+03  0.00000000000E+00 0. -1.
         22    1    1    2    0    0 -0.76453009746E+03  0.68294804516E+03  0.24444208317E+03  0.10538862530E+04  0.00000000000E+00 0.  1.
<mgrwt>
<rscale>  0 0.22011701E+04</rscale>
<asrwt>0</asrwt>
<pdfrwt beam="1">  1        2 0.14716996E+00 0.22011701E+04</pdfrwt>
<pdfrwt beam="2">  1       -2 0.19480555E+00 0.22011701E+04</pdfrwt>
<totfact> 0.35352720E+00</totfact>
</mgrwt>
</event>
<event>
 6    1  0.1934315E-005  0.1755212E+04  0.7818608E-02  0.8730487E-01
          2   -1    0    0  501    0  0.00000000000E+00  0.00000000000E+00  0.19405199169E+04  0.19405199169E+04  0.00000000000E+00 0.  1.
         -2   -1    0    0    0  501 -0.00000000000E+00 -0.00000000000E+00 -0.39689976595E+03  0.39689976595E+03  0.00000000000E+00 0. -1.
         23    2    1    2    0    0  0.76175702080E+03  0.30983716377E+02  0.13462358467E+04  0.15498955163E+04  0.92689843636E+02 0.  0.
         11    1    3    3    0    0  0.32685971735E+03  0.18258163619E+02  0.67145453063E+03  0.74700858232E+03  0.00000000000E+00 0.  1.
        -11    1    3    3    0    0  0.43489730345E+03  0.12725552758E+02  0.67478131604E+03  0.80288693395E+03  0.00000000000E+00 0. -1.
         22    1    1    2    0    0 -0.76175702080E+03 -0.30983716377E+02  0.19738430434E+03  0.78752416662E+03  0.00000000000E+00 0. -1.
<mgrwt>
<rscale>  0 0.17552116E+04</rscale>
<asrwt>0</asrwt>
<pdfrwt beam="1">  1        2 0.29854152E+00 0.17552116E+04</pdfrwt>
<pdfrwt beam="2">  1       -2 0.61061503E-01 0.17552116E+04</pdfrwt>
<totfact> 0.17045416E+01</totfact>
</mgrwt>
</event>
<event>
 6    1  0.1934315E-005  0.3080849E+04  0.7818608E-02  0.8221014E-01
         -2   -1    0    0    0  501 -0.00000000000E+00  0.00000000000E+00  0.13227497436E+04  0.13227497436E+04  0.00000000000E+00 0. -1.
          2   -1    0    0  501    0  0.00000000000E+00 -0.00000000000E+00 -0.17939199201E+04  0.17939199201E+04  0.00000000000E+00 0.  1.
         23    2    1    2    0    0 -0.81323493516E+03 -0.46774280501E+03  0.99848653097E+03  0.13731028512E+04  0.91113644087E+02 0.  0.
         11    1    3    3    0    0 -0.40445471848E+03 -0.28501850760E+03  0.52011306459E+03  0.71786960441E+03  0.00000000000E+00 0.  1.
        -11    1    3    3    0    0 -0.40878021668E+03 -0.18272429742E+03  0.47837346638E+03  0.65523324683E+03  0.00000000000E+00 0. -1.
         22    1    1    2    0    0  0.81323493516E+03  0.46774280501E+03 -0.14696567075E+04  0.17435668124E+04  0.00000000000E+00 0.  1.
<mgrwt>
<rscale>  0 0.30808487E+04</rscale>
<asrwt>0</asrwt>
<pdfrwt beam="1">  1        2 0.27598768E+00 0.30808487E+04</pdfrwt>
<pdfrwt beam="2">  1       -2 0.20349996E+00 0.30808487E+04</pdfrwt>
<totfact> 0.93306308E-01</totfact>
</mgrwt>
</event>
<event>
 6    1  0.1934315E-005  0.1771753E+04  0.7818608E-02  0.8721467E-01
         -2   -1    0    0    0  501 -0.00000000000E+00  0.00000000000E+00  0.21204861802E+03  0.21204861802E+03  0.00000000000E+00 0. -1.
          2   -1    0    0  501    0  0.00000000000E+00 -0.00000000000E+00 -0.37009298355E+04  0.37009298355E+04  0.00000000000E+00 0.  1.
         23    2    1    2    0    0 -0.36966902400E+03 -0.79323321014E+03 -0.20186334701E+04  0.22019838446E+04  0.89317704979E+02 0.  0.
         13    1    3    3    0    0 -0.35759219474E+03 -0.74899476652E+03 -0.19516980647E+04  0.21208466879E+04  0.00000000000E+00 0. -1.
        -13    1    3    3    0    0 -0.12076829254E+02 -0.44238443617E+02 -0.66935405413E+02  0.81137156694E+02  0.00000000000E+00 0.  1.
         22    1    1    2    0    0  0.36966902400E+03  0.79323321014E+03 -0.14702477474E+04  0.17109946089E+04  0.00000000000E+00 0.  1.
<mgrwt>
<rscale>  0 0.17717529E+04</rscale>
<asrwt>0</asrwt>
<pdfrwt beam="1">  1        2 0.56937384E+00 0.17717529E+04</pdfrwt>
<pdfrwt beam="2">  1       -2 0.32622863E-01 0.17717529E+04</pdfrwt>
<totfact> 0.48838465E+00</totfact>
</mgrwt>
</event>
<event>
 6    1  0.1934315E-005  0.3018475E+04  0.7818608E-02  0.8238475E-01
         -2   -1    0    0    0  501 -0.00000000000E+00  0.00000000000E+00  0.49780111176E+03  0.49780111176E+03  0.00000000000E+00 0. -1.
          2   -1    0    0  501    0  0.00000000000E+00 -0.00000000000E+00 -0.45757187823E+04  0.45757187823E+04  0.00000000000E+00 0.  1.
         23    2    1    2    0    0  0.72993845829E+03  0.38260645000E+03 -0.41632107800E+04  0.42449833752E+04  0.91444021233E+02 0.  0.
         11    1    3    3    0    0  0.13902662817E+03  0.10508155868E+03 -0.76043967315E+03  0.78015321175E+03  0.00000000000E+00 0.  1.
        -11    1    3    3    0    0  0.59091183012E+03  0.27752489132E+03 -0.34027711068E+04  0.34648301635E+04  0.00000000000E+00 0. -1.
         22    1    1    2    0    0 -0.72993845829E+03 -0.38260645000E+03  0.85293109468E+02  0.82853651880E+03  0.00000000000E+00 0. -1.
<mgrwt>
<rscale>  0 0.30184750E+04</rscale>
<asrwt>0</asrwt>
<pdfrwt beam="1">  1        2 0.70395675E+00 0.30184750E+04</pdfrwt>
<pdfrwt beam="2">  1       -2 0.76584785E-01 0.30184750E+04</pdfrwt>
<totfact> 0.13464460E-01</totfact>
</mgrwt>
</event>
<event>
 6    1  0.1934315E-005  0.5237226E+04  0.7818608E-02  0.7792920E-01
         -2   -1    0    0    0  501 -0.00000000000E+00  0.00000000000E+00  0.30543616910E+04  0.30543616910E+04  0.00000000000E+00 0. -1.
          2   -1    0    0  501    0  0.00000000000E+00 -0.00000000000E+00 -0.22450299196E+04  0.22450299196E+04  0.00000000000E+00 0.  1.
         23    2    1    2    0    0 -0.59233085245E+03 -0.12235885130E+04  0.26684363536E+04  0.29962861994E+04  0.95675115920E+02 0.  0.
         13    1    3    3    0    0 -0.28398323172E+03 -0.48706686659E+03  0.11450111313E+04  0.12762958509E+04  0.00000000000E+00 0. -1.
        -13    1    3    3    0    0 -0.30834762073E+03 -0.73652164644E+03  0.15234252223E+04  0.17199903485E+04  0.00000000000E+00 0.  1.
         22    1    1    2    0    0  0.59233085245E+03  0.12235885130E+04 -0.18591045821E+04  0.23031054112E+04  0.00000000000E+00 0.  1.
<mgrwt>
<rscale>  0 0.52372257E+04</rscale>
<asrwt>0</asrwt>
<pdfrwt beam="1">  1        2 0.34538922E+00 0.52372257E+04</pdfrwt>
<pdfrwt beam="2">  1       -2 0.46990180E+00 0.52372257E+04</pdfrwt>
<totfact> 0.89804740E-03</totfact>
</mgrwt>
</event>
<event>
 6    1  0.1934315E-005  0.3174443E+04  0.7818608E-02  0.8195599E-01
          2   -1    0    0  501    0  0.00000000000E+00  0.00000000000E+00  0.16146247940E+04  0.16146247940E+04  0.00000000000E+00 0.  1.
         -2   -1    0    0    0  501 -0.00000000000E+00 -0.00000000000E+00 -0.15602837034E+04  0.15602837034E+04  0.00000000000E+00 0. -1.
         23    2    1    2    0    0 -0.28176823299E+03 -0.97764137537E+03 -0.11895136072E+04  0.15679391433E+04  0.91184096362E+02 0.  0.
         13    1    3    3    0    0 -0.64613121891E+02 -0.28615643693E+03 -0.28670581657E+03  0.41019579126E+03  0.00000000000E+00 0. -1.
        -13    1    3    3    0    0 -0.21715511110E+03 -0.69148493845E+03 -0.90280779062E+03  0.11577433520E+04  0.00000000000E+00 0.  1.
         22    1    1    2    0    0  0.28176823299E+03  0.97764137537E+03  0.12438546978E+04  0.16069693541E+04  0.00000000000E+00 0.  1.
<mgrwt>
<rscale>  0 0.31744434E+04</rscale>
<asrwt>0</asrwt>
<pdfrwt beam="1">  1        2 0.24840381E+00 0.31744434E+04</pdfrwt>
<pdfrwt beam="2">  1       -2 0.24004365E+00 0.31744434E+04</pdfrwt>
<totfact> 0.68367207E-01</totfact>
</mgrwt>
</event>
<event>
 6    1  0.1934315E-005  0.2983654E+03  0.7818608E-02  0.1086061E+00
         -2   -1    0    0    0  501 -0.00000000000E+00  0.00000000000E+00  0.28143529489E+02  0.28143529489E+02  0.00000000000E+00 0. -1.
          2   -1    0    0  501    0  0.00000000000E+00 -0.00000000000E+00 -0.79078484872E+03  0.79078484872E+03  0.00000000000E+00 0.  1.
         23    2    1    2    0    0 -0.12975696357E+03 -0.22981128266E+02 -0.30669490734E+03  0.34432103275E+03  0.84440544478E+02 0.  0.
         11    1    3    3    0    0 -0.10926623262E+03  0.16291614364E+02 -0.19427885569E+03  0.22349228187E+03  0.00000000000E+00 0. -1.
        -11    1    3    3    0    0 -0.20490730951E+02 -0.39272742630E+02 -0.11241605165E+03  0.12082875087E+03  0.00000000000E+00 0.  1.
         22    1    1    2    0    0  0.12975696357E+03  0.22981128266E+02 -0.45594641189E+03  0.47460734546E+03  0.00000000000E+00 0.  1.
<mgrwt>
<rscale>  0 0.29836539E+03</rscale>
<asrwt>0</asrwt>
<pdfrwt beam="1">  1        2 0.12165920E+00 0.29836539E+03</pdfrwt>
<pdfrwt beam="2">  1       -2 0.43297740E-02 0.29836539E+03</pdfrwt>
<totfact> 0.87775213E+03</totfact>
</mgrwt>
</event>
<event>
 6    1  0.1934315E-005  0.2130333E+04  0.7818608E-02  0.8547998E-01
         -2   -1    0    0    0  501 -0.00000000000E+00  0.00000000000E+00  0.12234925472E+04  0.12234925472E+04  0.00000000000E+00 0. -1.
          2   -1    0    0  501    0  0.00000000000E+00 -0.00000000000E+00 -0.92732827816E+03  0.92732827816E+03  0.00000000000E+00 0.  1.
         23    2    1    2    0    0  0.73680647065E+02 -0.61195071901E+03 -0.72620937701E+03  0.95702000764E+03  0.92707688500E+02 0.  0.
         13    1    3    3    0    0  0.42548413833E+02 -0.18514836244E+03 -0.16762827535E+03  0.25335651231E+03  0.00000000000E+00 0. -1.
        -13    1    3    3    0    0  0.31132233232E+02 -0.42680235658E+03 -0.55858110166E+03  0.70366349533E+03  0.00000000000E+00 0.  1.
         22    1    1    2    0    0 -0.73680647065E+02  0.61195071901E+03  0.10223736460E+04  0.11938008177E+04  0.00000000000E+00 0. -1.
<mgrwt>
<rscale>  0 0.21303326E+04</rscale>
<asrwt>0</asrwt>
<pdfrwt beam="1">  1        2 0.14266589E+00 0.21303326E+04</pdfrwt>
<pdfrwt beam="2">  1       -2 0.18822962E+00 0.21303326E+04</pdfrwt>
<totfact> 0.41149604E+00</totfact>
</mgrwt>
</event>
<event>
 6    1  0.1934315E-005  0.1471908E+04  0.7818608E-02  0.8903351E-01
          4   -1    0    0  501    0  0.00000000000E+00  0.00000000000E+00  0.15720234155E+04  0.15720234155E+04  0.00000000000E+00 0.  1.
         -4   -1    0    0    0  501 -0.00000000000E+00 -0.00000000000E+00 -0.34454230747E+03  0.34454230747E+03  0.00000000000E+00 0. -1.
         23    2    1    2    0    0 -0.52334880420E+03 -0.49244509509E+03  0.80531897278E+03  0.10831288561E+04  0.90737691037E+02 0.  0.
         13    1    3    3    0    0 -0.22911324425E+03 -0.22524922648E+03  0.42728897355E+03  0.53460823005E+03  0.00000000000E+00 0.  1.
        -13    1    3    3    0    0 -0.29423555994E+03 -0.26719586861E+03  0.37802999923E+03  0.54852062610E+03  0.00000000000E+00 0. -1.
         22    1    1    2    0    0  0.52334880420E+03  0.49244509509E+03  0.42216213525E+03  0.83343686682E+03  0.00000000000E+00 0. -1.
<mgrwt>
<rscale>  0 0.14719084E+04</rscale>
<asrwt>0</asrwt>
<pdfrwt beam="1">  1        4 0.24184975E+00 0.14719084E+04</pdfrwt>
<pdfrwt beam="2">  1       -4 0.53006510E-01 0.14719084E+04</pdfrwt>
<totfact> 0.47028750E-01</totfact>
</mgrwt>
</event>
<event>
 6    1  0.1934315E-005  0.1035897E+04  0.7818608E-02  0.9270026E-01
          2   -1    0    0  501    0  0.00000000000E+00  0.00000000000E+00  0.24548183287E+04  0.24548183287E+04  0.00000000000E+00 0.  1.
         -2   -1    0    0    0  501 -0.00000000000E+00 -0.00000000000E+00 -0.10928339705E+03  0.10928339705E+03  0.00000000000E+00 0. -1.
         23    2    1    2    0    0 -0.11739646584E+03  0.48199144295E+03  0.15135457186E+04  0.15954409327E+04  0.92268338584E+02 0.  0.
         11    1    3    3    0    0 -0.21299468434E+02  0.19837646268E+03  0.72494033564E+03  0.75189452620E+03  0.00000000000E+00 0.  1.
        -11    1    3    3    0    0 -0.96096997410E+02  0.28361498027E+03  0.78860538293E+03  0.84354640651E+03  0.00000000000E+00 0. -1.
         22    1    1    2    0    0  0.11739646584E+03 -0.48199144295E+03  0.83198921308E+03  0.96866079303E+03  0.00000000000E+00 0. -1.
<mgrwt>
<rscale>  0 0.10358975E+04</rscale>
<asrwt>0</asrwt>
<pdfrwt beam="1">  1        2 0.37766432E+00 0.10358975E+04</pdfrwt>
<pdfrwt beam="2">  1       -2 0.16812832E-01 0.10358975E+04</pdfrwt>
<totfact> 0.10755562E+02</totfact>
</mgrwt>
</event>
<event>
 6    1  0.1934315E-005  0.1351927E+04  0.7818608E-02  0.8989370E-01
          1   -1    0    0  501    0  0.00000000000E+00  0.00000000000E+00  0.24924075918E+04  0.24924075918E+04  0.00000000000E+00 0.  1.
         -1   -1    0    0    0  501 -0.00000000000E+00 -0.00000000000E+00 -0.18332751461E+03  0.18332751461E+03  0.00000000000E+00 0. -1.
         23    2    1    2    0    0  0.98758527143E+02 -0.57523719759E+03  0.18220825797E+04  0.19155919339E+04  0.94108712525E+02 0.  0.
         13    1    3    3    0    0 -0.59184041611E+01 -0.21478078374E+03  0.61104672237E+03  0.64772209279E+03  0.00000000000E+00 0.  1.
        -13    1    3    3    0    0  0.10467693130E+03 -0.36045641384E+03  0.12110358573E+04  0.12678698411E+04  0.00000000000E+00 0. -1.
         22    1    1    2    0    0 -0.98758527143E+02  0.57523719759E+03  0.48699749749E+03  0.76014317253E+03  0.00000000000E+00 0. -1.
<mgrwt>
<rscale>  0 0.13519273E+04</rscale>
<asrwt>0</asrwt>
<pdfrwt beam="1">  1        1 0.38344730E+00 0.13519273E+04</pdfrwt>
<pdfrwt beam="2">  1       -1 0.28204235E-01 0.13519273E+04</pdfrwt>
<totfact> 0.15317750E+01</totfact>
</mgrwt>
</event>
<event>
 6    1  0.1934315E-005  0.2052041E+04  0.7818608E-02  0.8582669E-01
          2   -1    0    0  501    0  0.00000000000E+00  0.00000000000E+00  0.18064553958E+04  0.18064553958E+04  0.00000000000E+00 0.  1.
         -2   -1    0    0    0  501 -0.00000000000E+00 -0.00000000000E+00 -0.58275325044E+03  0.58275325044E+03  0.00000000000E+00 0. -1.
         23    2    1    2    0    0  0.20758148743E+03  0.48712329413E+02  0.17792161145E+04  0.17941802983E+04  0.89498579250E+02 0.  0.
         11    1    3    3    0    0  0.15889276940E+03  0.37054311250E+02  0.98792979091E+03  0.10013117426E+04  0.00000000000E+00 0. -1.
        -11    1    3    3    0    0  0.48688718029E+02  0.11658018163E+02  0.79128632360E+03  0.79286855567E+03  0.00000000000E+00 0.  1.
         22    1    1    2    0    0 -0.20758148743E+03 -0.48712329413E+02 -0.55551396914E+03  0.59502834796E+03  0.00000000000E+00 0. -1.
<mgrwt>
<rscale>  0 0.20520407E+04</rscale>
<asrwt>0</asrwt>
<pdfrwt beam="1">  1        2 0.27791621E+00 0.20520407E+04</pdfrwt>
<pdfrwt beam="2">  1       -2 0.89654346E-01 0.20520407E+04</pdfrwt>
<totfact> 0.84414583E+00</totfact>
</mgrwt>
</event>
<event>
 6    1  0.1934315E-005  0.3435854E+04  0.7818608E-02  0.8129162E-01
         -2   -1    0    0    0  501 -0.00000000000E+00  0.00000000000E+00  0.90310472005E+03  0.90310472005E+03  0.00000000000E+00 0. -1.
          2   -1    0    0  501    0  0.00000000000E+00 -0.00000000000E+00 -0.32679198406E+04  0.32679198406E+04  0.00000000000E+00 0.  1.
         23    2    1    2    0    0 -0.48111270542E+03 -0.14651407189E+04 -0.26751657832E+03  0.15678019546E+04  0.91274790697E+02 0.  0.
         13    1    3    3    0    0 -0.47242803832E+03 -0.13780460883E+04 -0.26156936641E+03  0.14800735814E+04  0.00000000000E+00 0.  1.
        -13    1    3    3    0    0 -0.86846670934E+01 -0.87094630665E+02 -0.59472119094E+01  0.87728373190E+02  0.00000000000E+00 0. -1.
         22    1    1    2    0    0  0.48111270542E+03  0.14651407189E+04 -0.20972985422E+04  0.26032226061E+04  0.00000000000E+00 0.  1.
<mgrwt>
<rscale>  0 0.34358544E+04</rscale>
<asrwt>0</asrwt>
<pdfrwt beam="1">  1        2 0.50275690E+00 0.34358544E+04</pdfrwt>
<pdfrwt beam="2">  1       -2 0.13893919E+00 0.34358544E+04</pdfrwt>
<totfact> 0.35361956E-01</totfact>
</mgrwt>
</event>
<event>
 6    1  0.1934315E-005  0.4332132E+04  0.7818608E-02  0.7940703E-01
          2   -1    0    0  501    0  0.00000000000E+00  0.00000000000E+00  0.32404912633E+04  0.32404912633E+04  0.00000000000E+00 0.  1.
         -2   -1    0    0    0  501 -0.00000000000E+00 -0.00000000000E+00 -0.14478797459E+04  0.14478797459E+04  0.00000000000E+00 0. -1.
         23    2    1    2    0    0  0.21810960093E+03 -0.41390825389E+03  0.31844918155E+04  0.32199628217E+04  0.90997852142E+02 0.  0.
         13    1    3    3    0    0  0.16894180971E+03 -0.24327130443E+03  0.18152805667E+04  0.18392840451E+04  0.00000000000E+00 0. -1.
        -13    1    3    3    0    0  0.49167791220E+02 -0.17063694946E+03  0.13692112488E+04  0.13806787766E+04  0.00000000000E+00 0.  1.
         22    1    1    2    0    0 -0.21810960093E+03  0.41390825389E+03 -0.13918802982E+04  0.14684081875E+04  0.00000000000E+00 0. -1.
<mgrwt>
<rscale>  0 0.43321319E+04</rscale>
<asrwt>0</asrwt>
<pdfrwt beam="1">  1        2 0.49853711E+00 0.43321319E+04</pdfrwt>
<pdfrwt beam="2">  1       -2 0.22275073E+00 0.43321319E+04</pdfrwt>
<totfact> 0.88862482E-02</totfact>
</mgrwt>
</event>
<event>
 6    1  0.1934315E-005  0.4571983E+04  0.7818608E-02  0.7898155E-01
         -2   -1    0    0    0  501 -0.00000000000E+00  0.00000000000E+00  0.31591781962E+04  0.31591781962E+04  0.00000000000E+00 0. -1.
          2   -1    0    0  501    0  0.00000000000E+00 -0.00000000000E+00 -0.16541507565E+04  0.16541507565E+04  0.00000000000E+00 0.  1.
         23    2    1    2    0    0 -0.11911889789E+04 -0.43988133591E+03 -0.12472430149E+04  0.17822533303E+04  0.91569766445E+02 0.  0.
         11    1    3    3    0    0 -0.65064676603E+03 -0.22100949258E+03 -0.73310624075E+03  0.10048040457E+04  0.00000000000E+00 0. -1.
        -11    1    3    3    0    0 -0.54054221287E+03 -0.21887184333E+03 -0.51413677415E+03  0.77744928467E+03  0.00000000000E+00 0.  1.
         22    1    1    2    0    0  0.11911889789E+04  0.43988133591E+03  0.27522704546E+04  0.30310756223E+04  0.00000000000E+00 0. -1.
<mgrwt>
<rscale>  0 0.45719829E+04</rscale>
<asrwt>0</asrwt>
<pdfrwt beam="1">  1        2 0.25448473E+00 0.45719829E+04</pdfrwt>
<pdfrwt beam="2">  1       -2 0.48602741E+00 0.45719829E+04</pdfrwt>
<totfact> 0.15884316E-02</totfact>
</mgrwt>
</event>
<event>
 6    1  0.1934315E-005  0.2690561E+04  0.7818608E-02  0.8338074E-01
         -2   -1    0    0    0  501 -0.00000000000E+00  0.00000000000E+00  0.18378535700E+04  0.18378535700E+04  0.00000000000E+00 0. -1.
          2   -1    0    0  501    0  0.00000000000E+00 -0.00000000000E+00 -0.98472474272E+03  0.98472474272E+03  0.00000000000E+00 0.  1.
         23    2    1    2    0    0  0.24364972307E+02  0.72382271934E+03  0.16144185122E+04  0.17718285969E+04  0.92284686844E+02 0.  0.
         13    1    3    3    0    0 -0.29617794618E+02  0.17100908842E+03  0.34435747908E+03  0.38562079233E+03  0.00000000000E+00 0.  1.
        -13    1    3    3    0    0  0.53982766925E+02  0.55281363092E+03  0.12700610331E+04  0.13862078046E+04  0.00000000000E+00 0. -1.
         22    1    1    2    0    0 -0.24364972307E+02 -0.72382271934E+03 -0.76128968491E+03  0.10507497158E+04  0.00000000000E+00 0.  1.
<mgrwt>
<rscale>  0 0.26905612E+04</rscale>
<asrwt>0</asrwt>
<pdfrwt beam="1">  1        2 0.15149612E+00 0.26905612E+04</pdfrwt>
<pdfrwt beam="2">  1       -2 0.28274670E+00 0.26905612E+04</pdfrwt>
<totfact> 0.91663939E-01</totfact>
</mgrwt>
</event>
<event>
 6    1  0.1934315E-005  0.7430481E+03  0.7818608E-02  0.9646320E-01
          2   -1    0    0  501    0  0.00000000000E+00  0.00000000000E+00  0.66183437261E+03  0.66183437261E+03  0.00000000000E+00 0.  1.
         -2   -1    0    0    0  501 -0.00000000000E+00 -0.00000000000E+00 -0.20855689981E+03  0.20855689981E+03  0.00000000000E+00 0. -1.
         23    2    1    2    0    0 -0.19413579082E+03  0.20773627196E+03  0.50005410954E+03  0.58224006609E+03  0.90035093856E+02 0.  0.
         13    1    3    3    0    0 -0.21829895522E+02  0.27107399344E+02  0.17536718011E+02  0.38972963914E+02  0.00000000000E+00 0. -1.
        -13    1    3    3    0    0 -0.17230589530E+03  0.18062887262E+03  0.48251739152E+03  0.54326710217E+03  0.00000000000E+00 0.  1.
         22    1    1    2    0    0  0.19413579082E+03 -0.20773627196E+03 -0.46776636735E+02  0.28815120633E+03  0.00000000000E+00 0. -1.
<mgrwt>
<rscale>  0 0.74304811E+03</rscale>
<asrwt>0</asrwt>
<pdfrwt beam="1">  1        2 0.10182067E+00 0.74304811E+03</pdfrwt>
<pdfrwt beam="2">  1       -2 0.32085677E-01 0.74304811E+03</pdfrwt>
<totfact> 0.39971755E+02</totfact>
</mgrwt>
</event>
<event>
 6    1  0.1934315E-005  0.5326257E+04  0.7818608E-02  0.7780059E-01
         -2   -1    0    0    0  501 -0.00000000000E+00  0.00000000000E+00  0.21277376555E+04  0.21277376555E+04  0.00000000000E+00 0. -1.
          2   -1    0    0  501    0  0.00000000000E+00 -0.00000000000E+00 -0.33332367659E+04  0.33332367659E+04  0.00000000000E+00 0.  1.
         23    2    1    2    0    0 -0.50328089880E+03 -0.11972728816E+04  0.17799890715E+04  0.22052266271E+04  0.88934618305E+02 0.  0.
         11    1    3    3    0    0 -0.23675933400E+03 -0.66112431577E+03  0.92186340197E+03  0.11588668927E+04  0.00000000000E+00 0. -1.
        -11    1    3    3    0    0 -0.26652156480E+03 -0.53614856579E+03  0.85812566953E+03  0.10463597344E+04  0.00000000000E+00 0.  1.
         22    1    1    2    0    0  0.50328089880E+03  0.11972728816E+04 -0.29854881818E+04  0.32557477943E+04  0.00000000000E+00 0.  1.
<mgrwt>
<rscale>  0 0.53262570E+04</rscale>
<asrwt>0</asrwt>
<pdfrwt beam="1">  1        2 0.51280566E+00 0.53262570E+04</pdfrwt>
<pdfrwt beam="2">  1       -2 0.32734426E+00 0.53262570E+04</pdfrwt>
<totfact> 0.16165677E-02</totfact>
</mgrwt>
</event>
<event>
 6    1  0.1934315E-005  0.4378116E+04  0.7818608E-02  0.7932329E-01
         -2   -1    0    0    0  501 -0.00000000000E+00  0.00000000000E+00  0.15200628140E+04  0.15200628140E+04  0.00000000000E+00 0. -1.
          2   -1    0    0  501    0  0.00000000000E+00 -0.00000000000E+00 -0.31524850919E+04  0.31524850919E+04  0.00000000000E+00 0.  1.
         23    2    1    2    0    0 -0.26647878621E+03  0.19604110343E+04 -0.18140807292E+04  0.26857861789E+04  0.91302463650E+02 0.  0.
         13    1    3    3    0    0 -0.10570203154E+03  0.80801096865E+03 -0.68684169663E+03  0.10657420707E+04  0.00000000000E+00 0.  1.
        -13    1    3    3    0    0 -0.16077675466E+03  0.11524000656E+04 -0.11272390325E+04  0.16200441082E+04  0.00000000000E+00 0. -1.
         22    1    1    2    0    0  0.26647878621E+03 -0.19604110343E+04  0.18165845124E+03  0.19867617270E+04  0.00000000000E+00 0.  1.
<mgrwt>
<rscale>  0 0.43781162E+04</rscale>
<asrwt>0</asrwt>
<pdfrwt beam="1">  1        2 0.48499770E+00 0.43781162E+04</pdfrwt>
<pdfrwt beam="2">  1       -2 0.23385582E+00 0.43781162E+04</pdfrwt>
<totfact> 0.86098588E-02</totfact>
</mgrwt>
</event>
<event>
 6    1  0.2810041E-005  0.4104314E+04  0.7818608E-02  0.7983827E-01
          2   -1    0    0  501    0  0.00000000000E+00  0.00000000000E+00  0.35984927947E+04  0.35984927947E+04  0.00000000000E+00 0.  1.
         -2   -1    0    0    0  501 -0.00000000000E+00 -0.00000000000E+00 -0.11703090355E+04  0.11703090355E+04  0.00000000000E+00 0. -1.
         23    2    1    2    0    0  0.14299935777E+04 -0.14703816359E+04  0.11781940584E+04  0.23668488666E+04  0.83237795518E+02 0.  0.
         11    1    3    3    0    0  0.49157114635E+03 -0.47047733114E+03  0.35556398447E+03  0.76773488790E+03  0.00000000000E+00 0.  1.
        -11    1    3    3    0    0  0.93842243135E+03 -0.99990430477E+03  0.82263007395E+03  0.15991139787E+04  0.00000000000E+00 0. -1.
         22    1    1    2    0    0 -0.14299935777E+04  0.14703816359E+04  0.12499897008E+04  0.24019529636E+04  0.00000000000E+00 0.  1.
<mgrwt>
<rscale>  0 0.41043141E+04</rscale>
<asrwt>0</asrwt>
<pdfrwt beam="1">  1        2 0.55361427E+00 0.41043141E+04</pdfrwt>
<pdfrwt beam="2">  1       -2 0.18004755E+00 0.41043141E+04</pdfrwt>
<totfact> 0.97889875E-02</totfact>
</mgrwt>
</event>
<event>
 6    1  0.1934315E-005  0.1056242E+04  0.7818608E-02  0.9248923E-01
         -2   -1    0    0    0  501 -0.00000000000E+00  0.00000000000E+00  0.56150599698E+03  0.56150599698E+03  0.00000000000E+00 0. -1.
          2   -1    0    0  501    0  0.00000000000E+00 -0.00000000000E+00 -0.49672104577E+03  0.49672104577E+03  0.00000000000E+00 0.  1.
         23    2    1    2    0    0 -0.48017009996E+03  0.20092217944E+03 -0.30660965286E+02  0.52903617920E+03  0.89477019519E+02 0.  0.
         11    1    3    3    0    0 -0.33501213347E+03  0.12819943474E+03  0.19140566799E+02  0.35921384430E+03  0.00000000000E+00 0.  1.
        -11    1    3    3    0    0 -0.14515796649E+03  0.72722744699E+02 -0.49801532085E+02  0.16982233490E+03  0.00000000000E+00 0. -1.
         22    1    1    2    0    0  0.48017009996E+03 -0.20092217944E+03  0.95445916496E+02  0.52919086355E+03  0.00000000000E+00 0. -1.
<mgrwt>
<rscale>  0 0.10562421E+04</rscale>
<asrwt>0</asrwt>
<pdfrwt beam="1">  1        2 0.76418622E-01 0.10562421E+04</pdfrwt>
<pdfrwt beam="2">  1       -2 0.86385538E-01 0.10562421E+04</pdfrwt>
<totfact> 0.71766453E+01</totfact>
</mgrwt>
</event>
<event>
 6    1  0.1934315E-005  0.2802456E+04  0.7818608E-02  0.8302506E-01
          2   -1    0    0  501    0  0.00000000000E+00  0.00000000000E+00  0.13392219195E+04  0.13392219195E+04  0.00000000000E+00 0.  1.
         -2   -1    0    0    0  501 -0.00000000000E+00 -0.00000000000E+00 -0.14661046488E+04  0.14661046488E+04  0.00000000000E+00 0. -1.
         23    2    1    2    0    0  0.48462961705E+03 -0.81304114540E+03 -0.10958094612E+04  0.14508079152E+04  0.90241131695E+02 0.  0.
         11    1    3    3    0    0  0.38563518469E+03 -0.70726460561E+03 -0.91389011429E+03  0.12182499165E+04  0.00000000000E+00 0.  1.
        -11    1    3    3    0    0  0.98994432358E+02 -0.10577653980E+03 -0.18191934687E+03  0.23255799874E+03  0.00000000000E+00 0. -1.
         22    1    1    2    0    0 -0.48462961705E+03  0.81304114540E+03  0.96892673187E+03  0.13545186531E+04  0.00000000000E+00 0.  1.
<mgrwt>
<rscale>  0 0.28024557E+04</rscale>
<asrwt>0</asrwt>
<pdfrwt beam="1">  1        2 0.20603414E+00 0.28024557E+04</pdfrwt>
<pdfrwt beam="2">  1       -2 0.22555456E+00 0.28024557E+04</pdfrwt>
<totfact> 0.12441414E+00</totfact>
</mgrwt>
</event>
<event>
 6    1  0.1934315E-005  0.1907130E+04  0.7818608E-02  0.8651315E-01
          2   -1    0    0  501    0  0.00000000000E+00  0.00000000000E+00  0.12036939003E+04  0.12036939003E+04  0.00000000000E+00 0.  1.
         -2   -1    0    0    0  501 -0.00000000000E+00 -0.00000000000E+00 -0.75541333662E+03  0.75541333662E+03  0.00000000000E+00 0. -1.
         23    2    1    2    0    0  0.56354006192E+03 -0.62850883159E+03  0.67544138974E+03  0.10849203040E+04  0.90720682482E+02 0.  0.
         13    1    3    3    0    0  0.32619990541E+03 -0.36035675982E+03  0.33110724154E+03  0.58812870873E+03  0.00000000000E+00 0.  1.
        -13    1    3    3    0    0  0.23734015652E+03 -0.26815207178E+03  0.34433414820E+03  0.49679159525E+03  0.00000000000E+00 0. -1.
         22    1    1    2    0    0 -0.56354006192E+03  0.62850883159E+03 -0.22716082608E+03  0.87418693292E+03  0.00000000000E+00 0. -1.
<mgrwt>
<rscale>  0 0.19071302E+04</rscale>
<asrwt>0</asrwt>
<pdfrwt beam="1">  1        2 0.18518368E+00 0.19071302E+04</pdfrwt>
<pdfrwt beam="2">  1       -2 0.11621744E+00 0.19071302E+04</pdfrwt>
<totfact> 0.10138099E+01</totfact>
</mgrwt>
</event>
<event>
 6    1  0.1934315E-005  0.2619827E+04  0.7818608E-02  0.8361497E-01
          2   -1    0    0  501    0  0.00000000000E+00  0.00000000000E+00  0.26437155469E+04  0.26437155469E+04  0.00000000000E+00 0. -1.
         -2   -1    0    0    0  501 -0.00000000000E+00 -0.00000000000E+00 -0.64903881994E+03  0.64903881994E+03  0.00000000000E+00 0.  1.
         23    2    1    2    0    0  0.63636650755E+03 -0.11095982341E+03  0.24285063174E+04  0.25146267888E+04  0.91817966520E+02 0.  0.
         11    1    3    3    0    0  0.19938797524E+03 -0.24060164460E+02  0.60421963885E+03  0.63672272471E+03  0.00000000000E+00 0. -1.
        -11    1    3    3    0    0  0.43697853232E+03 -0.86899658953E+02  0.18242866785E+04  0.18779040641E+04  0.00000000000E+00 0.  1.
         22    1    1    2    0    0 -0.63636650755E+03  0.11095982341E+03 -0.43382959035E+03  0.77812757811E+03  0.00000000000E+00 0.  1.
<mgrwt>
<rscale>  0 0.26198275E+04</rscale>
<asrwt>0</asrwt>
<pdfrwt beam="1">  1        2 0.40672546E+00 0.26198275E+04</pdfrwt>
<pdfrwt beam="2">  1       -2 0.99852127E-01 0.26198275E+04</pdfrwt>
<totfact> 0.20988890E+00</totfact>
</mgrwt>
</event>
<event>
 6    1  0.1934315E-005  0.2162260E+04  0.7818608E-02  0.8534303E-01
         -2   -1    0    0    0  501 -0.00000000000E+00  0.00000000000E+00  0.10101751927E+04  0.10101751927E+04  0.00000000000E+00 0. -1.
          2   -1    0    0  501    0  0.00000000000E+00 -0.00000000000E+00 -0.11570684738E+04  0.11570684738E+04  0.00000000000E+00 0.  1.
         23    2    1    2    0    0 -0.94359952052E+03  0.22893004358E+03 -0.54562429862E+03  0.11175887497E+04  0.92248134379E+02 0.  0.
         11    1    3    3    0    0 -0.40070611606E+03  0.12059425465E+03 -0.18973329368E+03  0.45946391418E+03  0.00000000000E+00 0.  1.
        -11    1    3    3    0    0 -0.54289340445E+03  0.10833578893E+03 -0.35589100494E+03  0.65812483555E+03  0.00000000000E+00 0. -1.
         22    1    1    2    0    0  0.94359952052E+03 -0.22893004358E+03  0.39873101756E+03  0.10496549168E+04  0.00000000000E+00 0. -1.
<mgrwt>
<rscale>  0 0.21622598E+04</rscale>
<asrwt>0</asrwt>
<pdfrwt beam="1">  1        2 0.17801053E+00 0.21622598E+04</pdfrwt>
<pdfrwt beam="2">  1       -2 0.15541157E+00 0.21622598E+04</pdfrwt>
<totfact> 0.50241326E+00</totfact>
</mgrwt>
</event>
<event>
 6    1  0.1934315E-005  0.1407598E+04  0.7818608E-02  0.8948337E-01
         -1   -1    0    0    0  501 -0.00000000000E+00  0.00000000000E+00  0.82132379990E+03  0.82132379990E+03  0.00000000000E+00 0. -1.
          1   -1    0    0  501    0  0.00000000000E+00 -0.00000000000E+00 -0.60309088748E+03  0.60309088748E+03  0.00000000000E+00 0.  1.
         23    2    1    2    0    0  0.56826051065E+03  0.28639835704E+03 -0.18631193245E+03  0.67035861625E+03  0.98612936897E+02 0.  0.
         11    1    3    3    0    0  0.21733073880E+03  0.12145952954E+03 -0.12218238910E+03  0.27733301922E+03  0.00000000000E+00 0. -1.
        -11    1    3    3    0    0  0.35092977185E+03  0.16493882750E+03 -0.64129543347E+02  0.39302559703E+03  0.00000000000E+00 0.  1.
         22    1    1    2    0    0 -0.56826051065E+03 -0.28639835704E+03  0.40454484487E+03  0.75405607112E+03  0.00000000000E+00 0. -1.
<mgrwt>
<rscale>  0 0.14075978E+04</rscale>
<asrwt>0</asrwt>
<pdfrwt beam="1">  1        1 0.92783213E-01 0.14075978E+04</pdfrwt>
<pdfrwt beam="2">  1       -1 0.12635751E+00 0.14075978E+04</pdfrwt>
<totfact> 0.18050837E+01</totfact>
</mgrwt>
</event>
<event>
 6    1  0.1934315E-005  0.2210554E+04  0.7818608E-02  0.8514048E-01
          2   -1    0    0  501    0  0.00000000000E+00  0.00000000000E+00  0.28296495768E+04  0.28296495768E+04  0.00000000000E+00 0.  1.
         -2   -1    0    0    0  501 -0.00000000000E+00 -0.00000000000E+00 -0.43172742902E+03  0.43172742902E+03  0.00000000000E+00 0. -1.
         23    2    1    2    0    0 -0.14226482227E+02  0.92162540636E+03  0.20958706268E+04  0.22914126231E+04  0.91117190914E+02 0.  0.
         13    1    3    3    0    0 -0.91865354924E+01  0.69470094900E+03  0.14774168597E+04  0.16326219337E+04  0.00000000000E+00 0. -1.
        -13    1    3    3    0    0 -0.50399467345E+01  0.22692445736E+03  0.61845376713E+03  0.65879068944E+03  0.00000000000E+00 0.  1.
         22    1    1    2    0    0  0.14226482227E+02 -0.92162540636E+03  0.30205152097E+03  0.96996438273E+03  0.00000000000E+00 0. -1.
<mgrwt>
<rscale>  0 0.22105541E+04</rscale>
<asrwt>0</asrwt>
<pdfrwt beam="1">  1        2 0.43533069E+00 0.22105541E+04</pdfrwt>
<pdfrwt beam="2">  1       -2 0.66419606E-01 0.22105541E+04</pdfrwt>
<totfact> 0.42246852E+00</totfact>
</mgrwt>
</event>
<event>
 6    1  0.1934315E-005  0.7937473E+03  0.7818608E-02  0.9569112E-01
         -2   -1    0    0    0  501 -0.00000000000E+00  0.00000000000E+00  0.58918005587E+02  0.58918005587E+02  0.00000000000E+00 0. -1.
          2   -1    0    0  501    0  0.00000000000E+00 -0.00000000000E+00 -0.26733542199E+04  0.26733542199E+04  0.00000000000E+00 0.  1.
         23    2    1    2    0    0  0.19951199183E+03 -0.32482546342E+03 -0.10236491565E+04  0.10964482497E+04  0.94997642157E+02 0.  0.
         11    1    3    3    0    0  0.55292140378E+02 -0.14054927657E+03 -0.51231294414E+03  0.53411222853E+03  0.00000000000E+00 0.  1.
        -11    1    3    3    0    0  0.14421985146E+03 -0.18427618686E+03 -0.51133621239E+03  0.56233602116E+03  0.00000000000E+00 0. -1.
         22    1    1    2    0    0 -0.19951199183E+03  0.32482546342E+03 -0.15907870578E+04  0.16358239758E+04  0.00000000000E+00 0.  1.
<mgrwt>
<rscale>  0 0.79374731E+03</rscale>
<asrwt>0</asrwt>
<pdfrwt beam="1">  1        2 0.41128519E+00 0.79374731E+03</pdfrwt>
<pdfrwt beam="2">  1       -2 0.90643102E-02 0.79374731E+03</pdfrwt>
<totfact> 0.23036080E+02</totfact>
</mgrwt>
</event>
<event>
 6    1  0.1934315E-005  0.5563338E+04  0.7818608E-02  0.7747033E-01
          1   -1    0    0  501    0  0.00000000000E+00  0.00000000000E+00  0.39652460249E+04  0.39652460249E+04  0.00000000000E+00 0. -1.
         -1   -1    0    0    0  501 -0.00000000000E+00 -0.00000000000E+00 -0.19513751678E+04  0.19513751678E+04  0.00000000000E+00 0.  1.
         23    2    1    2    0    0 -0.24772161432E+04  0.53929406198E+03  0.22227314660E+04  0.33727932388E+04  0.88097423711E+02 0.  0.
         13    1    3    3    0    0 -0.42260184169E+03  0.58349646568E+02  0.37629014103E+03  0.56885083114E+03  0.00000000000E+00 0.  1.
        -13    1    3    3    0    0 -0.20546143015E+04  0.48094441541E+03  0.18464413250E+04  0.28039424076E+04  0.00000000000E+00 0. -1.
         22    1    1    2    0    0  0.24772161432E+04 -0.53929406198E+03 -0.20886060897E+03  0.25438279539E+04  0.00000000000E+00 0.  1.
<mgrwt>
<rscale>  0 0.55633381E+04</rscale>
<asrwt>0</asrwt>
<pdfrwt beam="1">  1        1 0.61003785E+00 0.55633381E+04</pdfrwt>
<pdfrwt beam="2">  1       -1 0.30021156E+00 0.55633381E+04</pdfrwt>
<totfact> 0.23326253E-03</totfact>
</mgrwt>
</event>
<event>
 6    1  0.1934315E-005  0.1486780E+04  0.7818608E-02  0.8893292E-01
         -2   -1    0    0    0  501 -0.00000000000E+00  0.00000000000E+00  0.23301785679E+03  0.23301785679E+03  0.00000000000E+00 0. -1.
          2   -1    0    0  501    0  0.00000000000E+00 -0.00000000000E+00 -0.23716143036E+04  0.23716143036E+04  0.00000000000E+00 0.  1.
         23    2    1    2    0    0 -0.11868688050E+03  0.52380036756E+03 -0.18023647085E+03  0.57396054830E+03  0.92152726108E+02 0.  0.
         13    1    3    3    0    0 -0.11656422363E+03  0.31167564845E+03 -0.10702414549E+03  0.34954698652E+03  0.00000000000E+00 0.  1.
        -13    1    3    3    0    0 -0.21226568713E+01  0.21212471910E+03 -0.73212325358E+02  0.22441356178E+03  0.00000000000E+00 0. -1.
         22    1    1    2    0    0  0.11868688050E+03 -0.52380036756E+03 -0.19583599760E+04  0.20306716121E+04  0.00000000000E+00 0.  1.
<mgrwt>
<rscale>  0 0.14867797E+04</rscale>
<asrwt>0</asrwt>
<pdfrwt beam="1">  1        2 0.36486373E+00 0.14867797E+04</pdfrwt>
<pdfrwt beam="2">  1       -2 0.35848902E-01 0.14867797E+04</pdfrwt>
<totfact> 0.29263410E+01</totfact>
</mgrwt>
</event>
<event>
 6    1  0.1934315E-005  0.7851131E+03  0.7818608E-02  0.9581819E-01
         -2   -1    0    0    0  501 -0.00000000000E+00  0.00000000000E+00  0.41043040255E+03  0.41043040255E+03  0.00000000000E+00 0. -1.
          2   -1    0    0  501    0  0.00000000000E+00 -0.00000000000E+00 -0.37546108080E+03  0.37546108080E+03  0.00000000000E+00 0.  1.
         23    2    1    2    0    0 -0.88189964322E+01  0.22546308929E+03 -0.29861563372E+03  0.38316291242E+03  0.82043533687E+02 0.  0.
         11    1    3    3    0    0  0.13769332770E+02  0.14575444538E+03 -0.13216770278E+03  0.19723654461E+03  0.00000000000E+00 0. -1.
        -11    1    3    3    0    0 -0.22588329202E+02  0.79708643911E+02 -0.16644793094E+03  0.18592636781E+03  0.00000000000E+00 0.  1.
         22    1    1    2    0    0  0.88189964322E+01 -0.22546308929E+03  0.33358495547E+03  0.40272857094E+03  0.00000000000E+00 0. -1.
<mgrwt>
<rscale>  0 0.78511309E+03</rscale>
<asrwt>0</asrwt>
<pdfrwt beam="1">  1        2 0.57763244E-01 0.78511309E+03</pdfrwt>
<pdfrwt beam="2">  1       -2 0.63143138E-01 0.78511309E+03</pdfrwt>
<totfact> 0.20002077E+02</totfact>
</mgrwt>
</event>
<event>
 6    1  0.1934315E-005  0.2149521E+04  0.7818608E-02  0.8539737E-01
          2   -1    0    0  501    0  0.00000000000E+00  0.00000000000E+00  0.80744551802E+03  0.80744551802E+03  0.00000000000E+00 0.  1.
         -2   -1    0    0    0  501 -0.00000000000E+00 -0.00000000000E+00 -0.14305736980E+04  0.14305736980E+04  0.00000000000E+00 0. -1.
         23    2    1    2    0    0  0.12928684752E+03 -0.10209103671E+04  0.37527561328E+01  0.10330491854E+04  0.90573007891E+02 0.  0.
         13    1    3    3    0    0  0.49688814598E+02 -0.29165474295E+03  0.40100650958E+02  0.29856243834E+03  0.00000000000E+00 0.  1.
        -13    1    3    3    0    0  0.79598032923E+02 -0.72925562415E+03 -0.36347894825E+02  0.73448674709E+03  0.00000000000E+00 0. -1.
         22    1    1    2    0    0 -0.12928684752E+03  0.10209103671E+04 -0.62688093616E+03  0.12049700306E+04  0.00000000000E+00 0.  1.
<mgrwt>
<rscale>  0 0.21495212E+04</rscale>
<asrwt>0</asrwt>
<pdfrwt beam="1">  1        2 0.12422239E+00 0.21495212E+04</pdfrwt>
<pdfrwt beam="2">  1       -2 0.22008826E+00 0.21495212E+04</pdfrwt>
<totfact> 0.30811003E+00</totfact>
</mgrwt>
</event>
<event>
 6    1  0.1934315E-005  0.4450811E+04  0.7818608E-02  0.7919305E-01
         -2   -1    0    0    0  501 -0.00000000000E+00  0.00000000000E+00  0.18607838143E+04  0.18607838143E+04  0.00000000000E+00 0. -1.
          2   -1    0    0  501    0  0.00000000000E+00 -0.00000000000E+00 -0.26614746573E+04  0.26614746573E+04  0.00000000000E+00 0.  1.
         23    2    1    2    0    0 -0.35428065739E+02  0.20495554680E+04  0.47772953178E+03  0.21064167097E+04  0.82662476330E+02 0.  0.
         11    1    3    3    0    0  0.24740558584E+02  0.37313688264E+03  0.80211131392E+02  0.38246183342E+03  0.00000000000E+00 0. -1.
        -11    1    3    3    0    0 -0.60168624322E+02  0.16764185854E+04  0.39751840039E+03  0.17239548762E+04  0.00000000000E+00 0.  1.
         22    1    1    2    0    0  0.35428065739E+02 -0.20495554680E+04 -0.12784203748E+04  0.24158417620E+04  0.00000000000E+00 0.  1.
<mgrwt>
<rscale>  0 0.44508107E+04</rscale>
<asrwt>0</asrwt>
<pdfrwt beam="1">  1        2 0.40945764E+00 0.44508107E+04</pdfrwt>
<pdfrwt beam="2">  1       -2 0.28627443E+00 0.44508107E+04</pdfrwt>
<totfact> 0.82103221E-02</totfact>
</mgrwt>
</event>
<event>
 6    1  0.1934315E-005  0.2136094E+04  0.7818608E-02  0.8545508E-01
          2   -1    0    0  501    0  0.00000000000E+00  0.00000000000E+00  0.11979129708E+04  0.11979129708E+04  0.00000000000E+00 0. -1.
         -2   -1    0    0    0  501 -0.00000000000E+00 -0.00000000000E+00 -0.95225966970E+03  0.95225966970E+03  0.00000000000E+00 0.  1.
         23    2    1    2    0    0  0.13703599725E+03 -0.48033514880E+03  0.10709967415E+04  0.11854485793E+04  0.93560644012E+02 0.  0.
         11    1    3    3    0    0  0.15004286919E+03 -0.46004215251E+03  0.10267439365E+04  0.11350571597E+04  0.00000000000E+00 0. -1.
        -11    1    3    3    0    0 -0.13006871937E+02 -0.20292996283E+02  0.44252805065E+02  0.50391419626E+02  0.00000000000E+00 0.  1.
         22    1    1    2    0    0 -0.13703599725E+03  0.48033514880E+03 -0.82534344039E+03  0.96472406123E+03  0.00000000000E+00 0.  1.
<mgrwt>
<rscale>  0 0.21360938E+04</rscale>
<asrwt>0</asrwt>
<pdfrwt beam="1">  1        2 0.18429430E+00 0.21360938E+04</pdfrwt>
<pdfrwt beam="2">  1       -2 0.14650149E+00 0.21360938E+04</pdfrwt>
<totfact> 0.55667296E+00</totfact>
</mgrwt>
</event>
<event>
 6    1  0.1934315E-005  0.3137586E+04  0.7818608E-02  0.8205498E-01
          2   -1    0    0  501    0  0.00000000000E+00  0.00000000000E+00  0.20451430290E+04  0.20451430290E+04  0.00000000000E+00 0.  1.
         -2   -1    0    0    0  501 -0.00000000000E+00 -0.00000000000E+00 -0.12033934999E+04  0.12033934999E+04  0.00000000000E+00 0. -1.
         23    2    1    2    0    0  0.86459406925E+02  0.61403106794E+03 -0.10693230622E+04  0.12393805294E+04  0.90016131579E+02 0.  0.
         11    1    3    3    0    0  0.54670289221E+02  0.30413175646E+03 -0.61848021039E+03  0.69137741969E+03  0.00000000000E+00 0.  1.
        -11    1    3    3    0    0  0.31789117704E+02  0.30989931148E+03 -0.45084285178E+03  0.54800310972E+03  0.00000000000E+00 0. -1.
         22    1    1    2    0    0 -0.86459406925E+02 -0.61403106794E+03  0.19110725912E+04  0.20091559995E+04  0.00000000000E+00 0.  1.
<mgrwt>
<rscale>  0 0.31375862E+04</rscale>
<asrwt>0</asrwt>
<pdfrwt beam="1">  1        2 0.31463739E+00 0.31375862E+04</pdfrwt>
<pdfrwt beam="2">  1       -2 0.18513746E+00 0.31375862E+04</pdfrwt>
<totfact> 0.89232250E-01</totfact>
</mgrwt>
</event>
<event>
 6    1  0.1934315E-005  0.2158094E+04  0.7818608E-02  0.8536076E-01
         -2   -1    0    0    0  501 -0.00000000000E+00  0.00000000000E+00  0.59028428544E+03  0.59028428544E+03  0.00000000000E+00 0. -1.
          2   -1    0    0  501    0  0.00000000000E+00 -0.00000000000E+00 -0.19725104193E+04  0.19725104193E+04  0.00000000000E+00 0.  1.
         23    2    1    2    0    0 -0.58658256490E+03 -0.51369752702E+03 -0.15747807014E+04  0.17596499382E+04  0.92029303876E+02 0.  0.
         11    1    3    3    0    0 -0.19519582092E+03 -0.22770215242E+03 -0.63180616771E+03  0.69937737472E+03  0.00000000000E+00 0. -1.
        -11    1    3    3    0    0 -0.39138674398E+03 -0.28599537460E+03 -0.94297453365E+03  0.10602725634E+04  0.00000000000E+00 0.  1.
         22    1    1    2    0    0  0.58658256490E+03  0.51369752702E+03  0.19255456746E+03  0.80314476662E+03  0.00000000000E+00 0. -1.
<mgrwt>
<rscale>  0 0.21580935E+04</rscale>
<asrwt>0</asrwt>
<pdfrwt beam="1">  1        2 0.30346314E+00 0.21580935E+04</pdfrwt>
<pdfrwt beam="2">  1       -2 0.90812966E-01 0.21580935E+04</pdfrwt>
<totfact> 0.65696117E+00</totfact>
</mgrwt>
</event>
<event>
 6    1  0.1934315E-005  0.3722196E+04  0.7818608E-02  0.8063061E-01
         -2   -1    0    0    0  501 -0.00000000000E+00  0.00000000000E+00  0.11622476024E+04  0.11622476024E+04  0.00000000000E+00 0. -1.
          2   -1    0    0  501    0  0.00000000000E+00 -0.00000000000E+00 -0.29801616843E+04  0.29801616843E+04  0.00000000000E+00 0.  1.
         23    2    1    2    0    0 -0.22083115374E+03 -0.76741955241E+03  0.96017880329E+03  0.12518212416E+04  0.86104115774E+02 0.  0.
         13    1    3    3    0    0 -0.20853307316E+03 -0.59999161742E+03  0.76790881432E+03  0.99657409694E+03  0.00000000000E+00 0.  1.
        -13    1    3    3    0    0 -0.12298080586E+02 -0.16742793499E+03  0.19226998897E+03  0.25524714466E+03  0.00000000000E+00 0. -1.
         22    1    1    2    0    0  0.22083115374E+03  0.76741955241E+03 -0.27780928852E+04  0.28905880451E+04  0.00000000000E+00 0.  1.
<mgrwt>
<rscale>  0 0.37221960E+04</rscale>
<asrwt>0</asrwt>
<pdfrwt beam="1">  1        2 0.45848642E+00 0.37221960E+04</pdfrwt>
<pdfrwt beam="2">  1       -2 0.17880732E+00 0.37221960E+04</pdfrwt>
<totfact> 0.26702374E-01</totfact>
</mgrwt>
</event>
<event>
 6    1  0.1934315E-005  0.2216309E+04  0.7818608E-02  0.8511671E-01
         -2   -1    0    0    0  501 -0.00000000000E+00  0.00000000000E+00  0.54923797688E+03  0.54923797688E+03  0.00000000000E+00 0. -1.
          2   -1    0    0  501    0  0.00000000000E+00 -0.00000000000E+00 -0.22358363964E+04  0.22358363964E+04  0.00000000000E+00 0.  1.
         23    2    1    2    0    0  0.47262708337E+03  0.93249194898E+03 -0.39023071621E+03  0.11196954924E+04  0.92305952743E+02 0.  0.
         13    1    3    3    0    0  0.25854059923E+03  0.57022697159E+03 -0.27179668583E+03  0.68255071534E+03  0.00000000000E+00 0. -1.
        -13    1    3    3    0    0  0.21408648415E+03  0.36226497739E+03 -0.11843403038E+03  0.43714477703E+03  0.00000000000E+00 0.  1.
         22    1    1    2    0    0 -0.47262708337E+03 -0.93249194898E+03 -0.12963677033E+04  0.16653788809E+04  0.00000000000E+00 0.  1.
<mgrwt>
<rscale>  0 0.22163089E+04</rscale>
<asrwt>0</asrwt>
<pdfrwt beam="1">  1        2 0.34397482E+00 0.22163089E+04</pdfrwt>
<pdfrwt beam="2">  1       -2 0.84498152E-01 0.22163089E+04</pdfrwt>
<totfact> 0.54943203E+00</totfact>
</mgrwt>
</event>
<event>
 6    1  0.1934315E-005  0.1433008E+04  0.7818608E-02  0.8930266E-01
         -2   -1    0    0    0  501 -0.00000000000E+00  0.00000000000E+00  0.48583853902E+03  0.48583853902E+03  0.00000000000E+00 0. -1.
          2   -1    0    0  501    0  0.00000000000E+00 -0.00000000000E+00 -0.10566843741E+04  0.10566843741E+04  0.00000000000E+00 0.  1.
         23    2    1    2    0    0  0.18710860402E+03  0.37068606403E+03  0.33843015955E+03  0.54292268193E+03  0.88387091252E+02 0.  0.
         13    1    3    3    0    0  0.13464427201E+02  0.70132568962E+01  0.35978871059E+02  0.39050681618E+02  0.00000000000E+00 0. -1.
        -13    1    3    3    0    0  0.17364417682E+03  0.36367280713E+03  0.30245128849E+03  0.50387200032E+03  0.00000000000E+00 0.  1.
         22    1    1    2    0    0 -0.18710860402E+03 -0.37068606403E+03 -0.90927599459E+03  0.99960023114E+03  0.00000000000E+00 0.  1.
<mgrwt>
<rscale>  0 0.14330080E+04</rscale>
<asrwt>0</asrwt>
<pdfrwt beam="1">  1        2 0.16256683E+00 0.14330080E+04</pdfrwt>
<pdfrwt beam="2">  1       -2 0.74744391E-01 0.14330080E+04</pdfrwt>
<totfact> 0.36225282E+01</totfact>
</mgrwt>
</event>
<event>
 6    1  0.1934315E-005  0.2613967E+04  0.7818608E-02  0.8363472E-01
         -2   -1    0    0    0  501 -0.00000000000E+00  0.00000000000E+00  0.10074005375E+04  0.10074005375E+04  0.00000000000E+00 0. -1.
          2   -1    0    0  501    0  0.00000000000E+00 -0.00000000000E+00 -0.16956575676E+04  0.16956575676E+04  0.00000000000E+00 0.  1.
         23    2    1    2    0    0 -0.11887052713E+04  0.25884891308E+02  0.21296303190E+03  0.12111171379E+04  0.88097781390E+02 0.  0.
         11    1    3    3    0    0 -0.54102420071E+03 -0.24532555067E+02  0.71827056596E+02  0.54632239389E+03  0.00000000000E+00 0.  1.
        -11    1    3    3    0    0 -0.64768107061E+03  0.50417446375E+02  0.14113597530E+03  0.66479474400E+03  0.00000000000E+00 0. -1.
         22    1    1    2    0    0  0.11887052713E+04 -0.25884891308E+02 -0.90122006195E+03  0.14919409672E+04  0.00000000000E+00 0.  1.
<mgrwt>
<rscale>  0 0.26139674E+04</rscale>
<asrwt>0</asrwt>
<pdfrwt beam="1">  1        2 0.26087039E+00 0.26139674E+04</pdfrwt>
<pdfrwt beam="2">  1       -2 0.15498470E+00 0.26139674E+04</pdfrwt>
<totfact> 0.23930051E+00</totfact>
</mgrwt>
</event>
<event>
 6    1  0.1934315E-005  0.1445085E+04  0.7818608E-02  0.8921815E-01
         -2   -1    0    0    0  501 -0.00000000000E+00  0.00000000000E+00  0.26547192531E+03  0.26547192531E+03  0.00000000000E+00 0. -1.
          2   -1    0    0  501    0  0.00000000000E+00 -0.00000000000E+00 -0.19665654932E+04  0.19665654932E+04  0.00000000000E+00 0.  1.
         23    2    1    2    0    0  0.86493459168E+02 -0.69068473451E+03 -0.11360645024E+04  0.13354971987E+04  0.91562508664E+02 0.  0.
         11    1    3    3    0    0  0.55402646547E+02 -0.46767229623E+03 -0.84654821833E+03  0.96872633694E+03  0.00000000000E+00 0. -1.
        -11    1    3    3    0    0  0.31090812621E+02 -0.22301243828E+03 -0.28951628410E+03  0.36677086173E+03  0.00000000000E+00 0.  1.
         22    1    1    2    0    0 -0.86493459168E+02  0.69068473451E+03 -0.56502906542E+03  0.89654021981E+03  0.00000000000E+00 0. -1.
<mgrwt>
<rscale>  0 0.14450854E+04</rscale>
<asrwt>0</asrwt>
<pdfrwt beam="1">  1        2 0.30254855E+00 0.14450854E+04</pdfrwt>
<pdfrwt beam="2">  1       -2 0.40841833E-01 0.14450854E+04</pdfrwt>
<totfact> 0.38422878E+01</totfact>
</mgrwt>
</event>
<event>
 6    1  0.2130826E-005  0.3014716E+04  0.7818608E-02  0.8239541E-01
         -2   -1    0    0    0  501 -0.00000000000E+00  0.00000000000E+00  0.15511729655E+04  0.15511729655E+04  0.00000000000E+00 0.  1.
          2   -1    0    0  501    0  0.00000000000E+00 -0.00000000000E+00 -0.14647806357E+04  0.14647806357E+04  0.00000000000E+00 0. -1.
         23    2    1    2    0    0 -0.35753066489E+03  0.10835392489E+02 -0.14202948375E+04  0.14673891685E+04  0.89710447191E+02 0.  0.
         13    1    3    3    0    0 -0.15324924868E+03 -0.45128100490E+01 -0.78668054111E+03  0.80148111109E+03  0.00000000000E+00 0. -1.
        -13    1    3    3    0    0 -0.20428141622E+03  0.15348202538E+02 -0.63361429635E+03  0.66590805738E+03  0.00000000000E+00 0.  1.
         22    1    1    2    0    0  0.35753066489E+03 -0.10835392489E+02  0.15066871673E+04  0.15485644327E+04  0.00000000000E+00 0.  1.
<mgrwt>
<rscale>  0 0.30147160E+04</rscale>
<asrwt>0</asrwt>
<pdfrwt beam="1">  1        2 0.22535087E+00 0.30147160E+04</pdfrwt>
<pdfrwt beam="2">  1       -2 0.23864199E+00 0.30147160E+04</pdfrwt>
<totfact> 0.85824668E-01</totfact>
</mgrwt>
</event>
<event>
 6    1  0.1934315E-005  0.7082084E+03  0.7818608E-02  0.9703297E-01
         -2   -1    0    0    0  501 -0.00000000000E+00  0.00000000000E+00  0.17139884114E+03  0.17139884114E+03  0.00000000000E+00 0. -1.
          2   -1    0    0  501    0  0.00000000000E+00 -0.00000000000E+00 -0.73156720880E+03  0.73156720880E+03  0.00000000000E+00 0.  1.
         23    2    1    2    0    0 -0.16443836493E+03 -0.28696380912E+03 -0.42428364164E+03  0.54540086376E+03  0.89762408753E+02 0.  0.
         13    1    3    3    0    0 -0.19915262851E+02 -0.69738465174E+02 -0.15129997161E+03  0.16778484028E+03  0.00000000000E+00 0. -1.
        -13    1    3    3    0    0 -0.14452310208E+03 -0.21722534394E+03 -0.27298367003E+03  0.37761602348E+03  0.00000000000E+00 0.  1.
         22    1    1    2    0    0  0.16443836493E+03  0.28696380912E+03 -0.13588472602E+03  0.35756518618E+03  0.00000000000E+00 0. -1.
<mgrwt>
<rscale>  0 0.70820836E+03</rscale>
<asrwt>0</asrwt>
<pdfrwt beam="1">  1        2 0.11254880E+00 0.70820836E+03</pdfrwt>
<pdfrwt beam="2">  1       -2 0.26369053E-01 0.70820836E+03</pdfrwt>
<totfact> 0.50674108E+02</totfact>
</mgrwt>
</event>
<event>
 6    1  0.1934315E-005  0.2166824E+04  0.7818608E-02  0.8532365E-01
          2   -1    0    0  501    0  0.00000000000E+00  0.00000000000E+00  0.21217148709E+04  0.21217148709E+04  0.00000000000E+00 0.  1.
         -2   -1    0    0    0  501 -0.00000000000E+00 -0.00000000000E+00 -0.55322279003E+03  0.55322279003E+03  0.00000000000E+00 0. -1.
         23    2    1    2    0    0  0.79637559268E+03 -0.97497847348E+02 -0.10968564633E+03  0.81483002993E+03  0.90537957925E+02 0.  0.
         11    1    3    3    0    0  0.11506706787E+03 -0.44028106519E+02 -0.37102051888E+01  0.12325854897E+03  0.00000000000E+00 0. -1.
        -11    1    3    3    0    0  0.68130852481E+03 -0.53469740829E+02 -0.10597544114E+03  0.69157148096E+03  0.00000000000E+00 0.  1.
         22    1    1    2    0    0 -0.79637559268E+03  0.97497847348E+02  0.16781777272E+04  0.18601076310E+04  0.00000000000E+00 0.  1.
<mgrwt>
<rscale>  0 0.21668235E+04</rscale>
<asrwt>0</asrwt>
<pdfrwt beam="1">  1        2 0.32641767E+00 0.21668235E+04</pdfrwt>
<pdfrwt beam="2">  1       -2 0.85111200E-01 0.21668235E+04</pdfrwt>
<totfact> 0.62904293E+00</totfact>
</mgrwt>
</event>
<event>
 6    1  0.1934315E-005  0.2109152E+04  0.7818608E-02  0.8557223E-01
         -2   -1    0    0    0  501 -0.00000000000E+00  0.00000000000E+00  0.77763446450E+03  0.77763446450E+03  0.00000000000E+00 0. -1.
          2   -1    0    0  501    0  0.00000000000E+00 -0.00000000000E+00 -0.14301452813E+04  0.14301452813E+04  0.00000000000E+00 0.  1.
         23    2    1    2    0    0 -0.24941249574E+03  0.76743132504E+03  0.38077088012E+03  0.89673874839E+03  0.89423084478E+02 0.  0.
         13    1    3    3    0    0 -0.12227173498E+03  0.50583957745E+03  0.26102145222E+03  0.58219949657E+03  0.00000000000E+00 0.  1.
        -13    1    3    3    0    0 -0.12714076076E+03  0.26159174759E+03  0.11974942790E+03  0.31453925182E+03  0.00000000000E+00 0. -1.
         22    1    1    2    0    0  0.24941249574E+03 -0.76743132504E+03 -0.10332816969E+04  0.13110409974E+04  0.00000000000E+00 0.  1.
<mgrwt>
<rscale>  0 0.21091517E+04</rscale>
<asrwt>0</asrwt>
<pdfrwt beam="1">  1        2 0.22002235E+00 0.21091517E+04</pdfrwt>
<pdfrwt beam="2">  1       -2 0.11963607E+00 0.21091517E+04</pdfrwt>
<totfact> 0.68533072E+00</totfact>
</mgrwt>
</event>
<event>
 6    1  0.1934315E-005  0.2189479E+04  0.7818608E-02  0.8522820E-01
          2   -1    0    0  501    0  0.00000000000E+00  0.00000000000E+00  0.28516091200E+04  0.28516091200E+04  0.00000000000E+00 0.  1.
         -2   -1    0    0    0  501 -0.00000000000E+00 -0.00000000000E+00 -0.42027325404E+03  0.42027325404E+03  0.00000000000E+00 0. -1.
         23    2    1    2    0    0  0.24234695472E+03  0.90146076929E+03  0.20669990281E+04  0.22698320278E+04  0.91043326136E+02 0.  0.
         13    1    3    3    0    0  0.16857002328E+03  0.56585706446E+03  0.12052703479E+04  0.13421202188E+04  0.00000000000E+00 0. -1.
        -13    1    3    3    0    0  0.73776931433E+02  0.33560370482E+03  0.86172868014E+03  0.92771180895E+03  0.00000000000E+00 0.  1.
         22    1    1    2    0    0 -0.24234695472E+03 -0.90146076929E+03  0.36433683792E+03  0.10020503463E+04  0.00000000000E+00 0. -1.
<mgrwt>
<rscale>  0 0.21894794E+04</rscale>
<asrwt>0</asrwt>
<pdfrwt beam="1">  1        2 0.43870908E+00 0.21894794E+04</pdfrwt>
<pdfrwt beam="2">  1       -2 0.64657426E-01 0.21894794E+04</pdfrwt>
<totfact> 0.43490933E+00</totfact>
</mgrwt>
</event>
<event>
 6    1  0.1934315E-005  0.2780346E+04  0.7818608E-02  0.8309396E-01
          2   -1    0    0  501    0  0.00000000000E+00  0.00000000000E+00  0.27649589040E+04  0.27649589040E+04  0.00000000000E+00 0.  1.
         -2   -1    0    0    0  501 -0.00000000000E+00 -0.00000000000E+00 -0.69895451800E+03  0.69895451800E+03  0.00000000000E+00 0. -1.
         23    2    1    2    0    0 -0.19427251674E+03 -0.12596503131E+04  0.17211098043E+04  0.21435297677E+04  0.89667076279E+02 0.  0.
         13    1    3    3    0    0 -0.46050371609E+02 -0.44935852034E+03  0.67117801992E+03  0.80902635986E+03  0.00000000000E+00 0.  1.
        -13    1    3    3    0    0 -0.14822214513E+03 -0.81029179275E+03  0.10499317844E+04  0.13345034079E+04  0.00000000000E+00 0. -1.
         22    1    1    2    0    0  0.19427251674E+03  0.12596503131E+04  0.34489458167E+03  0.13203836543E+04  0.00000000000E+00 0.  1.
<mgrwt>
<rscale>  0 0.27803457E+04</rscale>
<asrwt>0</asrwt>
<pdfrwt beam="1">  1        2 0.42537829E+00 0.27803457E+04</pdfrwt>
<pdfrwt beam="2">  1       -2 0.10753147E+00 0.27803457E+04</pdfrwt>
<totfact> 0.14682046E+00</totfact>
</mgrwt>
</event>
<event>
 6    1  0.1934315E-005  0.3017598E+04  0.7818608E-02  0.8238724E-01
         -2   -1    0    0    0  501 -0.00000000000E+00  0.00000000000E+00  0.81572251520E+03  0.81572251520E+03  0.00000000000E+00 0. -1.
          2   -1    0    0  501    0  0.00000000000E+00 -0.00000000000E+00 -0.27907454672E+04  0.27907454672E+04  0.00000000000E+00 0.  1.
         23    2    1    2    0    0 -0.14618249741E+04 -0.26884629371E+03 -0.68794021696E+03  0.16403060991E+04  0.90176339268E+02 0.  0.
         11    1    3    3    0    0 -0.11679180987E+04 -0.18687910007E+03 -0.52020932439E+03  0.12921200504E+04  0.00000000000E+00 0.  1.
        -11    1    3    3    0    0 -0.29390687534E+03 -0.81967193638E+02 -0.16773089257E+03  0.34818604872E+03  0.00000000000E+00 0. -1.
         22    1    1    2    0    0  0.14618249741E+04  0.26884629371E+03 -0.12870827350E+04  0.19661618833E+04  0.00000000000E+00 0.  1.
<mgrwt>
<rscale>  0 0.30175977E+04</rscale>
<asrwt>0</asrwt>
<pdfrwt beam="1">  1        2 0.42934546E+00 0.30175977E+04</pdfrwt>
<pdfrwt beam="2">  1       -2 0.12549577E+00 0.30175977E+04</pdfrwt>
<totfact> 0.95011886E-01</totfact>
</mgrwt>
</event>
<event>
 6    1  0.1934315E-005  0.3607167E+04  0.7818608E-02  0.8088852E-01
          2   -1    0    0  501    0  0.00000000000E+00  0.00000000000E+00  0.36230829720E+04  0.36230829720E+04  0.00000000000E+00 0.  1.
         -2   -1    0    0    0  501 -0.00000000000E+00 -0.00000000000E+00 -0.89783010670E+03  0.89783010670E+03  0.00000000000E+00 0. -1.
         23    2    1    2    0    0  0.13030282167E+04 -0.12229184067E+04  0.10673382342E+04  0.20832722341E+04  0.86025184387E+02 0.  0.
         13    1    3    3    0    0  0.24528635580E+03 -0.19450313583E+03  0.21013754564E+03  0.37703402270E+03  0.00000000000E+00 0. -1.
        -13    1    3    3    0    0  0.10577418609E+04 -0.10284152709E+04  0.85720068856E+03  0.17062382114E+04  0.00000000000E+00 0.  1.
         22    1    1    2    0    0 -0.13030282167E+04  0.12229184067E+04  0.16579146311E+04  0.24376408446E+04  0.00000000000E+00 0. -1.
<mgrwt>
<rscale>  0 0.36071667E+04</rscale>
<asrwt>0</asrwt>
<pdfrwt beam="1">  1        2 0.55739737E+00 0.36071667E+04</pdfrwt>
<pdfrwt beam="2">  1       -2 0.13812771E+00 0.36071667E+04</pdfrwt>
<totfact> 0.20090134E-01</totfact>
</mgrwt>
</event>
<event>
 6    1  0.1934315E-005  0.2342563E+04  0.7818608E-02  0.8461326E-01
          2   -1    0    0  501    0  0.00000000000E+00  0.00000000000E+00  0.66000468211E+03  0.66000468211E+03  0.00000000000E+00 0.  1.
         -2   -1    0    0    0  501 -0.00000000000E+00 -0.00000000000E+00 -0.20786224474E+04  0.20786224474E+04  0.00000000000E+00 0. -1.
         23    2    1    2    0    0  0.35004340043E+03  0.87691941766E+03  0.96162892573E+02  0.95366816957E+03  0.93368241386E+02 0.  0.
         13    1    3    3    0    0  0.20475505496E+03  0.62817622379E+03  0.70867078412E+02  0.66449390025E+03  0.00000000000E+00 0.  1.
        -13    1    3    3    0    0  0.14528834547E+03  0.24874319387E+03  0.25295814161E+02  0.28917426932E+03  0.00000000000E+00 0. -1.
         22    1    1    2    0    0 -0.35004340043E+03 -0.87691941766E+03 -0.15147806579E+04  0.17849589599E+04  0.00000000000E+00 0. -1.
<mgrwt>
<rscale>  0 0.23425632E+04</rscale>
<asrwt>0</asrwt>
<pdfrwt beam="1">  1        2 0.10153918E+00 0.23425632E+04</pdfrwt>
<pdfrwt beam="2">  1       -2 0.31978807E+00 0.23425632E+04</pdfrwt>
<totfact> 0.95783601E-01</totfact>
</mgrwt>
</event>
<event>
 6    1  0.1934315E-005  0.2262208E+04  0.7818608E-02  0.8492973E-01
          2   -1    0    0  501    0  0.00000000000E+00  0.00000000000E+00  0.19342230154E+04  0.19342230154E+04  0.00000000000E+00 0.  1.
         -2   -1    0    0    0  501 -0.00000000000E+00 -0.00000000000E+00 -0.66145213359E+03  0.66145213359E+03  0.00000000000E+00 0. -1.
         23    2    1    2    0    0  0.38002131789E+03 -0.10592881439E+04  0.53013440584E+03  0.12473367236E+04  0.91097968343E+02 0.  0.
         13    1    3    3    0    0  0.15291989469E+03 -0.49351771153E+03  0.19987168855E+03  0.55397916718E+03  0.00000000000E+00 0.  1.
        -13    1    3    3    0    0  0.22710142320E+03 -0.56577043241E+03  0.33026271729E+03  0.69335755642E+03  0.00000000000E+00 0. -1.
         22    1    1    2    0    0 -0.38002131789E+03  0.10592881439E+04  0.74263647597E+03  0.13483384254E+04  0.00000000000E+00 0.  1.
<mgrwt>
<rscale>  0 0.22622077E+04</rscale>
<asrwt>0</asrwt>
<pdfrwt beam="1">  1        2 0.29757277E+00 0.22622077E+04</pdfrwt>
<pdfrwt beam="2">  1       -2 0.10176187E+00 0.22622077E+04</pdfrwt>
<totfact> 0.52371351E+00</totfact>
</mgrwt>
</event>
<event>
 6    1  0.1934315E-005  0.2913676E+04  0.7818608E-02  0.8268820E-01
          1   -1    0    0  501    0  0.00000000000E+00  0.00000000000E+00  0.16439962463E+04  0.16439962463E+04  0.00000000000E+00 0.  1.
         -1   -1    0    0    0  501 -0.00000000000E+00 -0.00000000000E+00 -0.12909867431E+04  0.12909867431E+04  0.00000000000E+00 0. -1.
         23    2    1    2    0    0  0.27385100570E+03 -0.16217790494E+03  0.16071967481E+04  0.16410426154E+04  0.92970061545E+02 0.  0.
         13    1    3    3    0    0  0.52682495150E+02 -0.33964645938E+02  0.54132056175E+03  0.54493760472E+03  0.00000000000E+00 0. -1.
        -13    1    3    3    0    0  0.22116851055E+03 -0.12821325900E+03  0.10658761864E+04  0.10961050107E+04  0.00000000000E+00 0.  1.
         22    1    1    2    0    0 -0.27385100570E+03  0.16217790494E+03 -0.12541872449E+04  0.12939403740E+04  0.00000000000E+00 0. -1.
<mgrwt>
<rscale>  0 0.29136763E+04</rscale>
<asrwt>0</asrwt>
<pdfrwt beam="1">  1        1 0.25292250E+00 0.29136763E+04</pdfrwt>
<pdfrwt beam="2">  1       -1 0.19861335E+00 0.29136763E+04</pdfrwt>
<totfact> 0.68671301E-01</totfact>
</mgrwt>
</event>
<event>
 6    1  0.1934315E-005  0.3543155E+04  0.7818608E-02  0.8103638E-01
          2   -1    0    0  501    0  0.00000000000E+00  0.00000000000E+00  0.18178825233E+04  0.18178825233E+04  0.00000000000E+00 0.  1.
         -2   -1    0    0    0  501 -0.00000000000E+00 -0.00000000000E+00 -0.17264521990E+04  0.17264521990E+04  0.00000000000E+00 0. -1.
         23    2    1    2    0    0  0.91789945923E+03 -0.45408388980E+03 -0.13988685086E+04  0.17360974017E+04  0.92029819880E+02 0.  0.
         11    1    3    3    0    0  0.37973344725E+03 -0.18816839208E+03 -0.65640639262E+03  0.78132847575E+03  0.00000000000E+00 0.  1.
        -11    1    3    3    0    0  0.53816601198E+03 -0.26591549772E+03 -0.74246211594E+03  0.95476892596E+03  0.00000000000E+00 0. -1.
         22    1    1    2    0    0 -0.91789945923E+03  0.45408388980E+03  0.14902988329E+04  0.18082373206E+04  0.00000000000E+00 0.  1.
<mgrwt>
<rscale>  0 0.35431552E+04</rscale>
<asrwt>0</asrwt>
<pdfrwt beam="1">  1        2 0.27967424E+00 0.35431552E+04</pdfrwt>
<pdfrwt beam="2">  1       -2 0.26560803E+00 0.35431552E+04</pdfrwt>
<totfact> 0.35605495E-01</totfact>
</mgrwt>
</event>
<event>
 6    1  0.1934315E-005  0.9044165E+03  0.7818608E-02  0.9420077E-01
         -2   -1    0    0    0  501 -0.00000000000E+00  0.00000000000E+00  0.27539780624E+03  0.27539780624E+03  0.00000000000E+00 0. -1.
          2   -1    0    0  501    0  0.00000000000E+00 -0.00000000000E+00 -0.74253416384E+03  0.74253416384E+03  0.00000000000E+00 0.  1.
         23    2    1    2    0    0  0.33729143357E+01 -0.31878435757E+03  0.11804201138E+03  0.35154727136E+03  0.89536162364E+02 0.  0.
         13    1    3    3    0    0  0.31103585070E+02 -0.12890171337E+03  0.83118327356E+02  0.15649837398E+03  0.00000000000E+00 0. -1.
        -13    1    3    3    0    0 -0.27730670734E+02 -0.18988264419E+03  0.34923684021E+02  0.19504889738E+03  0.00000000000E+00 0.  1.
         22    1    1    2    0    0 -0.33729143357E+01  0.31878435757E+03 -0.58517836897E+03  0.66638469873E+03  0.00000000000E+00 0.  1.
<mgrwt>
<rscale>  0 0.90441645E+03</rscale>
<asrwt>0</asrwt>
<pdfrwt beam="1">  1        2 0.11423602E+00 0.90441645E+03</pdfrwt>
<pdfrwt beam="2">  1       -2 0.42368894E-01 0.90441645E+03</pdfrwt>
<totfact> 0.20107242E+02</totfact>
</mgrwt>
</event>
<event>
 6    1  0.1934315E-005  0.3703034E+04  0.7818608E-02  0.8067290E-01
          2   -1    0    0  501    0  0.00000000000E+00  0.00000000000E+00  0.20343624518E+04  0.20343624518E+04  0.00000000000E+00 0.  1.
         -2   -1    0    0    0  501 -0.00000000000E+00 -0.00000000000E+00 -0.16851053178E+04  0.16851053178E+04  0.00000000000E+00 0. -1.
         23    2    1    2    0    0  0.29711866799E+03 -0.16561979898E+04  0.94877756969E+03  0.19332158173E+04  0.76637035278E+02 0.  0.
         11    1    3    3    0    0  0.23187438354E+02 -0.17556891883E+03  0.12586845632E+03  0.21726704963E+03  0.00000000000E+00 0.  1.
        -11    1    3    3    0    0  0.27393122964E+03 -0.14806290710E+04  0.82290911337E+03  0.17159487677E+04  0.00000000000E+00 0. -1.
         22    1    1    2    0    0 -0.29711866799E+03  0.16561979898E+04 -0.59952043566E+03  0.17862519523E+04  0.00000000000E+00 0. -1.
<mgrwt>
<rscale>  0 0.37030339E+04</rscale>
<asrwt>0</asrwt>
<pdfrwt beam="1">  1        2 0.31297884E+00 0.37030339E+04</pdfrwt>
<pdfrwt beam="2">  1       -2 0.25924697E+00 0.37030339E+04</pdfrwt>
<totfact> 0.29137495E-01</totfact>
</mgrwt>
</event>
<event>
 6    1  0.1934315E-005  0.2641227E+04  0.7818608E-02  0.8354331E-01
         -2   -1    0    0    0  501 -0.00000000000E+00  0.00000000000E+00  0.27249612689E+04  0.27249612689E+04  0.00000000000E+00 0. -1.
          2   -1    0    0  501    0  0.00000000000E+00 -0.00000000000E+00 -0.64001666534E+03  0.64001666534E+03  0.00000000000E+00 0.  1.
         23    2    1    2    0    0  0.81625730420E+03  0.73367470935E+03  0.19757198966E+04  0.22620343262E+04  0.93678266898E+02 0.  0.
         11    1    3    3    0    0  0.68786096649E+03  0.63058251193E+03  0.16084800846E+04  0.18595685511E+04  0.00000000000E+00 0.  1.
        -11    1    3    3    0    0  0.12839633771E+03  0.10309219742E+03  0.36723981196E+03  0.40246577518E+03  0.00000000000E+00 0. -1.
         22    1    1    2    0    0 -0.81625730420E+03 -0.73367470935E+03  0.10922470701E+03  0.11029436080E+04  0.00000000000E+00 0.  1.
<mgrwt>
<rscale>  0 0.26412275E+04</rscale>
<asrwt>0</asrwt>
<pdfrwt beam="1">  1        2 0.98464104E-01 0.26412275E+04</pdfrwt>
<pdfrwt beam="2">  1       -2 0.41922480E+00 0.26412275E+04</pdfrwt>
<totfact> 0.22406422E-01</totfact>
</mgrwt>
</event>
<event>
 6    1  0.1934315E-005  0.1672537E+04  0.7818608E-02  0.8777184E-01
          1   -1    0    0  501    0  0.00000000000E+00  0.00000000000E+00  0.83972341064E+03  0.83972341064E+03  0.00000000000E+00 0. -1.
         -1   -1    0    0    0  501 -0.00000000000E+00 -0.00000000000E+00 -0.83282801849E+03  0.83282801849E+03  0.00000000000E+00 0.  1.
         23    2    1    2    0    0  0.12319718456E+03  0.82236029339E+03 -0.58282666705E+02  0.83846379717E+03  0.90391766823E+02 0.  0.
         13    1    3    3    0    0  0.37514329934E+02  0.11066109695E+03  0.15361740971E+02  0.11785239248E+03  0.00000000000E+00 0. -1.
        -13    1    3    3    0    0  0.85682854622E+02  0.71169919644E+03 -0.73644407676E+02  0.72061140469E+03  0.00000000000E+00 0.  1.
         22    1    1    2    0    0 -0.12319718456E+03 -0.82236029339E+03  0.65178058853E+02  0.83408763195E+03  0.00000000000E+00 0. -1.
<mgrwt>
<rscale>  0 0.16725372E+04</rscale>
<asrwt>0</asrwt>
<pdfrwt beam="1">  1        1 0.12918822E+00 0.16725372E+04</pdfrwt>
<pdfrwt beam="2">  1       -1 0.12812739E+00 0.16725372E+04</pdfrwt>
<totfact> 0.10254598E+01</totfact>
</mgrwt>
</event>
<event>
 6    1  0.1934315E-005  0.1371930E+04  0.7818608E-02  0.8974392E-01
         -2   -1    0    0    0  501 -0.00000000000E+00  0.00000000000E+00  0.18029001174E+03  0.18029001174E+03  0.00000000000E+00 0. -1.
          2   -1    0    0  501    0  0.00000000000E+00 -0.00000000000E+00 -0.26099498533E+04  0.26099498533E+04  0.00000000000E+00 0.  1.
         23    2    1    2    0    0 -0.15609107799E+02 -0.66013109638E+03 -0.15740794351E+04  0.17094833982E+04  0.92686094615E+02 0.  0.
         11    1    3    3    0    0  0.14694516068E+01 -0.44875878663E+03 -0.95726843984E+03  0.10572367161E+04  0.00000000000E+00 0. -1.
        -11    1    3    3    0    0 -0.17078559406E+02 -0.21137230975E+03 -0.61681099527E+03  0.65224668217E+03  0.00000000000E+00 0.  1.
         22    1    1    2    0    0  0.15609107799E+02  0.66013109638E+03 -0.85558040647E+03  0.10807564668E+04  0.00000000000E+00 0. -1.
<mgrwt>
<rscale>  0 0.13719299E+04</rscale>
<asrwt>0</asrwt>
<pdfrwt beam="1">  1        2 0.40153076E+00 0.13719299E+04</pdfrwt>
<pdfrwt beam="2">  1       -2 0.27736924E-01 0.13719299E+04</pdfrwt>
<totfact> 0.34909392E+01</totfact>
</mgrwt>
</event>
<event>
 6    1  0.1934315E-005  0.1612803E+04  0.7818608E-02  0.8812721E-01
         -2   -1    0    0    0  501 -0.00000000000E+00  0.00000000000E+00  0.28758531554E+03  0.28758531554E+03  0.00000000000E+00 0. -1.
          2   -1    0    0  501    0  0.00000000000E+00 -0.00000000000E+00 -0.22611854099E+04  0.22611854099E+04  0.00000000000E+00 0.  1.
         23    2    1    2    0    0  0.23877214991E+03 -0.42897282119E+03 -0.19964804181E+04  0.20572899729E+04  0.74014538139E+02 0.  0.
         13    1    3    3    0    0  0.19357199337E+03 -0.36118651613E+03 -0.15396299955E+04  0.15932314142E+04  0.00000000000E+00 0.  1.
        -13    1    3    3    0    0  0.45200156548E+02 -0.67786305062E+02 -0.45685042257E+03  0.46405855870E+03  0.00000000000E+00 0. -1.
         22    1    1    2    0    0 -0.23877214991E+03  0.42897282119E+03  0.22880323752E+02  0.49148075253E+03  0.00000000000E+00 0. -1.
<mgrwt>
<rscale>  0 0.16128034E+04</rscale>
<asrwt>0</asrwt>
<pdfrwt beam="1">  1        2 0.34787468E+00 0.16128034E+04</pdfrwt>
<pdfrwt beam="2">  1       -2 0.44243895E-01 0.16128034E+04</pdfrwt>
<totfact> 0.22155278E+01</totfact>
</mgrwt>
</event>
<event>
 6    1  0.1934315E-005  0.2105858E+04  0.7818608E-02  0.8558667E-01
         -2   -1    0    0    0  501 -0.00000000000E+00  0.00000000000E+00  0.61054492142E+03  0.61054492142E+03  0.00000000000E+00 0. -1.
          2   -1    0    0  501    0  0.00000000000E+00 -0.00000000000E+00 -0.18158526330E+04  0.18158526330E+04  0.00000000000E+00 0.  1.
         23    2    1    2    0    0 -0.69968495173E+03  0.67500625003E+03 -0.10634621696E+04  0.14438943091E+04  0.93201503971E+02 0.  0.
         13    1    3    3    0    0 -0.34059814737E+03  0.38280663534E+03 -0.52111724132E+03  0.73082911631E+03  0.00000000000E+00 0. -1.
        -13    1    3    3    0    0 -0.35908680436E+03  0.29219961469E+03 -0.54234492831E+03  0.71306519278E+03  0.00000000000E+00 0.  1.
         22    1    1    2    0    0  0.69968495173E+03 -0.67500625003E+03 -0.14184554192E+03  0.98250324530E+03  0.00000000000E+00 0. -1.
<mgrwt>
<rscale>  0 0.21058581E+04</rscale>
<asrwt>0</asrwt>
<pdfrwt beam="1">  1        2 0.27936194E+00 0.21058581E+04</pdfrwt>
<pdfrwt beam="2">  1       -2 0.93929988E-01 0.21058581E+04</pdfrwt>
<totfact> 0.74535217E+00</totfact>
</mgrwt>
</event>
<event>
 6    1  0.1934315E-005  0.3777119E+04  0.7818608E-02  0.8051083E-01
          2   -1    0    0  501    0  0.00000000000E+00  0.00000000000E+00  0.19350802660E+04  0.19350802660E+04  0.00000000000E+00 0.  1.
         -2   -1    0    0    0  501 -0.00000000000E+00 -0.00000000000E+00 -0.18431569563E+04  0.18431569563E+04  0.00000000000E+00 0. -1.
         23    2    1    2    0    0  0.50856609198E+03  0.10917980966E+04  0.14994067205E+04  0.19257599336E+04  0.98327283394E+02 0.  0.
         13    1    3    3    0    0  0.40734524249E+03  0.77618295926E+03  0.11102616829E+04  0.14145922160E+04  0.00000000000E+00 0. -1.
        -13    1    3    3    0    0  0.10122084949E+03  0.31561513736E+03  0.38914503758E+03  0.51116771766E+03  0.00000000000E+00 0.  1.
         22    1    1    2    0    0 -0.50856609198E+03 -0.10917980966E+04 -0.14074834108E+04  0.18524772888E+04  0.00000000000E+00 0. -1.
<mgrwt>
<rscale>  0 0.37771188E+04</rscale>
<asrwt>0</asrwt>
<pdfrwt beam="1">  1        2 0.29770465E+00 0.37771188E+04</pdfrwt>
<pdfrwt beam="2">  1       -2 0.28356261E+00 0.37771188E+04</pdfrwt>
<totfact> 0.23363421E-01</totfact>
</mgrwt>
</event>
<event>
 6    1  0.1934315E-005  0.4630833E+04  0.7818608E-02  0.7888124E-01
          2   -1    0    0  501    0  0.00000000000E+00  0.00000000000E+00  0.49178326100E+04  0.49178326100E+04  0.00000000000E+00 0.  1.
         -2   -1    0    0    0  501 -0.00000000000E+00 -0.00000000000E+00 -0.10901453755E+04  0.10901453755E+04  0.00000000000E+00 0. -1.
         23    2    1    2    0    0 -0.57431164629E+02 -0.16479747973E+04  0.40218037999E+04  0.43476164248E+04  0.87997166525E+02 0.  0.
         11    1    3    3    0    0  0.12136347218E+02 -0.48703152143E+03  0.11156360209E+04  0.12173704140E+04  0.00000000000E+00 0. -1.
        -11    1    3    3    0    0 -0.69567511847E+02 -0.11609432759E+04  0.29061677791E+04  0.31302460109E+04  0.00000000000E+00 0.  1.
         22    1    1    2    0    0  0.57431164629E+02  0.16479747973E+04 -0.19411656541E+03  0.16603615607E+04  0.00000000000E+00 0. -1.
<mgrwt>
<rscale>  0 0.46308325E+04</rscale>
<asrwt>0</asrwt>
<pdfrwt beam="1">  1        2 0.75658962E+00 0.46308325E+04</pdfrwt>
<pdfrwt beam="2">  1       -2 0.16771468E+00 0.46308325E+04</pdfrwt>
<totfact> 0.70924143E-03</totfact>
</mgrwt>
</event>
<event>
 6    1  0.1934315E-005  0.4340597E+04  0.7818608E-02  0.7939154E-01
         -2   -1    0    0    0  501 -0.00000000000E+00  0.00000000000E+00  0.17966943886E+04  0.17966943886E+04  0.00000000000E+00 0. -1.
          2   -1    0    0  501    0  0.00000000000E+00 -0.00000000000E+00 -0.26215894606E+04  0.26215894606E+04  0.00000000000E+00 0.  1.
         23    2    1    2    0    0  0.10958132467E+04  0.15752594441E+03 -0.23115701908E+04  0.25646862653E+04  0.92939752368E+02 0.  0.
         11    1    3    3    0    0  0.10469107089E+04  0.15868037456E+03 -0.21630148877E+04  0.24082846380E+04  0.00000000000E+00 0. -1.
        -11    1    3    3    0    0  0.48902537857E+02 -0.11544301486E+01 -0.14855530308E+03  0.15640162720E+03  0.00000000000E+00 0.  1.
         22    1    1    2    0    0 -0.10958132467E+04 -0.15752594441E+03  0.14866751188E+04  0.18535975840E+04  0.00000000000E+00 0. -1.
<mgrwt>
<rscale>  0 0.43405968E+04</rscale>
<asrwt>0</asrwt>
<pdfrwt beam="1">  1        2 0.40332145E+00 0.43405968E+04</pdfrwt>
<pdfrwt beam="2">  1       -2 0.27641452E+00 0.43405968E+04</pdfrwt>
<totfact> 0.10045603E-01</totfact>
</mgrwt>
</event>
<event>
 6    1  0.1934315E-005  0.2161779E+04  0.7818608E-02  0.8534507E-01
         -3   -1    0    0    0  501 -0.00000000000E+00  0.00000000000E+00  0.12376870609E+04  0.12376870609E+04  0.00000000000E+00 0. -1.
          3   -1    0    0  501    0  0.00000000000E+00 -0.00000000000E+00 -0.94395616818E+03  0.94395616818E+03  0.00000000000E+00 0.  1.
         23    2    1    2    0    0  0.18838640245E+03  0.63382994900E+03 -0.71333845472E+03  0.97689491036E+03  0.90785869015E+02 0.  0.
         11    1    3    3    0    0  0.96990370620E+02  0.19245239967E+03 -0.20396500627E+03  0.29672677991E+03  0.00000000000E+00 0.  1.
        -11    1    3    3    0    0  0.91396031831E+02  0.44137754933E+03 -0.50937344845E+03  0.68016813045E+03  0.00000000000E+00 0. -1.
         22    1    1    2    0    0 -0.18838640245E+03 -0.63382994900E+03  0.10070693474E+04  0.12047483187E+04  0.00000000000E+00 0. -1.
<mgrwt>
<rscale>  0 0.21617792E+04</rscale>
<asrwt>0</asrwt>
<pdfrwt beam="1">  1        3 0.14522402E+00 0.21617792E+04</pdfrwt>
<pdfrwt beam="2">  1       -3 0.19041340E+00 0.21617792E+04</pdfrwt>
<totfact> 0.14201781E-01</totfact>
</mgrwt>
</event>
<event>
 6    1  0.1934315E-005  0.6032724E+03  0.7818608E-02  0.9898640E-01
          2   -1    0    0  501    0  0.00000000000E+00  0.00000000000E+00  0.25099934743E+03  0.25099934743E+03  0.00000000000E+00 0.  1.
         -2   -1    0    0    0  501 -0.00000000000E+00 -0.00000000000E+00 -0.36248855596E+03  0.36248855596E+03  0.00000000000E+00 0. -1.
         23    2    1    2    0    0  0.20138918666E+03 -0.18767558166E+03 -0.16459168868E+03  0.33313169807E+03  0.90036524932E+02 0.  0.
         11    1    3    3    0    0  0.16573518553E+03 -0.11099194979E+03 -0.14422491109E+03  0.24614668314E+03  0.00000000000E+00 0. -1.
        -11    1    3    3    0    0  0.35654001131E+02 -0.76683631871E+02 -0.20366777589E+02  0.86985014933E+02  0.00000000000E+00 0.  1.
         22    1    1    2    0    0 -0.20138918666E+03  0.18767558166E+03  0.53102480152E+02  0.28035620531E+03  0.00000000000E+00 0. -1.
<mgrwt>
<rscale>  0 0.60327238E+03</rscale>
<asrwt>0</asrwt>
<pdfrwt beam="1">  1        2 0.38615285E-01 0.60327238E+03</pdfrwt>
<pdfrwt beam="2">  1       -2 0.55767470E-01 0.60327238E+03</pdfrwt>
<totfact> 0.40847896E+02</totfact>
</mgrwt>
</event>
<event>
 6    1  0.1934315E-005  0.2583209E+04  0.7818608E-02  0.8373927E-01
          2   -1    0    0  501    0  0.00000000000E+00  0.00000000000E+00  0.13953214443E+04  0.13953214443E+04  0.00000000000E+00 0.  1.
         -2   -1    0    0    0  501 -0.00000000000E+00 -0.00000000000E+00 -0.11955972880E+04  0.11955972880E+04  0.00000000000E+00 0. -1.
         23    2    1    2    0    0  0.85916795731E+03  0.53953486486E+02 -0.86367846830E+03  0.12227426839E+04  0.89881126299E+02 0.  0.
         13    1    3    3    0    0  0.33708672949E+03 -0.19424702442E+02 -0.31367139429E+03  0.46086280589E+03  0.00000000000E+00 0. -1.
        -13    1    3    3    0    0  0.52208122783E+03  0.73378188928E+02 -0.55000707401E+03  0.76187987801E+03  0.00000000000E+00 0.  1.
         22    1    1    2    0    0 -0.85916795731E+03 -0.53953486486E+02  0.10634026246E+04  0.13681760484E+04  0.00000000000E+00 0.  1.
<mgrwt>
<rscale>  0 0.25832093E+04</rscale>
<asrwt>0</asrwt>
<pdfrwt beam="1">  1        2 0.21466484E+00 0.25832093E+04</pdfrwt>
<pdfrwt beam="2">  1       -2 0.18393804E+00 0.25832093E+04</pdfrwt>
<totfact> 0.21975519E+00</totfact>
</mgrwt>
</event>
<event>
 6    1  0.1934315E-005  0.2148829E+04  0.7818608E-02  0.8540034E-01
         -2   -1    0    0    0  501 -0.00000000000E+00  0.00000000000E+00  0.30924897027E+03  0.30924897027E+03  0.00000000000E+00 0. -1.
          2   -1    0    0  501    0  0.00000000000E+00 -0.00000000000E+00 -0.37328071374E+04  0.37328071374E+04  0.00000000000E+00 0.  1.
         23    2    1    2    0    0  0.89487965888E+03 -0.17949374046E+03 -0.65501220464E+03  0.11269447285E+04  0.89083253455E+02 0.  0.
         13    1    3    3    0    0  0.54208431248E+03 -0.15293522519E+03 -0.40353411058E+03  0.69288120435E+03  0.00000000000E+00 0.  1.
        -13    1    3    3    0    0  0.35279534640E+03 -0.26558515272E+02 -0.25147809407E+03  0.43406352412E+03  0.00000000000E+00 0. -1.
         22    1    1    2    0    0 -0.89487965888E+03  0.17949374046E+03 -0.27685459625E+04  0.29151113792E+04  0.00000000000E+00 0.  1.
<mgrwt>
<rscale>  0 0.21488292E+04</rscale>
<asrwt>0</asrwt>
<pdfrwt beam="1">  1        2 0.57427797E+00 0.21488292E+04</pdfrwt>
<pdfrwt beam="2">  1       -2 0.47576769E-01 0.21488292E+04</pdfrwt>
<totfact> 0.21327208E+00</totfact>
</mgrwt>
</event>
<event>
 6    1  0.1934315E-005  0.1230791E+04  0.7818608E-02  0.9086324E-01
         -4   -1    0    0    0  501 -0.00000000000E+00  0.00000000000E+00  0.65845435268E+03  0.65845435268E+03  0.00000000000E+00 0. -1.
          4   -1    0    0  501    0  0.00000000000E+00 -0.00000000000E+00 -0.57515213655E+03  0.57515213655E+03  0.00000000000E+00 0.  1.
         23    2    1    2    0    0 -0.19394576636E+03  0.54666667541E+03 -0.15334461606E+03  0.60713930137E+03  0.92973897938E+02 0.  0.
         13    1    3    3    0    0 -0.13950852266E+03  0.33756760946E+03 -0.13823537897E+03  0.39054262105E+03  0.00000000000E+00 0. -1.
        -13    1    3    3    0    0 -0.54437243700E+02  0.20909906594E+03 -0.15109237091E+02  0.21659668032E+03  0.00000000000E+00 0.  1.
         22    1    1    2    0    0  0.19394576636E+03 -0.54666667541E+03  0.23664683219E+03  0.62646718787E+03  0.00000000000E+00 0. -1.
<mgrwt>
<rscale>  0 0.12307907E+04</rscale>
<asrwt>0</asrwt>
<pdfrwt beam="1">  1        4 0.88484944E-01 0.12307907E+04</pdfrwt>
<pdfrwt beam="2">  1       -4 0.10130067E+00 0.12307907E+04</pdfrwt>
<totfact> 0.17313401E+00</totfact>
</mgrwt>
</event>
<event>
 6    1  0.1934315E-005  0.1219372E+04  0.7818608E-02  0.9096067E-01
         -2   -1    0    0    0  501 -0.00000000000E+00  0.00000000000E+00  0.30805497320E+03  0.30805497320E+03  0.00000000000E+00 0. -1.
          2   -1    0    0  501    0  0.00000000000E+00 -0.00000000000E+00 -0.12066576202E+04  0.12066576202E+04  0.00000000000E+00 0.  1.
         23    2    1    2    0    0  0.29172905793E+03  0.69568532972E+02 -0.11063458051E+04  0.11498799690E+04  0.90979551419E+02 0.  0.
         13    1    3    3    0    0  0.21704808116E+03  0.88919573517E+02 -0.88123825838E+03  0.91191963907E+03  0.00000000000E+00 0.  1.
        -13    1    3    3    0    0  0.74680976761E+02 -0.19351040546E+02 -0.22510754671E+03  0.23796032998E+03  0.00000000000E+00 0. -1.
         22    1    1    2    0    0 -0.29172905793E+03 -0.69568532972E+02  0.20774315812E+03  0.36483262432E+03  0.00000000000E+00 0. -1.
<mgrwt>
<rscale>  0 0.12193718E+04</rscale>
<asrwt>0</asrwt>
<pdfrwt beam="1">  1        2 0.18563964E+00 0.12193718E+04</pdfrwt>
<pdfrwt beam="2">  1       -2 0.47393072E-01 0.12193718E+04</pdfrwt>
<totfact> 0.78013178E+01</totfact>
</mgrwt>
</event>
<event>
 6    1  0.1934315E-005  0.1569072E+04  0.7818608E-02  0.8839777E-01
         -2   -1    0    0    0  501 -0.00000000000E+00  0.00000000000E+00  0.35887261823E+03  0.35887261823E+03  0.00000000000E+00 0. -1.
          2   -1    0    0  501    0  0.00000000000E+00 -0.00000000000E+00 -0.17150835465E+04  0.17150835465E+04  0.00000000000E+00 0.  1.
         23    2    1    2    0    0 -0.74397278968E+02  0.26013520263E+03 -0.16499640125E+04  0.16745864698E+04  0.93023241164E+02 0.  0.
         11    1    3    3    0    0 -0.13579680411E+02  0.19419995898E+03 -0.12114674173E+04  0.12270091014E+04  0.00000000000E+00 0.  1.
        -11    1    3    3    0    0 -0.60817598557E+02  0.65935243645E+02 -0.43849659525E+03  0.44757736839E+03  0.00000000000E+00 0. -1.
         22    1    1    2    0    0  0.74397278968E+02 -0.26013520263E+03  0.29375308423E+03  0.39936969497E+03  0.00000000000E+00 0. -1.
<mgrwt>
<rscale>  0 0.15690717E+04</rscale>
<asrwt>0</asrwt>
<pdfrwt beam="1">  1        2 0.26385901E+00 0.15690717E+04</pdfrwt>
<pdfrwt beam="2">  1       -2 0.55211172E-01 0.15690717E+04</pdfrwt>
<totfact> 0.28513360E+01</totfact>
</mgrwt>
</event>
<event>
 6    1  0.1934315E-005  0.5834261E+04  0.7818608E-02  0.7711298E-01
         -2   -1    0    0    0  501 -0.00000000000E+00  0.00000000000E+00  0.29602990368E+04  0.29602990368E+04  0.00000000000E+00 0. -1.
          2   -1    0    0  501    0  0.00000000000E+00 -0.00000000000E+00 -0.28745915598E+04  0.28745915598E+04  0.00000000000E+00 0.  1.
         23    2    1    2    0    0 -0.16042509940E+04  0.73029442745E+03 -0.22808717270E+04  0.28840181272E+04  0.90738751499E+02 0.  0.
         11    1    3    3    0    0 -0.53499210016E+03  0.28537038957E+03 -0.81698831071E+03  0.10174098025E+04  0.00000000000E+00 0. -1.
        -11    1    3    3    0    0 -0.10692588938E+04  0.44492403787E+03 -0.14638834163E+04  0.18666083247E+04  0.00000000000E+00 0.  1.
         22    1    1    2    0    0  0.16042509940E+04 -0.73029442745E+03  0.23665792040E+04  0.29508724695E+04  0.00000000000E+00 0. -1.
<mgrwt>
<rscale>  0 0.58342611E+04</rscale>
<asrwt>0</asrwt>
<pdfrwt beam="1">  1        2 0.44224485E+00 0.58342611E+04</pdfrwt>
<pdfrwt beam="2">  1       -2 0.45543062E+00 0.58342611E+04</pdfrwt>
<totfact> 0.45593346E-03</totfact>
</mgrwt>
</event>
<event>
 6    1  0.1934315E-005  0.2504310E+04  0.7818608E-02  0.8401452E-01
          1   -1    0    0  501    0  0.00000000000E+00  0.00000000000E+00  0.87327629252E+03  0.87327629252E+03  0.00000000000E+00 0.  1.
         -1   -1    0    0    0  501 -0.00000000000E+00 -0.00000000000E+00 -0.17954139398E+04  0.17954139398E+04  0.00000000000E+00 0. -1.
         23    2    1    2    0    0 -0.10052786421E+04 -0.72517387968E+03 -0.28565687913E+03  0.12752878955E+04  0.91088198650E+02 0.  0.
         11    1    3    3    0    0 -0.86103358385E+03 -0.58304806558E+03 -0.25259163462E+03  0.10701057953E+04  0.00000000000E+00 0.  1.
        -11    1    3    3    0    0 -0.14424505820E+03 -0.14212581410E+03 -0.33065244509E+02  0.20518210020E+03  0.00000000000E+00 0. -1.
         22    1    1    2    0    0  0.10052786421E+04  0.72517387968E+03 -0.63648076813E+03  0.13934023368E+04  0.00000000000E+00 0.  1.
<mgrwt>
<rscale>  0 0.25043102E+04</rscale>
<asrwt>0</asrwt>
<pdfrwt beam="1">  1        1 0.13435020E+00 0.25043102E+04</pdfrwt>
<pdfrwt beam="2">  1       -1 0.27621753E+00 0.25043102E+04</pdfrwt>
<totfact> 0.80070220E-01</totfact>
</mgrwt>
</event>
<event>
 6    1  0.1934315E-005  0.1549198E+04  0.7818608E-02  0.8852380E-01
          2   -1    0    0  501    0  0.00000000000E+00  0.00000000000E+00  0.30436315251E+04  0.30436315251E+04  0.00000000000E+00 0.  1.
         -2   -1    0    0    0  501 -0.00000000000E+00 -0.00000000000E+00 -0.19713421073E+03  0.19713421073E+03  0.00000000000E+00 0. -1.
         23    2    1    2    0    0 -0.49690364476E+03 -0.57303761893E+03  0.11281795458E+04  0.13624949091E+04  0.91202767311E+02 0.  0.
         11    1    3    3    0    0 -0.33677315322E+03 -0.33591216566E+03  0.65418122327E+03  0.80883015068E+03  0.00000000000E+00 0.  1.
        -11    1    3    3    0    0 -0.16013049154E+03 -0.23712545328E+03  0.47399832257E+03  0.55366475841E+03  0.00000000000E+00 0. -1.
         22    1    1    2    0    0  0.49690364476E+03  0.57303761893E+03  0.17183177686E+04  0.18782708268E+04  0.00000000000E+00 0.  1.
<mgrwt>
<rscale>  0 0.15491984E+04</rscale>
<asrwt>0</asrwt>
<pdfrwt beam="1">  1        2 0.46825097E+00 0.15491984E+04</pdfrwt>
<pdfrwt beam="2">  1       -2 0.30328342E-01 0.15491984E+04</pdfrwt>
<totfact> 0.15920601E+01</totfact>
</mgrwt>
</event>
<event>
 6    1  0.1934315E-005  0.2172763E+04  0.7818608E-02  0.8529851E-01
          2   -1    0    0  501    0  0.00000000000E+00  0.00000000000E+00  0.30137413296E+04  0.30137413296E+04  0.00000000000E+00 0.  1.
         -2   -1    0    0    0  501 -0.00000000000E+00 -0.00000000000E+00 -0.39161440568E+03  0.39161440568E+03  0.00000000000E+00 0. -1.
         23    2    1    2    0    0  0.15144707051E+03  0.81495150999E+03  0.21728076861E+03  0.86166408544E+03  0.90398478585E+02 0.  0.
         13    1    3    3    0    0  0.34643522900E+02  0.36807488908E+03  0.12794210116E+03  0.39121410877E+03  0.00000000000E+00 0. -1.
        -13    1    3    3    0    0  0.11680354761E+03  0.44687662090E+03  0.89338667456E+02  0.47044997667E+03  0.00000000000E+00 0.  1.
         22    1    1    2    0    0 -0.15144707051E+03 -0.81495150999E+03  0.24048461553E+04  0.25436916498E+04  0.00000000000E+00 0.  1.
<mgrwt>
<rscale>  0 0.21727628E+04</rscale>
<asrwt>0</asrwt>
<pdfrwt beam="1">  1        2 0.46365250E+00 0.21727628E+04</pdfrwt>
<pdfrwt beam="2">  1       -2 0.60248372E-01 0.21727628E+04</pdfrwt>
<totfact> 0.40202337E+00</totfact>
</mgrwt>
</event>
<event>
 6    1  0.1934315E-005  0.3274132E+04  0.7818608E-02  0.8169509E-01
         -2   -1    0    0    0  501 -0.00000000000E+00  0.00000000000E+00  0.19094085758E+04  0.19094085758E+04  0.00000000000E+00 0. -1.
          2   -1    0    0  501    0  0.00000000000E+00 -0.00000000000E+00 -0.14035682875E+04  0.14035682875E+04  0.00000000000E+00 0.  1.
         23    2    1    2    0    0  0.14813043323E+04  0.55353027224E+03 -0.17045416503E+03  0.15930837053E+04  0.90569214242E+02 0.  0.
         13    1    3    3    0    0  0.55020311824E+03  0.24675230841E+03 -0.86217368386E+02  0.60913348918E+03  0.00000000000E+00 0. -1.
        -13    1    3    3    0    0  0.93110121406E+03  0.30677796383E+03 -0.84236796648E+02  0.98395021613E+03  0.00000000000E+00 0.  1.
         22    1    1    2    0    0 -0.14813043323E+04 -0.55353027224E+03  0.67629445343E+03  0.17198931580E+04  0.00000000000E+00 0.  1.
<mgrwt>
<rscale>  0 0.32741321E+04</rscale>
<asrwt>0</asrwt>
<pdfrwt beam="1">  1        2 0.21593358E+00 0.32741321E+04</pdfrwt>
<pdfrwt beam="2">  1       -2 0.29375517E+00 0.32741321E+04</pdfrwt>
<totfact> 0.41833264E-01</totfact>
</mgrwt>
</event>
<event>
 6    1  0.1934315E-005  0.1948061E+04  0.7818608E-02  0.8631296E-01
          1   -1    0    0  501    0  0.00000000000E+00  0.00000000000E+00  0.34052125374E+04  0.34052125374E+04  0.00000000000E+00 0.  1.
         -1   -1    0    0    0  501 -0.00000000000E+00 -0.00000000000E+00 -0.27861280327E+03  0.27861280327E+03  0.00000000000E+00 0. -1.
         23    2    1    2    0    0 -0.71726181398E+03 -0.24575245541E+03  0.41694023014E+03  0.87008878465E+03  0.91414214048E+02 0.  0.
         13    1    3    3    0    0 -0.48768440175E+03 -0.12130015783E+03  0.27529097305E+03  0.57300516913E+03  0.00000000000E+00 0. -1.
        -13    1    3    3    0    0 -0.22957741222E+03 -0.12445229758E+03  0.14164925709E+03  0.29708361552E+03  0.00000000000E+00 0.  1.
         22    1    1    2    0    0  0.71726181398E+03  0.24575245541E+03  0.27096595040E+04  0.28137365561E+04  0.00000000000E+00 0.  1.
<mgrwt>
<rscale>  0 0.19480614E+04</rscale>
<asrwt>0</asrwt>
<pdfrwt beam="1">  1        1 0.52387882E+00 0.19480614E+04</pdfrwt>
<pdfrwt beam="2">  1       -1 0.42863511E-01 0.19480614E+04</pdfrwt>
<totfact> 0.14873487E+00</totfact>
</mgrwt>
</event>
<event>
 6    1  0.1934315E-005  0.2320419E+04  0.7818608E-02  0.8469913E-01
         -2   -1    0    0    0  501 -0.00000000000E+00  0.00000000000E+00  0.73897396107E+03  0.73897396107E+03  0.00000000000E+00 0. -1.
          2   -1    0    0  501    0  0.00000000000E+00 -0.00000000000E+00 -0.18215614290E+04  0.18215614290E+04  0.00000000000E+00 0.  1.
         23    2    1    2    0    0 -0.44600784506E+03 -0.17669814361E+03 -0.17056471117E+04  0.17741839727E+04  0.91386363065E+02 0.  0.
         13    1    3    3    0    0 -0.26903465486E+03 -0.58333367979E+02 -0.93868542654E+03  0.97821917653E+03  0.00000000000E+00 0.  1.
        -13    1    3    3    0    0 -0.17697319021E+03 -0.11836477563E+03 -0.76696168517E+03  0.79596479613E+03  0.00000000000E+00 0. -1.
         22    1    1    2    0    0  0.44600784506E+03  0.17669814361E+03  0.62305964383E+03  0.78635141736E+03  0.00000000000E+00 0. -1.
<mgrwt>
<rscale>  0 0.23204193E+04</rscale>
<asrwt>0</asrwt>
<pdfrwt beam="1">  1        2 0.28024021E+00 0.23204193E+04</pdfrwt>
<pdfrwt beam="2">  1       -2 0.11368830E+00 0.23204193E+04</pdfrwt>
<totfact> 0.46073959E+00</totfact>
</mgrwt>
</event>
<event>
 6    1  0.1934315E-005  0.5058784E+04  0.7818608E-02  0.7819503E-01
          1   -1    0    0  501    0  0.00000000000E+00  0.00000000000E+00  0.15020769503E+04  0.15020769503E+04  0.00000000000E+00 0.  1.
         -1   -1    0    0    0  501 -0.00000000000E+00 -0.00000000000E+00 -0.42593176762E+04  0.42593176762E+04  0.00000000000E+00 0. -1.
         23    2    1    2    0    0  0.30327589461E+03 -0.23685686131E+04 -0.43297194142E+03  0.24290802767E+04  0.10427245694E+03 0.  0.
         13    1    3    3    0    0  0.12103745184E+03 -0.13323065150E+04 -0.25884625921E+03  0.13626048953E+04  0.00000000000E+00 0. -1.
        -13    1    3    3    0    0  0.18223844277E+03 -0.10362620981E+04 -0.17412568221E+03  0.10664753814E+04  0.00000000000E+00 0.  1.
         22    1    1    2    0    0 -0.30327589461E+03  0.23685686131E+04 -0.23242687845E+04  0.33323143498E+04  0.00000000000E+00 0. -1.
<mgrwt>
<rscale>  0 0.50587836E+04</rscale>
<asrwt>0</asrwt>
<pdfrwt beam="1">  1        1 0.23108876E+00 0.50587836E+04</pdfrwt>
<pdfrwt beam="2">  1       -1 0.65527964E+00 0.50587836E+04</pdfrwt>
<totfact> 0.13333125E-03</totfact>
</mgrwt>
</event>
<event>
 6    1  0.1934315E-005  0.1937598E+04  0.7818608E-02  0.8636364E-01
         -2   -1    0    0    0  501 -0.00000000000E+00  0.00000000000E+00  0.77854822340E+03  0.77854822340E+03  0.00000000000E+00 0. -1.
          2   -1    0    0  501    0  0.00000000000E+00 -0.00000000000E+00 -0.12055407506E+04  0.12055407506E+04  0.00000000000E+00 0.  1.
         23    2    1    2    0    0 -0.53623931568E+03 -0.24204979819E+03 -0.99933421380E+03  0.11632871011E+04  0.91800327857E+02 0.  0.
         13    1    3    3    0    0 -0.29102983045E+02 -0.96617008100E+01 -0.10363798087E+03  0.10807942988E+03  0.00000000000E+00 0.  1.
        -13    1    3    3    0    0 -0.50713633264E+03 -0.23238809738E+03 -0.89569623293E+03  0.10552076712E+04  0.00000000000E+00 0. -1.
         22    1    1    2    0    0  0.53623931568E+03  0.24204979819E+03  0.57234168655E+03  0.82080187296E+03  0.00000000000E+00 0. -1.
<mgrwt>
<rscale>  0 0.19375981E+04</rscale>
<asrwt>0</asrwt>
<pdfrwt beam="1">  1        2 0.18546781E+00 0.19375981E+04</pdfrwt>
<pdfrwt beam="2">  1       -2 0.11977665E+00 0.19375981E+04</pdfrwt>
<totfact> 0.93646637E+00</totfact>
</mgrwt>
</event>
<event>
 6    1  0.1934315E-005  0.1311737E+04  0.7818608E-02  0.9020309E-01
          2   -1    0    0  501    0  0.00000000000E+00  0.00000000000E+00  0.21335717923E+04  0.21335717923E+04  0.00000000000E+00 0.  1.
         -2   -1    0    0    0  501 -0.00000000000E+00 -0.00000000000E+00 -0.20161663343E+03  0.20161663343E+03  0.00000000000E+00 0. -1.
         23    2    1    2    0    0  0.26289653204E+03  0.33137596278E+03  0.18556757010E+04  0.19053708238E+04  0.89336743348E+02 0.  0.
         13    1    3    3    0    0  0.10249549690E+03  0.14686662093E+03  0.97882032078E+03  0.99507002346E+03  0.00000000000E+00 0. -1.
        -13    1    3    3    0    0  0.16040103514E+03  0.18450934184E+03  0.87685538020E+03  0.91030080033E+03  0.00000000000E+00 0.  1.
         22    1    1    2    0    0 -0.26289653204E+03 -0.33137596278E+03  0.76279457933E+02  0.42981760197E+03  0.00000000000E+00 0. -1.
<mgrwt>
<rscale>  0 0.13117371E+04</rscale>
<asrwt>0</asrwt>
<pdfrwt beam="1">  1        2 0.32824180E+00 0.13117371E+04</pdfrwt>
<pdfrwt beam="2">  1       -2 0.31017945E-01 0.13117371E+04</pdfrwt>
<totfact> 0.53173286E+01</totfact>
</mgrwt>
</event>
<event>
 6    1  0.1934315E-005  0.3608173E+04  0.7818608E-02  0.8088622E-01
         -2   -1    0    0    0  501 -0.00000000000E+00  0.00000000000E+00  0.31462402611E+04  0.31462402611E+04  0.00000000000E+00 0. -1.
          2   -1    0    0  501    0  0.00000000000E+00 -0.00000000000E+00 -0.10344818543E+04  0.10344818543E+04  0.00000000000E+00 0.  1.
         23    2    1    2    0    0  0.10850794050E+04  0.14142558675E+04  0.13695944922E+04  0.22498352077E+04  0.91937014655E+02 0.  0.
         13    1    3    3    0    0  0.75739251738E+03  0.10113827353E+04  0.10192674692E+04  0.16234052595E+04  0.00000000000E+00 0. -1.
        -13    1    3    3    0    0  0.32768688765E+03  0.40287313220E+03  0.35032702295E+03  0.62642994820E+03  0.00000000000E+00 0.  1.
         22    1    1    2    0    0 -0.10850794050E+04 -0.14142558675E+04  0.74216391462E+03  0.19308869077E+04  0.00000000000E+00 0.  1.
<mgrwt>
<rscale>  0 0.36081732E+04</rscale>
<asrwt>0</asrwt>
<pdfrwt beam="1">  1        2 0.15915106E+00 0.36081732E+04</pdfrwt>
<pdfrwt beam="2">  1       -2 0.48403696E+00 0.36081732E+04</pdfrwt>
<totfact> 0.40535843E-02</totfact>
</mgrwt>
</event>
<event>
 6    1  0.1934315E-005  0.8986317E+03  0.7818608E-02  0.9427293E-01
         -2   -1    0    0    0  501 -0.00000000000E+00  0.00000000000E+00  0.20932681899E+03  0.20932681899E+03  0.00000000000E+00 0. -1.
          2   -1    0    0  501    0  0.00000000000E+00 -0.00000000000E+00 -0.96444752284E+03  0.96444752284E+03  0.00000000000E+00 0.  1.
         23    2    1    2    0    0 -0.51131730221E+02  0.31260193936E+03  0.26509301638E+02  0.33040023042E+03  0.90150667551E+02 0.  0.
         13    1    3    3    0    0 -0.34054522528E+02  0.22832742268E+03 -0.21613806680E+02  0.23186262978E+03  0.00000000000E+00 0.  1.
        -13    1    3    3    0    0 -0.17077207693E+02  0.84274516685E+02  0.48123108317E+02  0.98537600636E+02  0.00000000000E+00 0. -1.
         22    1    1    2    0    0  0.51131730221E+02 -0.31260193936E+03 -0.78163000549E+03  0.84337411142E+03  0.00000000000E+00 0.  1.
<mgrwt>
<rscale>  0 0.89863170E+03</rscale>
<asrwt>0</asrwt>
<pdfrwt beam="1">  1        2 0.14837654E+00 0.89863170E+03</pdfrwt>
<pdfrwt beam="2">  1       -2 0.32204126E-01 0.89863170E+03</pdfrwt>
<totfact> 0.23874270E+02</totfact>
</mgrwt>
</event>
<event>
 6    1  0.1934315E-005  0.4692335E+04  0.7818608E-02  0.7877803E-01
          2   -1    0    0  501    0  0.00000000000E+00  0.00000000000E+00  0.36375575627E+04  0.36375575627E+04  0.00000000000E+00 0.  1.
         -2   -1    0    0    0  501 -0.00000000000E+00 -0.00000000000E+00 -0.15132411035E+04  0.15132411035E+04  0.00000000000E+00 0. -1.
         23    2    1    2    0    0  0.96362733264E+03 -0.15939492410E+04 -0.50179791265E+03  0.19312135201E+04  0.92372594936E+02 0.  0.
         11    1    3    3    0    0  0.90440367476E+03 -0.14544138960E+04 -0.44723188746E+03  0.17701079484E+04  0.00000000000E+00 0. -1.
        -11    1    3    3    0    0  0.59223657878E+02 -0.13953534497E+03 -0.54566025191E+02  0.16110557176E+03  0.00000000000E+00 0.  1.
         22    1    1    2    0    0 -0.96362733264E+03  0.15939492410E+04  0.26261143719E+04  0.32195851461E+04  0.00000000000E+00 0.  1.
<mgrwt>
<rscale>  0 0.46923349E+04</rscale>
<asrwt>0</asrwt>
<pdfrwt beam="1">  1        2 0.55962424E+00 0.46923349E+04</pdfrwt>
<pdfrwt beam="2">  1       -2 0.23280632E+00 0.46923349E+04</pdfrwt>
<totfact> 0.39630762E-02</totfact>
</mgrwt>
</event>
<event>
 6    1  0.1934315E-005  0.3803868E+04  0.7818608E-02  0.8045325E-01
          2   -1    0    0  501    0  0.00000000000E+00  0.00000000000E+00  0.18567153128E+04  0.18567153128E+04  0.00000000000E+00 0.  1.
         -2   -1    0    0    0  501 -0.00000000000E+00 -0.00000000000E+00 -0.19482536227E+04  0.19482536227E+04  0.00000000000E+00 0. -1.
         23    2    1    2    0    0  0.13104704003E+04  0.94753675470E+03  0.95352155829E+03  0.18795316606E+04  0.90979828995E+02 0.  0.
         13    1    3    3    0    0  0.11786350708E+04  0.82026016762E+03  0.85996860917E+03  0.16737841502E+04  0.00000000000E+00 0. -1.
        -13    1    3    3    0    0  0.13183532951E+03  0.12727658707E+03  0.93552949121E+02  0.20574751035E+03  0.00000000000E+00 0.  1.
         22    1    1    2    0    0 -0.13104704003E+04 -0.94753675470E+03 -0.10450598682E+04  0.19254372749E+04  0.00000000000E+00 0. -1.
<mgrwt>
<rscale>  0 0.38038677E+04</rscale>
<asrwt>0</asrwt>
<pdfrwt beam="1">  1        2 0.28564851E+00 0.38038677E+04</pdfrwt>
<pdfrwt beam="2">  1       -2 0.29973132E+00 0.38038677E+04</pdfrwt>
<totfact> 0.20523171E-01</totfact>
</mgrwt>
</event>
<event>
 6    1  0.1934315E-005  0.2071606E+04  0.7818608E-02  0.8573856E-01
         -2   -1    0    0    0  501 -0.00000000000E+00  0.00000000000E+00  0.59602645103E+03  0.59602645103E+03  0.00000000000E+00 0. -1.
          2   -1    0    0  501    0  0.00000000000E+00 -0.00000000000E+00 -0.18000667054E+04  0.18000667054E+04  0.00000000000E+00 0.  1.
         23    2    1    2    0    0  0.10104354566E+04 -0.41575361284E+02 -0.85246111947E+03  0.13254315802E+04  0.85852146860E+02 0.  0.
         11    1    3    3    0    0  0.34820519421E+03 -0.48535702446E+02 -0.26666401533E+03  0.44126213157E+03  0.00000000000E+00 0. -1.
        -11    1    3    3    0    0  0.66223026237E+03  0.69603411627E+01 -0.58579710414E+03  0.88416944867E+03  0.00000000000E+00 0.  1.
         22    1    1    2    0    0 -0.10104354566E+04  0.41575361284E+02 -0.35157913486E+03  0.10706615762E+04  0.00000000000E+00 0. -1.
<mgrwt>
<rscale>  0 0.20716055E+04</rscale>
<asrwt>0</asrwt>
<pdfrwt beam="1">  1        2 0.27693333E+00 0.20716055E+04</pdfrwt>
<pdfrwt beam="2">  1       -2 0.91696379E-01 0.20716055E+04</pdfrwt>
<totfact> 0.80658375E+00</totfact>
</mgrwt>
</event>
<event>
 6    1  0.1934315E-005  0.2132979E+04  0.7818608E-02  0.8546853E-01
         -2   -1    0    0    0  501 -0.00000000000E+00  0.00000000000E+00  0.55273013416E+03  0.55273013416E+03  0.00000000000E+00 0. -1.
          2   -1    0    0  501    0  0.00000000000E+00 -0.00000000000E+00 -0.20577855220E+04  0.20577855220E+04  0.00000000000E+00 0.  1.
         23    2    1    2    0    0  0.93989437066E+03  0.19628752164E+03 -0.19372018395E+03  0.98523714585E+03  0.10599294664E+03 0.  0.
         11    1    3    3    0    0  0.45461744086E+03  0.14055909724E+03 -0.66494804798E+02  0.48047417872E+03  0.00000000000E+00 0.  1.
        -11    1    3    3    0    0  0.48527692980E+03  0.55728424399E+02 -0.12722537915E+03  0.50476296713E+03  0.00000000000E+00 0. -1.
         22    1    1    2    0    0 -0.93989437066E+03 -0.19628752164E+03 -0.13113352039E+04  0.16252785103E+04  0.00000000000E+00 0. -1.
<mgrwt>
<rscale>  0 0.21329792E+04</rscale>
<asrwt>0</asrwt>
<pdfrwt beam="1">  1        2 0.31658239E+00 0.21329792E+04</pdfrwt>
<pdfrwt beam="2">  1       -2 0.85035404E-01 0.21329792E+04</pdfrwt>
<totfact> 0.68627972E+00</totfact>
</mgrwt>
</event>
<event>
 6    1  0.1934315E-005  0.4244245E+04  0.7818608E-02  0.7957009E-01
         -2   -1    0    0    0  501 -0.00000000000E+00  0.00000000000E+00  0.36700426136E+04  0.36700426136E+04  0.00000000000E+00 0. -1.
          2   -1    0    0  501    0  0.00000000000E+00 -0.00000000000E+00 -0.12270712018E+04  0.12270712018E+04  0.00000000000E+00 0.  1.
         23    2    1    2    0    0 -0.16898176920E+04  0.12773628327E+04  0.10953961264E+04  0.23865165183E+04  0.91808385546E+02 0.  0.
         11    1    3    3    0    0 -0.28808216821E+03  0.22830819722E+03  0.22869812477E+03  0.43291893102E+03  0.00000000000E+00 0. -1.
        -11    1    3    3    0    0 -0.14017355238E+04  0.10490546355E+04  0.86669800165E+03  0.19535975872E+04  0.00000000000E+00 0.  1.
         22    1    1    2    0    0  0.16898176920E+04 -0.12773628327E+04  0.13475752854E+04  0.25105972971E+04  0.00000000000E+00 0.  1.
<mgrwt>
<rscale>  0 0.42442449E+04</rscale>
<asrwt>0</asrwt>
<pdfrwt beam="1">  1        2 0.18878019E+00 0.42442449E+04</pdfrwt>
<pdfrwt beam="2">  1       -2 0.56462194E+00 0.42442449E+04</pdfrwt>
<totfact> 0.10227130E-02</totfact>
</mgrwt>
</event>
<event>
 6    1  0.1934315E-005  0.1201130E+04  0.7818608E-02  0.9111868E-01
         -2   -1    0    0    0  501 -0.00000000000E+00  0.00000000000E+00  0.70109239856E+03  0.70109239856E+03  0.00000000000E+00 0. -1.
          2   -1    0    0  501    0  0.00000000000E+00 -0.00000000000E+00 -0.51445229772E+03  0.51445229772E+03  0.00000000000E+00 0.  1.
         23    2    1    2    0    0 -0.31974559903E+02 -0.42482336677E+03 -0.32916230381E+03  0.54655337641E+03  0.94209901711E+02 0.  0.
         13    1    3    3    0    0 -0.69012623151E+01 -0.15398380655E+03 -0.17767014238E+03  0.23521334910E+03  0.00000000000E+00 0.  1.
        -13    1    3    3    0    0 -0.25073297588E+02 -0.27083956021E+03 -0.15149216143E+03  0.31134002731E+03  0.00000000000E+00 0. -1.
         22    1    1    2    0    0  0.31974559903E+02  0.42482336677E+03  0.51580240464E+03  0.66899131987E+03  0.00000000000E+00 0. -1.
<mgrwt>
<rscale>  0 0.12011305E+04</rscale>
<asrwt>0</asrwt>
<pdfrwt beam="1">  1        2 0.79146507E-01 0.12011305E+04</pdfrwt>
<pdfrwt beam="2">  1       -2 0.10786037E+00 0.12011305E+04</pdfrwt>
<totfact> 0.40494130E+01</totfact>
</mgrwt>
</event>
<event>
 6    1  0.1934315E-005  0.2670371E+04  0.7818608E-02  0.8344683E-01
         -2   -1    0    0    0  501 -0.00000000000E+00  0.00000000000E+00  0.89448595909E+03  0.89448595909E+03  0.00000000000E+00 0. -1.
          2   -1    0    0  501    0  0.00000000000E+00 -0.00000000000E+00 -0.19930103554E+04  0.19930103554E+04  0.00000000000E+00 0.  1.
         23    2    1    2    0    0  0.75772696704E+03  0.10467360949E+04 -0.90673701259E+03  0.15811315073E+04  0.89432792916E+02 0.  0.
         11    1    3    3    0    0  0.55812338866E+03  0.82727664495E+03 -0.72060780964E+03  0.12309199728E+04  0.00000000000E+00 0. -1.
        -11    1    3    3    0    0  0.19960357838E+03  0.21945944996E+03 -0.18612920295E+03  0.35021153446E+03  0.00000000000E+00 0.  1.
         22    1    1    2    0    0 -0.75772696704E+03 -0.10467360949E+04 -0.19178738375E+03  0.13063648072E+04  0.00000000000E+00 0. -1.
<mgrwt>
<rscale>  0 0.26703706E+04</rscale>
<asrwt>0</asrwt>
<pdfrwt beam="1">  1        2 0.30661697E+00 0.26703706E+04</pdfrwt>
<pdfrwt beam="2">  1       -2 0.13761323E+00 0.26703706E+04</pdfrwt>
<totfact> 0.22265745E+00</totfact>
</mgrwt>
</event>
<event>
 6    1  0.1934315E-005  0.2992367E+04  0.7818608E-02  0.8245914E-01
         -2   -1    0    0    0  501 -0.00000000000E+00  0.00000000000E+00  0.76058723052E+03  0.76058723052E+03  0.00000000000E+00 0. -1.
          2   -1    0    0  501    0  0.00000000000E+00 -0.00000000000E+00 -0.29432056728E+04  0.29432056728E+04  0.00000000000E+00 0.  1.
         23    2    1    2    0    0 -0.12156083809E+04 -0.68079959714E+03 -0.42202413876E+03  0.14586015688E+04  0.90677094652E+02 0.  0.
         11    1    3    3    0    0 -0.10263501132E+04 -0.58623923103E+03 -0.38980504301E+03  0.12445959033E+04  0.00000000000E+00 0. -1.
        -11    1    3    3    0    0 -0.18925826768E+03 -0.94560366108E+02 -0.32219095751E+02  0.21400566547E+03  0.00000000000E+00 0.  1.
         22    1    1    2    0    0  0.12156083809E+04  0.68079959714E+03 -0.17605943035E+04  0.22451913346E+04  0.00000000000E+00 0.  1.
<mgrwt>
<rscale>  0 0.29923667E+04</rscale>
<asrwt>0</asrwt>
<pdfrwt beam="1">  1        2 0.45280087E+00 0.29923667E+04</pdfrwt>
<pdfrwt beam="2">  1       -2 0.11701342E+00 0.29923667E+04</pdfrwt>
<totfact> 0.91397171E-01</totfact>
</mgrwt>
</event>
<event>
 6    1  0.1934315E-005  0.1605470E+04  0.7818608E-02  0.8817194E-01
          2   -1    0    0  501    0  0.00000000000E+00  0.00000000000E+00  0.46282247787E+03  0.46282247787E+03  0.00000000000E+00 0.  1.
         -2   -1    0    0    0  501 -0.00000000000E+00 -0.00000000000E+00 -0.13922915015E+04  0.13922915015E+04  0.00000000000E+00 0. -1.
         23    2    1    2    0    0  0.36973340162E+03  0.51693334433E+02  0.35108745272E+03  0.52124746497E+03  0.95192075242E+02 0.  0.
         11    1    3    3    0    0  0.15133934992E+03  0.87466197100E+01  0.20519507651E+03  0.25511785828E+03  0.00000000000E+00 0. -1.
        -11    1    3    3    0    0  0.21839405170E+03  0.42946714723E+02  0.14589237621E+03  0.26612960669E+03  0.00000000000E+00 0.  1.
         22    1    1    2    0    0 -0.36973340162E+03 -0.51693334433E+02 -0.12805564764E+04  0.13338665144E+04  0.00000000000E+00 0. -1.
<mgrwt>
<rscale>  0 0.16054704E+04</rscale>
<asrwt>0</asrwt>
<pdfrwt beam="1">  1        2 0.71203459E-01 0.16054704E+04</pdfrwt>
<pdfrwt beam="2">  1       -2 0.21419869E+00 0.16054704E+04</pdfrwt>
<totfact> 0.69406920E+00</totfact>
</mgrwt>
</event>
<event>
 6    1  0.1934315E-005  0.1595536E+04  0.7818608E-02  0.8823295E-01
         -2   -1    0    0    0  501 -0.00000000000E+00  0.00000000000E+00  0.75435658597E+03  0.75435658597E+03  0.00000000000E+00 0. -1.
          2   -1    0    0  501    0  0.00000000000E+00 -0.00000000000E+00 -0.84367786062E+03  0.84367786062E+03  0.00000000000E+00 0.  1.
         23    2    1    2    0    0 -0.32661553479E+03 -0.38493439939E+03 -0.66018203161E+03  0.83597526042E+03  0.90344461749E+02 0.  0.
         11    1    3    3    0    0 -0.31715962398E+03 -0.33529890066E+03 -0.58040152283E+03  0.74153995682E+03  0.00000000000E+00 0.  1.
        -11    1    3    3    0    0 -0.94559108176E+01 -0.49635498732E+02 -0.79780508782E+02  0.94435303596E+02  0.00000000000E+00 0. -1.
         22    1    1    2    0    0  0.32661553479E+03  0.38493439939E+03  0.57086075695E+03  0.76205918617E+03  0.00000000000E+00 0. -1.
<mgrwt>
<rscale>  0 0.15955362E+04</rscale>
<asrwt>0</asrwt>
<pdfrwt beam="1">  1        2 0.12979659E+00 0.15955362E+04</pdfrwt>
<pdfrwt beam="2">  1       -2 0.11605486E+00 0.15955362E+04</pdfrwt>
<totfact> 0.17735981E+01</totfact>
</mgrwt>
</event>
<event>
 6    1  0.1934315E-005  0.2871725E+04  0.7818608E-02  0.8281340E-01
         -2   -1    0    0    0  501 -0.00000000000E+00  0.00000000000E+00  0.12809801759E+04  0.12809801759E+04  0.00000000000E+00 0. -1.
          2   -1    0    0  501    0  0.00000000000E+00 -0.00000000000E+00 -0.16094717658E+04  0.16094717658E+04  0.00000000000E+00 0.  1.
         23    2    1    2    0    0 -0.49568841205E+03 -0.67326893904E+03  0.10086852035E+04  0.13134167985E+04  0.92842773803E+02 0.  0.
         11    1    3    3    0    0 -0.40500946030E+03 -0.48415739753E+03  0.74311037170E+03  0.97501490914E+03  0.00000000000E+00 0.  1.
        -11    1    3    3    0    0 -0.90678951758E+02 -0.18911154152E+03  0.26557483182E+03  0.33840188936E+03  0.00000000000E+00 0. -1.
         22    1    1    2    0    0  0.49568841205E+03  0.67326893904E+03 -0.13371767934E+04  0.15770351432E+04  0.00000000000E+00 0.  1.
<mgrwt>
<rscale>  0 0.28717252E+04</rscale>
<asrwt>0</asrwt>
<pdfrwt beam="1">  1        2 0.24761104E+00 0.28717252E+04</pdfrwt>
<pdfrwt beam="2">  1       -2 0.19707387E+00 0.28717252E+04</pdfrwt>
<totfact> 0.13252458E+00</totfact>
</mgrwt>
</event>
<event>
 6    1  0.1934315E-005  0.2746795E+04  0.7818608E-02  0.8319979E-01
          2   -1    0    0  501    0  0.00000000000E+00  0.00000000000E+00  0.36263885603E+04  0.36263885603E+04  0.00000000000E+00 0.  1.
         -2   -1    0    0    0  501 -0.00000000000E+00 -0.00000000000E+00 -0.52013763413E+03  0.52013763413E+03  0.00000000000E+00 0. -1.
         23    2    1    2    0    0  0.11940419592E+04 -0.55114957181E+03  0.21448273605E+04  0.25174659367E+04  0.88590545523E+02 0.  0.
         11    1    3    3    0    0  0.78222967004E+03 -0.34145681054E+03  0.13169769338E+04  0.15693642835E+04  0.00000000000E+00 0.  1.
        -11    1    3    3    0    0  0.41181228920E+03 -0.20969276127E+03  0.82785042673E+03  0.94810165315E+03  0.00000000000E+00 0. -1.
         22    1    1    2    0    0 -0.11940419592E+04  0.55114957181E+03  0.96142356566E+03  0.16290602578E+04  0.00000000000E+00 0. -1.
<mgrwt>
<rscale>  0 0.27467953E+04</rscale>
<asrwt>0</asrwt>
<pdfrwt beam="1">  1        2 0.55790592E+00 0.27467953E+04</pdfrwt>
<pdfrwt beam="2">  1       -2 0.80021177E-01 0.27467953E+04</pdfrwt>
<totfact> 0.79796149E-01</totfact>
</mgrwt>
</event>
<event>
 6    1  0.1934315E-005  0.4243025E+04  0.7818608E-02  0.7957238E-01
          2   -1    0    0  501    0  0.00000000000E+00  0.00000000000E+00  0.30475635760E+04  0.30475635760E+04  0.00000000000E+00 0. -1.
         -2   -1    0    0    0  501 -0.00000000000E+00 -0.00000000000E+00 -0.14768572044E+04  0.14768572044E+04  0.00000000000E+00 0.  1.
         23    2    1    2    0    0  0.38025719489E+03  0.81023919136E+03 -0.12640038461E+04  0.15517679081E+04  0.95889708133E+02 0.  0.
         13    1    3    3    0    0  0.21466343580E+03  0.34554450131E+03 -0.56374741394E+03  0.69519244802E+03  0.00000000000E+00 0. -1.
        -13    1    3    3    0    0  0.16559375909E+03  0.46469469005E+03 -0.70025643214E+03  0.85657546005E+03  0.00000000000E+00 0.  1.
         22    1    1    2    0    0 -0.38025719489E+03 -0.81023919136E+03  0.28347102177E+04  0.29726528724E+04  0.00000000000E+00 0. -1.
<mgrwt>
<rscale>  0 0.42430254E+04</rscale>
<asrwt>0</asrwt>
<pdfrwt beam="1">  1        2 0.46885594E+00 0.42430254E+04</pdfrwt>
<pdfrwt beam="2">  1       -2 0.22720880E+00 0.42430254E+04</pdfrwt>
<totfact> 0.11182504E-01</totfact>
</mgrwt>
</event>
<event>
 6    1  0.1934315E-005  0.1494757E+04  0.7818608E-02  0.8887947E-01
         -2   -1    0    0    0  501 -0.00000000000E+00  0.00000000000E+00  0.13865920313E+03  0.13865920313E+03  0.00000000000E+00 0. -1.
          2   -1    0    0  501    0  0.00000000000E+00 -0.00000000000E+00 -0.40284014542E+04  0.40284014542E+04  0.00000000000E+00 0.  1.
         23    2    1    2    0    0  0.24354730500E+03  0.51483535057E+03 -0.61561155969E+03  0.84376372322E+03  0.92676319687E+02 0.  0.
         11    1    3    3    0    0  0.11994209503E+03  0.20916608904E+03 -0.32198047928E+03  0.40225363641E+03  0.00000000000E+00 0.  1.
        -11    1    3    3    0    0  0.12360520997E+03  0.30566926154E+03 -0.29363108041E+03  0.44151008682E+03  0.00000000000E+00 0. -1.
         22    1    1    2    0    0 -0.24354730500E+03 -0.51483535057E+03 -0.32741306914E+04  0.33232969341E+04  0.00000000000E+00 0.  1.
<mgrwt>
<rscale>  0 0.14947574E+04</rscale>
<asrwt>0</asrwt>
<pdfrwt beam="1">  1        2 0.61975402E+00 0.14947574E+04</pdfrwt>
<pdfrwt beam="2">  1       -2 0.21332187E-01 0.14947574E+04</pdfrwt>
<totfact> 0.61291275E+00</totfact>
</mgrwt>
</event>
<event>
 6    1  0.1934315E-005  0.2253796E+04  0.7818608E-02  0.8496365E-01
          2   -1    0    0  501    0  0.00000000000E+00  0.00000000000E+00  0.16178979875E+04  0.16178979875E+04  0.00000000000E+00 0.  1.
         -2   -1    0    0    0  501 -0.00000000000E+00 -0.00000000000E+00 -0.78490672646E+03  0.78490672646E+03  0.00000000000E+00 0. -1.
         23    2    1    2    0    0  0.83799680271E+03  0.48840730014E+01 -0.38169197304E+03  0.92709544223E+03  0.10749279608E+03 0.  0.
         11    1    3    3    0    0  0.77284987920E+03 -0.22880891893E+02 -0.33763795130E+03  0.84369417276E+03  0.00000000000E+00 0.  1.
        -11    1    3    3    0    0  0.65146923509E+02  0.27764964894E+02 -0.44054021736E+02  0.83401269471E+02  0.00000000000E+00 0. -1.
         22    1    1    2    0    0 -0.83799680271E+03 -0.48840730014E+01  0.12146832341E+04  0.14757092718E+04  0.00000000000E+00 0.  1.
<mgrwt>
<rscale>  0 0.22537959E+04</rscale>
<asrwt>0</asrwt>
<pdfrwt beam="1">  1        2 0.24890738E+00 0.22537959E+04</pdfrwt>
<pdfrwt beam="2">  1       -2 0.12075488E+00 0.22537959E+04</pdfrwt>
<totfact> 0.51852207E+00</totfact>
</mgrwt>
</event>
<event>
 6    1  0.1934315E-005  0.2595018E+04  0.7818608E-02  0.8369895E-01
         -2   -1    0    0    0  501 -0.00000000000E+00  0.00000000000E+00  0.56687482065E+03  0.56687482065E+03  0.00000000000E+00 0. -1.
          2   -1    0    0  501    0  0.00000000000E+00 -0.00000000000E+00 -0.29698438799E+04  0.29698438799E+04  0.00000000000E+00 0.  1.
         23    2    1    2    0    0 -0.91281487028E+03 -0.25590848174E+03  0.11693492615E+01  0.95241964168E+03  0.91551450255E+02 0.  0.
         11    1    3    3    0    0 -0.38732456069E+03 -0.12626908611E+03  0.42503952146E+02  0.40959831954E+03  0.00000000000E+00 0. -1.
        -11    1    3    3    0    0 -0.52549030959E+03 -0.12963939563E+03 -0.41334602885E+02  0.54282132214E+03  0.00000000000E+00 0.  1.
         22    1    1    2    0    0  0.91281487028E+03  0.25590848174E+03 -0.24041384085E+04  0.25842990589E+04  0.00000000000E+00 0.  1.
<mgrwt>
<rscale>  0 0.25950181E+04</rscale>
<asrwt>0</asrwt>
<pdfrwt beam="1">  1        2 0.45689905E+00 0.25950181E+04</pdfrwt>
<pdfrwt beam="2">  1       -2 0.87211512E-01 0.25950181E+04</pdfrwt>
<totfact> 0.18281731E+00</totfact>
</mgrwt>
</event>
<event>
 6    1  0.1934315E-005  0.1845002E+04  0.7818608E-02  0.8682728E-01
          2   -1    0    0  501    0  0.00000000000E+00  0.00000000000E+00  0.12717055074E+04  0.12717055074E+04  0.00000000000E+00 0.  1.
         -2   -1    0    0    0  501 -0.00000000000E+00 -0.00000000000E+00 -0.66918619133E+03  0.66918619133E+03  0.00000000000E+00 0. -1.
         23    2    1    2    0    0 -0.63078815005E+03 -0.56356674523E+03  0.68387264054E+03  0.10911155341E+04  0.85733037686E+02 0.  0.
         13    1    3    3    0    0 -0.22195821310E+03 -0.21034147352E+03  0.29969304433E+03  0.42816457661E+03  0.00000000000E+00 0. -1.
        -13    1    3    3    0    0 -0.40882993695E+03 -0.35322527171E+03  0.38417959621E+03  0.66295095751E+03  0.00000000000E+00 0.  1.
         22    1    1    2    0    0  0.63078815005E+03  0.56356674523E+03 -0.81353324442E+02  0.84977616463E+03  0.00000000000E+00 0. -1.
<mgrwt>
<rscale>  0 0.18450016E+04</rscale>
<asrwt>0</asrwt>
<pdfrwt beam="1">  1        2 0.19564700E+00 0.18450016E+04</pdfrwt>
<pdfrwt beam="2">  1       -2 0.10295172E+00 0.18450016E+04</pdfrwt>
<totfact> 0.12452365E+01</totfact>
</mgrwt>
</event>
<event>
 6    1  0.1934315E-005  0.3511106E+04  0.7818608E-02  0.8111163E-01
         -2   -1    0    0    0  501 -0.00000000000E+00  0.00000000000E+00  0.98211529670E+03  0.98211529670E+03  0.00000000000E+00 0. -1.
          2   -1    0    0  501    0  0.00000000000E+00 -0.00000000000E+00 -0.31380909474E+04  0.31380909474E+04  0.00000000000E+00 0.  1.
         23    2    1    2    0    0 -0.60552254837E+03 -0.10869860563E+04  0.37277159021E+03  0.13019161860E+04  0.88492110707E+02 0.  0.
         13    1    3    3    0    0 -0.37149014322E+03 -0.72328142455E+03  0.20981769565E+03  0.83974068082E+03  0.00000000000E+00 0. -1.
        -13    1    3    3    0    0 -0.23403240515E+03 -0.36370463177E+03  0.16295389456E+03  0.46217550518E+03  0.00000000000E+00 0.  1.
         22    1    1    2    0    0  0.60552254837E+03  0.10869860563E+04 -0.25287472410E+04  0.28182900581E+04  0.00000000000E+00 0.  1.
<mgrwt>
<rscale>  0 0.35111064E+04</rscale>
<asrwt>0</asrwt>
<pdfrwt beam="1">  1        2 0.48278322E+00 0.35111064E+04</pdfrwt>
<pdfrwt beam="2">  1       -2 0.15109466E+00 0.35111064E+04</pdfrwt>
<totfact> 0.34287012E-01</totfact>
</mgrwt>
</event>
<event>
 6    1  0.1934315E-005  0.1160636E+04  0.7818608E-02  0.9148027E-01
         -2   -1    0    0    0  501 -0.00000000000E+00  0.00000000000E+00  0.26369393060E+03  0.26369393060E+03  0.00000000000E+00 0. -1.
          2   -1    0    0  501    0  0.00000000000E+00 -0.00000000000E+00 -0.12771206012E+04  0.12771206012E+04  0.00000000000E+00 0.  1.
         23    2    1    2    0    0 -0.50837759509E+03 -0.17208874602E+03 -0.79025929863E+03  0.95955211983E+03  0.90378072053E+02 0.  0.
         13    1    3    3    0    0 -0.18478091919E+03 -0.95244391292E+02 -0.36025061971E+03  0.41592786775E+03  0.00000000000E+00 0. -1.
        -13    1    3    3    0    0 -0.32359667589E+03 -0.76844354732E+02 -0.43000867891E+03  0.54362425208E+03  0.00000000000E+00 0.  1.
         22    1    1    2    0    0  0.50837759509E+03  0.17208874602E+03 -0.22316737202E+03  0.58126241202E+03  0.00000000000E+00 0. -1.
<mgrwt>
<rscale>  0 0.11606359E+04</rscale>
<asrwt>0</asrwt>
<pdfrwt beam="1">  1        2 0.19648009E+00 0.11606359E+04</pdfrwt>
<pdfrwt beam="2">  1       -2 0.40568297E-01 0.11606359E+04</pdfrwt>
<totfact> 0.96955799E+01</totfact>
</mgrwt>
</event>
<event>
 6    1  0.1934315E-005  0.3301162E+04  0.7818608E-02  0.8162600E-01
          2   -1    0    0  501    0  0.00000000000E+00  0.00000000000E+00  0.33762671236E+04  0.33762671236E+04  0.00000000000E+00 0.  1.
         -2   -1    0    0    0  501 -0.00000000000E+00 -0.00000000000E+00 -0.80693190090E+03  0.80693190090E+03  0.00000000000E+00 0. -1.
         23    2    1    2    0    0 -0.49823617774E+03  0.77825390010E+03 -0.44559985374E+03  0.10298275055E+04  0.89816699587E+02 0.  0.
         11    1    3    3    0    0 -0.22848613412E+03  0.40589788551E+03 -0.18395277970E+03  0.50079699690E+03  0.00000000000E+00 0. -1.
        -11    1    3    3    0    0 -0.26975004362E+03  0.37235601459E+03 -0.26164707405E+03  0.52903050857E+03  0.00000000000E+00 0.  1.
         22    1    1    2    0    0  0.49823617774E+03 -0.77825390010E+03  0.30149350765E+04  0.31533715191E+04  0.00000000000E+00 0.  1.
<mgrwt>
<rscale>  0 0.33011620E+04</rscale>
<asrwt>0</asrwt>
<pdfrwt beam="1">  1        2 0.51942570E+00 0.33011620E+04</pdfrwt>
<pdfrwt beam="2">  1       -2 0.12414337E+00 0.33011620E+04</pdfrwt>
<totfact> 0.40265311E-01</totfact>
</mgrwt>
</event>
<event>
 6    1  0.1934315E-005  0.2496593E+04  0.7818608E-02  0.8404200E-01
         -2   -1    0    0    0  501 -0.00000000000E+00  0.00000000000E+00  0.97532862389E+03  0.97532862389E+03  0.00000000000E+00 0. -1.
          2   -1    0    0  501    0  0.00000000000E+00 -0.00000000000E+00 -0.15976600709E+04  0.15976600709E+04  0.00000000000E+00 0.  1.
         23    2    1    2    0    0 -0.55506390675E+03 -0.84729833210E+03  0.43780330097E+03  0.11067362990E+04  0.84753177572E+02 0.  0.
         13    1    3    3    0    0 -0.26992926126E+03 -0.48848850959E+03  0.23511058592E+03  0.60560698287E+03  0.00000000000E+00 0. -1.
        -13    1    3    3    0    0 -0.28513464550E+03 -0.35880982250E+03  0.20269271505E+03  0.50112931617E+03  0.00000000000E+00 0.  1.
         22    1    1    2    0    0  0.55506390675E+03  0.84729833210E+03 -0.10601347480E+04  0.14662523957E+04  0.00000000000E+00 0.  1.
<mgrwt>
<rscale>  0 0.24965926E+04</rscale>
<asrwt>0</asrwt>
<pdfrwt beam="1">  1        2 0.24579386E+00 0.24965926E+04</pdfrwt>
<pdfrwt beam="2">  1       -2 0.15005056E+00 0.24965926E+04</pdfrwt>
<totfact> 0.29877204E+00</totfact>
</mgrwt>
</event>
<event>
 6    1  0.1934315E-005  0.1800472E+04  0.7818608E-02  0.8706048E-01
          2   -1    0    0  501    0  0.00000000000E+00  0.00000000000E+00  0.18736035668E+04  0.18736035668E+04  0.00000000000E+00 0.  1.
         -2   -1    0    0    0  501 -0.00000000000E+00 -0.00000000000E+00 -0.43254883580E+03  0.43254883580E+03  0.00000000000E+00 0. -1.
         23    2    1    2    0    0  0.72182453994E+03 -0.37841470035E+03  0.23893696373E+03  0.85380413918E+03  0.87534470650E+02 0.  0.
         13    1    3    3    0    0  0.31460598481E+03 -0.13843809279E+03  0.13855680217E+03  0.37059414275E+03  0.00000000000E+00 0. -1.
        -13    1    3    3    0    0  0.40721855513E+03 -0.23997660756E+03  0.10038016156E+03  0.48320999643E+03  0.00000000000E+00 0.  1.
         22    1    1    2    0    0 -0.72182453994E+03  0.37841470035E+03  0.12021177673E+04  0.14523482634E+04  0.00000000000E+00 0.  1.
<mgrwt>
<rscale>  0 0.18004722E+04</rscale>
<asrwt>0</asrwt>
<pdfrwt beam="1">  1        2 0.28824670E+00 0.18004722E+04</pdfrwt>
<pdfrwt beam="2">  1       -2 0.66545976E-01 0.18004722E+04</pdfrwt>
<totfact> 0.15385007E+01</totfact>
</mgrwt>
</event>
<event>
 6    1  0.1934315E-005  0.1642968E+04  0.7818608E-02  0.8794577E-01
         -2   -1    0    0    0  501 -0.00000000000E+00  0.00000000000E+00  0.10776908046E+04  0.10776908046E+04  0.00000000000E+00 0. -1.
          2   -1    0    0  501    0  0.00000000000E+00 -0.00000000000E+00 -0.62618701755E+03  0.62618701755E+03  0.00000000000E+00 0.  1.
         23    2    1    2    0    0  0.77882198920E+03  0.17958441096E+03  0.41139611430E+03  0.90361356773E+03  0.91959041951E+02 0.  0.
         13    1    3    3    0    0  0.43951901875E+03  0.14771815734E+03  0.24242541668E+03  0.52322815722E+03  0.00000000000E+00 0. -1.
        -13    1    3    3    0    0  0.33930297045E+03  0.31866253628E+02  0.16897069762E+03  0.38038541052E+03  0.00000000000E+00 0.  1.
         22    1    1    2    0    0 -0.77882198920E+03 -0.17958441096E+03  0.40107672765E+02  0.80026425444E+03  0.00000000000E+00 0. -1.
<mgrwt>
<rscale>  0 0.16429680E+04</rscale>
<asrwt>0</asrwt>
<pdfrwt beam="1">  1        2 0.96336465E-01 0.16429680E+04</pdfrwt>
<pdfrwt beam="2">  1       -2 0.16579858E+00 0.16429680E+04</pdfrwt>
<totfact> 0.10271423E+01</totfact>
</mgrwt>
</event>
<event>
 6    1  0.1934315E-005  0.2750103E+04  0.7818608E-02  0.8318929E-01
          2   -1    0    0  501    0  0.00000000000E+00  0.00000000000E+00  0.20747072908E+04  0.20747072908E+04  0.00000000000E+00 0.  1.
         -2   -1    0    0    0  501 -0.00000000000E+00 -0.00000000000E+00 -0.91134117852E+03  0.91134117852E+03  0.00000000000E+00 0. -1.
         23    2    1    2    0    0 -0.49824777240E+02  0.13711170959E+04  0.65169718109E+03  0.15217227903E+04  0.92121851346E+02 0.  0.
         11    1    3    3    0    0 -0.10585617067E+02  0.98428850288E+03  0.50329680269E+03  0.11055512579E+04  0.00000000000E+00 0.  1.
        -11    1    3    3    0    0 -0.39239160173E+02  0.38682859302E+03  0.14840037841E+03  0.41617153240E+03  0.00000000000E+00 0. -1.
         22    1    1    2    0    0  0.49824777240E+02 -0.13711170959E+04  0.51166893114E+03  0.14643256790E+04  0.00000000000E+00 0. -1.
<mgrwt>
<rscale>  0 0.27501027E+04</rscale>
<asrwt>0</asrwt>
<pdfrwt beam="1">  1        2 0.31918574E+00 0.27501027E+04</pdfrwt>
<pdfrwt beam="2">  1       -2 0.14020634E+00 0.27501027E+04</pdfrwt>
<totfact> 0.18976211E+00</totfact>
</mgrwt>
</event>
<event>
 6    1  0.1934315E-005  0.1482117E+04  0.7818608E-02  0.8896433E-01
          1   -1    0    0  501    0  0.00000000000E+00  0.00000000000E+00  0.18809698692E+04  0.18809698692E+04  0.00000000000E+00 0.  1.
         -1   -1    0    0    0  501 -0.00000000000E+00 -0.00000000000E+00 -0.29195980629E+03  0.29195980629E+03  0.00000000000E+00 0. -1.
         23    2    1    2    0    0 -0.51445457604E+03  0.41341423708E+02  0.23126783870E+02  0.52418376793E+03  0.88663128215E+02 0.  0.
         13    1    3    3    0    0 -0.30707595492E+03  0.68142785265E+02  0.16358462906E+02  0.31497092022E+03  0.00000000000E+00 0.  1.
        -13    1    3    3    0    0 -0.20737862112E+03 -0.26801361557E+02  0.67683209648E+01  0.20921284771E+03  0.00000000000E+00 0. -1.
         22    1    1    2    0    0  0.51445457604E+03 -0.41341423708E+02  0.15658832790E+04  0.16487459076E+04  0.00000000000E+00 0.  1.
<mgrwt>
<rscale>  0 0.14821169E+04</rscale>
<asrwt>0</asrwt>
<pdfrwt beam="1">  1        1 0.28937997E+00 0.14821169E+04</pdfrwt>
<pdfrwt beam="2">  1       -1 0.44916894E-01 0.14821169E+04</pdfrwt>
<totfact> 0.17094451E+01</totfact>
</mgrwt>
</event>
<event>
 6    1  0.1934315E-005  0.5348866E+03  0.7818608E-02  0.1005054E+00
         -2   -1    0    0    0  501 -0.00000000000E+00  0.00000000000E+00  0.16736975727E+03  0.16736975727E+03  0.00000000000E+00 0. -1.
          2   -1    0    0  501    0  0.00000000000E+00 -0.00000000000E+00 -0.42735272582E+03  0.42735272582E+03  0.00000000000E+00 0.  1.
         23    2    1    2    0    0  0.16931677480E+03 -0.87217963042E+00 -0.35228042228E+03  0.40188122482E+03  0.93477762171E+02 0.  0.
         13    1    3    3    0    0  0.10218429651E+03  0.68102339367E+01 -0.29831875629E+03  0.31540781553E+03  0.00000000000E+00 0. -1.
        -13    1    3    3    0    0  0.67132478290E+02 -0.76824135671E+01 -0.53961665985E+02  0.86473409297E+02  0.00000000000E+00 0.  1.
         22    1    1    2    0    0 -0.16931677480E+03  0.87217963042E+00  0.92297453732E+02  0.19284125827E+03  0.00000000000E+00 0. -1.
<mgrwt>
<rscale>  0 0.53488661E+03</rscale>
<asrwt>0</asrwt>
<pdfrwt beam="1">  1        2 0.65746572E-01 0.53488661E+03</pdfrwt>
<pdfrwt beam="2">  1       -2 0.25749194E-01 0.53488661E+03</pdfrwt>
<totfact> 0.10046113E+03</totfact>
</mgrwt>
</event>
<event>
 6    1  0.1934315E-005  0.3246993E+04  0.7818608E-02  0.8176515E-01
          2   -1    0    0  501    0  0.00000000000E+00  0.00000000000E+00  0.91442517170E+03  0.91442517170E+03  0.00000000000E+00 0.  1.
         -2   -1    0    0    0  501 -0.00000000000E+00 -0.00000000000E+00 -0.28824024996E+04  0.28824024996E+04  0.00000000000E+00 0. -1.
         23    2    1    2    0    0 -0.87327657863E+03  0.86328221718E+03  0.25488703878E+03  0.12573406834E+04  0.89833302352E+02 0.  0.
         13    1    3    3    0    0 -0.65310810342E+03  0.60903342124E+03  0.15389027647E+03  0.90617554598E+03  0.00000000000E+00 0. -1.
        -13    1    3    3    0    0 -0.22016847520E+03  0.25424879594E+03  0.10099676231E+03  0.35116513738E+03  0.00000000000E+00 0.  1.
         22    1    1    2    0    0  0.87327657863E+03 -0.86328221718E+03 -0.22228643667E+04  0.25394869879E+04  0.00000000000E+00 0. -1.
<mgrwt>
<rscale>  0 0.32469933E+04</rscale>
<asrwt>0</asrwt>
<pdfrwt beam="1">  1        2 0.14068079E+00 0.32469933E+04</pdfrwt>
<pdfrwt beam="2">  1       -2 0.44344654E+00 0.32469933E+04</pdfrwt>
<totfact> 0.92113645E-02</totfact>
</mgrwt>
</event>
<event>
 6    1  0.1934315E-005  0.1989577E+04  0.7818608E-02  0.8611509E-01
          2   -1    0    0  501    0  0.00000000000E+00  0.00000000000E+00  0.21250638779E+04  0.21250638779E+04  0.00000000000E+00 0. -1.
         -2   -1    0    0    0  501 -0.00000000000E+00 -0.00000000000E+00 -0.46568224645E+03  0.46568224645E+03  0.00000000000E+00 0.  1.
         23    2    1    2    0    0 -0.39955283323E+03 -0.79255557512E+03  0.14098213316E+04  0.16687552624E+04  0.96752946576E+02 0.  0.
         11    1    3    3    0    0 -0.17366794441E+03 -0.44974448324E+03  0.77812292442E+03  0.91537202308E+03  0.00000000000E+00 0. -1.
        -11    1    3    3    0    0 -0.22588488882E+03 -0.34281109188E+03  0.63169840717E+03  0.75338323935E+03  0.00000000000E+00 0.  1.
         22    1    1    2    0    0  0.39955283323E+03  0.79255557512E+03  0.24956029985E+03  0.92199086192E+03  0.00000000000E+00 0.  1.
<mgrwt>
<rscale>  0 0.19895774E+04</rscale>
<asrwt>0</asrwt>
<pdfrwt beam="1">  1        2 0.32693290E+00 0.19895774E+04</pdfrwt>
<pdfrwt beam="2">  1       -2 0.71643424E-01 0.19895774E+04</pdfrwt>
<totfact> 0.93456969E+00</totfact>
</mgrwt>
</event>
<event>
 6    1  0.1934315E-005  0.3851004E+04  0.7818608E-02  0.8035297E-01
         -1   -1    0    0    0  501 -0.00000000000E+00  0.00000000000E+00  0.16878113821E+04  0.16878113821E+04  0.00000000000E+00 0. -1.
          1   -1    0    0  501    0  0.00000000000E+00 -0.00000000000E+00 -0.21966656115E+04  0.21966656115E+04  0.00000000000E+00 0.  1.
         23    2    1    2    0    0 -0.46291087425E+03 -0.12031116082E+04 -0.16960313131E+04  0.21320063241E+04  0.84644737381E+02 0.  0.
         11    1    3    3    0    0 -0.32291515761E+02 -0.10416504464E+03 -0.18331997501E+03  0.21330567679E+03  0.00000000000E+00 0.  1.
        -11    1    3    3    0    0 -0.43061935849E+03 -0.10989465636E+04 -0.15127113381E+04  0.19187006473E+04  0.00000000000E+00 0. -1.
         22    1    1    2    0    0  0.46291087425E+03  0.12031116082E+04  0.11871770837E+04  0.17524706695E+04  0.00000000000E+00 0. -1.
<mgrwt>
<rscale>  0 0.38510036E+04</rscale>
<asrwt>0</asrwt>
<pdfrwt beam="1">  1        1 0.33794856E+00 0.38510036E+04</pdfrwt>
<pdfrwt beam="2">  1       -1 0.25966329E+00 0.38510036E+04</pdfrwt>
<totfact> 0.10464357E-01</totfact>
</mgrwt>
</event>
<event>
 6    1  0.1934315E-005  0.1033589E+04  0.7818608E-02  0.9272453E-01
         -2   -1    0    0    0  501 -0.00000000000E+00  0.00000000000E+00  0.10618110667E+03  0.10618110667E+03  0.00000000000E+00 0. -1.
          2   -1    0    0  501    0  0.00000000000E+00 -0.00000000000E+00 -0.25152915495E+04  0.25152915495E+04  0.00000000000E+00 0.  1.
         23    2    1    2    0    0 -0.10649118777E+03  0.43986069063E+03 -0.60339189604E+03  0.75990415879E+03  0.92491892055E+02 0.  0.
         13    1    3    3    0    0 -0.59186471106E+02  0.15663960272E+03 -0.28987425557E+03  0.33476273321E+03  0.00000000000E+00 0.  1.
        -13    1    3    3    0    0 -0.47304716664E+02  0.28322108791E+03 -0.31351764047E+03  0.42514142558E+03  0.00000000000E+00 0. -1.
         22    1    1    2    0    0  0.10649118777E+03 -0.43986069063E+03 -0.18057185468E+04  0.18615684973E+04  0.00000000000E+00 0.  1.
<mgrwt>
<rscale>  0 0.10335888E+04</rscale>
<asrwt>0</asrwt>
<pdfrwt beam="1">  1        2 0.38696797E+00 0.10335888E+04</pdfrwt>
<pdfrwt beam="2">  1       -2 0.16335553E-01 0.10335888E+04</pdfrwt>
<totfact> 0.10439096E+02</totfact>
</mgrwt>
</event>
<event>
 6    1  0.1934315E-005  0.2409859E+04  0.7818608E-02  0.8435822E-01
          2   -1    0    0  501    0  0.00000000000E+00  0.00000000000E+00  0.15431295465E+04  0.15431295465E+04  0.00000000000E+00 0.  1.
         -2   -1    0    0    0  501 -0.00000000000E+00 -0.00000000000E+00 -0.94085140088E+03  0.94085140088E+03  0.00000000000E+00 0. -1.
         23    2    1    2    0    0  0.75674919963E+03 -0.66747573603E+03  0.97708231701E+03  0.14075649607E+04  0.91411460837E+02 0.  0.
         13    1    3    3    0    0  0.61745419352E+03 -0.57674627724E+03  0.78205048803E+03  0.11512987949E+04  0.00000000000E+00 0.  1.
        -13    1    3    3    0    0  0.13929500612E+03 -0.90729458781E+02  0.19503182898E+03  0.25626616580E+03  0.00000000000E+00 0. -1.
         22    1    1    2    0    0 -0.75674919963E+03  0.66747573603E+03 -0.37480417141E+03  0.10764159866E+04  0.00000000000E+00 0. -1.
<mgrwt>
<rscale>  0 0.24098594E+04</rscale>
<asrwt>0</asrwt>
<pdfrwt beam="1">  1        2 0.23740455E+00 0.24098594E+04</pdfrwt>
<pdfrwt beam="2">  1       -2 0.14474637E+00 0.24098594E+04</pdfrwt>
<totfact> 0.35506528E+00</totfact>
</mgrwt>
</event>
<event>
 6    1  0.1934315E-005  0.4154631E+04  0.7818608E-02  0.7974059E-01
         -2   -1    0    0    0  501 -0.00000000000E+00  0.00000000000E+00  0.14586908335E+04  0.14586908335E+04  0.00000000000E+00 0. -1.
          2   -1    0    0  501    0  0.00000000000E+00 -0.00000000000E+00 -0.29582958065E+04  0.29582958065E+04  0.00000000000E+00 0.  1.
         23    2    1    2    0    0  0.18909763007E+04  0.65540924689E+03 -0.16228486066E+03  0.20099598985E+04  0.90828227353E+02 0.  0.
         13    1    3    3    0    0  0.15582708524E+04  0.54435474205E+03 -0.16817056800E+03  0.16591598701E+04  0.00000000000E+00 0. -1.
        -13    1    3    3    0    0  0.33270544831E+03  0.11105450484E+03  0.58857073395E+01  0.35080002841E+03  0.00000000000E+00 0.  1.
         22    1    1    2    0    0 -0.18909763007E+04 -0.65540924689E+03 -0.13373201124E+04  0.24070267414E+04  0.00000000000E+00 0.  1.
<mgrwt>
<rscale>  0 0.41546307E+04</rscale>
<asrwt>0</asrwt>
<pdfrwt beam="1">  1        2 0.45512243E+00 0.41546307E+04</pdfrwt>
<pdfrwt beam="2">  1       -2 0.22441398E+00 0.41546307E+04</pdfrwt>
<totfact> 0.13344503E-01</totfact>
</mgrwt>
</event>
<event>
 6    1  0.1934315E-005  0.5233881E+03  0.7818608E-02  0.1007848E+00
          4   -1    0    0  501    0  0.00000000000E+00  0.00000000000E+00  0.39082109012E+02  0.39082109012E+02  0.00000000000E+00 0. -1.
         -4   -1    0    0    0  501 -0.00000000000E+00 -0.00000000000E+00 -0.17523050414E+04  0.17523050414E+04  0.00000000000E+00 0.  1.
         23    2    1    2    0    0  0.13985602698E+03  0.16317206440E+03 -0.41818950305E+03  0.47864330107E+03  0.89622086097E+02 0.  0.
         13    1    3    3    0    0  0.87314526098E+02  0.15723041479E+03 -0.32952597628E+03  0.37540990776E+03  0.00000000000E+00 0. -1.
        -13    1    3    3    0    0  0.52541500880E+02  0.59416496104E+01 -0.88663526769E+02  0.10323339331E+03  0.00000000000E+00 0.  1.
         22    1    1    2    0    0 -0.13985602698E+03 -0.16317206440E+03 -0.12950334293E+04  0.13127438493E+04  0.00000000000E+00 0.  1.
<mgrwt>
<rscale>  0 0.52338810E+03</rscale>
<asrwt>0</asrwt>
<pdfrwt beam="1">  1        4 0.60126323E-02 0.52338810E+03</pdfrwt>
<pdfrwt beam="2">  1       -4 0.26958539E+00 0.52338810E+03</pdfrwt>
<totfact> 0.18298016E+01</totfact>
</mgrwt>
</event>
<event>
 6    1  0.1934315E-005  0.3514366E+04  0.7818608E-02  0.8110394E-01
          2   -1    0    0  501    0  0.00000000000E+00  0.00000000000E+00  0.18347327545E+04  0.18347327545E+04  0.00000000000E+00 0. -1.
         -2   -1    0    0    0  501 -0.00000000000E+00 -0.00000000000E+00 -0.16829112621E+04  0.16829112621E+04  0.00000000000E+00 0.  1.
         23    2    1    2    0    0 -0.60505652764E+03  0.55786630786E+03 -0.14767554641E+04  0.16929327731E+04  0.88918244942E+02 0.  0.
         11    1    3    3    0    0 -0.36849435967E+03  0.28277372746E+03 -0.80070969716E+03  0.92568088085E+03  0.00000000000E+00 0. -1.
        -11    1    3    3    0    0 -0.23656216797E+03  0.27509258041E+03 -0.67604576697E+03  0.76725189224E+03  0.00000000000E+00 0.  1.
         22    1    1    2    0    0  0.60505652764E+03 -0.55786630786E+03  0.16285769565E+04  0.18247112435E+04  0.00000000000E+00 0. -1.
<mgrwt>
<rscale>  0 0.35143662E+04</rscale>
<asrwt>0</asrwt>
<pdfrwt beam="1">  1        2 0.28226658E+00 0.35143662E+04</pdfrwt>
<pdfrwt beam="2">  1       -2 0.25890942E+00 0.35143662E+04</pdfrwt>
<totfact> 0.38384393E-01</totfact>
</mgrwt>
</event>
<event>
 6    1  0.1934315E-005  0.5640923E+04  0.7818608E-02  0.7736590E-01
         -2   -1    0    0    0  501 -0.00000000000E+00  0.00000000000E+00  0.18522039053E+04  0.18522039053E+04  0.00000000000E+00 0. -1.
          2   -1    0    0  501    0  0.00000000000E+00 -0.00000000000E+00 -0.42948849433E+04  0.42948849433E+04  0.00000000000E+00 0.  1.
         23    2    1    2    0    0 -0.15650266808E+03  0.18783486894E+04  0.10643732407E+04  0.21656171864E+04  0.65730653486E+02 0.  0.
         11    1    3    3    0    0 -0.11457885304E+03  0.13037502461E+04  0.70470214273E+03  0.14864380672E+04  0.00000000000E+00 0. -1.
        -11    1    3    3    0    0 -0.41923815045E+02  0.57459844326E+03  0.35967109792E+03  0.67917911920E+03  0.00000000000E+00 0.  1.
         22    1    1    2    0    0  0.15650266808E+03 -0.18783486894E+04 -0.35070542786E+04  0.39814716622E+04  0.00000000000E+00 0. -1.
<mgrwt>
<rscale>  0 0.56409229E+04</rscale>
<asrwt>0</asrwt>
<pdfrwt beam="1">  1        2 0.66075153E+00 0.56409229E+04</pdfrwt>
<pdfrwt beam="2">  1       -2 0.28495445E+00 0.56409229E+04</pdfrwt>
<totfact> 0.51683444E-03</totfact>
</mgrwt>
</event>
<event>
 6    1  0.1934315E-005  0.1919595E+04  0.7818608E-02  0.8645164E-01
          2   -1    0    0  501    0  0.00000000000E+00  0.00000000000E+00  0.55090760405E+03  0.55090760405E+03  0.00000000000E+00 0.  1.
         -2   -1    0    0    0  501 -0.00000000000E+00 -0.00000000000E+00 -0.16721703846E+04  0.16721703846E+04  0.00000000000E+00 0. -1.
         23    2    1    2    0    0  0.13999714911E+03 -0.10919450165E+03 -0.16518754372E+04  0.16635492294E+04  0.84740414008E+02 0.  0.
         11    1    3    3    0    0  0.22158322426E+02  0.79944389698E+00 -0.49510495441E+03  0.49560119677E+03  0.00000000000E+00 0.  1.
        -11    1    3    3    0    0  0.11783882669E+03 -0.10999394555E+03 -0.11567704828E+04  0.11679480327E+04  0.00000000000E+00 0. -1.
         22    1    1    2    0    0 -0.13999714911E+03  0.10919450165E+03  0.53061265667E+03  0.55952875920E+03  0.00000000000E+00 0.  1.
<mgrwt>
<rscale>  0 0.19195951E+04</rscale>
<asrwt>0</asrwt>
<pdfrwt beam="1">  1        2 0.84755016E-01 0.19195951E+04</pdfrwt>
<pdfrwt beam="2">  1       -2 0.25725698E+00 0.19195951E+04</pdfrwt>
<totfact> 0.29796071E+00</totfact>
</mgrwt>
</event>
<event>
 6    1  0.1934315E-005  0.8774454E+03  0.7818608E-02  0.9454223E-01
          2   -1    0    0  501    0  0.00000000000E+00  0.00000000000E+00  0.31048466449E+04  0.31048466449E+04  0.00000000000E+00 0.  1.
         -2   -1    0    0    0  501 -0.00000000000E+00 -0.00000000000E+00 -0.61992627915E+02  0.61992627915E+02  0.00000000000E+00 0. -1.
         23    2    1    2    0    0  0.99756904731E+02  0.10285613304E+03  0.30168858753E+04  0.30212193273E+04  0.75066735943E+02 0.  0.
         11    1    3    3    0    0  0.67982545098E+02  0.10986126525E+03  0.23874885383E+04  0.23909815232E+04  0.00000000000E+00 0. -1.
        -11    1    3    3    0    0  0.31774359633E+02 -0.70051322040E+01  0.62939733708E+03  0.63023780411E+03  0.00000000000E+00 0.  1.
         22    1    1    2    0    0 -0.99756904731E+02 -0.10285613304E+03  0.25968141657E+02  0.14561994550E+03  0.00000000000E+00 0. -1.
<mgrwt>
<rscale>  0 0.87744539E+03</rscale>
<asrwt>0</asrwt>
<pdfrwt beam="1">  1        2 0.47766859E+00 0.87744539E+03</pdfrwt>
<pdfrwt beam="2">  1       -2 0.95373298E-02 0.87744539E+03</pdfrwt>
<totfact> 0.11557747E+02</totfact>
</mgrwt>
</event>
<event>
 6    1  0.1934315E-005  0.1258155E+04  0.7818608E-02  0.9063423E-01
         -2   -1    0    0    0  501 -0.00000000000E+00  0.00000000000E+00  0.60958706157E+03  0.60958706157E+03  0.00000000000E+00 0. -1.
          2   -1    0    0  501    0  0.00000000000E+00 -0.00000000000E+00 -0.64919140255E+03  0.64919140255E+03  0.00000000000E+00 0.  1.
         23    2    1    2    0    0  0.25732204192E+03  0.17909179199E+03 -0.56181850108E+03  0.64968394582E+03  0.90336582238E+02 0.  0.
         13    1    3    3    0    0  0.74003382089E+02  0.33867277928E+02 -0.80078930176E+02  0.11417586493E+03  0.00000000000E+00 0. -1.
        -13    1    3    3    0    0  0.18331865983E+03  0.14522451406E+03 -0.48173957090E+03  0.53550808089E+03  0.00000000000E+00 0.  1.
         22    1    1    2    0    0 -0.25732204192E+03 -0.17909179199E+03  0.52221416010E+03  0.60909451830E+03  0.00000000000E+00 0. -1.
<mgrwt>
<rscale>  0 0.12581553E+04</rscale>
<asrwt>0</asrwt>
<pdfrwt beam="1">  1        2 0.99875600E-01 0.12581553E+04</pdfrwt>
<pdfrwt beam="2">  1       -2 0.93782625E-01 0.12581553E+04</pdfrwt>
<totfact> 0.42531835E+01</totfact>
</mgrwt>
</event>
<event>
 6    1  0.1934315E-005  0.4397094E+04  0.7818608E-02  0.7928904E-01
         -2   -1    0    0    0  501 -0.00000000000E+00  0.00000000000E+00  0.13970209890E+04  0.13970209890E+04  0.00000000000E+00 0. -1.
          2   -1    0    0  501    0  0.00000000000E+00 -0.00000000000E+00 -0.34599401734E+04  0.34599401734E+04  0.00000000000E+00 0.  1.
         23    2    1    2    0    0  0.13932262557E+04  0.94961026756E+03 -0.25888010000E+04  0.30907814592E+04  0.90555790480E+02 0.  0.
         13    1    3    3    0    0  0.28020699802E+03  0.21837032516E+03 -0.59991992763E+03  0.69721265064E+03  0.00000000000E+00 0. -1.
        -13    1    3    3    0    0  0.11130192577E+04  0.73123994240E+03 -0.19888810724E+04  0.23935688086E+04  0.00000000000E+00 0.  1.
         22    1    1    2    0    0 -0.13932262557E+04 -0.94961026756E+03  0.52588181562E+03  0.17661797032E+04  0.00000000000E+00 0. -1.
<mgrwt>
<rscale>  0 0.43970941E+04</rscale>
<asrwt>0</asrwt>
<pdfrwt beam="1">  1        2 0.53229849E+00 0.43970941E+04</pdfrwt>
<pdfrwt beam="2">  1       -2 0.21492631E+00 0.43970941E+04</pdfrwt>
<totfact> 0.70398710E-02</totfact>
</mgrwt>
</event>
<event>
 6    1  0.1934315E-005  0.3600248E+04  0.7818608E-02  0.8090435E-01
          2   -1    0    0  501    0  0.00000000000E+00  0.00000000000E+00  0.23310222825E+04  0.23310222825E+04  0.00000000000E+00 0.  1.
         -2   -1    0    0    0  501 -0.00000000000E+00 -0.00000000000E+00 -0.13901394812E+04  0.13901394812E+04  0.00000000000E+00 0. -1.
         23    2    1    2    0    0 -0.88932998159E+03 -0.49380364837E+02 -0.11447461196E+04  0.14533006056E+04  0.91064457045E+02 0.  0.
         11    1    3    3    0    0 -0.66420964546E+03  0.23868341094E+01 -0.86025221581E+03  0.10868367057E+04  0.00000000000E+00 0.  1.
        -11    1    3    3    0    0 -0.22512033613E+03 -0.51767198947E+02 -0.28449390376E+03  0.36646389987E+03  0.00000000000E+00 0. -1.
         22    1    1    2    0    0  0.88932998159E+03  0.49380364837E+02  0.20856289209E+04  0.22678611580E+04  0.00000000000E+00 0.  1.
<mgrwt>
<rscale>  0 0.36002478E+04</rscale>
<asrwt>0</asrwt>
<pdfrwt beam="1">  1        2 0.35861881E+00 0.36002478E+04</pdfrwt>
<pdfrwt beam="2">  1       -2 0.21386761E+00 0.36002478E+04</pdfrwt>
<totfact> 0.38367165E-01</totfact>
</mgrwt>
</event>
<event>
 6    1  0.1934315E-005  0.7844531E+03  0.7818608E-02  0.9582797E-01
         -2   -1    0    0    0  501 -0.00000000000E+00  0.00000000000E+00  0.18931456251E+03  0.18931456251E+03  0.00000000000E+00 0. -1.
          2   -1    0    0  501    0  0.00000000000E+00 -0.00000000000E+00 -0.81262448653E+03  0.81262448653E+03  0.00000000000E+00 0.  1.
         23    2    1    2    0    0  0.26504610502E+02  0.33754539919E+03 -0.55509018818E+03  0.65655039368E+03  0.91070914855E+02 0.  0.
         13    1    3    3    0    0  0.48125728952E+02  0.12575884324E+03 -0.17384881161E+03  0.21989720720E+03  0.00000000000E+00 0.  1.
        -13    1    3    3    0    0 -0.21621118450E+02  0.21178655596E+03 -0.38124137657E+03  0.43665318647E+03  0.00000000000E+00 0. -1.
         22    1    1    2    0    0 -0.26504610502E+02 -0.33754539919E+03 -0.68219735839E+02  0.34538865536E+03  0.00000000000E+00 0. -1.
<mgrwt>
<rscale>  0 0.78445306E+03</rscale>
<asrwt>0</asrwt>
<pdfrwt beam="1">  1        2 0.12501916E+00 0.78445306E+03</pdfrwt>
<pdfrwt beam="2">  1       -2 0.29125316E-01 0.78445306E+03</pdfrwt>
<totfact> 0.36717520E+02</totfact>
</mgrwt>
</event>
<event>
 6    1  0.1934315E-005  0.4680543E+04  0.7818608E-02  0.7879770E-01
         -2   -1    0    0    0  501 -0.00000000000E+00  0.00000000000E+00  0.18871713736E+04  0.18871713736E+04  0.00000000000E+00 0. -1.
          2   -1    0    0  501    0  0.00000000000E+00 -0.00000000000E+00 -0.29021580811E+04  0.29021580811E+04  0.00000000000E+00 0.  1.
         23    2    1    2    0    0 -0.27266689884E+03 -0.23223485218E+04 -0.57999831298E+03  0.24109130072E+04  0.91943412420E+02 0.  0.
         11    1    3    3    0    0 -0.22624697982E+03 -0.18528268919E+04 -0.49969300184E+03  0.19323168175E+04  0.00000000000E+00 0. -1.
        -11    1    3    3    0    0 -0.46419919021E+02 -0.46952162991E+03 -0.80305311141E+02  0.47859618974E+03  0.00000000000E+00 0.  1.
         22    1    1    2    0    0  0.27266689884E+03  0.23223485218E+04 -0.43498839447E+03  0.23784164475E+04  0.00000000000E+00 0. -1.
<mgrwt>
<rscale>  0 0.46805426E+04</rscale>
<asrwt>0</asrwt>
<pdfrwt beam="1">  1        2 0.44648586E+00 0.46805426E+04</pdfrwt>
<pdfrwt beam="2">  1       -2 0.29033406E+00 0.46805426E+04</pdfrwt>
<totfact> 0.54450947E-02</totfact>
</mgrwt>
</event>
<event>
 6    1  0.1934315E-005  0.1390153E+04  0.7818608E-02  0.8960978E-01
         -2   -1    0    0    0  501 -0.00000000000E+00  0.00000000000E+00  0.49634180340E+03  0.49634180340E+03  0.00000000000E+00 0. -1.
          2   -1    0    0  501    0  0.00000000000E+00 -0.00000000000E+00 -0.97338384304E+03  0.97338384304E+03  0.00000000000E+00 0.  1.
         23    2    1    2    0    0 -0.32022656442E+02 -0.68434766571E+03 -0.34325877399E+03  0.77168901398E+03  0.91214967459E+02 0.  0.
         13    1    3    3    0    0 -0.11143146294E+02 -0.43128981299E+03 -0.16717252389E+03  0.46268966407E+03  0.00000000000E+00 0. -1.
        -13    1    3    3    0    0 -0.20879510148E+02 -0.25305785272E+03 -0.17608625010E+03  0.30899934991E+03  0.00000000000E+00 0.  1.
         22    1    1    2    0    0  0.32022656442E+02  0.68434766571E+03 -0.13378326565E+03  0.69803663246E+03  0.00000000000E+00 0. -1.
<mgrwt>
<rscale>  0 0.13901526E+04</rscale>
<asrwt>0</asrwt>
<pdfrwt beam="1">  1        2 0.14975136E+00 0.13901526E+04</pdfrwt>
<pdfrwt beam="2">  1       -2 0.76360278E-01 0.13901526E+04</pdfrwt>
<totfact> 0.39175048E+01</totfact>
</mgrwt>
</event>
<event>
 6    1  0.1934315E-005  0.1220602E+04  0.7818608E-02  0.9095012E-01
          2   -1    0    0  501    0  0.00000000000E+00  0.00000000000E+00  0.89886914660E+03  0.89886914660E+03  0.00000000000E+00 0.  1.
         -2   -1    0    0    0  501 -0.00000000000E+00 -0.00000000000E+00 -0.41437350483E+03  0.41437350483E+03  0.00000000000E+00 0. -1.
         23    2    1    2    0    0  0.71888434799E+02  0.35221257540E+03  0.76964267007E+03  0.85440665341E+03  0.91865360615E+02 0.  0.
         13    1    3    3    0    0  0.84810889927E+01  0.19186938915E+03  0.48459864313E+03  0.52126925507E+03  0.00000000000E+00 0.  1.
        -13    1    3    3    0    0  0.63407345806E+02  0.16034318625E+03  0.28504402694E+03  0.33313739834E+03  0.00000000000E+00 0. -1.
         22    1    1    2    0    0 -0.71888434799E+02 -0.35221257540E+03 -0.28514702830E+03  0.45883599802E+03  0.00000000000E+00 0. -1.
<mgrwt>
<rscale>  0 0.12206024E+04</rscale>
<asrwt>0</asrwt>
<pdfrwt beam="1">  1        2 0.13828756E+00 0.12206024E+04</pdfrwt>
<pdfrwt beam="2">  1       -2 0.63749770E-01 0.12206024E+04</pdfrwt>
<totfact> 0.65902030E+01</totfact>
</mgrwt>
</event>
<event>
 6    1  0.1934315E-005  0.6290708E+03  0.7818608E-02  0.9846864E-01
         -2   -1    0    0    0  501 -0.00000000000E+00  0.00000000000E+00  0.13493217644E+03  0.13493217644E+03  0.00000000000E+00 0. -1.
          2   -1    0    0  501    0  0.00000000000E+00 -0.00000000000E+00 -0.73320190963E+03  0.73320190963E+03  0.00000000000E+00 0.  1.
         23    2    1    2    0    0 -0.15172167800E+03  0.79178223434E+02 -0.65850661941E+03  0.68670326978E+03  0.92961036377E+02 0.  0.
         13    1    3    3    0    0 -0.96993905705E+02  0.44154686580E+02 -0.23238627922E+03  0.25565765558E+03  0.00000000000E+00 0. -1.
        -13    1    3    3    0    0 -0.54727772292E+02  0.35023536854E+02 -0.42612034019E+03  0.43104561420E+03  0.00000000000E+00 0.  1.
         22    1    1    2    0    0  0.15172167800E+03 -0.79178223434E+02  0.60236886213E+02  0.18143081629E+03  0.00000000000E+00 0. -1.
<mgrwt>
<rscale>  0 0.62907084E+03</rscale>
<asrwt>0</asrwt>
<pdfrwt beam="1">  1        2 0.11280029E+00 0.62907084E+03</pdfrwt>
<pdfrwt beam="2">  1       -2 0.20758796E-01 0.62907084E+03</pdfrwt>
<totfact> 0.77596348E+02</totfact>
</mgrwt>
</event>
<event>
 6    1  0.1934315E-005  0.6502879E+03  0.7818608E-02  0.9806239E-01
          2   -1    0    0  501    0  0.00000000000E+00  0.00000000000E+00  0.15354682811E+04  0.15354682811E+04  0.00000000000E+00 0.  1.
         -2   -1    0    0    0  501 -0.00000000000E+00 -0.00000000000E+00 -0.68851044142E+02  0.68851044142E+02  0.00000000000E+00 0. -1.
         23    2    1    2    0    0 -0.25801215329E+03  0.12922698586E+03  0.41382387321E+03  0.51269496134E+03  0.91301917949E+02 0.  0.
         13    1    3    3    0    0 -0.79697332351E+02  0.85120941532E+02  0.13019810322E+03  0.17478210879E+03  0.00000000000E+00 0.  1.
        -13    1    3    3    0    0 -0.17831482094E+03  0.44106044327E+02  0.28362576999E+03  0.33791285255E+03  0.00000000000E+00 0. -1.
         22    1    1    2    0    0  0.25801215329E+03 -0.12922698586E+03  0.10527933637E+04  0.10916243639E+04  0.00000000000E+00 0.  1.
<mgrwt>
<rscale>  0 0.65028792E+03</rscale>
<asrwt>0</asrwt>
<pdfrwt beam="1">  1        2 0.23622586E+00 0.65028792E+03</pdfrwt>
<pdfrwt beam="2">  1       -2 0.10592469E-01 0.65028792E+03</pdfrwt>
<totfact> 0.77103521E+02</totfact>
</mgrwt>
</event>
<event>
 6    1  0.1934315E-005  0.4440559E+04  0.7818608E-02  0.7921127E-01
          2   -1    0    0  501    0  0.00000000000E+00  0.00000000000E+00  0.19199439391E+04  0.19199439391E+04  0.00000000000E+00 0.  1.
         -2   -1    0    0    0  501 -0.00000000000E+00 -0.00000000000E+00 -0.25675963007E+04  0.25675963007E+04  0.00000000000E+00 0. -1.
         23    2    1    2    0    0  0.39676568860E+03  0.16022670984E+04 -0.18232052405E+04  0.24610636332E+04  0.89855389829E+02 0.  0.
         11    1    3    3    0    0  0.34615734209E+03  0.14057135523E+04 -0.16409288635E+04  0.21882648450E+04  0.00000000000E+00 0. -1.
        -11    1    3    3    0    0  0.50608346516E+02  0.19655354609E+03 -0.18227637704E+03  0.27279878821E+03  0.00000000000E+00 0.  1.
         22    1    1    2    0    0 -0.39676568860E+03 -0.16022670984E+04  0.11755528789E+04  0.20264766067E+04  0.00000000000E+00 0.  1.
<mgrwt>
<rscale>  0 0.44405590E+04</rscale>
<asrwt>0</asrwt>
<pdfrwt beam="1">  1        2 0.29537599E+00 0.44405590E+04</pdfrwt>
<pdfrwt beam="2">  1       -2 0.39501481E+00 0.44405590E+04</pdfrwt>
<totfact> 0.45088440E-02</totfact>
</mgrwt>
</event>
<event>
 6    1  0.1934315E-005  0.3529520E+04  0.7818608E-02  0.8106830E-01
         -2   -1    0    0    0  501 -0.00000000000E+00  0.00000000000E+00  0.93484834269E+03  0.93484834269E+03  0.00000000000E+00 0. -1.
          2   -1    0    0  501    0  0.00000000000E+00 -0.00000000000E+00 -0.33314256596E+04  0.33314256596E+04  0.00000000000E+00 0.  1.
         23    2    1    2    0    0 -0.17928029182E+03  0.12349741829E+04  0.30693809568E+03  0.12886410092E+04  0.95299530333E+02 0.  0.
         13    1    3    3    0    0 -0.94132903404E+02  0.77900883534E+03  0.23602385548E+03  0.81940406967E+03  0.00000000000E+00 0. -1.
        -13    1    3    3    0    0 -0.85147388412E+02  0.45596534757E+03  0.70914240202E+02  0.46923693951E+03  0.00000000000E+00 0.  1.
         22    1    1    2    0    0  0.17928029182E+03 -0.12349741829E+04 -0.27035154126E+04  0.29776329931E+04  0.00000000000E+00 0.  1.
<mgrwt>
<rscale>  0 0.35295199E+04</rscale>
<asrwt>0</asrwt>
<pdfrwt beam="1">  1        2 0.51252703E+00 0.35295199E+04</pdfrwt>
<pdfrwt beam="2">  1       -2 0.14382282E+00 0.35295199E+04</pdfrwt>
<totfact> 0.29081626E-01</totfact>
</mgrwt>
</event>
<event>
 6    1  0.1934315E-005  0.2234274E+04  0.7818608E-02  0.8504296E-01
          2   -1    0    0  501    0  0.00000000000E+00  0.00000000000E+00  0.94157977875E+03  0.94157977875E+03  0.00000000000E+00 0.  1.
         -2   -1    0    0    0  501 -0.00000000000E+00 -0.00000000000E+00 -0.13254272719E+04  0.13254272719E+04  0.00000000000E+00 0. -1.
         23    2    1    2    0    0  0.18730212226E+03 -0.72831485558E+03 -0.10279561675E+04  0.12768552451E+04  0.90226497157E+02 0.  0.
         11    1    3    3    0    0  0.15200213086E+03 -0.45077911926E+03 -0.60274306218E+03  0.76785783916E+03  0.00000000000E+00 0. -1.
        -11    1    3    3    0    0  0.35299991396E+02 -0.27753573632E+03 -0.42521310530E+03  0.50899740593E+03  0.00000000000E+00 0.  1.
         22    1    1    2    0    0 -0.18730212226E+03  0.72831485558E+03  0.64410867429E+03  0.99015180561E+03  0.00000000000E+00 0.  1.
<mgrwt>
<rscale>  0 0.22342744E+04</rscale>
<asrwt>0</asrwt>
<pdfrwt beam="1">  1        2 0.14485843E+00 0.22342744E+04</pdfrwt>
<pdfrwt beam="2">  1       -2 0.20391189E+00 0.22342744E+04</pdfrwt>
<totfact> 0.31420088E+00</totfact>
</mgrwt>
</event>
<event>
 6    1  0.1934315E-005  0.4640902E+04  0.7818608E-02  0.7886423E-01
         -2   -1    0    0    0  501 -0.00000000000E+00  0.00000000000E+00  0.22153104266E+04  0.22153104266E+04  0.00000000000E+00 0. -1.
          2   -1    0    0  501    0  0.00000000000E+00 -0.00000000000E+00 -0.24305819259E+04  0.24305819259E+04  0.00000000000E+00 0.  1.
         23    2    1    2    0    0  0.64502627261E+03 -0.22087872508E+04  0.18535143546E+03  0.23102342552E+04  0.89594348877E+02 0.  0.
         11    1    3    3    0    0  0.26116290653E+03 -0.87567674923E+03  0.29966070374E+02  0.91428321556E+03  0.00000000000E+00 0.  1.
        -11    1    3    3    0    0  0.38386336608E+03 -0.13331105016E+04  0.15538536509E+03  0.13959510396E+04  0.00000000000E+00 0. -1.
         22    1    1    2    0    0 -0.64502627261E+03  0.22087872508E+04 -0.40062293467E+03  0.23356580973E+04  0.00000000000E+00 0. -1.
<mgrwt>
<rscale>  0 0.46409023E+04</rscale>
<asrwt>0</asrwt>
<pdfrwt beam="1">  1        2 0.37393568E+00 0.46409023E+04</pdfrwt>
<pdfrwt beam="2">  1       -2 0.34081699E+00 0.46409023E+04</pdfrwt>
<totfact> 0.50826354E-02</totfact>
</mgrwt>
</event>
<event>
 6    1  0.1934315E-005  0.2173220E+04  0.7818608E-02  0.8529658E-01
          2   -1    0    0  501    0  0.00000000000E+00  0.00000000000E+00  0.18548240842E+04  0.18548240842E+04  0.00000000000E+00 0.  1.
         -2   -1    0    0    0  501 -0.00000000000E+00 -0.00000000000E+00 -0.63656807255E+03  0.63656807255E+03  0.00000000000E+00 0. -1.
         23    2    1    2    0    0 -0.67005707607E+03 -0.79148003776E+03  0.97450781448E+03  0.14261080073E+04  0.93281470548E+02 0.  0.
         11    1    3    3    0    0 -0.43773951991E+03 -0.45168476384E+03  0.61245961052E+03  0.87791900976E+03  0.00000000000E+00 0. -1.
        -11    1    3    3    0    0 -0.23231755616E+03 -0.33979527391E+03  0.36204820396E+03  0.54818899758E+03  0.00000000000E+00 0.  1.
         22    1    1    2    0    0  0.67005707607E+03  0.79148003776E+03  0.24374819715E+03  0.10652841494E+04  0.00000000000E+00 0. -1.
<mgrwt>
<rscale>  0 0.21732205E+04</rscale>
<asrwt>0</asrwt>
<pdfrwt beam="1">  1        2 0.28535755E+00 0.21732205E+04</pdfrwt>
<pdfrwt beam="2">  1       -2 0.97933550E-01 0.21732205E+04</pdfrwt>
<totfact> 0.63949744E+00</totfact>
</mgrwt>
</event>
<event>
 6    1  0.1934315E-005  0.2814521E+04  0.7818608E-02  0.8298774E-01
         -2   -1    0    0    0  501 -0.00000000000E+00  0.00000000000E+00  0.21689169714E+04  0.21689169714E+04  0.00000000000E+00 0. -1.
          2   -1    0    0  501    0  0.00000000000E+00 -0.00000000000E+00 -0.91307436380E+03  0.91307436380E+03  0.00000000000E+00 0.  1.
         23    2    1    2    0    0  0.42585006788E+03 -0.13230930488E+04  0.85900778787E+03  0.16365151610E+04  0.91454888040E+02 0.  0.
         11    1    3    3    0    0  0.31916784813E+03 -0.10372512621E+04  0.71096905767E+03  0.12973955823E+04  0.00000000000E+00 0.  1.
        -11    1    3    3    0    0  0.10668221976E+03 -0.28584178670E+03  0.14803873020E+03  0.33911957872E+03  0.00000000000E+00 0. -1.
         22    1    1    2    0    0 -0.42585006788E+03  0.13230930488E+04  0.39683481970E+03  0.14454761742E+04  0.00000000000E+00 0.  1.
<mgrwt>
<rscale>  0 0.28145213E+04</rscale>
<asrwt>0</asrwt>
<pdfrwt beam="1">  1        2 0.14047298E+00 0.28145213E+04</pdfrwt>
<pdfrwt beam="2">  1       -2 0.33367953E+00 0.28145213E+04</pdfrwt>
<totfact> 0.49172320E-01</totfact>
</mgrwt>
</event>
<event>
 6    1  0.1934315E-005  0.2067315E+04  0.7818608E-02  0.8575780E-01
         -2   -1    0    0    0  501 -0.00000000000E+00  0.00000000000E+00  0.51171951389E+03  0.51171951389E+03  0.00000000000E+00 0. -1.
          2   -1    0    0  501    0  0.00000000000E+00 -0.00000000000E+00 -0.20879561583E+04  0.20879561583E+04  0.00000000000E+00 0.  1.
         23    2    1    2    0    0 -0.82430192479E+03 -0.90277447393E+02 -0.18315192611E+02  0.83481224101E+03  0.94616862812E+02 0.  0.
         13    1    3    3    0    0 -0.59502547290E+03 -0.10039232380E+03 -0.36894645711E+02  0.60456194634E+03  0.00000000000E+00 0.  1.
        -13    1    3    3    0    0 -0.22927645189E+03  0.10114876407E+02  0.18579453100E+02  0.23025029467E+03  0.00000000000E+00 0. -1.
         22    1    1    2    0    0  0.82430192479E+03  0.90277447393E+02 -0.15579214518E+04  0.17648634312E+04  0.00000000000E+00 0.  1.
<mgrwt>
<rscale>  0 0.20673151E+04</rscale>
<asrwt>0</asrwt>
<pdfrwt beam="1">  1        2 0.32122402E+00 0.20673151E+04</pdfrwt>
<pdfrwt beam="2">  1       -2 0.78726080E-01 0.20673151E+04</pdfrwt>
<totfact> 0.79015134E+00</totfact>
</mgrwt>
</event>
<event>
 6    1  0.1934315E-005  0.3981677E+04  0.7818608E-02  0.8008253E-01
         -2   -1    0    0    0  501 -0.00000000000E+00  0.00000000000E+00  0.15468340890E+04  0.15468340890E+04  0.00000000000E+00 0. -1.
          2   -1    0    0  501    0  0.00000000000E+00 -0.00000000000E+00 -0.25622901510E+04  0.25622901510E+04  0.00000000000E+00 0.  1.
         23    2    1    2    0    0  0.63607301576E+03  0.37299842947E+03 -0.24152720914E+04  0.25269732908E+04  0.91312798001E+02 0.  0.
         13    1    3    3    0    0  0.13335120523E+03  0.41482386791E+02 -0.40179720736E+03  0.42537551433E+03  0.00000000000E+00 0.  1.
        -13    1    3    3    0    0  0.50272181054E+03  0.33151604268E+03 -0.20134748841E+04  0.21015977765E+04  0.00000000000E+00 0. -1.
         22    1    1    2    0    0 -0.63607301576E+03 -0.37299842947E+03  0.13998160295E+04  0.15821509492E+04  0.00000000000E+00 0. -1.
<mgrwt>
<rscale>  0 0.39816769E+04</rscale>
<asrwt>0</asrwt>
<pdfrwt beam="1">  1        2 0.39419849E+00 0.39816769E+04</pdfrwt>
<pdfrwt beam="2">  1       -2 0.23797447E+00 0.39816769E+04</pdfrwt>
<totfact> 0.19289145E-01</totfact>
</mgrwt>
</event>
<event>
 6    1  0.1934315E-005  0.2456222E+04  0.7818608E-02  0.8418750E-01
         -2   -1    0    0    0  501 -0.00000000000E+00  0.00000000000E+00  0.14010514270E+04  0.14010514270E+04  0.00000000000E+00 0. -1.
          2   -1    0    0  501    0  0.00000000000E+00 -0.00000000000E+00 -0.10765174474E+04  0.10765174474E+04  0.00000000000E+00 0.  1.
         23    2    1    2    0    0  0.77814364741E+03  0.61200595087E+03 -0.56773670178E+03  0.11448251674E+04  0.90779300318E+02 0.  0.
         11    1    3    3    0    0  0.64965069824E+03  0.52840662805E+03 -0.51298851622E+03  0.98204725552E+03  0.00000000000E+00 0. -1.
        -11    1    3    3    0    0  0.12849294917E+03  0.83599322818E+02 -0.54748185564E+02  0.16277791185E+03  0.00000000000E+00 0.  1.
         22    1    1    2    0    0 -0.77814364741E+03 -0.61200595087E+03  0.89227068140E+03  0.13327437071E+04  0.00000000000E+00 0. -1.
<mgrwt>
<rscale>  0 0.24562217E+04</rscale>
<asrwt>0</asrwt>
<pdfrwt beam="1">  1        2 0.16561807E+00 0.24562217E+04</pdfrwt>
<pdfrwt beam="2">  1       -2 0.21554637E+00 0.24562217E+04</pdfrwt>
<totfact> 0.21272308E+00</totfact>
</mgrwt>
</event>
<event>
 6    1  0.1934315E-005  0.9106691E+03  0.7818608E-02  0.9412342E-01
          4   -1    0    0  501    0  0.00000000000E+00  0.00000000000E+00  0.23622165820E+03  0.23622165820E+03  0.00000000000E+00 0.  1.
         -4   -1    0    0    0  501 -0.00000000000E+00 -0.00000000000E+00 -0.87769061608E+03  0.87769061608E+03  0.00000000000E+00 0. -1.
         23    2    1    2    0    0  0.22432085355E+02  0.44796561816E+03 -0.37870160523E+03  0.59408242219E+03  0.91337971545E+02 0.  0.
         11    1    3    3    0    0 -0.31878712396E+02  0.12629238210E+03 -0.12835275479E+03  0.18286729545E+03  0.00000000000E+00 0. -1.
        -11    1    3    3    0    0  0.54310797750E+02  0.32167323606E+03 -0.25034885044E+03  0.41121512675E+03  0.00000000000E+00 0.  1.
         22    1    1    2    0    0 -0.22432085355E+02 -0.44796561816E+03 -0.26276735265E+03  0.51982985209E+03  0.00000000000E+00 0.  1.
<mgrwt>
<rscale>  0 0.91066906E+03</rscale>
<asrwt>0</asrwt>
<pdfrwt beam="1">  1        4 0.36341793E-01 0.91066906E+03</pdfrwt>
<pdfrwt beam="2">  1       -4 0.13502933E+00 0.91066906E+03</pdfrwt>
<totfact> 0.57702608E+00</totfact>
</mgrwt>
</event>
<event>
 6    1  0.1934315E-005  0.2766816E+04  0.7818608E-02  0.8313645E-01
          2   -1    0    0  501    0  0.00000000000E+00  0.00000000000E+00  0.66875017930E+03  0.66875017930E+03  0.00000000000E+00 0.  1.
         -2   -1    0    0    0  501 -0.00000000000E+00 -0.00000000000E+00 -0.28617836038E+04  0.28617836038E+04  0.00000000000E+00 0. -1.
         23    2    1    2    0    0  0.85955630708E+03  0.10028389684E+04 -0.57931234416E+03  0.14451995733E+04  0.92065047605E+02 0.  0.
         11    1    3    3    0    0  0.47026189111E+03  0.51739197885E+03 -0.35142771402E+03  0.78252293525E+03  0.00000000000E+00 0. -1.
        -11    1    3    3    0    0  0.38929441597E+03  0.48544698952E+03 -0.22788463014E+03  0.66267663803E+03  0.00000000000E+00 0.  1.
         22    1    1    2    0    0 -0.85955630708E+03 -0.10028389684E+04 -0.16137210803E+04  0.20853342098E+04  0.00000000000E+00 0. -1.
<mgrwt>
<rscale>  0 0.27668164E+04</rscale>
<asrwt>0</asrwt>
<pdfrwt beam="1">  1        2 0.10288464E+00 0.27668164E+04</pdfrwt>
<pdfrwt beam="2">  1       -2 0.44027440E+00 0.27668164E+04</pdfrwt>
<totfact> 0.15225707E-01</totfact>
</mgrwt>
</event>
<event>
 6    1  0.1934315E-005  0.1197173E+04  0.7818608E-02  0.9115334E-01
          2   -1    0    0  501    0  0.00000000000E+00  0.00000000000E+00  0.85559386155E+03  0.85559386155E+03  0.00000000000E+00 0.  1.
         -2   -1    0    0    0  501 -0.00000000000E+00 -0.00000000000E+00 -0.41878053142E+03  0.41878053142E+03  0.00000000000E+00 0. -1.
         23    2    1    2    0    0  0.49061788427E+03 -0.33693415525E+03  0.21589407382E+03  0.63952334655E+03  0.90273619229E+02 0.  0.
         11    1    3    3    0    0  0.16738989375E+03 -0.15759333664E+03  0.55071164189E+02  0.23640615349E+03  0.00000000000E+00 0. -1.
        -11    1    3    3    0    0  0.32322799052E+03 -0.17934081860E+03  0.16082290963E+03  0.40311719305E+03  0.00000000000E+00 0.  1.
         22    1    1    2    0    0 -0.49061788427E+03  0.33693415525E+03  0.22091925631E+03  0.63485104643E+03  0.00000000000E+00 0. -1.
<mgrwt>
<rscale>  0 0.11971734E+04</rscale>
<asrwt>0</asrwt>
<pdfrwt beam="1">  1        2 0.13162982E+00 0.11971734E+04</pdfrwt>
<pdfrwt beam="2">  1       -2 0.64427774E-01 0.11971734E+04</pdfrwt>
<totfact> 0.69096822E+01</totfact>
</mgrwt>
</event>
<event>
 6    1  0.1934315E-005  0.1975479E+04  0.7818608E-02  0.8618171E-01
         -2   -1    0    0    0  501 -0.00000000000E+00  0.00000000000E+00  0.76935555277E+03  0.76935555277E+03  0.00000000000E+00 0. -1.
          2   -1    0    0  501    0  0.00000000000E+00 -0.00000000000E+00 -0.12681130117E+04  0.12681130117E+04  0.00000000000E+00 0.  1.
         23    2    1    2    0    0 -0.34814301649E+03 -0.46265430217E+03 -0.10725950019E+04  0.12222740545E+04  0.90781402446E+02 0.  0.
         13    1    3    3    0    0 -0.11389242414E+03 -0.11933362419E+03 -0.23357769591E+03  0.28595548283E+03  0.00000000000E+00 0.  1.
        -13    1    3    3    0    0 -0.23425059236E+03 -0.34332067798E+03 -0.83901730599E+03  0.93631857170E+03  0.00000000000E+00 0. -1.
         22    1    1    2    0    0  0.34814301649E+03  0.46265430217E+03  0.57383754300E+03  0.81519450992E+03  0.00000000000E+00 0. -1.
<mgrwt>
<rscale>  0 0.19754795E+04</rscale>
<asrwt>0</asrwt>
<pdfrwt beam="1">  1        2 0.19509431E+00 0.19754795E+04</pdfrwt>
<pdfrwt beam="2">  1       -2 0.11836239E+00 0.19754795E+04</pdfrwt>
<totfact> 0.88286192E+00</totfact>
</mgrwt>
</event>
<event>
 6    1  0.1934315E-005  0.1030155E+04  0.7818608E-02  0.9276076E-01
         -2   -1    0    0    0  501 -0.00000000000E+00  0.00000000000E+00  0.11482503496E+03  0.11482503496E+03  0.00000000000E+00 0.  1.
          2   -1    0    0  501    0  0.00000000000E+00 -0.00000000000E+00 -0.23105144305E+04  0.23105144305E+04  0.00000000000E+00 0. -1.
         23    2    1    2    0    0  0.81789222639E+02  0.50279288386E+03 -0.10164411721E+04  0.11407708478E+04  0.93355823780E+02 0.  0.
         13    1    3    3    0    0  0.45729350579E+02  0.42266928769E+03 -0.77676088462E+03  0.88549306724E+03  0.00000000000E+00 0.  1.
        -13    1    3    3    0    0  0.36059872060E+02  0.80123596172E+02 -0.23968028746E+03  0.25527778053E+03  0.00000000000E+00 0. -1.
         22    1    1    2    0    0 -0.81789222639E+02 -0.50279288386E+03 -0.11792482235E+04  0.12845686177E+04  0.00000000000E+00 0.  1.
<mgrwt>
<rscale>  0 0.10301551E+04</rscale>
<asrwt>0</asrwt>
<pdfrwt beam="1">  1        2 0.35546372E+00 0.10301551E+04</pdfrwt>
<pdfrwt beam="2">  1       -2 0.17665392E-01 0.10301551E+04</pdfrwt>
<totfact> 0.11921094E+02</totfact>
</mgrwt>
</event>
<event>
 6    1  0.1934315E-005  0.3699353E+04  0.7818608E-02  0.8068105E-01
         -2   -1    0    0    0  501 -0.00000000000E+00  0.00000000000E+00  0.90203500882E+03  0.90203500882E+03  0.00000000000E+00 0. -1.
          2   -1    0    0  501    0  0.00000000000E+00 -0.00000000000E+00 -0.37928728223E+04  0.37928728223E+04  0.00000000000E+00 0.  1.
         23    2    1    2    0    0 -0.10741178209E+04 -0.11650059140E+04 -0.26543910617E+04  0.30927608531E+04  0.91705579212E+02 0.  0.
         11    1    3    3    0    0 -0.57774330313E+03 -0.57467590647E+03 -0.14207931509E+04  0.16378928230E+04  0.00000000000E+00 0.  1.
        -11    1    3    3    0    0 -0.49637451779E+03 -0.59033000751E+03 -0.12335979108E+04  0.14548680301E+04  0.00000000000E+00 0. -1.
         22    1    1    2    0    0  0.10741178209E+04  0.11650059140E+04 -0.23644675183E+03  0.16021469781E+04  0.00000000000E+00 0. -1.
<mgrwt>
<rscale>  0 0.36993535E+04</rscale>
<asrwt>0</asrwt>
<pdfrwt beam="1">  1        2 0.58351888E+00 0.36993535E+04</pdfrwt>
<pdfrwt beam="2">  1       -2 0.13877462E+00 0.36993535E+04</pdfrwt>
<totfact> 0.14735853E-01</totfact>
</mgrwt>
</event>
<event>
 6    1  0.1934315E-005  0.2147301E+04  0.7818608E-02  0.8540689E-01
         -2   -1    0    0    0  501 -0.00000000000E+00  0.00000000000E+00  0.84645759146E+03  0.84645759146E+03  0.00000000000E+00 0. -1.
          2   -1    0    0  501    0  0.00000000000E+00 -0.00000000000E+00 -0.13618224393E+04  0.13618224393E+04  0.00000000000E+00 0.  1.
         23    2    1    2    0    0 -0.45158142526E+03 -0.47664457502E+03  0.61270442249E+03  0.90303824734E+03  0.94633674136E+02 0.  0.
         13    1    3    3    0    0 -0.33445515813E+03 -0.29616443142E+03  0.38474244105E+03  0.58957643201E+03  0.00000000000E+00 0.  1.
        -13    1    3    3    0    0 -0.11712626713E+03 -0.18048014360E+03  0.22796198144E+03  0.31346181533E+03  0.00000000000E+00 0. -1.
         22    1    1    2    0    0  0.45158142526E+03  0.47664457502E+03 -0.11280692703E+04  0.13052417834E+04  0.00000000000E+00 0.  1.
<mgrwt>
<rscale>  0 0.21473006E+04</rscale>
<asrwt>0</asrwt>
<pdfrwt beam="1">  1        2 0.20951114E+00 0.21473006E+04</pdfrwt>
<pdfrwt beam="2">  1       -2 0.13022425E+00 0.21473006E+04</pdfrwt>
<totfact> 0.60429457E+00</totfact>
</mgrwt>
</event>
<event>
 6    1  0.1934315E-005  0.3462306E+04  0.7818608E-02  0.8122782E-01
          1   -1    0    0  501    0  0.00000000000E+00  0.00000000000E+00  0.26742769943E+04  0.26742769943E+04  0.00000000000E+00 0.  1.
         -1   -1    0    0    0  501 -0.00000000000E+00 -0.00000000000E+00 -0.11206357367E+04  0.11206357367E+04  0.00000000000E+00 0. -1.
         23    2    1    2    0    0  0.66765775434E+03 -0.15504911833E+04  0.11919187033E+04  0.20684617491E+04  0.89855582714E+02 0.  0.
         13    1    3    3    0    0  0.41287207026E+03 -0.93099806032E+03  0.77076791945E+03  0.12772250860E+04  0.00000000000E+00 0. -1.
        -13    1    3    3    0    0  0.25478568408E+03 -0.61949312302E+03  0.42115078380E+03  0.79123666306E+03  0.00000000000E+00 0.  1.
         22    1    1    2    0    0 -0.66765775434E+03  0.15504911833E+04  0.36172255432E+03  0.17264509819E+04  0.00000000000E+00 0. -1.
<mgrwt>
<rscale>  0 0.34623058E+04</rscale>
<asrwt>0</asrwt>
<pdfrwt beam="1">  1        1 0.41142723E+00 0.34623058E+04</pdfrwt>
<pdfrwt beam="2">  1       -1 0.17240550E+00 0.34623058E+04</pdfrwt>
<totfact> 0.19779098E-01</totfact>
</mgrwt>
</event>
<event>
 6    1  0.1934315E-005  0.1938674E+04  0.7818608E-02  0.8635842E-01
          2   -1    0    0  501    0  0.00000000000E+00  0.00000000000E+00  0.15365874349E+04  0.15365874349E+04  0.00000000000E+00 0. -1.
         -2   -1    0    0    0  501 -0.00000000000E+00 -0.00000000000E+00 -0.61149435068E+03  0.61149435068E+03  0.00000000000E+00 0.  1.
         23    2    1    2    0    0 -0.89869975610E+03  0.18274179976E+03  0.12361289100E+03  0.93012188595E+03  0.93759047140E+02 0.  0.
         13    1    3    3    0    0 -0.46333485427E+03  0.98787182573E+02  0.11088841935E+03  0.48655352857E+03  0.00000000000E+00 0. -1.
        -13    1    3    3    0    0 -0.43536490183E+03  0.83954617191E+02  0.12724471651E+02  0.44356835738E+03  0.00000000000E+00 0.  1.
         22    1    1    2    0    0  0.89869975610E+03 -0.18274179976E+03  0.80148019323E+03  0.12179598996E+04  0.00000000000E+00 0. -1.
<mgrwt>
<rscale>  0 0.19386743E+04</rscale>
<asrwt>0</asrwt>
<pdfrwt beam="1">  1        2 0.23639806E+00 0.19386743E+04</pdfrwt>
<pdfrwt beam="2">  1       -2 0.94076055E-01 0.19386743E+04</pdfrwt>
<totfact> 0.10777246E+01</totfact>
</mgrwt>
</event>
<event>
 6    1  0.1934315E-005  0.1162108E+04  0.7818608E-02  0.9146686E-01
          2   -1    0    0  501    0  0.00000000000E+00  0.00000000000E+00  0.54437993624E+03  0.54437993624E+03  0.00000000000E+00 0.  1.
         -2   -1    0    0    0  501 -0.00000000000E+00 -0.00000000000E+00 -0.62019827532E+03  0.62019827532E+03  0.00000000000E+00 0. -1.
         23    2    1    2    0    0 -0.29669518711E+03 -0.19391655028E+03  0.41846589409E+03  0.55634423875E+03  0.93667203153E+02 0.  0.
         13    1    3    3    0    0 -0.22241638561E+03 -0.18718845550E+03  0.31303208826E+03  0.42719744234E+03  0.00000000000E+00 0.  1.
        -13    1    3    3    0    0 -0.74278801496E+02 -0.67280947821E+01  0.10543380583E+03  0.12914679641E+03  0.00000000000E+00 0. -1.
         22    1    1    2    0    0  0.29669518711E+03  0.19391655028E+03 -0.49428423316E+03  0.60823397281E+03  0.00000000000E+00 0. -1.
<mgrwt>
<rscale>  0 0.11621076E+04</rscale>
<asrwt>0</asrwt>
<pdfrwt beam="1">  1        2 0.83750759E-01 0.11621076E+04</pdfrwt>
<pdfrwt beam="2">  1       -2 0.95415120E-01 0.11621076E+04</pdfrwt>
<totfact> 0.50868512E+01</totfact>
</mgrwt>
</event>
<event>
 6    1  0.1934315E-005  0.2628231E+04  0.7818608E-02  0.8358675E-01
         -2   -1    0    0    0  501 -0.00000000000E+00  0.00000000000E+00  0.14862604843E+04  0.14862604843E+04  0.00000000000E+00 0. -1.
          2   -1    0    0  501    0  0.00000000000E+00 -0.00000000000E+00 -0.11619090281E+04  0.11619090281E+04  0.00000000000E+00 0.  1.
         23    2    1    2    0    0  0.10703598380E+04  0.75901471485E+03  0.19084196039E+03  0.13292311872E+04  0.93066508186E+02 0.  0.
         13    1    3    3    0    0  0.56027777572E+03  0.34346674133E+03  0.79822119781E+02  0.66200616249E+03  0.00000000000E+00 0. -1.
        -13    1    3    3    0    0  0.51008206227E+03  0.41554797352E+03  0.11101984061E+03  0.66722502468E+03  0.00000000000E+00 0.  1.
         22    1    1    2    0    0 -0.10703598380E+04 -0.75901471485E+03  0.13350949577E+03  0.13189383252E+04  0.00000000000E+00 0. -1.
<mgrwt>
<rscale>  0 0.26282309E+04</rscale>
<asrwt>0</asrwt>
<pdfrwt beam="1">  1        2 0.17875524E+00 0.26282309E+04</pdfrwt>
<pdfrwt beam="2">  1       -2 0.22865546E+00 0.26282309E+04</pdfrwt>
<totfact> 0.15360571E+00</totfact>
</mgrwt>
</event>
<event>
 6    1  0.1934315E-005  0.1033846E+04  0.7818608E-02  0.9272183E-01
         -2   -1    0    0    0  501 -0.00000000000E+00  0.00000000000E+00  0.95077587951E+02  0.95077587951E+02  0.00000000000E+00 0. -1.
          2   -1    0    0  501    0  0.00000000000E+00 -0.00000000000E+00 -0.28104354038E+04  0.28104354038E+04  0.00000000000E+00 0.  1.
         23    2    1    2    0    0 -0.23162036600E+03  0.45613327080E+03 -0.14675582687E+04  0.15569176986E+04  0.92519693590E+02 0.  0.
         13    1    3    3    0    0 -0.41904556378E+02  0.47243942888E+02 -0.27130362292E+03  0.27855634581E+03  0.00000000000E+00 0.  1.
        -13    1    3    3    0    0 -0.18971580962E+03  0.40888932791E+03 -0.11962546457E+04  0.12783613528E+04  0.00000000000E+00 0. -1.
         22    1    1    2    0    0  0.23162036600E+03 -0.45613327080E+03 -0.12477995472E+04  0.13485952931E+04  0.00000000000E+00 0. -1.
<mgrwt>
<rscale>  0 0.10338461E+04</rscale>
<asrwt>0</asrwt>
<pdfrwt beam="1">  1        2 0.43237466E+00 0.10338461E+04</pdfrwt>
<pdfrwt beam="2">  1       -2 0.14627322E-01 0.10338461E+04</pdfrwt>
<totfact> 0.84702133E+01</totfact>
</mgrwt>
</event>
<event>
 6    1  0.1934315E-005  0.3335949E+04  0.7818608E-02  0.8153808E-01
         -1   -1    0    0    0  501 -0.00000000000E+00  0.00000000000E+00  0.84462456992E+03  0.84462456992E+03  0.00000000000E+00 0.  1.
          1   -1    0    0  501    0  0.00000000000E+00 -0.00000000000E+00 -0.32939351233E+04  0.32939351233E+04  0.00000000000E+00 0. -1.
         23    2    1    2    0    0 -0.39956033751E+03  0.40715708127E+03  0.71739138346E+03  0.92088560952E+03  0.89188321126E+02 0.  0.
         11    1    3    3    0    0 -0.51793772715E+02  0.80031572692E+02  0.16677896255E+03  0.19210119695E+03  0.00000000000E+00 0.  1.
        -11    1    3    3    0    0 -0.34776656480E+03  0.32712550858E+03  0.55061242090E+03  0.72878441257E+03  0.00000000000E+00 0. -1.
         22    1    1    2    0    0  0.39956033751E+03 -0.40715708127E+03 -0.31667019369E+04  0.32176740837E+04  0.00000000000E+00 0. -1.
<mgrwt>
<rscale>  0 0.33359488E+04</rscale>
<asrwt>0</asrwt>
<pdfrwt beam="1">  1        1 0.50675925E+00 0.33359488E+04</pdfrwt>
<pdfrwt beam="2">  1       -1 0.12994224E+00 0.33359488E+04</pdfrwt>
<totfact> 0.15139873E-01</totfact>
</mgrwt>
</event>
<event>
 6    1  0.1934315E-005  0.2486748E+04  0.7818608E-02  0.8407722E-01
          2   -1    0    0  501    0  0.00000000000E+00  0.00000000000E+00  0.19943268347E+04  0.19943268347E+04  0.00000000000E+00 0.  1.
         -2   -1    0    0    0  501 -0.00000000000E+00 -0.00000000000E+00 -0.77518820022E+03  0.77518820022E+03  0.00000000000E+00 0. -1.
         23    2    1    2    0    0 -0.10663177191E+04 -0.60794176896E+03  0.40159246415E+03  0.12947240622E+04  0.91690880561E+02 0.  0.
         13    1    3    3    0    0 -0.45347729892E+03 -0.24731769830E+03  0.21564451949E+03  0.55974124675E+03  0.00000000000E+00 0. -1.
        -13    1    3    3    0    0 -0.61284042016E+03 -0.36062407066E+03  0.18594794465E+03  0.73498281548E+03  0.00000000000E+00 0.  1.
         22    1    1    2    0    0  0.10663177191E+04  0.60794176896E+03  0.81754617032E+03  0.14747909727E+04  0.00000000000E+00 0. -1.
<mgrwt>
<rscale>  0 0.24867478E+04</rscale>
<asrwt>0</asrwt>
<pdfrwt beam="1">  1        2 0.30681951E+00 0.24867478E+04</pdfrwt>
<pdfrwt beam="2">  1       -2 0.11925972E+00 0.24867478E+04</pdfrwt>
<totfact> 0.32401969E+00</totfact>
</mgrwt>
</event>
<event>
 6    1  0.1934315E-005  0.5353396E+04  0.7818608E-02  0.7776190E-01
          2   -1    0    0  501    0  0.00000000000E+00  0.00000000000E+00  0.29353327906E+04  0.29353327906E+04  0.00000000000E+00 0.  1.
         -2   -1    0    0    0  501 -0.00000000000E+00 -0.00000000000E+00 -0.24408519780E+04  0.24408519780E+04  0.00000000000E+00 0. -1.
         23    2    1    2    0    0  0.16251482438E+04 -0.95203729879E+03  0.21562262671E+04  0.28644364158E+04  0.90567281174E+02 0.  0.
         13    1    3    3    0    0  0.13294574118E+04 -0.81585981135E+03  0.18022315534E+04  0.23835106069E+04  0.00000000000E+00 0.  1.
        -13    1    3    3    0    0  0.29569083209E+03 -0.13617748744E+03  0.35399471370E+03  0.48092580882E+03  0.00000000000E+00 0. -1.
         22    1    1    2    0    0 -0.16251482438E+04  0.95203729879E+03 -0.16617454545E+04  0.25117483529E+04  0.00000000000E+00 0. -1.
<mgrwt>
<rscale>  0 0.53533962E+04</rscale>
<asrwt>0</asrwt>
<pdfrwt beam="1">  1        2 0.45158966E+00 0.53533962E+04</pdfrwt>
<pdfrwt beam="2">  1       -2 0.37551569E+00 0.53533962E+04</pdfrwt>
<totfact> 0.14474916E-02</totfact>
</mgrwt>
</event>
<event>
 6    1  0.1934315E-005  0.9837860E+03  0.7818608E-02  0.9326509E-01
         -2   -1    0    0    0  501 -0.00000000000E+00  0.00000000000E+00  0.19413364340E+03  0.19413364340E+03  0.00000000000E+00 0. -1.
          2   -1    0    0  501    0  0.00000000000E+00 -0.00000000000E+00 -0.12463513418E+04  0.12463513418E+04  0.00000000000E+00 0.  1.
         23    2    1    2    0    0  0.11635351123E+03  0.45299767965E+03 -0.32882884844E+03  0.57906960015E+03  0.91913834123E+02 0.  0.
         13    1    3    3    0    0  0.42967322597E+02  0.22988975464E+03 -0.11154838503E+03  0.25911104242E+03  0.00000000000E+00 0. -1.
        -13    1    3    3    0    0  0.73386188635E+02  0.22310792501E+03 -0.21728046341E+03  0.31995855773E+03  0.00000000000E+00 0.  1.
         22    1    1    2    0    0 -0.11635351123E+03 -0.45299767965E+03 -0.72338884998E+03  0.86141538507E+03  0.00000000000E+00 0.  1.
<mgrwt>
<rscale>  0 0.98378601E+03</rscale>
<asrwt>0</asrwt>
<pdfrwt beam="1">  1        2 0.19174635E+00 0.98378601E+03</pdfrwt>
<pdfrwt beam="2">  1       -2 0.29866715E-01 0.98378601E+03</pdfrwt>
<totfact> 0.18338038E+02</totfact>
</mgrwt>
</event>
<event>
 6    1  0.1934315E-005  0.3718378E+04  0.7818608E-02  0.8063901E-01
         -2   -1    0    0    0  501 -0.00000000000E+00  0.00000000000E+00  0.94342374279E+03  0.94342374279E+03  0.00000000000E+00 0. -1.
          2   -1    0    0  501    0  0.00000000000E+00 -0.00000000000E+00 -0.36638719134E+04  0.36638719134E+04  0.00000000000E+00 0.  1.
         23    2    1    2    0    0 -0.13782476899E+03  0.15328110171E+04 -0.26509358589E+04  0.30667317197E+04  0.94219062013E+02 0.  0.
         11    1    3    3    0    0 -0.90951729780E+02  0.55417496003E+03 -0.10047882002E+04  0.11510783774E+04  0.00000000000E+00 0.  1.
        -11    1    3    3    0    0 -0.46873039208E+02  0.97863605704E+03 -0.16461476587E+04  0.19156533423E+04  0.00000000000E+00 0. -1.
         22    1    1    2    0    0  0.13782476899E+03 -0.15328110171E+04 -0.69512311739E+02  0.15405639365E+04  0.00000000000E+00 0. -1.
<mgrwt>
<rscale>  0 0.37183780E+04</rscale>
<asrwt>0</asrwt>
<pdfrwt beam="1">  1        2 0.56367260E+00 0.37183780E+04</pdfrwt>
<pdfrwt beam="2">  1       -2 0.14514211E+00 0.37183780E+04</pdfrwt>
<totfact> 0.16335045E-01</totfact>
</mgrwt>
</event>
<event>
 6    1  0.1934315E-005  0.2162235E+04  0.7818608E-02  0.8534313E-01
         -2   -1    0    0    0  501 -0.00000000000E+00  0.00000000000E+00  0.78388763290E+03  0.78388763290E+03  0.00000000000E+00 0. -1.
          2   -1    0    0  501    0  0.00000000000E+00 -0.00000000000E+00 -0.14910497024E+04  0.14910497024E+04  0.00000000000E+00 0.  1.
         23    2    1    2    0    0 -0.29532472914E+03  0.43861335667E+02  0.73692010362E+03  0.80031404945E+03  0.91163733034E+02 0.  0.
         13    1    3    3    0    0 -0.13275398484E+03  0.18724546933E+02  0.45037703013E+03  0.46990818084E+03  0.00000000000E+00 0. -1.
        -13    1    3    3    0    0 -0.16257074429E+03  0.25136788734E+02  0.28654307349E+03  0.33040586861E+03  0.00000000000E+00 0.  1.
         22    1    1    2    0    0  0.29532472914E+03 -0.43861335667E+02 -0.14440821731E+04  0.14746232858E+04  0.00000000000E+00 0.  1.
<mgrwt>
<rscale>  0 0.21622353E+04</rscale>
<asrwt>0</asrwt>
<pdfrwt beam="1">  1        2 0.22939226E+00 0.21622353E+04</pdfrwt>
<pdfrwt beam="2">  1       -2 0.12059810E+00 0.21622353E+04</pdfrwt>
<totfact> 0.61767293E+00</totfact>
</mgrwt>
</event>
<event>
 6    1  0.1934315E-005  0.2526881E+04  0.7818608E-02  0.8393471E-01
          2   -1    0    0  501    0  0.00000000000E+00  0.00000000000E+00  0.89797386895E+03  0.89797386895E+03  0.00000000000E+00 0.  1.
         -2   -1    0    0    0  501 -0.00000000000E+00 -0.00000000000E+00 -0.17776485381E+04  0.17776485381E+04  0.00000000000E+00 0. -1.
         23    2    1    2    0    0  0.85123346509E+03 -0.53223269432E+03 -0.12497497846E+04  0.16056571533E+04  0.91598672806E+02 0.  0.
         11    1    3    3    0    0  0.74943110411E+03 -0.50120986125E+03 -0.11112528587E+04  0.14309930890E+04  0.00000000000E+00 0.  1.
        -11    1    3    3    0    0  0.10180236098E+03 -0.31022833069E+02 -0.13849692590E+03  0.17466406429E+03  0.00000000000E+00 0. -1.
         22    1    1    2    0    0 -0.85123346509E+03  0.53223269432E+03  0.37007511551E+03  0.10699652537E+04  0.00000000000E+00 0.  1.
<mgrwt>
<rscale>  0 0.25268810E+04</rscale>
<asrwt>0</asrwt>
<pdfrwt beam="1">  1        2 0.13814983E+00 0.25268810E+04</pdfrwt>
<pdfrwt beam="2">  1       -2 0.27348439E+00 0.25268810E+04</pdfrwt>
<totfact> 0.12079957E+00</totfact>
</mgrwt>
</event>
<event>
 6    1  0.1934315E-005  0.1563635E+04  0.7818608E-02  0.8843205E-01
         -2   -1    0    0    0  501 -0.00000000000E+00  0.00000000000E+00  0.40602456190E+03  0.40602456190E+03  0.00000000000E+00 0. -1.
          2   -1    0    0  501    0  0.00000000000E+00 -0.00000000000E+00 -0.15054233875E+04  0.15054233875E+04  0.00000000000E+00 0.  1.
         23    2    1    2    0    0  0.73620120010E+03 -0.21926522256E+03 -0.71303254416E+03  0.10515942710E+04  0.85823404927E+02 0.  0.
         11    1    3    3    0    0  0.19726933702E+03 -0.40024803360E+02 -0.14300150189E+03  0.24691416678E+03  0.00000000000E+00 0. -1.
        -11    1    3    3    0    0  0.53893186308E+03 -0.17924041920E+03 -0.57003104227E+03  0.80468010418E+03  0.00000000000E+00 0.  1.
         22    1    1    2    0    0 -0.73620120010E+03  0.21926522256E+03 -0.38636628142E+03  0.85985367841E+03  0.00000000000E+00 0. -1.
<mgrwt>
<rscale>  0 0.15636353E+04</rscale>
<asrwt>0</asrwt>
<pdfrwt beam="1">  1        2 0.23160360E+00 0.15636353E+04</pdfrwt>
<pdfrwt beam="2">  1       -2 0.62465317E-01 0.15636353E+04</pdfrwt>
<totfact> 0.28812309E+01</totfact>
</mgrwt>
</event>
<event>
 6    1  0.1934315E-005  0.4979018E+04  0.7818608E-02  0.7831752E-01
         -2   -1    0    0    0  501 -0.00000000000E+00  0.00000000000E+00  0.33258784427E+04  0.33258784427E+04  0.00000000000E+00 0. -1.
          2   -1    0    0  501    0  0.00000000000E+00 -0.00000000000E+00 -0.18634644662E+04  0.18634644662E+04  0.00000000000E+00 0.  1.
         23    2    1    2    0    0  0.12323667431E+04 -0.19227449922E+04  0.17620050262E+04  0.28859908100E+04  0.92763940778E+02 0.  0.
         11    1    3    3    0    0  0.18087332885E+03 -0.23368695529E+03  0.24940626862E+03  0.38668881673E+03  0.00000000000E+00 0. -1.
        -11    1    3    3    0    0  0.10514934142E+04 -0.16890580369E+04  0.15125987576E+04  0.24993019933E+04  0.00000000000E+00 0.  1.
         22    1    1    2    0    0 -0.12323667431E+04  0.19227449922E+04 -0.29959104960E+03  0.23033520989E+04  0.00000000000E+00 0.  1.
<mgrwt>
<rscale>  0 0.49790185E+04</rscale>
<asrwt>0</asrwt>
<pdfrwt beam="1">  1        2 0.28668684E+00 0.49790185E+04</pdfrwt>
<pdfrwt beam="2">  1       -2 0.51167361E+00 0.49790185E+04</pdfrwt>
<totfact> 0.81833336E-03</totfact>
</mgrwt>
</event>
<event>
 6    1  0.1934315E-005  0.3267253E+04  0.7818608E-02  0.8171278E-01
         -2   -1    0    0    0  501 -0.00000000000E+00  0.00000000000E+00  0.16857454414E+04  0.16857454414E+04  0.00000000000E+00 0. -1.
          2   -1    0    0  501    0  0.00000000000E+00 -0.00000000000E+00 -0.15831189416E+04  0.15831189416E+04  0.00000000000E+00 0.  1.
         23    2    1    2    0    0  0.77588326467E+03  0.26261782258E+03  0.14637754738E+04  0.16802519410E+04  0.98208891497E+02 0.  0.
         13    1    3    3    0    0  0.41932249284E+03  0.13586066266E+03  0.88585798394E+03  0.98946138903E+03  0.00000000000E+00 0.  1.
        -13    1    3    3    0    0  0.35656077183E+03  0.12675715992E+03  0.57791748987E+03  0.69079055198E+03  0.00000000000E+00 0. -1.
         22    1    1    2    0    0 -0.77588326467E+03 -0.26261782258E+03 -0.13611489741E+04  0.15886124420E+04  0.00000000000E+00 0.  1.
<mgrwt>
<rscale>  0 0.32672530E+04</rscale>
<asrwt>0</asrwt>
<pdfrwt beam="1">  1        2 0.24355676E+00 0.32672530E+04</pdfrwt>
<pdfrwt beam="2">  1       -2 0.25934545E+00 0.32672530E+04</pdfrwt>
<totfact> 0.53746748E-01</totfact>
</mgrwt>
</event>
<event>
 6    1  0.1934315E-005  0.2010438E+04  0.7818608E-02  0.8601756E-01
          2   -1    0    0  501    0  0.00000000000E+00  0.00000000000E+00  0.11705307049E+04  0.11705307049E+04  0.00000000000E+00 0.  1.
         -2   -1    0    0    0  501 -0.00000000000E+00 -0.00000000000E+00 -0.86325382915E+03  0.86325382915E+03  0.00000000000E+00 0. -1.
         23    2    1    2    0    0  0.26997525745E+03 -0.29044463573E+03  0.10861943886E+04  0.11597380719E+04  0.89047287430E+02 0.  0.
         11    1    3    3    0    0  0.91459233943E+02 -0.42615731296E+02  0.28017253576E+03  0.29778774626E+03  0.00000000000E+00 0. -1.
        -11    1    3    3    0    0  0.17851602351E+03 -0.24782890443E+03  0.80602185288E+03  0.86195032562E+03  0.00000000000E+00 0.  1.
         22    1    1    2    0    0 -0.26997525745E+03  0.29044463573E+03 -0.77891751291E+03  0.87404646214E+03  0.00000000000E+00 0. -1.
<mgrwt>
<rscale>  0 0.20104379E+04</rscale>
<asrwt>0</asrwt>
<pdfrwt beam="1">  1        2 0.18008165E+00 0.20104379E+04</pdfrwt>
<pdfrwt beam="2">  1       -2 0.13280828E+00 0.20104379E+04</pdfrwt>
<totfact> 0.75343910E+00</totfact>
</mgrwt>
</event>
<event>
 6    1  0.1934315E-005  0.3930764E+04  0.7818608E-02  0.8018661E-01
         -2   -1    0    0    0  501 -0.00000000000E+00  0.00000000000E+00  0.15968756635E+04  0.15968756635E+04  0.00000000000E+00 0. -1.
          2   -1    0    0  501    0  0.00000000000E+00 -0.00000000000E+00 -0.24189272792E+04  0.24189272792E+04  0.00000000000E+00 0.  1.
         23    2    1    2    0    0 -0.19355511858E+04  0.33484626704E+03 -0.42311405416E+03  0.20113998911E+04  0.90684086049E+02 0.  0.
         11    1    3    3    0    0 -0.65282293569E+03  0.92724350480E+02 -0.18089232864E+03  0.68373797985E+03  0.00000000000E+00 0. -1.
        -11    1    3    3    0    0 -0.12827282501E+04  0.24212191656E+03 -0.24222172552E+03  0.13276619112E+04  0.00000000000E+00 0.  1.
         22    1    1    2    0    0  0.19355511858E+04 -0.33484626704E+03 -0.39893756153E+03  0.20044030517E+04  0.00000000000E+00 0. -1.
<mgrwt>
<rscale>  0 0.39307638E+04</rscale>
<asrwt>0</asrwt>
<pdfrwt beam="1">  1        2 0.37214266E+00 0.39307638E+04</pdfrwt>
<pdfrwt beam="2">  1       -2 0.24567318E+00 0.39307638E+04</pdfrwt>
<totfact> 0.21017992E-01</totfact>
</mgrwt>
</event>
<event>
 6    1  0.1934315E-005  0.1871819E+04  0.7818608E-02  0.8669013E-01
          2   -1    0    0  501    0  0.00000000000E+00  0.00000000000E+00  0.67268317081E+03  0.67268317081E+03  0.00000000000E+00 0. -1.
         -2   -1    0    0    0  501 -0.00000000000E+00 -0.00000000000E+00 -0.13021378855E+04  0.13021378855E+04  0.00000000000E+00 0.  1.
         23    2    1    2    0    0 -0.14043727399E+03  0.39292652909E+03  0.56575927284E+03  0.70886277849E+03  0.91043938448E+02 0.  0.
         11    1    3    3    0    0  0.19486369905E+01  0.10195709790E+03  0.15867371543E+03  0.18861705906E+03  0.00000000000E+00 0. -1.
        -11    1    3    3    0    0 -0.14238591098E+03  0.29096943120E+03  0.40708555741E+03  0.52024571943E+03  0.00000000000E+00 0.  1.
         22    1    1    2    0    0  0.14043727399E+03 -0.39292652909E+03 -0.11952139875E+04  0.12659582778E+04  0.00000000000E+00 0.  1.
<mgrwt>
<rscale>  0 0.18718186E+04</rscale>
<asrwt>0</asrwt>
<pdfrwt beam="1">  1        2 0.10348972E+00 0.18718186E+04</pdfrwt>
<pdfrwt beam="2">  1       -2 0.20032891E+00 0.18718186E+04</pdfrwt>
<totfact> 0.53478447E+00</totfact>
</mgrwt>
</event>
<event>
 6    1  0.1934315E-005  0.2773167E+04  0.7818608E-02  0.8311648E-01
         -2   -1    0    0    0  501 -0.00000000000E+00  0.00000000000E+00  0.34834579529E+04  0.34834579529E+04  0.00000000000E+00 0. -1.
          2   -1    0    0  501    0  0.00000000000E+00 -0.00000000000E+00 -0.55192674094E+03  0.55192674094E+03  0.00000000000E+00 0.  1.
         23    2    1    2    0    0 -0.53586799037E+03 -0.92628209576E+03  0.27470034606E+04  0.29494733185E+04  0.90619093152E+02 0.  0.
         11    1    3    3    0    0 -0.24686848092E+03 -0.34703996814E+03  0.11435073202E+04  0.12202416883E+04  0.00000000000E+00 0.  1.
        -11    1    3    3    0    0 -0.28899950945E+03 -0.57924212762E+03  0.16034961404E+04  0.17292316303E+04  0.00000000000E+00 0. -1.
         22    1    1    2    0    0  0.53586799037E+03  0.92628209576E+03  0.18452775135E+03  0.10859113753E+04  0.00000000000E+00 0.  1.
<mgrwt>
<rscale>  0 0.27731669E+04</rscale>
<asrwt>0</asrwt>
<pdfrwt beam="1">  1        2 0.84911808E-01 0.27731669E+04</pdfrwt>
<pdfrwt beam="2">  1       -2 0.53591659E+00 0.27731669E+04</pdfrwt>
<totfact> 0.48145226E-02</totfact>
</mgrwt>
</event>
<event>
 6    1  0.1934315E-005  0.5077122E+04  0.7818608E-02  0.7816719E-01
         -2   -1    0    0    0  501 -0.00000000000E+00  0.00000000000E+00  0.17197793890E+04  0.17197793890E+04  0.00000000000E+00 0. -1.
          2   -1    0    0  501    0  0.00000000000E+00 -0.00000000000E+00 -0.37471620727E+04  0.37471620727E+04  0.00000000000E+00 0.  1.
         23    2    1    2    0    0 -0.76400866067E+03 -0.82581439176E+03 -0.34634904178E+04  0.36426377406E+04  0.85820695068E+02 0.  0.
         13    1    3    3    0    0 -0.57884469710E+03 -0.65435725683E+03 -0.25863812061E+04  0.27299473156E+04  0.00000000000E+00 0.  1.
        -13    1    3    3    0    0 -0.18516396356E+03 -0.17145713493E+03 -0.87710921168E+03  0.91269042492E+03  0.00000000000E+00 0. -1.
         22    1    1    2    0    0  0.76400866067E+03  0.82581439176E+03  0.14361077341E+04  0.18243037212E+04  0.00000000000E+00 0. -1.
<mgrwt>
<rscale>  0 0.50771221E+04</rscale>
<asrwt>0</asrwt>
<pdfrwt beam="1">  1        2 0.57648647E+00 0.50771221E+04</pdfrwt>
<pdfrwt beam="2">  1       -2 0.26458144E+00 0.50771221E+04</pdfrwt>
<totfact> 0.20312864E-02</totfact>
</mgrwt>
</event>
<event>
 6    1  0.1934315E-005  0.1785911E+04  0.7818608E-02  0.8713828E-01
          2   -1    0    0  501    0  0.00000000000E+00  0.00000000000E+00  0.93203991899E+03  0.93203991899E+03  0.00000000000E+00 0.  1.
         -2   -1    0    0    0  501 -0.00000000000E+00 -0.00000000000E+00 -0.85550997509E+03  0.85550997509E+03  0.00000000000E+00 0. -1.
         23    2    1    2    0    0  0.55054532366E+01  0.70226392928E+03 -0.50981285272E+03  0.87267131661E+03  0.91875707646E+02 0.  0.
         11    1    3    3    0    0  0.45941600049E+02  0.40780069377E+03 -0.31422201021E+03  0.51686314257E+03  0.00000000000E+00 0.  1.
        -11    1    3    3    0    0 -0.40436146813E+02  0.29446323551E+03 -0.19559084251E+03  0.35580817403E+03  0.00000000000E+00 0. -1.
         22    1    1    2    0    0 -0.55054532366E+01 -0.70226392928E+03  0.58634279662E+03  0.91487857748E+03  0.00000000000E+00 0.  1.
<mgrwt>
<rscale>  0 0.17859109E+04</rscale>
<asrwt>0</asrwt>
<pdfrwt beam="1">  1        2 0.14339076E+00 0.17859109E+04</pdfrwt>
<pdfrwt beam="2">  1       -2 0.13161692E+00 0.17859109E+04</pdfrwt>
<totfact> 0.11099261E+01</totfact>
</mgrwt>
</event>
<event>
 6    1  0.1934315E-005  0.1279477E+04  0.7818608E-02  0.9046000E-01
          1   -1    0    0  501    0  0.00000000000E+00  0.00000000000E+00  0.52481383861E+03  0.52481383861E+03  0.00000000000E+00 0.  1.
         -1   -1    0    0    0  501 -0.00000000000E+00 -0.00000000000E+00 -0.77982982220E+03  0.77982982220E+03  0.00000000000E+00 0. -1.
         23    2    1    2    0    0  0.22508152402E+03  0.44609241884E+03 -0.53091605434E+03  0.73387138780E+03  0.83876209309E+02 0.  0.
         11    1    3    3    0    0  0.20067796016E+03  0.34739425282E+03 -0.45734609914E+03  0.60837477347E+03  0.00000000000E+00 0. -1.
        -11    1    3    3    0    0  0.24403563855E+02  0.98698166010E+02 -0.73569955195E+02  0.12549661434E+03  0.00000000000E+00 0.  1.
         22    1    1    2    0    0 -0.22508152402E+03 -0.44609241884E+03  0.27590007075E+03  0.57077227301E+03  0.00000000000E+00 0.  1.
<mgrwt>
<rscale>  0 0.12794772E+04</rscale>
<asrwt>0</asrwt>
<pdfrwt beam="1">  1        1 0.80740591E-01 0.12794772E+04</pdfrwt>
<pdfrwt beam="2">  1       -1 0.11997382E+00 0.12794772E+04</pdfrwt>
<totfact> 0.25264952E+01</totfact>
</mgrwt>
</event>
<event>
 6    1  0.1934315E-005  0.2456154E+04  0.7818608E-02  0.8418775E-01
         -1   -1    0    0    0  501 -0.00000000000E+00  0.00000000000E+00  0.77035218330E+03  0.77035218330E+03  0.00000000000E+00 0. -1.
          1   -1    0    0  501    0  0.00000000000E+00 -0.00000000000E+00 -0.19577703003E+04  0.19577703003E+04  0.00000000000E+00 0.  1.
         23    2    1    2    0    0 -0.68127940189E+03  0.10180390701E+04 -0.52921574380E+03  0.13375199035E+04  0.91351065704E+02 0.  0.
         11    1    3    3    0    0 -0.45233523797E+03  0.60730198148E+03 -0.35110498424E+03  0.83468411640E+03  0.00000000000E+00 0. -1.
        -11    1    3    3    0    0 -0.22894416392E+03  0.41073708859E+03 -0.17811075956E+03  0.50283578712E+03  0.00000000000E+00 0.  1.
         22    1    1    2    0    0  0.68127940189E+03 -0.10180390701E+04 -0.65820237319E+03  0.13906025801E+04  0.00000000000E+00 0. -1.
<mgrwt>
<rscale>  0 0.24561536E+04</rscale>
<asrwt>0</asrwt>
<pdfrwt beam="1">  1        1 0.30119543E+00 0.24561536E+04</pdfrwt>
<pdfrwt beam="2">  1       -1 0.11851572E+00 0.24561536E+04</pdfrwt>
<totfact> 0.18115616E+00</totfact>
</mgrwt>
</event>
<event>
 6    1  0.1934315E-005  0.2352391E+04  0.7818608E-02  0.8457546E-01
          2   -1    0    0  501    0  0.00000000000E+00  0.00000000000E+00  0.95559315047E+03  0.95559315047E+03  0.00000000000E+00 0.  1.
         -2   -1    0    0    0  501 -0.00000000000E+00 -0.00000000000E+00 -0.14477241425E+04  0.14477241425E+04  0.00000000000E+00 0. -1.
         23    2    1    2    0    0  0.89756494052E+03  0.73624460369E+03 -0.63518489532E+02  0.11658248218E+04  0.86220518214E+02 0.  0.
         11    1    3    3    0    0  0.67699932856E+03  0.58561399165E+03 -0.21117095404E+02  0.89538693859E+03  0.00000000000E+00 0. -1.
        -11    1    3    3    0    0  0.22056561196E+03  0.15063061203E+03 -0.42401394128E+02  0.27043788323E+03  0.00000000000E+00 0.  1.
         22    1    1    2    0    0 -0.89756494052E+03 -0.73624460369E+03 -0.42861250253E+03  0.12374924712E+04  0.00000000000E+00 0. -1.
<mgrwt>
<rscale>  0 0.23523905E+04</rscale>
<asrwt>0</asrwt>
<pdfrwt beam="1">  1        2 0.14701433E+00 0.23523905E+04</pdfrwt>
<pdfrwt beam="2">  1       -2 0.22272679E+00 0.23523905E+04</pdfrwt>
<totfact> 0.23078519E+00</totfact>
</mgrwt>
</event>
<event>
 6    1  0.1934315E-005  0.1854513E+04  0.7818608E-02  0.8677835E-01
         -2   -1    0    0    0  501 -0.00000000000E+00  0.00000000000E+00  0.95046830408E+03  0.95046830408E+03  0.00000000000E+00 0. -1.
          2   -1    0    0  501    0  0.00000000000E+00 -0.00000000000E+00 -0.90461173845E+03  0.90461173845E+03  0.00000000000E+00 0.  1.
         23    2    1    2    0    0  0.19956267260E+03 -0.84805501488E+03 -0.28760902781E+03  0.92222320970E+03  0.93563492224E+02 0.  0.
         11    1    3    3    0    0  0.82256075564E+02 -0.42860732154E+03 -0.18934839581E+03  0.47573428827E+03  0.00000000000E+00 0. -1.
        -11    1    3    3    0    0  0.11730659704E+03 -0.41944769334E+03 -0.98260632005E+02  0.44648892143E+03  0.00000000000E+00 0.  1.
         22    1    1    2    0    0 -0.19956267260E+03  0.84805501488E+03  0.33346559343E+03  0.93285683283E+03  0.00000000000E+00 0. -1.
<mgrwt>
<rscale>  0 0.18545132E+04</rscale>
<asrwt>0</asrwt>
<pdfrwt beam="1">  1        2 0.13917104E+00 0.18545132E+04</pdfrwt>
<pdfrwt beam="2">  1       -2 0.14622589E+00 0.18545132E+04</pdfrwt>
<totfact> 0.87683581E+00</totfact>
</mgrwt>
</event>
<event>
 6    1  0.1934315E-005  0.7749153E+04  0.7818608E-02  0.7504751E-01
          2   -1    0    0  501    0  0.00000000000E+00  0.00000000000E+00  0.33616834238E+04  0.33616834238E+04  0.00000000000E+00 0.  1.
         -2   -1    0    0    0  501 -0.00000000000E+00 -0.00000000000E+00 -0.44657213460E+04  0.44657213460E+04  0.00000000000E+00 0. -1.
         23    2    1    2    0    0 -0.80681070494E+02  0.32022960882E+04  0.16488117039E+04  0.36037344778E+04  0.84335519294E+02 0.  0.
         13    1    3    3    0    0 -0.64460720042E+01  0.18989851143E+04  0.97477565241E+03  0.21345663702E+04  0.00000000000E+00 0. -1.
        -13    1    3    3    0    0 -0.74234998489E+02  0.13033109739E+04  0.67403605152E+03  0.14691681076E+04  0.00000000000E+00 0.  1.
         22    1    1    2    0    0  0.80681070494E+02 -0.32022960882E+04 -0.27528496261E+04  0.42236702920E+04  0.00000000000E+00 0. -1.
<mgrwt>
<rscale>  0 0.77491526E+04</rscale>
<asrwt>0</asrwt>
<pdfrwt beam="1">  1        2 0.51718206E+00 0.77491526E+04</pdfrwt>
<pdfrwt beam="2">  1       -2 0.68703406E+00 0.77491526E+04</pdfrwt>
<totfact> 0.15544136E-04</totfact>
</mgrwt>
</event>
<event>
 6    1  0.1934315E-005  0.2950132E+04  0.7818608E-02  0.8258116E-01
          2   -1    0    0  501    0  0.00000000000E+00  0.00000000000E+00  0.12751154912E+04  0.12751154912E+04  0.00000000000E+00 0.  1.
         -2   -1    0    0    0  501 -0.00000000000E+00 -0.00000000000E+00 -0.17063709070E+04  0.17063709070E+04  0.00000000000E+00 0. -1.
         23    2    1    2    0    0 -0.75154775365E+03  0.61053036962E+03  0.90683162458E+03  0.13298059551E+04  0.92026760068E+02 0.  0.
         13    1    3    3    0    0 -0.19055574049E+03  0.10559075342E+03  0.20685241191E+03  0.30041441003E+03  0.00000000000E+00 0. -1.
        -13    1    3    3    0    0 -0.56099201316E+03  0.50493961620E+03  0.69997921268E+03  0.10293915450E+04  0.00000000000E+00 0.  1.
         22    1    1    2    0    0  0.75154775365E+03 -0.61053036962E+03 -0.13380870404E+04  0.16516804431E+04  0.00000000000E+00 0. -1.
<mgrwt>
<rscale>  0 0.29501322E+04</rscale>
<asrwt>0</asrwt>
<pdfrwt beam="1">  1        2 0.19617161E+00 0.29501322E+04</pdfrwt>
<pdfrwt beam="2">  1       -2 0.26251860E+00 0.29501322E+04</pdfrwt>
<totfact> 0.79123390E-01</totfact>
</mgrwt>
</event>
<event>
 6    1  0.1934315E-005  0.2208868E+04  0.7818608E-02  0.8514746E-01
         -2   -1    0    0    0  501 -0.00000000000E+00  0.00000000000E+00  0.10281197093E+04  0.10281197093E+04  0.00000000000E+00 0. -1.
          2   -1    0    0  501    0  0.00000000000E+00 -0.00000000000E+00 -0.11864128574E+04  0.11864128574E+04  0.00000000000E+00 0.  1.
         23    2    1    2    0    0 -0.24229035066E+03  0.29153344682E+03  0.95856478566E+03  0.10350971048E+04  0.94250747586E+02 0.  0.
         13    1    3    3    0    0 -0.99242830080E+02  0.13998398192E+03  0.31601415684E+03  0.35959644303E+03  0.00000000000E+00 0.  1.
        -13    1    3    3    0    0 -0.14304752058E+03  0.15154946490E+03  0.64255062882E+03  0.67550066177E+03  0.00000000000E+00 0. -1.
         22    1    1    2    0    0  0.24229035066E+03 -0.29153344682E+03 -0.11168579338E+04  0.11794354619E+04  0.00000000000E+00 0.  1.
<mgrwt>
<rscale>  0 0.22088680E+04</rscale>
<asrwt>0</asrwt>
<pdfrwt beam="1">  1        2 0.18252505E+00 0.22088680E+04</pdfrwt>
<pdfrwt beam="2">  1       -2 0.15817226E+00 0.22088680E+04</pdfrwt>
<totfact> 0.45814814E+00</totfact>
</mgrwt>
</event>
<event>
 6    1  0.1934315E-005  0.3496719E+04  0.7818608E-02  0.8114568E-01
          2   -1    0    0  501    0  0.00000000000E+00  0.00000000000E+00  0.35495776502E+04  0.35495776502E+04  0.00000000000E+00 0.  1.
         -2   -1    0    0    0  501 -0.00000000000E+00 -0.00000000000E+00 -0.86116202510E+03  0.86116202510E+03  0.00000000000E+00 0. -1.
         23    2    1    2    0    0  0.15155142722E+04 -0.78570329325E+03  0.87557303844E+03  0.19206570626E+04  0.90455691271E+02 0.  0.
         11    1    3    3    0    0  0.10178935885E+04 -0.48149278304E+03  0.59075292599E+03  0.12715862838E+04  0.00000000000E+00 0. -1.
        -11    1    3    3    0    0  0.49762068366E+03 -0.30421051022E+03  0.28482011245E+03  0.64907077872E+03  0.00000000000E+00 0.  1.
         22    1    1    2    0    0 -0.15155142722E+04  0.78570329325E+03  0.18128425866E+04  0.24900826127E+04  0.00000000000E+00 0.  1.
<mgrwt>
<rscale>  0 0.34967193E+04</rscale>
<asrwt>0</asrwt>
<pdfrwt beam="1">  1        2 0.54608886E+00 0.34967193E+04</pdfrwt>
<pdfrwt beam="2">  1       -2 0.13248647E+00 0.34967193E+04</pdfrwt>
<totfact> 0.25474493E-01</totfact>
</mgrwt>
</event>
<event>
 6    1  0.1934315E-005  0.3225755E+04  0.7818608E-02  0.8182048E-01
          2   -1    0    0  501    0  0.00000000000E+00  0.00000000000E+00  0.23536641770E+04  0.23536641770E+04  0.00000000000E+00 0.  1.
         -2   -1    0    0    0  501 -0.00000000000E+00 -0.00000000000E+00 -0.11052445007E+04  0.11052445007E+04  0.00000000000E+00 0. -1.
         23    2    1    2    0    0  0.28310488687E+03  0.15107344437E+04  0.10583866781E+03  0.15437172258E+04  0.96923234090E+02 0.  0.
         11    1    3    3    0    0  0.18030806144E+03  0.93932749400E+03  0.18892782088E+02  0.95666298937E+03  0.00000000000E+00 0.  1.
        -11    1    3    3    0    0  0.10279682543E+03  0.57140694966E+03  0.86945885724E+02  0.58705423641E+03  0.00000000000E+00 0. -1.
         22    1    1    2    0    0 -0.28310488687E+03 -0.15107344437E+04  0.11425810085E+04  0.19151914519E+04  0.00000000000E+00 0.  1.
<mgrwt>
<rscale>  0 0.32257553E+04</rscale>
<asrwt>0</asrwt>
<pdfrwt beam="1">  1        2 0.36210218E+00 0.32257553E+04</pdfrwt>
<pdfrwt beam="2">  1       -2 0.17003762E+00 0.32257553E+04</pdfrwt>
<totfact> 0.75625657E-01</totfact>
</mgrwt>
</event>
<event>
 6    1  0.1934315E-005  0.1580236E+04  0.7818608E-02  0.8832783E-01
         -2   -1    0    0    0  501 -0.00000000000E+00  0.00000000000E+00  0.42885459824E+03  0.42885459824E+03  0.00000000000E+00 0. -1.
          2   -1    0    0  501    0  0.00000000000E+00 -0.00000000000E+00 -0.14557068573E+04  0.14557068573E+04  0.00000000000E+00 0.  1.
         23    2    1    2    0    0 -0.56733080470E+03 -0.63673396246E+02  0.13123409540E+03  0.59340594680E+03  0.94813957563E+02 0.  0.
         13    1    3    3    0    0 -0.19503339905E+02  0.81557253042E+01  0.21395374330E+02  0.30077535893E+02  0.00000000000E+00 0. -1.
        -13    1    3    3    0    0 -0.54782746479E+03 -0.71829121550E+02  0.10983872107E+03  0.56332841090E+03  0.00000000000E+00 0.  1.
         22    1    1    2    0    0  0.56733080470E+03  0.63673396246E+02 -0.11580863545E+04  0.12911555088E+04  0.00000000000E+00 0.  1.
<mgrwt>
<rscale>  0 0.15802362E+04</rscale>
<asrwt>0</asrwt>
<pdfrwt beam="1">  1        2 0.22395490E+00 0.15802362E+04</pdfrwt>
<pdfrwt beam="2">  1       -2 0.65977630E-01 0.15802362E+04</pdfrwt>
<totfact> 0.27303073E+01</totfact>
</mgrwt>
</event>
<event>
 6    1  0.1934315E-005  0.1894465E+04  0.7818608E-02  0.8657616E-01
          1   -1    0    0  501    0  0.00000000000E+00  0.00000000000E+00  0.45753055373E+03  0.45753055373E+03  0.00000000000E+00 0. -1.
         -1   -1    0    0    0  501 -0.00000000000E+00 -0.00000000000E+00 -0.19610705994E+04  0.19610705994E+04  0.00000000000E+00 0.  1.
         23    2    1    2    0    0  0.17107943419E+03  0.54174890388E+03  0.21066689382E+03  0.61270373659E+03  0.90913590974E+02 0.  0.
         11    1    3    3    0    0  0.57993683801E+02  0.12942934950E+03  0.91785857557E+02  0.16893746630E+03  0.00000000000E+00 0. -1.
        -11    1    3    3    0    0  0.11308575038E+03  0.41231955438E+03  0.11888103626E+03  0.44376627029E+03  0.00000000000E+00 0.  1.
         22    1    1    2    0    0 -0.17107943419E+03 -0.54174890388E+03 -0.17142069395E+04  0.18058974165E+04  0.00000000000E+00 0.  1.
<mgrwt>
<rscale>  0 0.18944653E+04</rscale>
<asrwt>0</asrwt>
<pdfrwt beam="1">  1        1 0.70389316E-01 0.18944653E+04</pdfrwt>
<pdfrwt beam="2">  1       -1 0.30170317E+00 0.18944653E+04</pdfrwt>
<totfact> 0.15101304E+00</totfact>
</mgrwt>
</event>
<event>
 6    1  0.1934315E-005  0.4764822E+04  0.7818608E-02  0.7865846E-01
          2   -1    0    0  501    0  0.00000000000E+00  0.00000000000E+00  0.13850065022E+04  0.13850065022E+04  0.00000000000E+00 0.  1.
         -2   -1    0    0    0  501 -0.00000000000E+00 -0.00000000000E+00 -0.40980914745E+04  0.40980914745E+04  0.00000000000E+00 0. -1.
         23    2    1    2    0    0 -0.13865390180E+04  0.18789583258E+04 -0.81912312128E+03  0.24764276703E+04  0.93576064602E+02 0.  0.
         13    1    3    3    0    0 -0.10164045635E+04  0.14423222317E+04 -0.63060710597E+03  0.18737761283E+04  0.00000000000E+00 0.  1.
        -13    1    3    3    0    0 -0.37013445454E+03  0.43663609406E+03 -0.18851601531E+03  0.60265154202E+03  0.00000000000E+00 0. -1.
         22    1    1    2    0    0  0.13865390180E+04 -0.18789583258E+04 -0.18939618510E+04  0.30066703064E+04  0.00000000000E+00 0. -1.
<mgrwt>
<rscale>  0 0.47648225E+04</rscale>
<asrwt>0</asrwt>
<pdfrwt beam="1">  1        2 0.21307793E+00 0.47648225E+04</pdfrwt>
<pdfrwt beam="2">  1       -2 0.63047560E+00 0.47648225E+04</pdfrwt>
<totfact> 0.43213254E-03</totfact>
</mgrwt>
</event>
<event>
 6    1  0.1934315E-005  0.1689792E+04  0.7818608E-02  0.8767208E-01
          1   -1    0    0  501    0  0.00000000000E+00  0.00000000000E+00  0.11454525205E+04  0.11454525205E+04  0.00000000000E+00 0.  1.
         -1   -1    0    0    0  501 -0.00000000000E+00 -0.00000000000E+00 -0.62320272210E+03  0.62320272210E+03  0.00000000000E+00 0. -1.
         23    2    1    2    0    0  0.37730336593E+03 -0.54122494149E+03 -0.28668265076E+03  0.72479032102E+03  0.88610382921E+02 0.  0.
         13    1    3    3    0    0  0.24860696061E+03 -0.40314509518E+03 -0.17185351427E+03  0.50385019500E+03  0.00000000000E+00 0. -1.
        -13    1    3    3    0    0  0.12869640533E+03 -0.13807984631E+03 -0.11482913649E+03  0.22094012602E+03  0.00000000000E+00 0.  1.
         22    1    1    2    0    0 -0.37730336593E+03  0.54122494149E+03  0.80893244919E+03  0.10438649216E+04  0.00000000000E+00 0.  1.
<mgrwt>
<rscale>  0 0.16897919E+04</rscale>
<asrwt>0</asrwt>
<pdfrwt beam="1">  1        1 0.17622346E+00 0.16897919E+04</pdfrwt>
<pdfrwt beam="2">  1       -1 0.95877342E-01 0.16897919E+04</pdfrwt>
<totfact> 0.11712123E+01</totfact>
</mgrwt>
</event>
<event>
 6    1  0.1934315E-005  0.3572142E+04  0.7818608E-02  0.8096903E-01
          2   -1    0    0  501    0  0.00000000000E+00  0.00000000000E+00  0.26238149724E+04  0.26238149724E+04  0.00000000000E+00 0.  1.
         -2   -1    0    0    0  501 -0.00000000000E+00 -0.00000000000E+00 -0.12158055305E+04  0.12158055305E+04  0.00000000000E+00 0. -1.
         23    2    1    2    0    0 -0.85738926096E+03 -0.12149121146E+04 -0.35675877914E+03  0.15319085051E+04  0.91318401679E+02 0.  0.
         13    1    3    3    0    0 -0.39551315270E+03 -0.58287950938E+03 -0.12404949040E+03  0.71523943717E+03  0.00000000000E+00 0. -1.
        -13    1    3    3    0    0 -0.46187610827E+03 -0.63203260518E+03 -0.23270928875E+03  0.81666906790E+03  0.00000000000E+00 0.  1.
         22    1    1    2    0    0  0.85738926096E+03  0.12149121146E+04  0.17647682211E+04  0.23077119978E+04  0.00000000000E+00 0.  1.
<mgrwt>
<rscale>  0 0.35721415E+04</rscale>
<asrwt>0</asrwt>
<pdfrwt beam="1">  1        2 0.40366384E+00 0.35721415E+04</pdfrwt>
<pdfrwt beam="2">  1       -2 0.18704700E+00 0.35721415E+04</pdfrwt>
<totfact> 0.39051599E-01</totfact>
</mgrwt>
</event>
<event>
 6    1  0.1934315E-005  0.2297099E+04  0.7818608E-02  0.8479066E-01
          2   -1    0    0  501    0  0.00000000000E+00  0.00000000000E+00  0.15461424749E+04  0.15461424749E+04  0.00000000000E+00 0.  1.
         -2   -1    0    0    0  501 -0.00000000000E+00 -0.00000000000E+00 -0.85319838680E+03  0.85319838680E+03  0.00000000000E+00 0. -1.
         23    2    1    2    0    0 -0.78156637669E+03  0.75560071252E+03 -0.34012562343E+02  0.10915777296E+04  0.92772018900E+02 0.  0.
         13    1    3    3    0    0 -0.38346317261E+03  0.31204542089E+03 -0.34225311297E+02  0.49556807946E+03  0.00000000000E+00 0. -1.
        -13    1    3    3    0    0 -0.39810320408E+03  0.44355529163E+03  0.21274895357E+00  0.59600965017E+03  0.00000000000E+00 0.  1.
         22    1    1    2    0    0  0.78156637669E+03 -0.75560071252E+03  0.72695665043E+03  0.13077631320E+04  0.00000000000E+00 0. -1.
<mgrwt>
<rscale>  0 0.22970993E+04</rscale>
<asrwt>0</asrwt>
<pdfrwt beam="1">  1        2 0.23786807E+00 0.22970993E+04</pdfrwt>
<pdfrwt beam="2">  1       -2 0.13126129E+00 0.22970993E+04</pdfrwt>
<totfact> 0.45954125E+00</totfact>
</mgrwt>
</event>
<event>
 6    1  0.1934315E-005  0.5096508E+03  0.7818608E-02  0.1011290E+00
          2   -1    0    0  501    0  0.00000000000E+00  0.00000000000E+00  0.57073282834E+03  0.57073282834E+03  0.00000000000E+00 0.  1.
         -2   -1    0    0    0  501 -0.00000000000E+00 -0.00000000000E+00 -0.11377648594E+03  0.11377648594E+03  0.00000000000E+00 0. -1.
         23    2    1    2    0    0 -0.12149585198E+03  0.19277945062E+03  0.36560756545E+03  0.43901031696E+03  0.84474894815E+02 0.  0.
         11    1    3    3    0    0 -0.80951683527E+02  0.10589033165E+03  0.13715573123E+03  0.19125279609E+03  0.00000000000E+00 0. -1.
        -11    1    3    3    0    0 -0.40544168458E+02  0.86889118976E+02  0.22845183422E+03  0.24775752087E+03  0.00000000000E+00 0.  1.
         22    1    1    2    0    0  0.12149585198E+03 -0.19277945062E+03  0.91348776951E+02  0.24549899731E+03  0.00000000000E+00 0. -1.
<mgrwt>
<rscale>  0 0.50965077E+03</rscale>
<asrwt>0</asrwt>
<pdfrwt beam="1">  1        2 0.87805049E-01 0.50965077E+03</pdfrwt>
<pdfrwt beam="2">  1       -2 0.17504075E-01 0.50965077E+03</pdfrwt>
<totfact> 0.14179470E+03</totfact>
</mgrwt>
</event>
<event>
 6    1  0.1934315E-005  0.2194165E+04  0.7818608E-02  0.8520861E-01
          2   -1    0    0  501    0  0.00000000000E+00  0.00000000000E+00  0.28463537726E+04  0.28463537726E+04  0.00000000000E+00 0.  1.
         -2   -1    0    0    0  501 -0.00000000000E+00 -0.00000000000E+00 -0.42285330439E+03  0.42285330439E+03  0.00000000000E+00 0. -1.
         23    2    1    2    0    0  0.18981909355E+03 -0.10783896615E+04  0.12425631381E+04  0.16587510770E+04  0.92392818943E+02 0.  0.
         13    1    3    3    0    0  0.12716503902E+03 -0.68548456084E+03  0.72352482069E+03  0.10047627563E+04  0.00000000000E+00 0.  1.
        -13    1    3    3    0    0  0.62654054529E+02 -0.39290510065E+03  0.51903831741E+03  0.65398832069E+03  0.00000000000E+00 0. -1.
         22    1    1    2    0    0 -0.18981909355E+03  0.10783896615E+04  0.11809373302E+04  0.16104560000E+04  0.00000000000E+00 0. -1.
<mgrwt>
<rscale>  0 0.21941651E+04</rscale>
<asrwt>0</asrwt>
<pdfrwt beam="1">  1        2 0.43790057E+00 0.21941651E+04</pdfrwt>
<pdfrwt beam="2">  1       -2 0.65054356E-01 0.21941651E+04</pdfrwt>
<totfact> 0.43222236E+00</totfact>
</mgrwt>
</event>
<event>
 6    1  0.1934315E-005  0.4074737E+04  0.7818608E-02  0.7989637E-01
          2   -1    0    0  501    0  0.00000000000E+00  0.00000000000E+00  0.39056878783E+04  0.39056878783E+04  0.00000000000E+00 0.  1.
         -2   -1    0    0    0  501 -0.00000000000E+00 -0.00000000000E+00 -0.10627759308E+04  0.10627759308E+04  0.00000000000E+00 0. -1.
         23    2    1    2    0    0 -0.15387047097E+04  0.13302308826E+04  0.13032905785E+04  0.24174717777E+04  0.92071055411E+02 0.  0.
         13    1    3    3    0    0 -0.74143597662E+03  0.70038860520E+03  0.64104611948E+03  0.12046624561E+04  0.00000000000E+00 0. -1.
        -13    1    3    3    0    0 -0.79726873311E+03  0.62984227740E+03  0.66224445901E+03  0.12128093216E+04  0.00000000000E+00 0.  1.
         22    1    1    2    0    0  0.15387047097E+04 -0.13302308826E+04  0.15396213690E+04  0.25509920315E+04  0.00000000000E+00 0.  1.
<mgrwt>
<rscale>  0 0.40747373E+04</rscale>
<asrwt>0</asrwt>
<pdfrwt beam="1">  1        2 0.60087505E+00 0.40747373E+04</pdfrwt>
<pdfrwt beam="2">  1       -2 0.16350399E+00 0.40747373E+04</pdfrwt>
<totfact> 0.75486081E-02</totfact>
</mgrwt>
</event>
<event>
 6    1  0.1934315E-005  0.1053580E+04  0.7818608E-02  0.9251655E-01
         -2   -1    0    0    0  501 -0.00000000000E+00  0.00000000000E+00  0.87633585084E+03  0.87633585084E+03  0.00000000000E+00 0. -1.
          2   -1    0    0  501    0  0.00000000000E+00 -0.00000000000E+00 -0.31666837856E+03  0.31666837856E+03  0.00000000000E+00 0.  1.
         23    2    1    2    0    0  0.32404486471E+03 -0.40890230215E+03  0.24653035985E+03  0.58451345853E+03  0.93126783618E+02 0.  0.
         13    1    3    3    0    0  0.17027691714E+03 -0.17623879657E+03  0.15937724189E+03  0.29232763667E+03  0.00000000000E+00 0. -1.
        -13    1    3    3    0    0  0.15376794757E+03 -0.23266350557E+03  0.87153117964E+02  0.29218582186E+03  0.00000000000E+00 0.  1.
         22    1    1    2    0    0 -0.32404486471E+03  0.40890230215E+03  0.31313711243E+03  0.60849077086E+03  0.00000000000E+00 0.  1.
<mgrwt>
<rscale>  0 0.10535803E+04</rscale>
<asrwt>0</asrwt>
<pdfrwt beam="1">  1        2 0.48718212E-01 0.10535803E+04</pdfrwt>
<pdfrwt beam="2">  1       -2 0.13482090E+00 0.10535803E+04</pdfrwt>
<totfact> 0.40698157E+01</totfact>
</mgrwt>
</event>
<event>
 6    1  0.1934315E-005  0.3074844E+04  0.7818608E-02  0.8222676E-01
         -2   -1    0    0    0  501 -0.00000000000E+00  0.00000000000E+00  0.10031298799E+04  0.10031298799E+04  0.00000000000E+00 0. -1.
          2   -1    0    0  501    0  0.00000000000E+00 -0.00000000000E+00 -0.23562912787E+04  0.23562912787E+04  0.00000000000E+00 0.  1.
         23    2    1    2    0    0  0.13582796993E+03  0.14579683487E+04 -0.11856074146E+04  0.18855842338E+04  0.75113368338E+02 0.  0.
         11    1    3    3    0    0  0.13373001737E+03  0.12352308445E+04 -0.10299473157E+04  0.16138371757E+04  0.00000000000E+00 0.  1.
        -11    1    3    3    0    0  0.20979525665E+01  0.22273750423E+03 -0.15566009892E+03  0.27174705811E+03  0.00000000000E+00 0. -1.
         22    1    1    2    0    0 -0.13582796993E+03 -0.14579683487E+04 -0.16755398422E+03  0.14738369248E+04  0.00000000000E+00 0. -1.
<mgrwt>
<rscale>  0 0.30748439E+04</rscale>
<asrwt>0</asrwt>
<pdfrwt beam="1">  1        2 0.36250634E+00 0.30748439E+04</pdfrwt>
<pdfrwt beam="2">  1       -2 0.15432768E+00 0.30748439E+04</pdfrwt>
<totfact> 0.99496622E-01</totfact>
</mgrwt>
</event>
<event>
 6    1  0.1934315E-005  0.2671490E+04  0.7818608E-02  0.8344315E-01
         -1   -1    0    0    0  501 -0.00000000000E+00  0.00000000000E+00  0.18533292667E+04  0.18533292667E+04  0.00000000000E+00 0. -1.
          1   -1    0    0  501    0  0.00000000000E+00 -0.00000000000E+00 -0.96270819044E+03  0.96270819044E+03  0.00000000000E+00 0.  1.
         23    2    1    2    0    0 -0.69402377989E+03 -0.94213924795E+03 -0.23009110756E+03  0.11957624285E+04  0.87238168291E+02 0.  0.
         11    1    3    3    0    0 -0.28938305565E+03 -0.45158965371E+03 -0.13176453156E+03  0.55230214558E+03  0.00000000000E+00 0. -1.
        -11    1    3    3    0    0 -0.40464072424E+03 -0.49054959424E+03 -0.98326575994E+02  0.64346028290E+03  0.00000000000E+00 0.  1.
         22    1    1    2    0    0  0.69402377989E+03  0.94213924795E+03  0.11207121839E+04  0.16202750287E+04  0.00000000000E+00 0. -1.
<mgrwt>
<rscale>  0 0.26714904E+04</rscale>
<asrwt>0</asrwt>
<pdfrwt beam="1">  1        1 0.14810895E+00 0.26714904E+04</pdfrwt>
<pdfrwt beam="2">  1       -1 0.28512758E+00 0.26714904E+04</pdfrwt>
<totfact> 0.58434139E-01</totfact>
</mgrwt>
</event>
<event>
 6    1  0.1934315E-005  0.1722129E+04  0.7818608E-02  0.8748843E-01
          2   -1    0    0  501    0  0.00000000000E+00  0.00000000000E+00  0.29572185244E+04  0.29572185244E+04  0.00000000000E+00 0.  1.
         -2   -1    0    0    0  501 -0.00000000000E+00 -0.00000000000E+00 -0.25071939217E+03  0.25071939217E+03  0.00000000000E+00 0. -1.
         23    2    1    2    0    0 -0.22547542908E+02  0.51706715498E+03  0.77836515495E+02  0.52880858280E+03  0.75585445987E+02 0.  0.
         11    1    3    3    0    0 -0.41812185256E+02  0.46404605675E+03  0.77917010701E+02  0.47239608612E+03  0.00000000000E+00 0. -1.
        -11    1    3    3    0    0  0.19264642348E+02  0.53021098232E+02 -0.80495206354E-01  0.56412496683E+02  0.00000000000E+00 0.  1.
         22    1    1    2    0    0  0.22547542908E+02 -0.51706715498E+03  0.26286626167E+04  0.26791293338E+04  0.00000000000E+00 0.  1.
<mgrwt>
<rscale>  0 0.17221290E+04</rscale>
<asrwt>0</asrwt>
<pdfrwt beam="1">  1        2 0.45495667E+00 0.17221290E+04</pdfrwt>
<pdfrwt beam="2">  1       -2 0.38572216E-01 0.17221290E+04</pdfrwt>
<totfact> 0.11216463E+01</totfact>
</mgrwt>
</event>
<event>
 6    1  0.1934315E-005  0.2418454E+04  0.7818608E-02  0.8432627E-01
         -2   -1    0    0    0  501 -0.00000000000E+00  0.00000000000E+00  0.94711624251E+03  0.94711624251E+03  0.00000000000E+00 0. -1.
          2   -1    0    0  501    0  0.00000000000E+00 -0.00000000000E+00 -0.15438763845E+04  0.15438763845E+04  0.00000000000E+00 0.  1.
         23    2    1    2    0    0 -0.44432302963E+03 -0.10423838376E+03 -0.14502717583E+04  0.15231234859E+04  0.91259984930E+02 0.  0.
         11    1    3    3    0    0 -0.17982269224E+03 -0.98497086891E+01 -0.67273302440E+03  0.69642152431E+03  0.00000000000E+00 0. -1.
        -11    1    3    3    0    0 -0.26450033739E+03 -0.94388675075E+02 -0.77753873394E+03  0.82670196156E+03  0.00000000000E+00 0.  1.
         22    1    1    2    0    0  0.44432302963E+03  0.10423838376E+03  0.85351161631E+03  0.96786914120E+03  0.00000000000E+00 0. -1.
<mgrwt>
<rscale>  0 0.24184544E+04</rscale>
<asrwt>0</asrwt>
<pdfrwt beam="1">  1        2 0.23751944E+00 0.24184544E+04</pdfrwt>
<pdfrwt beam="2">  1       -2 0.14571019E+00 0.24184544E+04</pdfrwt>
<totfact> 0.34834134E+00</totfact>
</mgrwt>
</event>
<event>
 6    1  0.1934315E-005  0.9112461E+03  0.7818608E-02  0.9411631E-01
          2   -1    0    0  501    0  0.00000000000E+00  0.00000000000E+00  0.51416115450E+03  0.51416115450E+03  0.00000000000E+00 0.  1.
         -2   -1    0    0    0  501 -0.00000000000E+00 -0.00000000000E+00 -0.40374964603E+03  0.40374964603E+03  0.00000000000E+00 0. -1.
         23    2    1    2    0    0  0.33228848663E+03  0.26654166537E+03 -0.92953750703E+02  0.44587528665E+03  0.93296697428E+02 0.  0.
         11    1    3    3    0    0  0.31237686036E+03  0.21596281395E+03 -0.95055083155E+02  0.39147759672E+03  0.00000000000E+00 0. -1.
        -11    1    3    3    0    0  0.19911626266E+02  0.50578851426E+02  0.21013324519E+01  0.54397689934E+02  0.00000000000E+00 0.  1.
         22    1    1    2    0    0 -0.33228848663E+03 -0.26654166537E+03  0.20336525917E+03  0.47203551388E+03  0.00000000000E+00 0.  1.
<mgrwt>
<rscale>  0 0.91124614E+03</rscale>
<asrwt>0</asrwt>
<pdfrwt beam="1">  1        2 0.79101716E-01 0.91124614E+03</pdfrwt>
<pdfrwt beam="2">  1       -2 0.62115330E-01 0.91124614E+03</pdfrwt>
<totfact> 0.14390633E+02</totfact>
</mgrwt>
</event>
<event>
 6    1  0.1934315E-005  0.3402111E+04  0.7818608E-02  0.8137388E-01
          2   -1    0    0  501    0  0.00000000000E+00  0.00000000000E+00  0.12117932734E+04  0.12117932734E+04  0.00000000000E+00 0.  1.
         -2   -1    0    0    0  501 -0.00000000000E+00 -0.00000000000E+00 -0.23878572379E+04  0.23878572379E+04  0.00000000000E+00 0. -1.
         23    2    1    2    0    0 -0.79087953150E+03 -0.12009360981E+04 -0.15475182595E+04  0.21144851204E+04  0.92177089984E+02 0.  0.
         13    1    3    3    0    0 -0.58415145136E+03 -0.91530301422E+03 -0.12203691166E+04  0.16334972625E+04  0.00000000000E+00 0.  1.
        -13    1    3    3    0    0 -0.20672808015E+03 -0.28563308392E+03 -0.32714914287E+03  0.48098785788E+03  0.00000000000E+00 0. -1.
         22    1    1    2    0    0  0.79087953150E+03  0.12009360981E+04  0.37145429492E+03  0.14851653909E+04  0.00000000000E+00 0.  1.
<mgrwt>
<rscale>  0 0.34021107E+04</rscale>
<asrwt>0</asrwt>
<pdfrwt beam="1">  1        2 0.18642974E+00 0.34021107E+04</pdfrwt>
<pdfrwt beam="2">  1       -2 0.36736265E+00 0.34021107E+04</pdfrwt>
<totfact> 0.18620298E-01</totfact>
</mgrwt>
</event>
<event>
 6    1  0.1934315E-005  0.3385150E+04  0.7818608E-02  0.8141561E-01
          2   -1    0    0  501    0  0.00000000000E+00  0.00000000000E+00  0.19725537851E+04  0.19725537851E+04  0.00000000000E+00 0. -1.
         -2   -1    0    0    0  501 -0.00000000000E+00 -0.00000000000E+00 -0.14523352154E+04  0.14523352154E+04  0.00000000000E+00 0.  1.
         23    2    1    2    0    0  0.89160094168E+03 -0.12353941159E+04  0.10034511831E+04  0.18265571765E+04  0.90807386583E+02 0.  0.
         13    1    3    3    0    0  0.34681096644E+03 -0.47368945853E+03  0.33439078684E+03  0.67563062978E+03  0.00000000000E+00 0. -1.
        -13    1    3    3    0    0  0.54478997524E+03 -0.76170465737E+03  0.66906039624E+03  0.11509265467E+04  0.00000000000E+00 0.  1.
         22    1    1    2    0    0 -0.89160094168E+03  0.12353941159E+04 -0.48323261347E+03  0.15983318240E+04  0.00000000000E+00 0.  1.
<mgrwt>
<rscale>  0 0.33851495E+04</rscale>
<asrwt>0</asrwt>
<pdfrwt beam="1">  1        2 0.30346981E+00 0.33851495E+04</pdfrwt>
<pdfrwt beam="2">  1       -2 0.22343619E+00 0.33851495E+04</pdfrwt>
<totfact> 0.53966715E-01</totfact>
</mgrwt>
</event>
<event>
 6    1  0.1934315E-005  0.1563491E+04  0.7818608E-02  0.8843296E-01
          2   -1    0    0  501    0  0.00000000000E+00  0.00000000000E+00  0.43208566666E+03  0.43208566666E+03  0.00000000000E+00 0.  1.
         -2   -1    0    0    0  501 -0.00000000000E+00 -0.00000000000E+00 -0.14143633778E+04  0.14143633778E+04  0.00000000000E+00 0. -1.
         23    2    1    2    0    0  0.56617695694E+03  0.46041619642E+03 -0.17080274298E+03  0.75510535686E+03  0.92038592154E+02 0.  0.
         13    1    3    3    0    0  0.19158405860E+03  0.11275917981E+03 -0.25336110225E+02  0.22374316218E+03  0.00000000000E+00 0.  1.
        -13    1    3    3    0    0  0.37459289834E+03  0.34765701661E+03 -0.14546663275E+03  0.53136219467E+03  0.00000000000E+00 0. -1.
         22    1    1    2    0    0 -0.56617695694E+03 -0.46041619642E+03 -0.81147496815E+03  0.10913436876E+04  0.00000000000E+00 0. -1.
<mgrwt>
<rscale>  0 0.15634911E+04</rscale>
<asrwt>0</asrwt>
<pdfrwt beam="1">  1        2 0.66474719E-01 0.15634911E+04</pdfrwt>
<pdfrwt beam="2">  1       -2 0.21759436E+00 0.15634911E+04</pdfrwt>
<totfact> 0.71667074E+00</totfact>
</mgrwt>
</event>
<event>
 6    1  0.1934315E-005  0.2416373E+04  0.7818608E-02  0.8433399E-01
          2   -1    0    0  501    0  0.00000000000E+00  0.00000000000E+00  0.25441302399E+04  0.25441302399E+04  0.00000000000E+00 0.  1.
         -2   -1    0    0    0  501 -0.00000000000E+00 -0.00000000000E+00 -0.57375779495E+03  0.57375779495E+03  0.00000000000E+00 0. -1.
         23    2    1    2    0    0 -0.45977394063E+03  0.52638698441E+03  0.22554398114E+04  0.23630776366E+04  0.93015268337E+02 0.  0.
         13    1    3    3    0    0 -0.17721811337E+03  0.15554147923E+03  0.65694275696E+03  0.69797793474E+03  0.00000000000E+00 0.  1.
        -13    1    3    3    0    0 -0.28255582726E+03  0.37084550517E+03  0.15984970544E+04  0.16650997019E+04  0.00000000000E+00 0. -1.
         22    1    1    2    0    0  0.45977394063E+03 -0.52638698441E+03 -0.28506736645E+03  0.75481039821E+03  0.00000000000E+00 0. -1.
<mgrwt>
<rscale>  0 0.24163729E+04</rscale>
<asrwt>0</asrwt>
<pdfrwt beam="1">  1        2 0.39140464E+00 0.24163729E+04</pdfrwt>
<pdfrwt beam="2">  1       -2 0.88270432E-01 0.24163729E+04</pdfrwt>
<totfact> 0.32561681E+00</totfact>
</mgrwt>
</event>
<event>
 6    1  0.1934315E-005  0.5530460E+03  0.7818608E-02  0.1000791E+00
         -2   -1    0    0    0  501 -0.00000000000E+00  0.00000000000E+00  0.11103998217E+03  0.11103998217E+03  0.00000000000E+00 0.  1.
          2   -1    0    0  501    0  0.00000000000E+00 -0.00000000000E+00 -0.68862549823E+03  0.68862549823E+03  0.00000000000E+00 0. -1.
         23    2    1    2    0    0  0.24338626037E+03  0.10959328031E+03 -0.25017651526E+03  0.37723890379E+03  0.92050762719E+02 0.  0.
         11    1    3    3    0    0  0.11373262894E+03  0.10070066309E+03 -0.12379323048E+03  0.19596045097E+03  0.00000000000E+00 0.  1.
        -11    1    3    3    0    0  0.12965363143E+03  0.88926172211E+01 -0.12638328478E+03  0.18127845282E+03  0.00000000000E+00 0. -1.
         22    1    1    2    0    0 -0.24338626037E+03 -0.10959328031E+03 -0.32740900080E+03  0.42242657661E+03  0.00000000000E+00 0. -1.
<mgrwt>
<rscale>  0 0.55304598E+03</rscale>
<asrwt>0</asrwt>
<pdfrwt beam="1">  1        2 0.10594239E+00 0.55304598E+03</pdfrwt>
<pdfrwt beam="2">  1       -2 0.17083074E-01 0.55304598E+03</pdfrwt>
<totfact> 0.11777549E+03</totfact>
</mgrwt>
</event>
<event>
 6    1  0.1934315E-005  0.1996190E+04  0.7818608E-02  0.8608404E-01
         -2   -1    0    0    0  501 -0.00000000000E+00  0.00000000000E+00  0.12409120369E+04  0.12409120369E+04  0.00000000000E+00 0. -1.
          2   -1    0    0  501    0  0.00000000000E+00 -0.00000000000E+00 -0.80279162994E+03  0.80279162994E+03  0.00000000000E+00 0.  1.
         23    2    1    2    0    0  0.37718373824E+03 -0.78266348584E+03 -0.27914949511E+03  0.91706893594E+03  0.90891628776E+02 0.  0.
         13    1    3    3    0    0  0.19338418353E+02 -0.86840644622E+02 -0.48531613649E+02  0.10134391697E+03  0.00000000000E+00 0.  1.
        -13    1    3    3    0    0  0.35784531989E+03 -0.69582284122E+03 -0.23061788146E+03  0.81572501897E+03  0.00000000000E+00 0. -1.
         22    1    1    2    0    0 -0.37718373824E+03  0.78266348584E+03  0.71726990210E+03  0.11266347309E+04  0.00000000000E+00 0. -1.
<mgrwt>
<rscale>  0 0.19961902E+04</rscale>
<asrwt>0</asrwt>
<pdfrwt beam="1">  1        2 0.12350640E+00 0.19961902E+04</pdfrwt>
<pdfrwt beam="2">  1       -2 0.19090954E+00 0.19961902E+04</pdfrwt>
<totfact> 0.48675068E+00</totfact>
</mgrwt>
</event>
<event>
 6    1  0.1934315E-005  0.6089701E+03  0.7818608E-02  0.9886969E-01
          2   -1    0    0  501    0  0.00000000000E+00  0.00000000000E+00  0.70228560845E+03  0.70228560845E+03  0.00000000000E+00 0.  1.
         -2   -1    0    0    0  501 -0.00000000000E+00 -0.00000000000E+00 -0.13201345725E+03  0.13201345725E+03  0.00000000000E+00 0. -1.
         23    2    1    2    0    0  0.67286695923E+02  0.28525063897E+03  0.23450430624E+03  0.38861366971E+03  0.10066224795E+03 0.  0.
         13    1    3    3    0    0  0.70629012081E+02  0.89488870121E+02  0.81775432384E+02  0.14029945319E+03  0.00000000000E+00 0.  1.
        -13    1    3    3    0    0 -0.33423161583E+01  0.19576176885E+03  0.15272887385E+03  0.24831421652E+03  0.00000000000E+00 0. -1.
         22    1    1    2    0    0 -0.67286695923E+02 -0.28525063897E+03  0.33576784497E+03  0.44568539599E+03  0.00000000000E+00 0. -1.
<mgrwt>
<rscale>  0 0.60897012E+03</rscale>
<asrwt>0</asrwt>
<pdfrwt beam="1">  1        2 0.10804394E+00 0.60897012E+03</pdfrwt>
<pdfrwt beam="2">  1       -2 0.20309763E-01 0.60897012E+03</pdfrwt>
<totfact> 0.85177252E+02</totfact>
</mgrwt>
</event>
<event>
 6    1  0.1934315E-005  0.1815288E+04  0.7818608E-02  0.8698211E-01
          2   -1    0    0  501    0  0.00000000000E+00  0.00000000000E+00  0.54986828613E+03  0.54986828613E+03  0.00000000000E+00 0.  1.
         -2   -1    0    0    0  501 -0.00000000000E+00 -0.00000000000E+00 -0.14982097041E+04  0.14982097041E+04  0.00000000000E+00 0. -1.
         23    2    1    2    0    0 -0.82072289040E+03 -0.32991530464E+03 -0.25698205437E+03  0.92539907767E+03  0.88845402970E+02 0.  0.
         11    1    3    3    0    0 -0.36907031424E+03 -0.13547507831E+03 -0.15854824175E+03  0.42391501349E+03  0.00000000000E+00 0. -1.
        -11    1    3    3    0    0 -0.45165257616E+03 -0.19444022632E+03 -0.98433812614E+02  0.50148406418E+03  0.00000000000E+00 0.  1.
         22    1    1    2    0    0  0.82072289040E+03  0.32991530464E+03 -0.69135936357E+03  0.11226789125E+04  0.00000000000E+00 0.  1.
<mgrwt>
<rscale>  0 0.18152884E+04</rscale>
<asrwt>0</asrwt>
<pdfrwt beam="1">  1        2 0.84595120E-01 0.18152884E+04</pdfrwt>
<pdfrwt beam="2">  1       -2 0.23049380E+00 0.18152884E+04</pdfrwt>
<totfact> 0.44056570E+00</totfact>
</mgrwt>
</event>
<event>
 6    1  0.2280027E-005  0.3367765E+04  0.7818608E-02  0.8145863E-01
          2   -1    0    0  501    0  0.00000000000E+00  0.00000000000E+00  0.21750231140E+04  0.21750231140E+04  0.00000000000E+00 0.  1.
         -2   -1    0    0    0  501 -0.00000000000E+00 -0.00000000000E+00 -0.13036459886E+04  0.13036459886E+04  0.00000000000E+00 0. -1.
         23    2    1    2    0    0  0.36740475291E+03  0.12350850597E+04 -0.68123722600E+03  0.14609890780E+04  0.99917820704E+02 0.  0.
         11    1    3    3    0    0  0.18600879939E+03  0.79212824891E+03 -0.43798103247E+03  0.92406375374E+03  0.00000000000E+00 0.  1.
        -11    1    3    3    0    0  0.18139595352E+03  0.44295681079E+03 -0.24325619353E+03  0.53692532430E+03  0.00000000000E+00 0. -1.
         22    1    1    2    0    0 -0.36740475291E+03 -0.12350850597E+04  0.15526143514E+04  0.20176800245E+04  0.00000000000E+00 0.  1.
<mgrwt>
<rscale>  0 0.33677649E+04</rscale>
<asrwt>0</asrwt>
<pdfrwt beam="1">  1        2 0.33461894E+00 0.33677649E+04</pdfrwt>
<pdfrwt beam="2">  1       -2 0.20056092E+00 0.33677649E+04</pdfrwt>
<totfact> 0.58424864E-01</totfact>
</mgrwt>
</event>
<event>
 6    1  0.1934315E-005  0.3042301E+04  0.7818608E-02  0.8231754E-01
          2   -1    0    0  501    0  0.00000000000E+00  0.00000000000E+00  0.65541346127E+03  0.65541346127E+03  0.00000000000E+00 0.  1.
         -2   -1    0    0    0  501 -0.00000000000E+00 -0.00000000000E+00 -0.35304407102E+04  0.35304407102E+04  0.00000000000E+00 0. -1.
         23    2    1    2    0    0 -0.33469773288E+03  0.14714017056E+04 -0.16887835721E+04  0.22664220647E+04  0.87369732870E+02 0.  0.
         11    1    3    3    0    0 -0.15232440827E+03  0.78255995133E+03 -0.83809544585E+03  0.11567224296E+04  0.00000000000E+00 0. -1.
        -11    1    3    3    0    0 -0.18237332461E+03  0.68884175430E+03 -0.85068812622E+03  0.11096996351E+04  0.00000000000E+00 0.  1.
         22    1    1    2    0    0  0.33469773288E+03 -0.14714017056E+04 -0.11862436769E+04  0.19194321068E+04  0.00000000000E+00 0.  1.
<mgrwt>
<rscale>  0 0.30423007E+04</rscale>
<asrwt>0</asrwt>
<pdfrwt beam="1">  1        2 0.10083284E+00 0.30423007E+04</pdfrwt>
<pdfrwt beam="2">  1       -2 0.54314472E+00 0.30423007E+04</pdfrwt>
<totfact> 0.34967516E-02</totfact>
</mgrwt>
</event>
<event>
 6    1  0.1934315E-005  0.4026648E+04  0.7818608E-02  0.7999192E-01
         -2   -1    0    0    0  501 -0.00000000000E+00  0.00000000000E+00  0.18853751180E+04  0.18853751180E+04  0.00000000000E+00 0. -1.
          2   -1    0    0  501    0  0.00000000000E+00 -0.00000000000E+00 -0.21499563087E+04  0.21499563087E+04  0.00000000000E+00 0.  1.
         23    2    1    2    0    0 -0.90826449829E+03 -0.15724027316E+04 -0.10016439936E+04  0.20755721750E+04  0.85524351395E+02 0.  0.
         13    1    3    3    0    0 -0.11406814205E+03 -0.23344352926E+03 -0.17110861073E+03  0.31110380751E+03  0.00000000000E+00 0. -1.
        -13    1    3    3    0    0 -0.79419635623E+03 -0.13389592023E+04 -0.83053538291E+03  0.17644683675E+04  0.00000000000E+00 0.  1.
         22    1    1    2    0    0  0.90826449829E+03  0.15724027316E+04  0.73706280285E+03  0.19597592517E+04  0.00000000000E+00 0. -1.
<mgrwt>
<rscale>  0 0.40266483E+04</rscale>
<asrwt>0</asrwt>
<pdfrwt beam="1">  1        2 0.33076251E+00 0.40266483E+04</pdfrwt>
<pdfrwt beam="2">  1       -2 0.29005771E+00 0.40266483E+04</pdfrwt>
<totfact> 0.15856302E-01</totfact>
</mgrwt>
</event>
<event>
 6    1  0.1934315E-005  0.3068726E+04  0.7818608E-02  0.8224374E-01
          2   -1    0    0  501    0  0.00000000000E+00  0.00000000000E+00  0.19444122975E+04  0.19444122975E+04  0.00000000000E+00 0.  1.
         -2   -1    0    0    0  501 -0.00000000000E+00 -0.00000000000E+00 -0.12107872346E+04  0.12107872346E+04  0.00000000000E+00 0. -1.
         23    2    1    2    0    0 -0.10883736013E+04 -0.66541738185E+03  0.12411713065E+04  0.17822681510E+04  0.92930953773E+02 0.  0.
         13    1    3    3    0    0 -0.39546626799E+03 -0.19015678333E+03  0.42264697560E+03  0.60924842006E+03  0.00000000000E+00 0. -1.
        -13    1    3    3    0    0 -0.69290733328E+03 -0.47526059852E+03  0.81852433085E+03  0.11730197310E+04  0.00000000000E+00 0.  1.
         22    1    1    2    0    0  0.10883736013E+04  0.66541738185E+03 -0.50754624353E+03  0.13729313811E+04  0.00000000000E+00 0. -1.
<mgrwt>
<rscale>  0 0.30687259E+04</rscale>
<asrwt>0</asrwt>
<pdfrwt beam="1">  1        2 0.29914035E+00 0.30687259E+04</pdfrwt>
<pdfrwt beam="2">  1       -2 0.18627496E+00 0.30687259E+04</pdfrwt>
<totfact> 0.10030557E+00</totfact>
</mgrwt>
</event>
<event>
 6    1  0.1934315E-005  0.5673794E+03  0.7818608E-02  0.9975495E-01
          2   -1    0    0  501    0  0.00000000000E+00  0.00000000000E+00  0.16025226857E+04  0.16025226857E+04  0.00000000000E+00 0.  1.
         -2   -1    0    0    0  501 -0.00000000000E+00 -0.00000000000E+00 -0.50220713874E+02  0.50220713874E+02  0.00000000000E+00 0. -1.
         23    2    1    2    0    0  0.20116862721E+03 -0.15567630811E+03  0.11099986893E+04  0.11425119587E+04  0.92371836323E+02 0.  0.
         13    1    3    3    0    0  0.44990241613E+02 -0.19515183186E+02  0.39698780574E+03  0.40000535262E+03  0.00000000000E+00 0.  1.
        -13    1    3    3    0    0  0.15617838559E+03 -0.13616112493E+03  0.71301088352E+03  0.74250660609E+03  0.00000000000E+00 0. -1.
         22    1    1    2    0    0 -0.20116862721E+03  0.15567630811E+03  0.44230328256E+03  0.51023144086E+03  0.00000000000E+00 0. -1.
<mgrwt>
<rscale>  0 0.56737936E+03</rscale>
<asrwt>0</asrwt>
<pdfrwt beam="1">  1        2 0.24654191E+00 0.56737936E+03</pdfrwt>
<pdfrwt beam="2">  1       -2 0.77262649E-02 0.56737936E+03</pdfrwt>
<totfact> 0.11820214E+03</totfact>
</mgrwt>
</event>
<event>
 6    1  0.1934315E-005  0.1815108E+04  0.7818608E-02  0.8698306E-01
          2   -1    0    0  501    0  0.00000000000E+00  0.00000000000E+00  0.63699505110E+03  0.63699505110E+03  0.00000000000E+00 0.  1.
         -2   -1    0    0    0  501 -0.00000000000E+00 -0.00000000000E+00 -0.12930306055E+04  0.12930306055E+04  0.00000000000E+00 0. -1.
         23    2    1    2    0    0 -0.67882483223E+03  0.30439742713E+03  0.21998438650E+03  0.78073375140E+03  0.87698995279E+02 0.  0.
         13    1    3    3    0    0 -0.10549432253E+03  0.14127644557E+02  0.34142021597E+02  0.11177799455E+03  0.00000000000E+00 0. -1.
        -13    1    3    3    0    0 -0.57333050970E+03  0.29026978257E+03  0.18584236490E+03  0.66895575684E+03  0.00000000000E+00 0.  1.
         22    1    1    2    0    0  0.67882483223E+03 -0.30439742713E+03 -0.87601994092E+03  0.11492919052E+04  0.00000000000E+00 0. -1.
<mgrwt>
<rscale>  0 0.18151078E+04</rscale>
<asrwt>0</asrwt>
<pdfrwt beam="1">  1        2 0.97999240E-01 0.18151078E+04</pdfrwt>
<pdfrwt beam="2">  1       -2 0.19892778E+00 0.18151078E+04</pdfrwt>
<totfact> 0.58713505E+00</totfact>
</mgrwt>
</event>
<event>
 6    1  0.1934315E-005  0.2100560E+04  0.7818608E-02  0.8560997E-01
          2   -1    0    0  501    0  0.00000000000E+00  0.00000000000E+00  0.30791039707E+04  0.30791039707E+04  0.00000000000E+00 0.  1.
         -2   -1    0    0    0  501 -0.00000000000E+00 -0.00000000000E+00 -0.35824970839E+03  0.35824970839E+03  0.00000000000E+00 0. -1.
         23    2    1    2    0    0 -0.18459862112E+03 -0.60422800911E+03 -0.61434857332E+01  0.63812434663E+03  0.89424836724E+02 0.  0.
         11    1    3    3    0    0 -0.39000766852E+02 -0.25894484377E+03 -0.24077114742E+02  0.26296995910E+03  0.00000000000E+00 0. -1.
        -11    1    3    3    0    0 -0.14559785426E+03 -0.34528316534E+03  0.17933629009E+02  0.37515438753E+03  0.00000000000E+00 0.  1.
         22    1    1    2    0    0  0.18459862112E+03  0.60422800911E+03  0.27269977481E+04  0.27992293325E+04  0.00000000000E+00 0.  1.
<mgrwt>
<rscale>  0 0.21005600E+04</rscale>
<asrwt>0</asrwt>
<pdfrwt beam="1">  1        2 0.47370828E+00 0.21005600E+04</pdfrwt>
<pdfrwt beam="2">  1       -2 0.55115342E-01 0.21005600E+04</pdfrwt>
<totfact> 0.44358759E+00</totfact>
</mgrwt>
</event>
<event>
 6    1  0.1934315E-005  0.2287517E+04  0.7818608E-02  0.8482859E-01
         -2   -1    0    0    0  501 -0.00000000000E+00  0.00000000000E+00  0.36158769386E+03  0.36158769386E+03  0.00000000000E+00 0. -1.
          2   -1    0    0  501    0  0.00000000000E+00 -0.00000000000E+00 -0.36178876139E+04  0.36178876139E+04  0.00000000000E+00 0.  1.
         23    2    1    2    0    0 -0.24164753908E+03  0.96263781590E+03 -0.26124343188E+04  0.27964165560E+04  0.10033636791E+03 0.  0.
         11    1    3    3    0    0 -0.86279663515E+02  0.26527226975E+03 -0.85293581869E+03  0.89739237140E+03  0.00000000000E+00 0. -1.
        -11    1    3    3    0    0 -0.15536787556E+03  0.69736554616E+03 -0.17594985001E+04  0.18990241846E+04  0.00000000000E+00 0.  1.
         22    1    1    2    0    0  0.24164753908E+03 -0.96263781590E+03 -0.64386560126E+03  0.11830587518E+04  0.00000000000E+00 0. -1.
<mgrwt>
<rscale>  0 0.22875171E+04</rscale>
<asrwt>0</asrwt>
<pdfrwt beam="1">  1        2 0.55659812E+00 0.22875171E+04</pdfrwt>
<pdfrwt beam="2">  1       -2 0.55628874E-01 0.22875171E+04</pdfrwt>
<totfact> 0.18530148E+00</totfact>
</mgrwt>
</event>
<event>
 6    1  0.1934315E-005  0.1650232E+04  0.7818608E-02  0.8790269E-01
          2   -1    0    0  501    0  0.00000000000E+00  0.00000000000E+00  0.99738531820E+03  0.99738531820E+03  0.00000000000E+00 0.  1.
         -2   -1    0    0    0  501 -0.00000000000E+00 -0.00000000000E+00 -0.68260083745E+03  0.68260083745E+03  0.00000000000E+00 0. -1.
         23    2    1    2    0    0  0.14743627915E+03 -0.41946342040E+02  0.98024721517E+03  0.99709699706E+03  0.99100285961E+02 0.  0.
         11    1    3    3    0    0  0.12400603069E+03  0.99986125186E+01  0.72170142238E+03  0.73234582744E+03  0.00000000000E+00 0.  1.
        -11    1    3    3    0    0  0.23430248457E+02 -0.51944954558E+02  0.25854579278E+03  0.26475116962E+03  0.00000000000E+00 0. -1.
         22    1    1    2    0    0 -0.14743627915E+03  0.41946342040E+02 -0.66546273442E+03  0.68288915859E+03  0.00000000000E+00 0. -1.
<mgrwt>
<rscale>  0 0.16502316E+04</rscale>
<asrwt>0</asrwt>
<pdfrwt beam="1">  1        2 0.15344390E+00 0.16502316E+04</pdfrwt>
<pdfrwt beam="2">  1       -2 0.10501551E+00 0.16502316E+04</pdfrwt>
<totfact> 0.17752152E+01</totfact>
</mgrwt>
</event>
<event>
 6    1  0.1934315E-005  0.1790995E+04  0.7818608E-02  0.8711103E-01
         -2   -1    0    0    0  501 -0.00000000000E+00  0.00000000000E+00  0.29343018677E+03  0.29343018677E+03  0.00000000000E+00 0. -1.
          2   -1    0    0  501    0  0.00000000000E+00 -0.00000000000E+00 -0.27329009727E+04  0.27329009727E+04  0.00000000000E+00 0.  1.
         23    2    1    2    0    0 -0.67593557887E+03 -0.58371707013E+03 -0.12471447238E+04  0.15366144203E+04  0.90550480918E+02 0.  0.
         13    1    3    3    0    0 -0.27464596750E+03 -0.24066383795E+03 -0.43499711988E+03  0.56795421001E+03  0.00000000000E+00 0.  1.
        -13    1    3    3    0    0 -0.40128961137E+03 -0.34305323218E+03 -0.81214760396E+03  0.96866021024E+03  0.00000000000E+00 0. -1.
         22    1    1    2    0    0  0.67593557887E+03  0.58371707013E+03 -0.11923260621E+04  0.14897167392E+04  0.00000000000E+00 0. -1.
<mgrwt>
<rscale>  0 0.17909949E+04</rscale>
<asrwt>0</asrwt>
<pdfrwt beam="1">  1        2 0.42044629E+00 0.17909949E+04</pdfrwt>
<pdfrwt beam="2">  1       -2 0.45143107E-01 0.17909949E+04</pdfrwt>
<totfact> 0.11183374E+01</totfact>
</mgrwt>
</event>
<event>
 6    1  0.1934315E-005  0.2534962E+04  0.7818608E-02  0.8390635E-01
         -2   -1    0    0    0  501 -0.00000000000E+00  0.00000000000E+00  0.57828995533E+03  0.57828995533E+03  0.00000000000E+00 0. -1.
          2   -1    0    0  501    0  0.00000000000E+00 -0.00000000000E+00 -0.27780326547E+04  0.27780326547E+04  0.00000000000E+00 0.  1.
         23    2    1    2    0    0 -0.69157719578E+03  0.10052412921E+04 -0.15475162273E+04  0.19727806179E+04  0.90927549775E+02 0.  0.
         11    1    3    3    0    0 -0.59469678062E+03  0.82454422421E+03 -0.12452873087E+04  0.16075689471E+04  0.00000000000E+00 0.  1.
        -11    1    3    3    0    0 -0.96880415158E+02  0.18069706792E+03 -0.30222891867E+03  0.36521167079E+03  0.00000000000E+00 0. -1.
         22    1    1    2    0    0  0.69157719578E+03 -0.10052412921E+04 -0.65222647200E+03  0.13835419921E+04  0.00000000000E+00 0. -1.
<mgrwt>
<rscale>  0 0.25349622E+04</rscale>
<asrwt>0</asrwt>
<pdfrwt beam="1">  1        2 0.42738964E+00 0.25349622E+04</pdfrwt>
<pdfrwt beam="2">  1       -2 0.88967685E-01 0.25349622E+04</pdfrwt>
<totfact> 0.23009303E+00</totfact>
</mgrwt>
</event>
<event>
 6    1  0.1934315E-005  0.3498917E+04  0.7818608E-02  0.8114047E-01
          1   -1    0    0  501    0  0.00000000000E+00  0.00000000000E+00  0.35902148938E+04  0.35902148938E+04  0.00000000000E+00 0.  1.
         -1   -1    0    0    0  501 -0.00000000000E+00 -0.00000000000E+00 -0.85248532787E+03  0.85248532787E+03  0.00000000000E+00 0. -1.
         23    2    1    2    0    0  0.82363674694E+03  0.15354144912E+04  0.15517251206E+04  0.23349806732E+04  0.91699201256E+02 0.  0.
         11    1    3    3    0    0  0.33857836974E+03  0.54335896211E+03  0.58982683770E+03  0.87049984069E+03  0.00000000000E+00 0.  1.
        -11    1    3    3    0    0  0.48505837721E+03  0.99205552909E+03  0.96189828286E+03  0.14644808325E+04  0.00000000000E+00 0. -1.
         22    1    1    2    0    0 -0.82363674694E+03 -0.15354144912E+04  0.11860044453E+04  0.21077195485E+04  0.00000000000E+00 0. -1.
<mgrwt>
<rscale>  0 0.34989173E+04</rscale>
<asrwt>0</asrwt>
<pdfrwt beam="1">  1        1 0.55234074E+00 0.34989173E+04</pdfrwt>
<pdfrwt beam="2">  1       -1 0.13115159E+00 0.34989173E+04</pdfrwt>
<totfact> 0.85566778E-02</totfact>
</mgrwt>
</event>
<event>
 6    1  0.1934315E-005  0.3257850E+04  0.7818608E-02  0.8173704E-01
          2   -1    0    0  501    0  0.00000000000E+00  0.00000000000E+00  0.34012420272E+04  0.34012420272E+04  0.00000000000E+00 0.  1.
         -2   -1    0    0    0  501 -0.00000000000E+00 -0.00000000000E+00 -0.78012589254E+03  0.78012589254E+03  0.00000000000E+00 0. -1.
         23    2    1    2    0    0  0.79565027047E+03  0.11575062421E+01  0.31339194504E+04  0.32347803996E+04  0.96397196713E+02 0.  0.
         11    1    3    3    0    0  0.40035826254E+03  0.48713855613E+02  0.15872580144E+04  0.16376958760E+04  0.00000000000E+00 0.  1.
        -11    1    3    3    0    0  0.39529200794E+03 -0.47556349371E+02  0.15466614360E+04  0.15970845236E+04  0.00000000000E+00 0. -1.
         22    1    1    2    0    0 -0.79565027047E+03 -0.11575062421E+01 -0.51280331570E+03  0.94658752016E+03  0.00000000000E+00 0. -1.
<mgrwt>
<rscale>  0 0.32578502E+04</rscale>
<asrwt>0</asrwt>
<pdfrwt beam="1">  1        2 0.52326800E+00 0.32578502E+04</pdfrwt>
<pdfrwt beam="2">  1       -2 0.12001937E+00 0.32578502E+04</pdfrwt>
<totfact> 0.42275892E-01</totfact>
</mgrwt>
</event>
<event>
 6    1  0.1934315E-005  0.1459037E+04  0.7818608E-02  0.8912159E-01
          2   -1    0    0  501    0  0.00000000000E+00  0.00000000000E+00  0.66131745630E+03  0.66131745630E+03  0.00000000000E+00 0.  1.
         -2   -1    0    0    0  501 -0.00000000000E+00 -0.00000000000E+00 -0.80475353469E+03  0.80475353469E+03  0.00000000000E+00 0. -1.
         23    2    1    2    0    0  0.49904039445E+03 -0.35344155148E+03 -0.46658565001E+03  0.77441508577E+03  0.89745811409E+02 0.  0.
         11    1    3    3    0    0  0.15048242752E+03 -0.58949376366E+02 -0.12955190799E+03  0.20713205167E+03  0.00000000000E+00 0. -1.
        -11    1    3    3    0    0  0.34855796693E+03 -0.29449217511E+03 -0.33703374202E+03  0.56728303410E+03  0.00000000000E+00 0.  1.
         22    1    1    2    0    0 -0.49904039445E+03  0.35344155148E+03  0.32314957162E+03  0.69165590523E+03  0.00000000000E+00 0. -1.
<mgrwt>
<rscale>  0 0.14590374E+04</rscale>
<asrwt>0</asrwt>
<pdfrwt beam="1">  1        2 0.10174115E+00 0.14590374E+04</pdfrwt>
<pdfrwt beam="2">  1       -2 0.12380824E+00 0.14590374E+04</pdfrwt>
<totfact> 0.20942555E+01</totfact>
</mgrwt>
</event>
<event>
 6    1  0.1934315E-005  0.1462150E+04  0.7818608E-02  0.8910020E-01
         -2   -1    0    0    0  501 -0.00000000000E+00  0.00000000000E+00  0.97535818725E+03  0.97535818725E+03  0.00000000000E+00 0. -1.
          2   -1    0    0  501    0  0.00000000000E+00 -0.00000000000E+00 -0.54797377887E+03  0.54797377887E+03  0.00000000000E+00 0.  1.
         23    2    1    2    0    0  0.61067416804E+03  0.23095165384E+03  0.55064048352E+03  0.85891216961E+03  0.90904164311E+02 0.  0.
         13    1    3    3    0    0  0.33526424228E+03  0.10210828987E+03  0.34540859403E+03  0.49207246605E+03  0.00000000000E+00 0. -1.
        -13    1    3    3    0    0  0.27540992576E+03  0.12884336397E+03  0.20523188949E+03  0.36683970357E+03  0.00000000000E+00 0.  1.
         22    1    1    2    0    0 -0.61067416804E+03 -0.23095165384E+03 -0.12325607514E+03  0.66441979650E+03  0.00000000000E+00 0.  1.
<mgrwt>
<rscale>  0 0.14621501E+04</rscale>
<asrwt>0</asrwt>
<pdfrwt beam="1">  1        2 0.84303658E-01 0.14621501E+04</pdfrwt>
<pdfrwt beam="2">  1       -2 0.15005511E+00 0.14621501E+04</pdfrwt>
<totfact> 0.16023134E+01</totfact>
</mgrwt>
</event>
<event>
 6    1  0.1934315E-005  0.1641345E+04  0.7818608E-02  0.8795543E-01
          2   -1    0    0  501    0  0.00000000000E+00  0.00000000000E+00  0.55367522571E+03  0.55367522571E+03  0.00000000000E+00 0.  1.
         -2   -1    0    0    0  501 -0.00000000000E+00 -0.00000000000E+00 -0.12164229037E+04  0.12164229037E+04  0.00000000000E+00 0. -1.
         23    2    1    2    0    0  0.21626660874E+03 -0.75944134243E+03 -0.10293804796E+03  0.80215741816E+03  0.96632722942E+02 0.  0.
         11    1    3    3    0    0  0.10498030627E+03 -0.52689215014E+03 -0.82454460765E+02  0.54353927244E+03  0.00000000000E+00 0.  1.
        -11    1    3    3    0    0  0.11128630247E+03 -0.23254919230E+03 -0.20483587192E+02  0.25861814573E+03  0.00000000000E+00 0. -1.
         22    1    1    2    0    0 -0.21626660874E+03  0.75944134243E+03 -0.55980963008E+03  0.96794071130E+03  0.00000000000E+00 0. -1.
<mgrwt>
<rscale>  0 0.16413448E+04</rscale>
<asrwt>0</asrwt>
<pdfrwt beam="1">  1        2 0.85180805E-01 0.16413448E+04</pdfrwt>
<pdfrwt beam="2">  1       -2 0.18714198E+00 0.16413448E+04</pdfrwt>
<totfact> 0.84512088E+00</totfact>
</mgrwt>
</event>
<event>
 6    1  0.1934315E-005  0.2147953E+04  0.7818608E-02  0.8540409E-01
         -2   -1    0    0    0  501 -0.00000000000E+00  0.00000000000E+00  0.70509947653E+03  0.70509947653E+03  0.00000000000E+00 0. -1.
          2   -1    0    0  501    0  0.00000000000E+00 -0.00000000000E+00 -0.16358333633E+04  0.16358333633E+04  0.00000000000E+00 0.  1.
         23    2    1    2    0    0  0.93919261338E+03  0.47030724904E+03 -0.23775295660E+03  0.10825631632E+04  0.11020372206E+03 0.  0.
         13    1    3    3    0    0  0.39312100328E+03  0.16413266447E+03 -0.14309090556E+03  0.44939811083E+03  0.00000000000E+00 0. -1.
        -13    1    3    3    0    0  0.54607161010E+03  0.30617458457E+03 -0.94662051036E+02  0.63316505234E+03  0.00000000000E+00 0.  1.
         22    1    1    2    0    0 -0.93919261338E+03 -0.47030724904E+03 -0.69298093016E+03  0.12583696766E+04  0.00000000000E+00 0.  1.
<mgrwt>
<rscale>  0 0.21479527E+04</rscale>
<asrwt>0</asrwt>
<pdfrwt beam="1">  1        2 0.25166667E+00 0.21479527E+04</pdfrwt>
<pdfrwt beam="2">  1       -2 0.10847684E+00 0.21479527E+04</pdfrwt>
<totfact> 0.66436574E+00</totfact>
</mgrwt>
</event>
<event>
 6    1  0.1934315E-005  0.1735033E+04  0.7818608E-02  0.8741632E-01
         -2   -1    0    0    0  501 -0.00000000000E+00  0.00000000000E+00  0.13242061722E+04  0.13242061722E+04  0.00000000000E+00 0. -1.
          2   -1    0    0  501    0  0.00000000000E+00 -0.00000000000E+00 -0.56832925706E+03  0.56832925706E+03  0.00000000000E+00 0.  1.
         23    2    1    2    0    0  0.46998585689E+03  0.34775218183E+03 -0.31734835485E+03  0.67039355296E+03  0.83061735305E+02 0.  0.
         11    1    3    3    0    0  0.31898511063E+03  0.24988210721E+03 -0.17695098887E+03  0.44215859233E+03  0.00000000000E+00 0. -1.
        -11    1    3    3    0    0  0.15100074626E+03  0.97870074625E+02 -0.14039736599E+03  0.22823496063E+03  0.00000000000E+00 0.  1.
         22    1    1    2    0    0 -0.46998585689E+03 -0.34775218183E+03  0.10732252700E+04  0.12221418763E+04  0.00000000000E+00 0. -1.
<mgrwt>
<rscale>  0 0.17350333E+04</rscale>
<asrwt>0</asrwt>
<pdfrwt beam="1">  1        2 0.87435271E-01 0.17350333E+04</pdfrwt>
<pdfrwt beam="2">  1       -2 0.20372403E+00 0.17350333E+04</pdfrwt>
<totfact> 0.63116905E+00</totfact>
</mgrwt>
</event>
<event>
 6    1  0.1934315E-005  0.9622354E+03  0.7818608E-02  0.9350962E-01
          2   -1    0    0  501    0  0.00000000000E+00  0.00000000000E+00  0.11100349873E+04  0.11100349873E+04  0.00000000000E+00 0.  1.
         -2   -1    0    0    0  501 -0.00000000000E+00 -0.00000000000E+00 -0.20852879702E+03  0.20852879702E+03  0.00000000000E+00 0. -1.
         23    2    1    2    0    0  0.30268717852E+03  0.22807508181E+03  0.59246871970E+02  0.39496293425E+03  0.94062514365E+02 0.  0.
         13    1    3    3    0    0  0.13140380301E+03  0.12243673368E+03  0.71586593821E+02  0.19334516703E+03  0.00000000000E+00 0. -1.
        -13    1    3    3    0    0  0.17128337551E+03  0.10563834812E+03 -0.12339721851E+02  0.20161776722E+03  0.00000000000E+00 0.  1.
         22    1    1    2    0    0 -0.30268717852E+03 -0.22807508181E+03  0.84225931827E+03  0.92360085004E+03  0.00000000000E+00 0.  1.
<mgrwt>
<rscale>  0 0.96223544E+03</rscale>
<asrwt>0</asrwt>
<pdfrwt beam="1">  1        2 0.17077461E+00 0.96223544E+03</pdfrwt>
<pdfrwt beam="2">  1       -2 0.32081354E-01 0.96223544E+03</pdfrwt>
<totfact> 0.19391946E+02</totfact>
</mgrwt>
</event>
<event>
 6    1  0.1934315E-005  0.3308001E+04  0.7818608E-02  0.8160863E-01
         -2   -1    0    0    0  501 -0.00000000000E+00  0.00000000000E+00  0.89860263796E+03  0.89860263796E+03  0.00000000000E+00 0. -1.
          2   -1    0    0  501    0  0.00000000000E+00 -0.00000000000E+00 -0.30444124132E+04  0.30444124132E+04  0.00000000000E+00 0.  1.
         23    2    1    2    0    0  0.89632316347E+02 -0.68424654569E+03  0.71625784167E+03  0.99892634136E+03  0.92742936582E+02 0.  0.
         11    1    3    3    0    0  0.27395931457E+01 -0.37626267384E+03  0.39052199388E+03  0.54229930186E+03  0.00000000000E+00 0. -1.
        -11    1    3    3    0    0  0.86892723201E+02 -0.30798387185E+03  0.32573584779E+03  0.45662703950E+03  0.00000000000E+00 0.  1.
         22    1    1    2    0    0 -0.89632316347E+02  0.68424654569E+03 -0.28620676169E+04  0.29440887098E+04  0.00000000000E+00 0.  1.
<mgrwt>
<rscale>  0 0.33080006E+04</rscale>
<asrwt>0</asrwt>
<pdfrwt beam="1">  1        2 0.46837113E+00 0.33080006E+04</pdfrwt>
<pdfrwt beam="2">  1       -2 0.13824656E+00 0.33080006E+04</pdfrwt>
<totfact> 0.50527543E-01</totfact>
</mgrwt>
</event>
<event>
 6    1  0.1934315E-005  0.3710224E+04  0.7818608E-02  0.8065700E-01
         -2   -1    0    0    0  501 -0.00000000000E+00  0.00000000000E+00  0.24002876844E+04  0.24002876844E+04  0.00000000000E+00 0. -1.
          2   -1    0    0  501    0  0.00000000000E+00 -0.00000000000E+00 -0.14337615157E+04  0.14337615157E+04  0.00000000000E+00 0.  1.
         23    2    1    2    0    0 -0.15054144791E+04  0.65655822331E+03  0.13726163160E+04  0.21422304562E+04  0.87944993658E+02 0.  0.
         11    1    3    3    0    0 -0.33147962033E+03  0.10543689988E+03  0.28876376156E+03  0.45208427151E+03  0.00000000000E+00 0. -1.
        -11    1    3    3    0    0 -0.11739348588E+04  0.55112132343E+03  0.10838525545E+04  0.16901461847E+04  0.00000000000E+00 0.  1.
         22    1    1    2    0    0  0.15054144791E+04 -0.65655822331E+03 -0.40609014732E+03  0.16918187439E+04  0.00000000000E+00 0. -1.
<mgrwt>
<rscale>  0 0.37102238E+04</rscale>
<asrwt>0</asrwt>
<pdfrwt beam="1">  1        2 0.22057869E+00 0.37102238E+04</pdfrwt>
<pdfrwt beam="2">  1       -2 0.36927503E+00 0.37102238E+04</pdfrwt>
<totfact> 0.13112685E-01</totfact>
</mgrwt>
</event>
<event>
 6    1  0.1934315E-005  0.2374069E+04  0.7818608E-02  0.8449276E-01
          1   -1    0    0  501    0  0.00000000000E+00  0.00000000000E+00  0.16937883020E+04  0.16937883020E+04  0.00000000000E+00 0. -1.
         -1   -1    0    0    0  501 -0.00000000000E+00 -0.00000000000E+00 -0.83189292176E+03  0.83189292176E+03  0.00000000000E+00 0.  1.
         23    2    1    2    0    0 -0.70584645885E+03  0.88589482806E+03  0.80324482277E+03  0.13914551626E+04  0.88973897694E+02 0.  0.
         11    1    3    3    0    0 -0.32687392920E+02  0.61008247822E+02  0.29180640246E+02  0.75113126172E+02  0.00000000000E+00 0.  1.
        -11    1    3    3    0    0 -0.67315906593E+03  0.82488658024E+03  0.77406418252E+03  0.13163420365E+04  0.00000000000E+00 0. -1.
         22    1    1    2    0    0  0.70584645885E+03 -0.88589482806E+03  0.58650557475E+02  0.11342260611E+04  0.00000000000E+00 0. -1.
<mgrwt>
<rscale>  0 0.23740687E+04</rscale>
<asrwt>0</asrwt>
<pdfrwt beam="1">  1        1 0.26058282E+00 0.23740687E+04</pdfrwt>
<pdfrwt beam="2">  1       -1 0.12798353E+00 0.23740687E+04</pdfrwt>
<totfact> 0.22801665E+00</totfact>
</mgrwt>
</event>
<event>
 6    1  0.1934315E-005  0.9945887E+03  0.7818608E-02  0.9314500E-01
          4   -1    0    0  501    0  0.00000000000E+00  0.00000000000E+00  0.81720297830E+03  0.81720297830E+03  0.00000000000E+00 0.  1.
         -4   -1    0    0    0  501 -0.00000000000E+00 -0.00000000000E+00 -0.30261961118E+03  0.30261961118E+03  0.00000000000E+00 0. -1.
         23    2    1    2    0    0 -0.50985038939E+02 -0.23475275193E+03 -0.22430721828E+03  0.34286208474E+03  0.97633765924E+02 0.  0.
         11    1    3    3    0    0 -0.80468697481E+02 -0.17840085440E+03 -0.16929980896E+03  0.25877500158E+03  0.00000000000E+00 0. -1.
        -11    1    3    3    0    0  0.29483658542E+02 -0.56351897522E+02 -0.55007409318E+02  0.84087083166E+02  0.00000000000E+00 0.  1.
         22    1    1    2    0    0  0.50985038939E+02  0.23475275193E+03  0.73889058540E+03  0.77696050474E+03  0.00000000000E+00 0.  1.
<mgrwt>
<rscale>  0 0.99458865E+03</rscale>
<asrwt>0</asrwt>
<pdfrwt beam="1">  1        4 0.12572353E+00 0.99458865E+03</pdfrwt>
<pdfrwt beam="2">  1       -4 0.46556863E-01 0.99458865E+03</pdfrwt>
<totfact> 0.41818837E+00</totfact>
</mgrwt>
</event>
<event>
 6    1  0.1934315E-005  0.3521765E+04  0.7818608E-02  0.8108651E-01
         -2   -1    0    0    0  501 -0.00000000000E+00  0.00000000000E+00  0.15329267797E+04  0.15329267797E+04  0.00000000000E+00 0. -1.
          2   -1    0    0  501    0  0.00000000000E+00 -0.00000000000E+00 -0.20227363399E+04  0.20227363399E+04  0.00000000000E+00 0.  1.
         23    2    1    2    0    0  0.40553778599E+03  0.10774222326E+04 -0.15887379776E+04  0.19641408200E+04  0.91984978651E+02 0.  0.
         11    1    3    3    0    0  0.13487459783E+03  0.33582715873E+03 -0.42979156937E+03  0.56186460182E+03  0.00000000000E+00 0. -1.
        -11    1    3    3    0    0  0.27066318817E+03  0.74159507383E+03 -0.11589464083E+04  0.14022762182E+04  0.00000000000E+00 0.  1.
         22    1    1    2    0    0 -0.40553778599E+03 -0.10774222326E+04  0.10989284175E+04  0.15915222995E+04  0.00000000000E+00 0. -1.
<mgrwt>
<rscale>  0 0.35217647E+04</rscale>
<asrwt>0</asrwt>
<pdfrwt beam="1">  1        2 0.31119021E+00 0.35217647E+04</pdfrwt>
<pdfrwt beam="2">  1       -2 0.23583489E+00 0.35217647E+04</pdfrwt>
<totfact> 0.41851092E-01</totfact>
</mgrwt>
</event>
<event>
 6    1  0.1934315E-005  0.1598665E+04  0.7818608E-02  0.8821368E-01
          2   -1    0    0  501    0  0.00000000000E+00  0.00000000000E+00  0.12120423914E+04  0.12120423914E+04  0.00000000000E+00 0.  1.
         -2   -1    0    0    0  501 -0.00000000000E+00 -0.00000000000E+00 -0.52715380817E+03  0.52715380817E+03  0.00000000000E+00 0. -1.
         23    2    1    2    0    0 -0.48615574992E+03  0.14606966619E+03  0.10115859798E+04  0.11355282864E+04  0.91839719963E+02 0.  0.
         11    1    3    3    0    0 -0.36078412985E+03  0.14246918055E+03  0.71334735475E+03  0.81198959617E+03  0.00000000000E+00 0. -1.
        -11    1    3    3    0    0 -0.12537162007E+03  0.36004856368E+01  0.29823862500E+03  0.32353869021E+03  0.00000000000E+00 0.  1.
         22    1    1    2    0    0  0.48615574992E+03 -0.14606966619E+03 -0.32669739651E+03  0.60366791321E+03  0.00000000000E+00 0. -1.
<mgrwt>
<rscale>  0 0.15986654E+04</rscale>
<asrwt>0</asrwt>
<pdfrwt beam="1">  1        2 0.18646806E+00 0.15986654E+04</pdfrwt>
<pdfrwt beam="2">  1       -2 0.81100586E-01 0.15986654E+04</pdfrwt>
<totfact> 0.23950483E+01</totfact>
</mgrwt>
</event>
<event>
 6    1  0.1934315E-005  0.1442162E+04  0.7818608E-02  0.8923852E-01
         -2   -1    0    0    0  501 -0.00000000000E+00  0.00000000000E+00  0.13373202253E+03  0.13373202253E+03  0.00000000000E+00 0. -1.
          2   -1    0    0  501    0  0.00000000000E+00 -0.00000000000E+00 -0.38880598756E+04  0.38880598756E+04  0.00000000000E+00 0.  1.
         23    2    1    2    0    0  0.31782201953E+03  0.47132721346E+03 -0.66178674322E+03  0.87743652788E+03  0.93664233913E+02 0.  0.
         11    1    3    3    0    0  0.93534682671E+02  0.76310888379E+02 -0.11691869590E+03  0.16805377115E+03  0.00000000000E+00 0. -1.
        -11    1    3    3    0    0  0.22428733686E+03  0.39501632508E+03 -0.54486804731E+03  0.70938275673E+03  0.00000000000E+00 0.  1.
         22    1    1    2    0    0 -0.31782201953E+03 -0.47132721346E+03 -0.30925411098E+04  0.31443553702E+04  0.00000000000E+00 0.  1.
<mgrwt>
<rscale>  0 0.14421624E+04</rscale>
<asrwt>0</asrwt>
<pdfrwt beam="1">  1        2 0.59816295E+00 0.14421624E+04</pdfrwt>
<pdfrwt beam="2">  1       -2 0.20574161E-01 0.14421624E+04</pdfrwt>
<totfact> 0.84862113E+00</totfact>
</mgrwt>
</event>
<event>
 6    1  0.1934315E-005  0.2840032E+04  0.7818608E-02  0.8290947E-01
          2   -1    0    0  501    0  0.00000000000E+00  0.00000000000E+00  0.15388607380E+04  0.15388607380E+04  0.00000000000E+00 0.  1.
         -2   -1    0    0    0  501 -0.00000000000E+00 -0.00000000000E+00 -0.13103497211E+04  0.13103497211E+04  0.00000000000E+00 0. -1.
         23    2    1    2    0    0  0.31595783467E+03  0.68973401391E+03 -0.10890847828E+04  0.13288088495E+04  0.63756811034E+02 0.  0.
         11    1    3    3    0    0  0.86691241837E+02  0.26262145277E+03 -0.39986809350E+03  0.48618915153E+03  0.00000000000E+00 0. -1.
        -11    1    3    3    0    0  0.22926659283E+03  0.42711256113E+03 -0.68921668934E+03  0.84261969793E+03  0.00000000000E+00 0.  1.
         22    1    1    2    0    0 -0.31595783467E+03 -0.68973401391E+03  0.13175957997E+04  0.15204016097E+04  0.00000000000E+00 0.  1.
<mgrwt>
<rscale>  0 0.28400322E+04</rscale>
<asrwt>0</asrwt>
<pdfrwt beam="1">  1        2 0.23674781E+00 0.28400322E+04</pdfrwt>
<pdfrwt beam="2">  1       -2 0.20159227E+00 0.28400322E+04</pdfrwt>
<totfact> 0.13592501E+00</totfact>
</mgrwt>
</event>
<event>
 6    1  0.1934315E-005  0.3760884E+04  0.7818608E-02  0.8054601E-01
          2   -1    0    0  501    0  0.00000000000E+00  0.00000000000E+00  0.25282144426E+04  0.25282144426E+04  0.00000000000E+00 0. -1.
         -2   -1    0    0    0  501 -0.00000000000E+00 -0.00000000000E+00 -0.13986403179E+04  0.13986403179E+04  0.00000000000E+00 0.  1.
         23    2    1    2    0    0  0.11994355335E+04 -0.13685006188E+04  0.10554251114E+04  0.21056085886E+04  0.90696305332E+02 0.  0.
         11    1    3    3    0    0  0.35128009637E+03 -0.42582218845E+03  0.36479158162E+03  0.66166089525E+03  0.00000000000E+00 0.  1.
        -11    1    3    3    0    0  0.84815543714E+03 -0.94267843039E+03  0.69063352974E+03  0.14439476933E+04  0.00000000000E+00 0. -1.
         22    1    1    2    0    0 -0.11994355335E+04  0.13685006188E+04  0.74149013340E+02  0.18212461720E+04  0.00000000000E+00 0.  1.
<mgrwt>
<rscale>  0 0.37608843E+04</rscale>
<asrwt>0</asrwt>
<pdfrwt beam="1">  1        2 0.38895607E+00 0.37608843E+04</pdfrwt>
<pdfrwt beam="2">  1       -2 0.21517543E+00 0.37608843E+04</pdfrwt>
<totfact> 0.28600706E-01</totfact>
</mgrwt>
</event>
<event>
 6    1  0.1934315E-005  0.3170803E+04  0.7818608E-02  0.8196571E-01
         -2   -1    0    0    0  501 -0.00000000000E+00  0.00000000000E+00  0.12272899178E+04  0.12272899178E+04  0.00000000000E+00 0. -1.
          2   -1    0    0  501    0  0.00000000000E+00 -0.00000000000E+00 -0.20480067573E+04  0.20480067573E+04  0.00000000000E+00 0.  1.
         23    2    1    2    0    0  0.25767885997E+03 -0.14728385537E+04  0.12982035593E+03  0.15035255952E+04  0.89911569900E+02 0.  0.
         13    1    3    3    0    0  0.49586340379E+02 -0.24656770326E+03  0.55179177051E+02  0.25748626958E+03  0.00000000000E+00 0. -1.
        -13    1    3    3    0    0  0.20809251959E+03 -0.12262708504E+04  0.74641178876E+02  0.12460393256E+04  0.00000000000E+00 0.  1.
         22    1    1    2    0    0 -0.25767885997E+03  0.14728385537E+04 -0.95053719544E+03  0.17717710800E+04  0.00000000000E+00 0.  1.
<mgrwt>
<rscale>  0 0.31708031E+04</rscale>
<asrwt>0</asrwt>
<pdfrwt beam="1">  1        2 0.31507796E+00 0.31708031E+04</pdfrwt>
<pdfrwt beam="2">  1       -2 0.18881384E+00 0.31708031E+04</pdfrwt>
<totfact> 0.83721594E-01</totfact>
</mgrwt>
</event>
<event>
 6    1  0.1934315E-005  0.1655796E+04  0.7818608E-02  0.8786985E-01
         -2   -1    0    0    0  501 -0.00000000000E+00  0.00000000000E+00  0.20226202843E+03  0.20226202843E+03  0.00000000000E+00 0. -1.
          2   -1    0    0  501    0  0.00000000000E+00 -0.00000000000E+00 -0.33887462863E+04  0.33887462863E+04  0.00000000000E+00 0.  1.
         23    2    1    2    0    0 -0.51500684174E+03  0.19294227493E+03 -0.29329050497E+04  0.29854002044E+04  0.90683963366E+02 0.  0.
         11    1    3    3    0    0 -0.47010435508E+02  0.29300496584E+02 -0.45698061266E+03  0.46032573303E+03  0.00000000000E+00 0.  1.
        -11    1    3    3    0    0 -0.46799640623E+03  0.16364177835E+03 -0.24759244370E+04  0.25250744713E+04  0.00000000000E+00 0. -1.
         22    1    1    2    0    0  0.51500684174E+03 -0.19294227493E+03 -0.25357920814E+03  0.60560811032E+03  0.00000000000E+00 0. -1.
<mgrwt>
<rscale>  0 0.16557955E+04</rscale>
<asrwt>0</asrwt>
<pdfrwt beam="1">  1        2 0.52134552E+00 0.16557955E+04</pdfrwt>
<pdfrwt beam="2">  1       -2 0.31117239E-01 0.16557955E+04</pdfrwt>
<totfact> 0.89560306E+00</totfact>
</mgrwt>
</event>
<event>
 6    1  0.1934315E-005  0.3961458E+04  0.7818608E-02  0.8012367E-01
         -2   -1    0    0    0  501 -0.00000000000E+00  0.00000000000E+00  0.18612844787E+04  0.18612844787E+04  0.00000000000E+00 0. -1.
          2   -1    0    0  501    0  0.00000000000E+00 -0.00000000000E+00 -0.21078387584E+04  0.21078387584E+04  0.00000000000E+00 0.  1.
         23    2    1    2    0    0 -0.86422446222E+03 -0.21338139358E+02  0.16610086914E+04  0.18748129149E+04  0.92921233010E+02 0.  0.
         13    1    3    3    0    0 -0.30650576802E+03  0.11732152559E+02  0.67732199964E+03  0.74353784061E+03  0.00000000000E+00 0. -1.
        -13    1    3    3    0    0 -0.55771869420E+03 -0.33070291917E+02  0.98368669179E+03  0.11312750743E+04  0.00000000000E+00 0.  1.
         22    1    1    2    0    0  0.86422446222E+03  0.21338139358E+02 -0.19075629711E+04  0.20943103223E+04  0.00000000000E+00 0.  1.
<mgrwt>
<rscale>  0 0.39614581E+04</rscale>
<asrwt>0</asrwt>
<pdfrwt beam="1">  1        2 0.32428289E+00 0.39614581E+04</pdfrwt>
<pdfrwt beam="2">  1       -2 0.28635146E+00 0.39614581E+04</pdfrwt>
<totfact> 0.17730542E-01</totfact>
</mgrwt>
</event>
<event>
 6    1  0.1934315E-005  0.3683764E+04  0.7818608E-02  0.8071569E-01
          2   -1    0    0  501    0  0.00000000000E+00  0.00000000000E+00  0.34011523160E+04  0.34011523160E+04  0.00000000000E+00 0.  1.
         -2   -1    0    0    0  501 -0.00000000000E+00 -0.00000000000E+00 -0.99746481370E+03  0.99746481370E+03  0.00000000000E+00 0. -1.
         23    2    1    2    0    0  0.11974247964E+04  0.89128999765E+03 -0.83550166084E+02  0.14978284056E+04  0.91023618774E+02 0.  0.
         11    1    3    3    0    0  0.63422211931E+03  0.45078358294E+03 -0.13275421316E+01  0.77810365482E+03  0.00000000000E+00 0.  1.
        -11    1    3    3    0    0  0.56320267713E+03  0.44050641471E+03 -0.82222623952E+02  0.71972475073E+03  0.00000000000E+00 0. -1.
         22    1    1    2    0    0 -0.11974247964E+04 -0.89128999765E+03  0.24872376684E+04  0.29007887241E+04  0.00000000000E+00 0. -1.
<mgrwt>
<rscale>  0 0.36837642E+04</rscale>
<asrwt>0</asrwt>
<pdfrwt beam="1">  1        2 0.52325420E+00 0.36837642E+04</pdfrwt>
<pdfrwt beam="2">  1       -2 0.15345613E+00 0.36837642E+04</pdfrwt>
<totfact> 0.21690325E-01</totfact>
</mgrwt>
</event>
<event>
 6    1  0.1934315E-005  0.1670305E+04  0.7818608E-02  0.8778484E-01
          2   -1    0    0  501    0  0.00000000000E+00  0.00000000000E+00  0.63524504713E+03  0.63524504713E+03  0.00000000000E+00 0.  1.
         -2   -1    0    0    0  501 -0.00000000000E+00 -0.00000000000E+00 -0.10979692610E+04  0.10979692610E+04  0.00000000000E+00 0. -1.
         23    2    1    2    0    0  0.13847215755E+03 -0.26249413449E+03 -0.10391149158E+04  0.10849057779E+04  0.95828126418E+02 0.  0.
         11    1    3    3    0    0  0.12604887738E+03 -0.24882525379E+03 -0.84353868588E+03  0.88845925117E+03  0.00000000000E+00 0. -1.
        -11    1    3    3    0    0  0.12423280167E+02 -0.13668880705E+02 -0.19557622987E+03  0.19644652677E+03  0.00000000000E+00 0.  1.
         22    1    1    2    0    0 -0.13847215755E+03  0.26249413449E+03  0.57639070189E+03  0.64830853017E+03  0.00000000000E+00 0.  1.
<mgrwt>
<rscale>  0 0.16703048E+04</rscale>
<asrwt>0</asrwt>
<pdfrwt beam="1">  1        2 0.97730009E-01 0.16703048E+04</pdfrwt>
<pdfrwt beam="2">  1       -2 0.16891835E+00 0.16703048E+04</pdfrwt>
<totfact> 0.95634995E+00</totfact>
</mgrwt>
</event>
<event>
 6    1  0.1934315E-005  0.2719440E+04  0.7818608E-02  0.8328725E-01
         -2   -1    0    0    0  501 -0.00000000000E+00  0.00000000000E+00  0.67147356551E+03  0.67147356551E+03  0.00000000000E+00 0. -1.
          2   -1    0    0  501    0  0.00000000000E+00 -0.00000000000E+00 -0.27534050391E+04  0.27534050391E+04  0.00000000000E+00 0.  1.
         23    2    1    2    0    0 -0.79000463158E+03  0.53954571587E+03  0.17199405653E+03  0.97632858617E+03  0.91753230280E+02 0.  0.
         13    1    3    3    0    0 -0.22762918683E+03  0.20722663904E+03  0.56884321388E+02  0.31303953847E+03  0.00000000000E+00 0. -1.
        -13    1    3    3    0    0 -0.56237544475E+03  0.33231907684E+03  0.11510973514E+03  0.66328904771E+03  0.00000000000E+00 0.  1.
         22    1    1    2    0    0  0.79000463158E+03 -0.53954571587E+03 -0.22539255301E+04  0.24485500185E+04  0.00000000000E+00 0.  1.
<mgrwt>
<rscale>  0 0.27194402E+04</rscale>
<asrwt>0</asrwt>
<pdfrwt beam="1">  1        2 0.42360077E+00 0.27194402E+04</pdfrwt>
<pdfrwt beam="2">  1       -2 0.10330363E+00 0.27194402E+04</pdfrwt>
<totfact> 0.16512007E+00</totfact>
</mgrwt>
</event>
<event>
 6    1  0.1934315E-005  0.2133944E+04  0.7818608E-02  0.8546436E-01
          2   -1    0    0  501    0  0.00000000000E+00  0.00000000000E+00  0.65342095358E+03  0.65342095358E+03  0.00000000000E+00 0.  1.
         -2   -1    0    0    0  501 -0.00000000000E+00 -0.00000000000E+00 -0.17422599812E+04  0.17422599812E+04  0.00000000000E+00 0. -1.
         23    2    1    2    0    0  0.82711153024E+03  0.52924764102E+03 -0.10083921221E+04  0.14104458087E+04  0.91028338631E+02 0.  0.
         11    1    3    3    0    0  0.19387894938E+03  0.79941444744E+02 -0.21556877023E+03  0.30074836043E+03  0.00000000000E+00 0. -1.
        -11    1    3    3    0    0  0.63323258086E+03  0.44930619627E+03 -0.79282335188E+03  0.11096974483E+04  0.00000000000E+00 0.  1.
         22    1    1    2    0    0 -0.82711153024E+03 -0.52924764102E+03 -0.80446905488E+02  0.98523512604E+03  0.00000000000E+00 0. -1.
<mgrwt>
<rscale>  0 0.21339439E+04</rscale>
<asrwt>0</asrwt>
<pdfrwt beam="1">  1        2 0.10052630E+00 0.21339439E+04</pdfrwt>
<pdfrwt beam="2">  1       -2 0.26803999E+00 0.21339439E+04</pdfrwt>
<totfact> 0.20454329E+00</totfact>
</mgrwt>
</event>
<event>
 6    1  0.1934315E-005  0.3952976E+04  0.7818608E-02  0.8014101E-01
         -2   -1    0    0    0  501 -0.00000000000E+00  0.00000000000E+00  0.16916375075E+04  0.16916375075E+04  0.00000000000E+00 0. -1.
          2   -1    0    0  501    0  0.00000000000E+00 -0.00000000000E+00 -0.23093033780E+04  0.23093033780E+04  0.00000000000E+00 0.  1.
         23    2    1    2    0    0  0.13789247926E+04 -0.11143689498E+04  0.57269020428E+03  0.18654785645E+04  0.93725475726E+02 0.  0.
         11    1    3    3    0    0  0.45613435153E+03 -0.42521881428E+03  0.20954602323E+03  0.65785950059E+03  0.00000000000E+00 0. -1.
        -11    1    3    3    0    0  0.92279044105E+03 -0.68915013550E+03  0.36314418105E+03  0.12076190639E+04  0.00000000000E+00 0.  1.
         22    1    1    2    0    0 -0.13789247926E+04  0.11143689498E+04 -0.11903560747E+04  0.21354623210E+04  0.00000000000E+00 0.  1.
<mgrwt>
<rscale>  0 0.39529757E+04</rscale>
<asrwt>0</asrwt>
<pdfrwt beam="1">  1        2 0.35527744E+00 0.39529757E+04</pdfrwt>
<pdfrwt beam="2">  1       -2 0.26025193E+00 0.39529757E+04</pdfrwt>
<totfact> 0.19718905E-01</totfact>
</mgrwt>
</event>
<event>
 6    1  0.1934315E-005  0.2801292E+04  0.7818608E-02  0.8302867E-01
         -2   -1    0    0    0  501 -0.00000000000E+00  0.00000000000E+00  0.78856076944E+03  0.78856076944E+03  0.00000000000E+00 0. -1.
          2   -1    0    0  501    0  0.00000000000E+00 -0.00000000000E+00 -0.24878348843E+04  0.24878348843E+04  0.00000000000E+00 0.  1.
         23    2    1    2    0    0 -0.57392232032E+03 -0.57506945676E+03  0.48176673163E+03  0.94894406801E+03  0.91126015177E+02 0.  0.
         11    1    3    3    0    0 -0.30110399258E+03 -0.31515902554E+03  0.30976498325E+03  0.53473654315E+03  0.00000000000E+00 0. -1.
        -11    1    3    3    0    0 -0.27281832774E+03 -0.25991043122E+03  0.17200174839E+03  0.41420752487E+03  0.00000000000E+00 0.  1.
         22    1    1    2    0    0  0.57392232032E+03  0.57506945676E+03 -0.21810408465E+04  0.23274515857E+04  0.00000000000E+00 0.  1.
<mgrwt>
<rscale>  0 0.28012918E+04</rscale>
<asrwt>0</asrwt>
<pdfrwt beam="1">  1        2 0.38274382E+00 0.28012918E+04</pdfrwt>
<pdfrwt beam="2">  1       -2 0.12131704E+00 0.28012918E+04</pdfrwt>
<totfact> 0.15904225E+00</totfact>
</mgrwt>
</event>
<event>
 6    1  0.1934315E-005  0.1030903E+04  0.7818608E-02  0.9275286E-01
         -2   -1    0    0    0  501 -0.00000000000E+00  0.00000000000E+00  0.13759068970E+03  0.13759068970E+03  0.00000000000E+00 0. -1.
          2   -1    0    0  501    0  0.00000000000E+00 -0.00000000000E+00 -0.19310174556E+04  0.19310174556E+04  0.00000000000E+00 0.  1.
         23    2    1    2    0    0  0.18137325032E+03 -0.27005229862E+03 -0.16955637182E+04  0.17288999234E+04  0.91291417253E+02 0.  0.
         11    1    3    3    0    0  0.10828390192E+02 -0.83187218015E+02 -0.48210060814E+03  0.48934483102E+03  0.00000000000E+00 0.  1.
        -11    1    3    3    0    0  0.17054486013E+03 -0.18686508060E+03 -0.12134631100E+04  0.12395550924E+04  0.00000000000E+00 0. -1.
         22    1    1    2    0    0 -0.18137325032E+03  0.27005229862E+03 -0.97863047740E+02  0.33970822191E+03  0.00000000000E+00 0. -1.
<mgrwt>
<rscale>  0 0.10309026E+04</rscale>
<asrwt>0</asrwt>
<pdfrwt beam="1">  1        2 0.29707959E+00 0.10309026E+04</pdfrwt>
<pdfrwt beam="2">  1       -2 0.21167800E-01 0.10309026E+04</pdfrwt>
<totfact> 0.14099063E+02</totfact>
</mgrwt>
</event>
<event>
 6    1  0.1934315E-005  0.3441158E+04  0.7818608E-02  0.8127878E-01
          2   -1    0    0  501    0  0.00000000000E+00  0.00000000000E+00  0.23263375117E+04  0.23263375117E+04  0.00000000000E+00 0.  1.
         -2   -1    0    0    0  501 -0.00000000000E+00 -0.00000000000E+00 -0.12725544932E+04  0.12725544932E+04  0.00000000000E+00 0. -1.
         23    2    1    2    0    0  0.66255019175E+03  0.49605466531E+03 -0.10489018166E+04  0.13391737694E+04  0.90268357294E+02 0.  0.
         13    1    3    3    0    0  0.51414751831E+03  0.36493230209E+03 -0.73913248900E+03  0.97151432928E+03  0.00000000000E+00 0. -1.
        -13    1    3    3    0    0  0.14840267344E+03  0.13112236321E+03 -0.30976932760E+03  0.36765944016E+03  0.00000000000E+00 0.  1.
         22    1    1    2    0    0 -0.66255019175E+03 -0.49605466531E+03  0.21026848351E+04  0.22597182354E+04  0.00000000000E+00 0.  1.
<mgrwt>
<rscale>  0 0.34411575E+04</rscale>
<asrwt>0</asrwt>
<pdfrwt beam="1">  1        2 0.35789808E+00 0.34411575E+04</pdfrwt>
<pdfrwt beam="2">  1       -2 0.19577761E+00 0.34411575E+04</pdfrwt>
<totfact> 0.51286665E-01</totfact>
</mgrwt>
</event>
<event>
 6    1  0.1934315E-005  0.1169011E+04  0.7818608E-02  0.9140422E-01
          2   -1    0    0  501    0  0.00000000000E+00  0.00000000000E+00  0.29928139639E+04  0.29928139639E+04  0.00000000000E+00 0.  1.
         -2   -1    0    0    0  501 -0.00000000000E+00 -0.00000000000E+00 -0.11415561446E+03  0.11415561446E+03  0.00000000000E+00 0. -1.
         23    2    1    2    0    0  0.23901359494E+03  0.43892798152E+03  0.22358853903E+04  0.22927568613E+04  0.88120799217E+02 0.  0.
         11    1    3    3    0    0  0.16852250132E+03  0.22017974574E+03  0.11771658474E+04  0.12093793392E+04  0.00000000000E+00 0.  1.
        -11    1    3    3    0    0  0.70491093611E+02  0.21874823578E+03  0.10587195429E+04  0.10833775221E+04  0.00000000000E+00 0. -1.
         22    1    1    2    0    0 -0.23901359494E+03 -0.43892798152E+03  0.64277295918E+03  0.81421271703E+03  0.00000000000E+00 0. -1.
<mgrwt>
<rscale>  0 0.11690107E+04</rscale>
<asrwt>0</asrwt>
<pdfrwt beam="1">  1        2 0.46043286E+00 0.11690107E+04</pdfrwt>
<pdfrwt beam="2">  1       -2 0.17562405E-01 0.11690107E+04</pdfrwt>
<totfact> 0.47367683E+01</totfact>
</mgrwt>
</event>
<event>
 6    1  0.1934315E-005  0.2436223E+04  0.7818608E-02  0.8426065E-01
         -2   -1    0    0    0  501 -0.00000000000E+00  0.00000000000E+00  0.48940399699E+03  0.48940399699E+03  0.00000000000E+00 0. -1.
          2   -1    0    0  501    0  0.00000000000E+00 -0.00000000000E+00 -0.30318416624E+04  0.30318416624E+04  0.00000000000E+00 0.  1.
         23    2    1    2    0    0 -0.57627521314E+03  0.17012200615E+03  0.25582636337E+03  0.65919810686E+03  0.89779717281E+02 0.  0.
         11    1    3    3    0    0 -0.14002740855E+03  0.80135782081E+02  0.82775388835E+02  0.18133169528E+03  0.00000000000E+00 0. -1.
        -11    1    3    3    0    0 -0.43624780459E+03  0.89986224070E+02  0.17305097453E+03  0.47786641158E+03  0.00000000000E+00 0.  1.
         22    1    1    2    0    0  0.57627521314E+03 -0.17012200615E+03 -0.27982640287E+04  0.28620475525E+04  0.00000000000E+00 0.  1.
<mgrwt>
<rscale>  0 0.24362228E+04</rscale>
<asrwt>0</asrwt>
<pdfrwt beam="1">  1        2 0.46643719E+00 0.24362228E+04</pdfrwt>
<pdfrwt beam="2">  1       -2 0.75292921E-01 0.24362228E+04</pdfrwt>
<totfact> 0.23607669E+00</totfact>
</mgrwt>
</event>
<event>
 6    1  0.1934315E-005  0.2607956E+04  0.7818608E-02  0.8365504E-01
          2   -1    0    0  501    0  0.00000000000E+00  0.00000000000E+00  0.20738909257E+04  0.20738909257E+04  0.00000000000E+00 0. -1.
         -2   -1    0    0    0  501 -0.00000000000E+00 -0.00000000000E+00 -0.81988827672E+03  0.81988827672E+03  0.00000000000E+00 0.  1.
         23    2    1    2    0    0 -0.37433892651E+02  0.12979389083E+04  0.73971496726E+03  0.14971623883E+04  0.90941069491E+02 0.  0.
         13    1    3    3    0    0 -0.54473629489E+02  0.41674997593E+03  0.24167902308E+03  0.48482643177E+03  0.00000000000E+00 0. -1.
        -13    1    3    3    0    0  0.17039736838E+02  0.88118893234E+03  0.49803594418E+03  0.10123359565E+04  0.00000000000E+00 0.  1.
         22    1    1    2    0    0  0.37433892651E+02 -0.12979389083E+04  0.51428768168E+03  0.13966168141E+04  0.00000000000E+00 0. -1.
<mgrwt>
<rscale>  0 0.26079562E+04</rscale>
<asrwt>0</asrwt>
<pdfrwt beam="1">  1        2 0.31906014E+00 0.26079562E+04</pdfrwt>
<pdfrwt beam="2">  1       -2 0.12613666E+00 0.26079562E+04</pdfrwt>
<totfact> 0.25175835E+00</totfact>
</mgrwt>
</event>
<event>
 6    1  0.1934315E-005  0.2455635E+04  0.7818608E-02  0.8418963E-01
         -2   -1    0    0    0  501 -0.00000000000E+00  0.00000000000E+00  0.59248094281E+03  0.59248094281E+03  0.00000000000E+00 0. -1.
          2   -1    0    0  501    0  0.00000000000E+00 -0.00000000000E+00 -0.25444459688E+04  0.25444459688E+04  0.00000000000E+00 0.  1.
         23    2    1    2    0    0 -0.80772635056E+02 -0.49804495867E+03  0.44975494732E+03  0.68278106638E+03  0.96630598428E+02 0.  0.
         13    1    3    3    0    0 -0.57330629745E+02 -0.29879027475E+03  0.20764390066E+03  0.36834551561E+03  0.00000000000E+00 0. -1.
        -13    1    3    3    0    0 -0.23442005311E+02 -0.19925468392E+03  0.24211104666E+03  0.31443555077E+03  0.00000000000E+00 0.  1.
         22    1    1    2    0    0  0.80772635056E+02  0.49804495867E+03 -0.24017199733E+04  0.24541458452E+04  0.00000000000E+00 0.  1.
<mgrwt>
<rscale>  0 0.24556349E+04</rscale>
<asrwt>0</asrwt>
<pdfrwt beam="1">  1        2 0.39145322E+00 0.24556349E+04</pdfrwt>
<pdfrwt beam="2">  1       -2 0.91150916E-01 0.24556349E+04</pdfrwt>
<totfact> 0.30124869E+00</totfact>
</mgrwt>
</event>
<event>
 6    1  0.1934315E-005  0.2537878E+04  0.7818608E-02  0.8389614E-01
          2   -1    0    0  501    0  0.00000000000E+00  0.00000000000E+00  0.27038171221E+04  0.27038171221E+04  0.00000000000E+00 0.  1.
         -2   -1    0    0    0  501 -0.00000000000E+00 -0.00000000000E+00 -0.59553088135E+03  0.59553088135E+03  0.00000000000E+00 0. -1.
         23    2    1    2    0    0  0.11983039153E+04 -0.26504969506E+03  0.64467871613E+03  0.13892876378E+04  0.91246255890E+02 0.  0.
         13    1    3    3    0    0  0.24965945761E+03 -0.32345332911E+02  0.16584751389E+03  0.30146552572E+03  0.00000000000E+00 0.  1.
        -13    1    3    3    0    0  0.94864445770E+03 -0.23270436215E+03  0.47883120225E+03  0.10878221121E+04  0.00000000000E+00 0. -1.
         22    1    1    2    0    0 -0.11983039153E+04  0.26504969506E+03  0.14636075246E+04  0.19100603656E+04  0.00000000000E+00 0.  1.
<mgrwt>
<rscale>  0 0.25378783E+04</rscale>
<asrwt>0</asrwt>
<pdfrwt beam="1">  1        2 0.41597186E+00 0.25378783E+04</pdfrwt>
<pdfrwt beam="2">  1       -2 0.91620137E-01 0.25378783E+04</pdfrwt>
<totfact> 0.23813265E+00</totfact>
</mgrwt>
</event>
<event>
 6    1  0.1934315E-005  0.1839202E+04  0.7818608E-02  0.8685725E-01
         -2   -1    0    0    0  501 -0.00000000000E+00  0.00000000000E+00  0.38298172906E+03  0.38298172906E+03  0.00000000000E+00 0. -1.
          2   -1    0    0  501    0  0.00000000000E+00 -0.00000000000E+00 -0.22081114529E+04  0.22081114529E+04  0.00000000000E+00 0.  1.
         23    2    1    2    0    0 -0.37656139050E+03 -0.59121187244E+03 -0.17497963426E+04  0.18861073117E+04  0.65449153814E+02 0.  0.
         11    1    3    3    0    0 -0.36552413942E+03 -0.57862779439E+03 -0.17281679716E+04  0.18587583379E+04  0.00000000000E+00 0. -1.
        -11    1    3    3    0    0 -0.11037251085E+02 -0.12584078049E+02 -0.21628371053E+02  0.27348973770E+02  0.00000000000E+00 0.  1.
         22    1    1    2    0    0  0.37656139050E+03  0.59121187244E+03 -0.75333381224E+02  0.70498587025E+03  0.00000000000E+00 0.  1.
<mgrwt>
<rscale>  0 0.18392024E+04</rscale>
<asrwt>0</asrwt>
<pdfrwt beam="1">  1        2 0.33970946E+00 0.18392024E+04</pdfrwt>
<pdfrwt beam="2">  1       -2 0.58920264E-01 0.18392024E+04</pdfrwt>
<totfact> 0.12944996E+01</totfact>
</mgrwt>
</event>
<event>
 6    1  0.1934315E-005  0.2247542E+04  0.7818608E-02  0.8498897E-01
          2   -1    0    0  501    0  0.00000000000E+00  0.00000000000E+00  0.14718084573E+04  0.14718084573E+04  0.00000000000E+00 0.  1.
         -2   -1    0    0    0  501 -0.00000000000E+00 -0.00000000000E+00 -0.85803378026E+03  0.85803378026E+03  0.00000000000E+00 0. -1.
         23    2    1    2    0    0 -0.96871671940E+03 -0.21303459677E+03  0.85034128688E+03  0.13101562159E+04  0.98148785174E+02 0.  0.
         11    1    3    3    0    0 -0.40009983152E+03 -0.13038035837E+03  0.32649766516E+03  0.53261584504E+03  0.00000000000E+00 0. -1.
        -11    1    3    3    0    0 -0.56861688788E+03 -0.82654238399E+02  0.52384362172E+03  0.77754037086E+03  0.00000000000E+00 0.  1.
         22    1    1    2    0    0  0.96871671940E+03  0.21303459677E+03 -0.23656660985E+03  0.10196860217E+04  0.00000000000E+00 0. -1.
<mgrwt>
<rscale>  0 0.22475421E+04</rscale>
<asrwt>0</asrwt>
<pdfrwt beam="1">  1        2 0.22643207E+00 0.22475421E+04</pdfrwt>
<pdfrwt beam="2">  1       -2 0.13200520E+00 0.22475421E+04</pdfrwt>
<totfact> 0.50098386E+00</totfact>
</mgrwt>
</event>
<event>
 6    1  0.1934315E-005  0.2902649E+04  0.7818608E-02  0.8272090E-01
          2   -1    0    0  501    0  0.00000000000E+00  0.00000000000E+00  0.36755241146E+04  0.36755241146E+04  0.00000000000E+00 0.  1.
         -2   -1    0    0    0  501 -0.00000000000E+00 -0.00000000000E+00 -0.57307284532E+03  0.57307284532E+03  0.00000000000E+00 0. -1.
         23    2    1    2    0    0 -0.31428963440E+03 -0.10275855803E+04  0.29775069146E+04  0.31667831169E+04  0.90872351193E+02 0.  0.
         13    1    3    3    0    0 -0.27992286716E+03 -0.93362918245E+03  0.27685023870E+04  0.29350682665E+04  0.00000000000E+00 0. -1.
        -13    1    3    3    0    0 -0.34366767235E+02 -0.93956397856E+02  0.20900452754E+03  0.23171485045E+03  0.00000000000E+00 0.  1.
         22    1    1    2    0    0  0.31428963440E+03  0.10275855803E+04  0.12494435471E+03  0.10818138430E+04  0.00000000000E+00 0. -1.
<mgrwt>
<rscale>  0 0.29026492E+04</rscale>
<asrwt>0</asrwt>
<pdfrwt beam="1">  1        2 0.56546523E+00 0.29026492E+04</pdfrwt>
<pdfrwt beam="2">  1       -2 0.88165055E-01 0.29026492E+04</pdfrwt>
<totfact> 0.58158277E-01</totfact>
</mgrwt>
</event>
<event>
 6    1  0.1934315E-005  0.2207107E+04  0.7818608E-02  0.8515476E-01
         -2   -1    0    0    0  501 -0.00000000000E+00  0.00000000000E+00  0.44258507457E+03  0.44258507457E+03  0.00000000000E+00 0. -1.
          2   -1    0    0  501    0  0.00000000000E+00 -0.00000000000E+00 -0.27516291519E+04  0.27516291519E+04  0.00000000000E+00 0.  1.
         23    2    1    2    0    0 -0.49517321654E+03  0.43334729479E+03 -0.24351892618E+04  0.25242149728E+04  0.92347689288E+02 0.  0.
         13    1    3    3    0    0 -0.27167028246E+03  0.22572192858E+03 -0.14765315399E+04  0.15181898826E+04  0.00000000000E+00 0.  1.
        -13    1    3    3    0    0 -0.22350293408E+03  0.20762536621E+03 -0.95865772194E+03  0.10060250902E+04  0.00000000000E+00 0. -1.
         22    1    1    2    0    0  0.49517321654E+03 -0.43334729479E+03  0.12614518453E+03  0.66999925363E+03  0.00000000000E+00 0. -1.
<mgrwt>
<rscale>  0 0.22071067E+04</rscale>
<asrwt>0</asrwt>
<pdfrwt beam="1">  1        2 0.42332756E+00 0.22071067E+04</pdfrwt>
<pdfrwt beam="2">  1       -2 0.68090012E-01 0.22071067E+04</pdfrwt>
<totfact> 0.44631012E+00</totfact>
</mgrwt>
</event>
<event>
 6    1  0.1934315E-005  0.1381203E+04  0.7818608E-02  0.8967538E-01
         -1   -1    0    0    0  501 -0.00000000000E+00  0.00000000000E+00  0.11191927191E+04  0.11191927191E+04  0.00000000000E+00 0.  1.
          1   -1    0    0  501    0  0.00000000000E+00 -0.00000000000E+00 -0.42613784613E+03  0.42613784613E+03  0.00000000000E+00 0. -1.
         23    2    1    2    0    0 -0.46610640336E+03  0.36476098760E+03  0.73905818401E+03  0.95167910014E+03  0.95814158516E+02 0.  0.
         13    1    3    3    0    0 -0.15791235959E+03  0.72396983270E+02  0.24058912545E+03  0.29675033914E+03  0.00000000000E+00 0.  1.
        -13    1    3    3    0    0 -0.30819404376E+03  0.29236400433E+03  0.49846905857E+03  0.65492876100E+03  0.00000000000E+00 0. -1.
         22    1    1    2    0    0  0.46610640336E+03 -0.36476098760E+03 -0.46003311084E+02  0.59365146505E+03  0.00000000000E+00 0. -1.
<mgrwt>
<rscale>  0 0.13812029E+04</rscale>
<asrwt>0</asrwt>
<pdfrwt beam="1">  1        1 0.65559669E-01 0.13812029E+04</pdfrwt>
<pdfrwt beam="2">  1       -1 0.17218349E+00 0.13812029E+04</pdfrwt>
<totfact> 0.12762370E+01</totfact>
</mgrwt>
</event>
<event>
 6    1  0.1934315E-005  0.2003154E+04  0.7818608E-02  0.8605148E-01
         -2   -1    0    0    0  501 -0.00000000000E+00  0.00000000000E+00  0.10299235753E+04  0.10299235753E+04  0.00000000000E+00 0. -1.
          2   -1    0    0  501    0  0.00000000000E+00 -0.00000000000E+00 -0.97401025464E+03  0.97401025464E+03  0.00000000000E+00 0.  1.
         23    2    1    2    0    0 -0.72599230623E+03 -0.39746000183E+03 -0.53255022093E+03  0.98839031952E+03  0.90919767618E+02 0.  0.
         11    1    3    3    0    0 -0.32005242605E+03 -0.20245789323E+03 -0.28913821328E+03  0.47646999940E+03  0.00000000000E+00 0. -1.
        -11    1    3    3    0    0 -0.40593988018E+03 -0.19500210860E+03 -0.24341200765E+03  0.51192032011E+03  0.00000000000E+00 0.  1.
         22    1    1    2    0    0  0.72599230623E+03  0.39746000183E+03  0.58846354156E+03  0.10155435104E+04  0.00000000000E+00 0. -1.
<mgrwt>
<rscale>  0 0.20031536E+04</rscale>
<asrwt>0</asrwt>
<pdfrwt beam="1">  1        2 0.14984773E+00 0.20031536E+04</pdfrwt>
<pdfrwt beam="2">  1       -2 0.15844978E+00 0.20031536E+04</pdfrwt>
<totfact> 0.62893538E+00</totfact>
</mgrwt>
</event>
<event>
 6    1  0.1934315E-005  0.3318430E+04  0.7818608E-02  0.8158222E-01
          2   -1    0    0  501    0  0.00000000000E+00  0.00000000000E+00  0.64801980922E+03  0.64801980922E+03  0.00000000000E+00 0.  1.
         -2   -1    0    0    0  501 -0.00000000000E+00 -0.00000000000E+00 -0.42483192592E+04  0.42483192592E+04  0.00000000000E+00 0. -1.
         23    2    1    2    0    0 -0.98805138460E+03 -0.89459385958E+03 -0.32565672773E+04  0.35198596756E+04  0.87395607733E+02 0.  0.
         13    1    3    3    0    0 -0.76535095953E+03 -0.64410711089E+03 -0.24681589872E+04  0.26631644425E+04  0.00000000000E+00 0.  1.
        -13    1    3    3    0    0 -0.22270042507E+03 -0.25048674869E+03 -0.78840829010E+03  0.85669523314E+03  0.00000000000E+00 0. -1.
         22    1    1    2    0    0  0.98805138460E+03  0.89459385958E+03 -0.34373217265E+03  0.13764793928E+04  0.00000000000E+00 0.  1.
<mgrwt>
<rscale>  0 0.33184304E+04</rscale>
<asrwt>0</asrwt>
<pdfrwt beam="1">  1        2 0.99695357E-01 0.33184304E+04</pdfrwt>
<pdfrwt beam="2">  1       -2 0.65358757E+00 0.33184304E+04</pdfrwt>
<totfact> 0.12195212E-02</totfact>
</mgrwt>
</event>
<event>
 6    1  0.1934315E-005  0.7088008E+03  0.7818608E-02  0.9702299E-01
          2   -1    0    0  501    0  0.00000000000E+00  0.00000000000E+00  0.23021974682E+04  0.23021974682E+04  0.00000000000E+00 0.  1.
         -2   -1    0    0    0  501 -0.00000000000E+00 -0.00000000000E+00 -0.54556408811E+02  0.54556408811E+02  0.00000000000E+00 0. -1.
         23    2    1    2    0    0  0.28431011307E+03  0.11987837518E+03  0.60744871255E+03  0.68779192422E+03  0.94131436927E+02 0.  0.
         13    1    3    3    0    0  0.23815769265E+03  0.78617811749E+02  0.40764225025E+03  0.47861472092E+03  0.00000000000E+00 0. -1.
        -13    1    3    3    0    0  0.46152420423E+02  0.41260563430E+02  0.19980646230E+03  0.20917720330E+03  0.00000000000E+00 0.  1.
         22    1    1    2    0    0 -0.28431011307E+03 -0.11987837518E+03  0.16401923468E+04  0.16689619528E+04  0.00000000000E+00 0.  1.
<mgrwt>
<rscale>  0 0.70880075E+03</rscale>
<asrwt>0</asrwt>
<pdfrwt beam="1">  1        2 0.35418415E+00 0.70880075E+03</pdfrwt>
<pdfrwt beam="2">  1       -2 0.83932955E-02 0.70880075E+03</pdfrwt>
<totfact> 0.42644173E+02</totfact>
</mgrwt>
</event>
<event>
 6    1  0.1934315E-005  0.2008368E+04  0.7818608E-02  0.8602718E-01
         -2   -1    0    0    0  501 -0.00000000000E+00  0.00000000000E+00  0.96917400607E+03  0.96917400607E+03  0.00000000000E+00 0. -1.
          2   -1    0    0  501    0  0.00000000000E+00 -0.00000000000E+00 -0.10404584687E+04  0.10404584687E+04  0.00000000000E+00 0.  1.
         23    2    1    2    0    0  0.19039752947E+03 -0.79231028894E+03  0.54788634845E+03  0.98621696457E+03  0.91856612173E+02 0.  0.
         13    1    3    3    0    0  0.48876170314E+02 -0.84189407317E+02  0.53626724892E+02  0.11114208002E+03  0.00000000000E+00 0.  1.
        -13    1    3    3    0    0  0.14152135916E+03 -0.70812088162E+03  0.49425962356E+03  0.87507488455E+03  0.00000000000E+00 0. -1.
         22    1    1    2    0    0 -0.19039752947E+03  0.79231028894E+03 -0.61917081106E+03  0.10234155102E+04  0.00000000000E+00 0.  1.
<mgrwt>
<rscale>  0 0.20083678E+04</rscale>
<asrwt>0</asrwt>
<pdfrwt beam="1">  1        2 0.16007053E+00 0.20083678E+04</pdfrwt>
<pdfrwt beam="2">  1       -2 0.14910369E+00 0.20083678E+04</pdfrwt>
<totfact> 0.67079269E+00</totfact>
</mgrwt>
</event>
<event>
 6    1  0.1934315E-005  0.1413633E+04  0.7818608E-02  0.8944009E-01
          2   -1    0    0  501    0  0.00000000000E+00  0.00000000000E+00  0.21613855828E+04  0.21613855828E+04  0.00000000000E+00 0.  1.
         -2   -1    0    0    0  501 -0.00000000000E+00 -0.00000000000E+00 -0.23114320880E+03  0.23114320880E+03  0.00000000000E+00 0. -1.
         23    2    1    2    0    0  0.32804322307E+03  0.35348094332E+03  0.10195244832E+03  0.50170749231E+03  0.93568010739E+02 0.  0.
         11    1    3    3    0    0  0.12562633829E+03  0.73298911459E+02  0.35711491749E+02  0.14976654478E+03  0.00000000000E+00 0.  1.
        -11    1    3    3    0    0  0.20241688478E+03  0.28018203186E+03  0.66240956569E+02  0.35194094753E+03  0.00000000000E+00 0. -1.
         22    1    1    2    0    0 -0.32804322307E+03 -0.35348094332E+03  0.18282899257E+04  0.18908212993E+04  0.00000000000E+00 0.  1.
<mgrwt>
<rscale>  0 0.14136330E+04</rscale>
<asrwt>0</asrwt>
<pdfrwt beam="1">  1        2 0.33252084E+00 0.14136330E+04</pdfrwt>
<pdfrwt beam="2">  1       -2 0.35560495E-01 0.14136330E+04</pdfrwt>
<totfact> 0.39272992E+01</totfact>
</mgrwt>
</event>
<event>
 6    1  0.1934315E-005  0.2182438E+04  0.7818608E-02  0.8525773E-01
         -4   -1    0    0    0  501 -0.00000000000E+00  0.00000000000E+00  0.18528389748E+04  0.18528389748E+04  0.00000000000E+00 0. -1.
          4   -1    0    0  501    0  0.00000000000E+00 -0.00000000000E+00 -0.64266749609E+03  0.64266749609E+03  0.00000000000E+00 0.  1.
         23    2    1    2    0    0  0.80436641331E+03 -0.73391521702E+03  0.62603494357E+03  0.12598477946E+04  0.98284496637E+02 0.  0.
         11    1    3    3    0    0  0.48771068956E+03 -0.37935819351E+03  0.34832837500E+03  0.70930036833E+03  0.00000000000E+00 0. -1.
        -11    1    3    3    0    0  0.31665572375E+03 -0.35455702351E+03  0.27770656858E+03  0.55054742624E+03  0.00000000000E+00 0.  1.
         22    1    1    2    0    0 -0.80436641331E+03  0.73391521702E+03  0.58413653509E+03  0.12356586763E+04  0.00000000000E+00 0. -1.
<mgrwt>
<rscale>  0 0.21824384E+04</rscale>
<asrwt>0</asrwt>
<pdfrwt beam="1">  1        4 0.98871923E-01 0.21824384E+04</pdfrwt>
<pdfrwt beam="2">  1       -4 0.28505215E+00 0.21824384E+04</pdfrwt>
<totfact> 0.59445946E-02</totfact>
</mgrwt>
</event>
<event>
 6    1  0.1934315E-005  0.1135378E+04  0.7818608E-02  0.9171380E-01
         -2   -1    0    0    0  501 -0.00000000000E+00  0.00000000000E+00  0.20522218512E+03  0.20522218512E+03  0.00000000000E+00 0. -1.
          2   -1    0    0  501    0  0.00000000000E+00 -0.00000000000E+00 -0.15703511450E+04  0.15703511450E+04  0.00000000000E+00 0.  1.
         23    2    1    2    0    0  0.35656639708E+03  0.32175935648E+03 -0.11495845277E+04  0.12491437705E+04  0.90260146194E+02 0.  0.
         13    1    3    3    0    0  0.33528202798E+03  0.28514141311E+03 -0.97913157142E+03  0.10735074745E+04  0.00000000000E+00 0.  1.
        -13    1    3    3    0    0  0.21284369104E+02  0.36617943362E+02 -0.17045295626E+03  0.17563629592E+03  0.00000000000E+00 0. -1.
         22    1    1    2    0    0 -0.35656639708E+03 -0.32175935648E+03 -0.21554443215E+03  0.52642955962E+03  0.00000000000E+00 0. -1.
<mgrwt>
<rscale>  0 0.11353782E+04</rscale>
<asrwt>0</asrwt>
<pdfrwt beam="1">  1        2 0.24159248E+00 0.11353782E+04</pdfrwt>
<pdfrwt beam="2">  1       -2 0.31572644E-01 0.11353782E+04</pdfrwt>
<totfact> 0.10690352E+02</totfact>
</mgrwt>
</event>
<event>
 6    1  0.1934315E-005  0.2345478E+04  0.7818608E-02  0.8460203E-01
         -2   -1    0    0    0  501 -0.00000000000E+00  0.00000000000E+00  0.40971696692E+03  0.40971696692E+03  0.00000000000E+00 0. -1.
          2   -1    0    0  501    0  0.00000000000E+00 -0.00000000000E+00 -0.33567482054E+04  0.33567482054E+04  0.00000000000E+00 0.  1.
         23    2    1    2    0    0 -0.12306605582E+03 -0.11507392848E+04 -0.11896204835E+04  0.16622221451E+04  0.91866257611E+02 0.  0.
         13    1    3    3    0    0  0.15966517460E+01 -0.22109417237E+03 -0.26525966085E+03  0.34532284898E+03  0.00000000000E+00 0. -1.
        -13    1    3    3    0    0 -0.12466270757E+03 -0.92964511246E+03 -0.92436082260E+03  0.13168992961E+04  0.00000000000E+00 0.  1.
         22    1    1    2    0    0  0.12306605582E+03  0.11507392848E+04 -0.17574107551E+04  0.21042430273E+04  0.00000000000E+00 0.  1.
<mgrwt>
<rscale>  0 0.23454779E+04</rscale>
<asrwt>0</asrwt>
<pdfrwt beam="1">  1        2 0.51642280E+00 0.23454779E+04</pdfrwt>
<pdfrwt beam="2">  1       -2 0.63033380E-01 0.23454779E+04</pdfrwt>
<totfact> 0.21526266E+00</totfact>
</mgrwt>
</event>
<event>
 6    1  0.1934315E-005  0.3230068E+04  0.7818608E-02  0.8180921E-01
          2   -1    0    0  501    0  0.00000000000E+00  0.00000000000E+00  0.11993253714E+04  0.11993253714E+04  0.00000000000E+00 0.  1.
         -2   -1    0    0    0  501 -0.00000000000E+00 -0.00000000000E+00 -0.21748356735E+04  0.21748356735E+04  0.00000000000E+00 0. -1.
         23    2    1    2    0    0 -0.10761496993E+04 -0.70086586490E+03  0.53300778639E+03  0.13930154270E+04  0.84163790475E+02 0.  0.
         11    1    3    3    0    0 -0.22540342176E+03 -0.12123005768E+03  0.78497830279E+02  0.26770382661E+03  0.00000000000E+00 0.  1.
        -11    1    3    3    0    0 -0.85074627752E+03 -0.57963580722E+03  0.45450995611E+03  0.11253116004E+04  0.00000000000E+00 0. -1.
         22    1    1    2    0    0  0.10761496993E+04  0.70086586490E+03 -0.15085180886E+04  0.19811456179E+04  0.00000000000E+00 0. -1.
<mgrwt>
<rscale>  0 0.32300685E+04</rscale>
<asrwt>0</asrwt>
<pdfrwt beam="1">  1        2 0.18451160E+00 0.32300685E+04</pdfrwt>
<pdfrwt beam="2">  1       -2 0.33459010E+00 0.32300685E+04</pdfrwt>
<totfact> 0.30942512E-01</totfact>
</mgrwt>
</event>
<event>
 6    1  0.1934315E-005  0.2274583E+04  0.7818608E-02  0.8488011E-01
          2   -1    0    0  501    0  0.00000000000E+00  0.00000000000E+00  0.81013484518E+03  0.81013484518E+03  0.00000000000E+00 0.  1.
         -2   -1    0    0    0  501 -0.00000000000E+00 -0.00000000000E+00 -0.15965636673E+04  0.15965636673E+04  0.00000000000E+00 0. -1.
         23    2    1    2    0    0  0.11130110914E+04  0.21559841797E+03 -0.32800562206E+03  0.11838214959E+04  0.92570398365E+02 0.  0.
         13    1    3    3    0    0  0.87922682418E+03  0.13883543983E+03 -0.27997212620E+03  0.93311279016E+03  0.00000000000E+00 0.  1.
        -13    1    3    3    0    0  0.23378426721E+03  0.76762978140E+02 -0.48033495870E+02  0.25070870574E+03  0.00000000000E+00 0. -1.
         22    1    1    2    0    0 -0.11130110914E+04 -0.21559841797E+03 -0.45842320008E+03  0.12228770166E+04  0.00000000000E+00 0.  1.
<mgrwt>
<rscale>  0 0.22745829E+04</rscale>
<asrwt>0</asrwt>
<pdfrwt beam="1">  1        2 0.12463613E+00 0.22745829E+04</pdfrwt>
<pdfrwt beam="2">  1       -2 0.24562518E+00 0.22745829E+04</pdfrwt>
<totfact> 0.21036378E+00</totfact>
</mgrwt>
</event>
<event>
 6    1  0.1934315E-005  0.1749672E+04  0.7818608E-02  0.8733531E-01
          2   -1    0    0  501    0  0.00000000000E+00  0.00000000000E+00  0.88505631988E+03  0.88505631988E+03  0.00000000000E+00 0.  1.
         -2   -1    0    0    0  501 -0.00000000000E+00 -0.00000000000E+00 -0.86473417112E+03  0.86473417112E+03  0.00000000000E+00 0. -1.
         23    2    1    2    0    0  0.21671537188E+03  0.21567805752E+03  0.82731273466E+03  0.88682097668E+03  0.92317424397E+02 0.  0.
         11    1    3    3    0    0  0.16332823299E+03  0.20897301958E+03  0.67167739145E+03  0.72214704374E+03  0.00000000000E+00 0. -1.
        -11    1    3    3    0    0  0.53387138888E+02  0.67050379374E+01  0.15563534321E+03  0.16467393294E+03  0.00000000000E+00 0.  1.
         22    1    1    2    0    0 -0.21671537188E+03 -0.21567805752E+03 -0.80699058590E+03  0.86296951431E+03  0.00000000000E+00 0. -1.
<mgrwt>
<rscale>  0 0.17496725E+04</rscale>
<asrwt>0</asrwt>
<pdfrwt beam="1">  1        2 0.13616251E+00 0.17496725E+04</pdfrwt>
<pdfrwt beam="2">  1       -2 0.13303603E+00 0.17496725E+04</pdfrwt>
<totfact> 0.11650678E+01</totfact>
</mgrwt>
</event>
<event>
 6    1  0.1934315E-005  0.4029051E+04  0.7818608E-02  0.7998712E-01
          2   -1    0    0  501    0  0.00000000000E+00  0.00000000000E+00  0.17592346788E+04  0.17592346788E+04  0.00000000000E+00 0. -1.
         -2   -1    0    0    0  501 -0.00000000000E+00 -0.00000000000E+00 -0.23068624334E+04  0.23068624334E+04  0.00000000000E+00 0.  1.
         23    2    1    2    0    0 -0.10361004790E+04 -0.12646240337E+04  0.91222189643E+03  0.18743080821E+04  0.90021381159E+02 0.  0.
         13    1    3    3    0    0 -0.79722105800E+03 -0.10165763741E+04  0.69218494590E+03  0.14656428416E+04  0.00000000000E+00 0. -1.
        -13    1    3    3    0    0 -0.23887942103E+03 -0.24804765952E+03  0.22003695053E+03  0.40866524049E+03  0.00000000000E+00 0.  1.
         22    1    1    2    0    0  0.10361004790E+04  0.12646240337E+04 -0.14598496510E+04  0.21917890302E+04  0.00000000000E+00 0. -1.
<mgrwt>
<rscale>  0 0.40290507E+04</rscale>
<asrwt>0</asrwt>
<pdfrwt beam="1">  1        2 0.27065149E+00 0.40290507E+04</pdfrwt>
<pdfrwt beam="2">  1       -2 0.35490191E+00 0.40290507E+04</pdfrwt>
<totfact> 0.10362259E-01</totfact>
</mgrwt>
</event>
<event>
 6    1  0.1934315E-005  0.2715127E+04  0.7818608E-02  0.8330113E-01
          2   -1    0    0  501    0  0.00000000000E+00  0.00000000000E+00  0.16542112704E+04  0.16542112704E+04  0.00000000000E+00 0.  1.
         -2   -1    0    0    0  501 -0.00000000000E+00 -0.00000000000E+00 -0.11141132138E+04  0.11141132138E+04  0.00000000000E+00 0. -1.
         23    2    1    2    0    0 -0.75415230335E+03 -0.29259284608E+03  0.13797676069E+04  0.16023908566E+04  0.97680795255E+02 0.  0.
         13    1    3    3    0    0 -0.63031374971E+03 -0.20406826887E+03  0.11287646363E+04  0.13088349344E+04  0.00000000000E+00 0. -1.
        -13    1    3    3    0    0 -0.12383855364E+03 -0.88524577211E+02  0.25100297066E+03  0.29355592213E+03  0.00000000000E+00 0.  1.
         22    1    1    2    0    0  0.75415230335E+03  0.29259284608E+03 -0.83966955031E+03  0.11659336276E+04  0.00000000000E+00 0. -1.
<mgrwt>
<rscale>  0 0.27151270E+04</rscale>
<asrwt>0</asrwt>
<pdfrwt beam="1">  1        2 0.25449404E+00 0.27151270E+04</pdfrwt>
<pdfrwt beam="2">  1       -2 0.17140203E+00 0.27151270E+04</pdfrwt>
<totfact> 0.18985583E+00</totfact>
</mgrwt>
</event>
<event>
 6    1  0.1934315E-005  0.3132380E+04  0.7818608E-02  0.8206907E-01
          2   -1    0    0  501    0  0.00000000000E+00  0.00000000000E+00  0.32707568439E+04  0.32707568439E+04  0.00000000000E+00 0.  1.
         -2   -1    0    0    0  501 -0.00000000000E+00 -0.00000000000E+00 -0.74996458163E+03  0.74996458163E+03  0.00000000000E+00 0. -1.
         23    2    1    2    0    0  0.47745711981E+03  0.10326427491E+04 -0.11798185811E+03  0.11471443504E+04  0.87772964282E+02 0.  0.
         13    1    3    3    0    0  0.25153153702E+03  0.44309609880E+03 -0.42136376944E+02  0.51125115271E+03  0.00000000000E+00 0.  1.
        -13    1    3    3    0    0  0.22592558279E+03  0.58954665028E+03 -0.75845481166E+02  0.63589319766E+03  0.00000000000E+00 0. -1.
         22    1    1    2    0    0 -0.47745711981E+03 -0.10326427491E+04  0.26387741204E+04  0.28735770752E+04  0.00000000000E+00 0.  1.
<mgrwt>
<rscale>  0 0.31323804E+04</rscale>
<asrwt>0</asrwt>
<pdfrwt beam="1">  1        2 0.50319335E+00 0.31323804E+04</pdfrwt>
<pdfrwt beam="2">  1       -2 0.11537917E+00 0.31323804E+04</pdfrwt>
<totfact> 0.57641985E-01</totfact>
</mgrwt>
</event>
<event>
 6    1  0.1934315E-005  0.1690294E+04  0.7818608E-02  0.8766919E-01
          2   -1    0    0  501    0  0.00000000000E+00  0.00000000000E+00  0.14638741856E+04  0.14638741856E+04  0.00000000000E+00 0.  1.
         -2   -1    0    0    0  501 -0.00000000000E+00 -0.00000000000E+00 -0.48793380045E+03  0.48793380045E+03  0.00000000000E+00 0. -1.
         23    2    1    2    0    0 -0.67304106471E+03  0.47767314550E+03  0.68591313764E+03  0.10770098877E+04  0.91200641461E+02 0.  0.
         11    1    3    3    0    0 -0.49518156330E+03  0.35143026627E+03  0.45044537885E+03  0.75604831328E+03  0.00000000000E+00 0.  1.
        -11    1    3    3    0    0 -0.17785950141E+03  0.12624287923E+03  0.23546775878E+03  0.32096157437E+03  0.00000000000E+00 0. -1.
         22    1    1    2    0    0  0.67304106471E+03 -0.47767314550E+03  0.29002724756E+03  0.87479809845E+03  0.00000000000E+00 0. -1.
<mgrwt>
<rscale>  0 0.16902943E+04</rscale>
<asrwt>0</asrwt>
<pdfrwt beam="1">  1        2 0.22521141E+00 0.16902943E+04</pdfrwt>
<pdfrwt beam="2">  1       -2 0.75066739E-01 0.16902943E+04</pdfrwt>
<totfact> 0.20193107E+01</totfact>
</mgrwt>
</event>
<event>
 6    1  0.1934315E-005  0.1262213E+04  0.7818608E-02  0.9060079E-01
         -3   -1    0    0    0  501 -0.00000000000E+00  0.00000000000E+00  0.50622480886E+03  0.50622480886E+03  0.00000000000E+00 0.  1.
          3   -1    0    0  501    0  0.00000000000E+00 -0.00000000000E+00 -0.78679572129E+03  0.78679572129E+03  0.00000000000E+00 0. -1.
         23    2    1    2    0    0 -0.48355045480E+03 -0.42402982871E+01 -0.55101028905E+03  0.73896594899E+03  0.92840253440E+02 0.  0.
         11    1    3    3    0    0 -0.20656074621E+03 -0.26990478081E+02 -0.29473007118E+03  0.36091777823E+03  0.00000000000E+00 0.  1.
        -11    1    3    3    0    0 -0.27698970859E+03  0.22750179793E+02 -0.25628021787E+03  0.37804817076E+03  0.00000000000E+00 0. -1.
         22    1    1    2    0    0  0.48355045480E+03  0.42402982871E+01  0.27043937662E+03  0.55405458116E+03  0.00000000000E+00 0.  1.
<mgrwt>
<rscale>  0 0.12622132E+04</rscale>
<asrwt>0</asrwt>
<pdfrwt beam="1">  1        3 0.12104550E+00 0.12622132E+04</pdfrwt>
<pdfrwt beam="2">  1       -3 0.77880740E-01 0.12622132E+04</pdfrwt>
<totfact> 0.22053642E+00</totfact>
</mgrwt>
</event>
<event>
 6    1  0.1934315E-005  0.4255363E+04  0.7818608E-02  0.7954924E-01
         -2   -1    0    0    0  501 -0.00000000000E+00  0.00000000000E+00  0.26508211895E+04  0.26508211895E+04  0.00000000000E+00 0. -1.
          2   -1    0    0  501    0  0.00000000000E+00 -0.00000000000E+00 -0.17077832803E+04  0.17077832803E+04  0.00000000000E+00 0.  1.
         23    2    1    2    0    0 -0.10416700854E+04  0.10558383474E+04 -0.10895443402E+04  0.18424046003E+04  0.86467676119E+02 0.  0.
         11    1    3    3    0    0 -0.71133635914E+03  0.77526091808E+03 -0.78354170973E+03  0.13118561346E+04  0.00000000000E+00 0. -1.
        -11    1    3    3    0    0 -0.33033372629E+03  0.28057742933E+03 -0.30600263051E+03  0.53054846569E+03  0.00000000000E+00 0.  1.
         22    1    1    2    0    0  0.10416700854E+04 -0.10558383474E+04  0.20325822494E+04  0.25161998695E+04  0.00000000000E+00 0. -1.
<mgrwt>
<rscale>  0 0.42553628E+04</rscale>
<asrwt>0</asrwt>
<pdfrwt beam="1">  1        2 0.26273589E+00 0.42553628E+04</pdfrwt>
<pdfrwt beam="2">  1       -2 0.40781865E+00 0.42553628E+04</pdfrwt>
<totfact> 0.49487465E-02</totfact>
</mgrwt>
</event>
<event>
 6    1  0.1934315E-005  0.1891617E+04  0.7818608E-02  0.8659040E-01
         -2   -1    0    0    0  501 -0.00000000000E+00  0.00000000000E+00  0.10127128249E+04  0.10127128249E+04  0.00000000000E+00 0. -1.
          2   -1    0    0  501    0  0.00000000000E+00 -0.00000000000E+00 -0.88332447643E+03  0.88332447643E+03  0.00000000000E+00 0.  1.
         23    2    1    2    0    0 -0.57447021432E+03 -0.74397477288E+03 -0.17866482178E+02  0.94461811135E+03  0.92030838724E+02 0.  0.
         11    1    3    3    0    0 -0.61813245199E+02 -0.11368008904E+03 -0.26639228426E+02  0.13211240826E+03  0.00000000000E+00 0. -1.
        -11    1    3    3    0    0 -0.51265696913E+03 -0.63029468384E+03  0.87727462480E+01  0.81250570309E+03  0.00000000000E+00 0.  1.
         22    1    1    2    0    0  0.57447021432E+03  0.74397477288E+03  0.14725483061E+03  0.95141918993E+03  0.00000000000E+00 0.  1.
<mgrwt>
<rscale>  0 0.18916173E+04</rscale>
<asrwt>0</asrwt>
<pdfrwt beam="1">  1        2 0.13589607E+00 0.18916173E+04</pdfrwt>
<pdfrwt beam="2">  1       -2 0.15580197E+00 0.18916173E+04</pdfrwt>
<totfact> 0.76345501E+00</totfact>
</mgrwt>
</event>
<event>
 6    1  0.1934315E-005  0.2207397E+04  0.7818608E-02  0.8515356E-01
         -2   -1    0    0    0  501 -0.00000000000E+00  0.00000000000E+00  0.10917242857E+04  0.10917242857E+04  0.00000000000E+00 0. -1.
          2   -1    0    0  501    0  0.00000000000E+00 -0.00000000000E+00 -0.11158042010E+04  0.11158042010E+04  0.00000000000E+00 0.  1.
         23    2    1    2    0    0  0.53304773424E+03  0.68759677415E+03  0.66410787086E+03  0.10982351803E+04  0.90288627196E+02 0.  0.
         13    1    3    3    0    0  0.27123961890E+03  0.36871269134E+03  0.29438468559E+03  0.54422635247E+03  0.00000000000E+00 0.  1.
        -13    1    3    3    0    0  0.26180811534E+03  0.31888408281E+03  0.36972318528E+03  0.55400882778E+03  0.00000000000E+00 0. -1.
         22    1    1    2    0    0 -0.53304773424E+03 -0.68759677415E+03 -0.68818778616E+03  0.11092933065E+04  0.00000000000E+00 0.  1.
<mgrwt>
<rscale>  0 0.22073971E+04</rscale>
<asrwt>0</asrwt>
<pdfrwt beam="1">  1        2 0.17166218E+00 0.22073971E+04</pdfrwt>
<pdfrwt beam="2">  1       -2 0.16795758E+00 0.22073971E+04</pdfrwt>
<totfact> 0.42891844E+00</totfact>
</mgrwt>
</event>
<event>
 6    1  0.1934315E-005  0.4083894E+04  0.7818608E-02  0.7987833E-01
          2   -1    0    0  501    0  0.00000000000E+00  0.00000000000E+00  0.10077305667E+04  0.10077305667E+04  0.00000000000E+00 0.  1.
         -2   -1    0    0    0  501 -0.00000000000E+00 -0.00000000000E+00 -0.41375625970E+04  0.41375625970E+04  0.00000000000E+00 0. -1.
         23    2    1    2    0    0 -0.39298535652E+03  0.19151018084E+04 -0.23047076486E+04  0.30232934765E+04  0.81078186702E+02 0.  0.
         11    1    3    3    0    0 -0.34224046083E+03  0.15108114498E+04 -0.18102265089E+04  0.23825616012E+04  0.00000000000E+00 0.  1.
        -11    1    3    3    0    0 -0.50744895693E+02  0.40429035860E+03 -0.49448113966E+03  0.64073187526E+03  0.00000000000E+00 0. -1.
         22    1    1    2    0    0  0.39298535652E+03 -0.19151018084E+04 -0.82512438183E+03  0.21219996872E+04  0.00000000000E+00 0.  1.
<mgrwt>
<rscale>  0 0.40838944E+04</rscale>
<asrwt>0</asrwt>
<pdfrwt beam="1">  1        2 0.15503547E+00 0.40838944E+04</pdfrwt>
<pdfrwt beam="2">  1       -2 0.63654809E+00 0.40838944E+04</pdfrwt>
<totfact> 0.72779112E-03</totfact>
</mgrwt>
</event>
<event>
 6    1  0.1934315E-005  0.5013695E+04  0.7818608E-02  0.7826398E-01
         -2   -1    0    0    0  501 -0.00000000000E+00  0.00000000000E+00  0.19314621629E+04  0.19314621629E+04  0.00000000000E+00 0. -1.
          2   -1    0    0  501    0  0.00000000000E+00 -0.00000000000E+00 -0.32536412429E+04  0.32536412429E+04  0.00000000000E+00 0.  1.
         23    2    1    2    0    0 -0.85051416376E+03  0.21702238102E+04  0.29045532833E+03  0.23507012706E+04  0.90478929716E+02 0.  0.
         13    1    3    3    0    0 -0.21277520419E+03  0.54704299913E+03  0.33692528351E+02  0.58793240843E+03  0.00000000000E+00 0. -1.
        -13    1    3    3    0    0 -0.63773895957E+03  0.16231808111E+04  0.25676279998E+03  0.17627688622E+04  0.00000000000E+00 0.  1.
         22    1    1    2    0    0  0.85051416376E+03 -0.21702238102E+04 -0.16126344083E+04  0.28344021352E+04  0.00000000000E+00 0.  1.
<mgrwt>
<rscale>  0 0.50136952E+04</rscale>
<asrwt>0</asrwt>
<pdfrwt beam="1">  1        2 0.50056019E+00 0.50136952E+04</pdfrwt>
<pdfrwt beam="2">  1       -2 0.29714803E+00 0.50136952E+04</pdfrwt>
<totfact> 0.28738915E-02</totfact>
</mgrwt>
</event>
<event>
 6    1  0.1934315E-005  0.2285053E+04  0.7818608E-02  0.8483838E-01
         -2   -1    0    0    0  501 -0.00000000000E+00  0.00000000000E+00  0.54941560341E+03  0.54941560341E+03  0.00000000000E+00 0. -1.
          2   -1    0    0  501    0  0.00000000000E+00 -0.00000000000E+00 -0.23759183271E+04  0.23759183271E+04  0.00000000000E+00 0.  1.
         23    2    1    2    0    0  0.20242931074E+03 -0.83374219191E+03  0.47634014934E+02  0.86414684937E+03  0.91526550703E+02 0.  0.
         11    1    3    3    0    0  0.13590800668E+03 -0.68666308642E+03  0.19255850302E+02  0.70024850468E+03  0.00000000000E+00 0. -1.
        -11    1    3    3    0    0  0.66521304062E+02 -0.14707910548E+03  0.28378164633E+02  0.16389834469E+03  0.00000000000E+00 0.  1.
         22    1    1    2    0    0 -0.20242931074E+03  0.83374219191E+03 -0.18741367387E+04  0.20611870812E+04  0.00000000000E+00 0.  1.
<mgrwt>
<rscale>  0 0.22850528E+04</rscale>
<asrwt>0</asrwt>
<pdfrwt beam="1">  1        2 0.36552589E+00 0.22850528E+04</pdfrwt>
<pdfrwt beam="2">  1       -2 0.84525478E-01 0.22850528E+04</pdfrwt>
<totfact> 0.45455582E+00</totfact>
</mgrwt>
</event>
<event>
 6    1  0.1934315E-005  0.5036961E+04  0.7818608E-02  0.7822831E-01
          2   -1    0    0  501    0  0.00000000000E+00  0.00000000000E+00  0.48413214808E+04  0.48413214808E+04  0.00000000000E+00 0.  1.
         -2   -1    0    0    0  501 -0.00000000000E+00 -0.00000000000E+00 -0.13101266097E+04  0.13101266097E+04  0.00000000000E+00 0. -1.
         23    2    1    2    0    0 -0.10816343128E+04 -0.22147065927E+04  0.11389997048E+04  0.27167056269E+04  0.91164999785E+02 0.  0.
         11    1    3    3    0    0 -0.44861401032E+03 -0.83845912215E+03  0.46915047721E+03  0.10603633340E+04  0.00000000000E+00 0. -1.
        -11    1    3    3    0    0 -0.63302030247E+03 -0.13762474705E+04  0.66984922757E+03  0.16563422929E+04  0.00000000000E+00 0.  1.
         22    1    1    2    0    0  0.10816343128E+04  0.22147065927E+04  0.23921951663E+04  0.34347424637E+04  0.00000000000E+00 0. -1.
<mgrwt>
<rscale>  0 0.50369610E+04</rscale>
<asrwt>0</asrwt>
<pdfrwt beam="1">  1        2 0.74481868E+00 0.50369610E+04</pdfrwt>
<pdfrwt beam="2">  1       -2 0.20155794E+00 0.50369610E+04</pdfrwt>
<totfact> 0.49606436E-03</totfact>
</mgrwt>
</event>
<event>
 6    1  0.1934315E-005  0.2363157E+04  0.7818608E-02  0.8453427E-01
         -2   -1    0    0    0  501 -0.00000000000E+00  0.00000000000E+00  0.93457590108E+03  0.93457590108E+03  0.00000000000E+00 0.  1.
          2   -1    0    0  501    0  0.00000000000E+00 -0.00000000000E+00 -0.14938629061E+04  0.14938629061E+04  0.00000000000E+00 0. -1.
         23    2    1    2    0    0  0.26709818950E+03 -0.11093584820E+04 -0.58800321938E+03  0.12870176293E+04  0.92999502920E+02 0.  0.
         11    1    3    3    0    0  0.11453565212E+03 -0.53834971910E+03 -0.33316892626E+03  0.64338197759E+03  0.00000000000E+00 0.  1.
        -11    1    3    3    0    0  0.15256253738E+03 -0.57100876293E+03 -0.25483429312E+03  0.64363565167E+03  0.00000000000E+00 0. -1.
         22    1    1    2    0    0 -0.26709818950E+03  0.11093584820E+04  0.28716214351E+02  0.11414211779E+04  0.00000000000E+00 0.  1.
<mgrwt>
<rscale>  0 0.23631574E+04</rscale>
<asrwt>0</asrwt>
<pdfrwt beam="1">  1        2 0.22982506E+00 0.23631574E+04</pdfrwt>
<pdfrwt beam="2">  1       -2 0.14378091E+00 0.23631574E+04</pdfrwt>
<totfact> 0.38671270E+00</totfact>
</mgrwt>
</event>
<event>
 6    1  0.1934315E-005  0.4878401E+04  0.7818608E-02  0.7847544E-01
         -2   -1    0    0    0  501 -0.00000000000E+00  0.00000000000E+00  0.16123788239E+04  0.16123788239E+04  0.00000000000E+00 0. -1.
          2   -1    0    0  501    0  0.00000000000E+00 -0.00000000000E+00 -0.36900124590E+04  0.36900124590E+04  0.00000000000E+00 0.  1.
         23    2    1    2    0    0  0.21797726463E+04 -0.64586445227E+03 -0.79743877833E+02  0.22758233979E+04  0.66808473944E+02 0.  0.
         11    1    3    3    0    0  0.18662357790E+04 -0.56260415032E+03 -0.89826398953E+02  0.19512632305E+04  0.00000000000E+00 0. -1.
        -11    1    3    3    0    0  0.31353686737E+03 -0.83260301950E+02  0.10082521119E+02  0.32456016748E+03  0.00000000000E+00 0.  1.
         22    1    1    2    0    0 -0.21797726463E+04  0.64586445227E+03 -0.19978897572E+04  0.30265678850E+04  0.00000000000E+00 0.  1.
<mgrwt>
<rscale>  0 0.48784005E+04</rscale>
<asrwt>0</asrwt>
<pdfrwt beam="1">  1        2 0.56769423E+00 0.48784005E+04</pdfrwt>
<pdfrwt beam="2">  1       -2 0.24805828E+00 0.48784005E+04</pdfrwt>
<totfact> 0.28747060E-02</totfact>
</mgrwt>
</event>
<event>
 6    1  0.1934315E-005  0.1946950E+04  0.7818608E-02  0.8631833E-01
         -2   -1    0    0    0  501 -0.00000000000E+00  0.00000000000E+00  0.38472304268E+03  0.38472304268E+03  0.00000000000E+00 0. -1.
          2   -1    0    0  501    0  0.00000000000E+00 -0.00000000000E+00 -0.24632096378E+04  0.24632096378E+04  0.00000000000E+00 0.  1.
         23    2    1    2    0    0 -0.12893328855E+03  0.88536198667E+03 -0.48813780345E+03  0.10231864188E+04  0.90234650425E+02 0.  0.
         13    1    3    3    0    0 -0.78332988839E+02  0.75555847452E+03 -0.42215496022E+03  0.86903364492E+03  0.00000000000E+00 0.  1.
        -13    1    3    3    0    0 -0.50600299712E+02  0.12980351215E+03 -0.65982843239E+02  0.15415277389E+03  0.00000000000E+00 0. -1.
         22    1    1    2    0    0  0.12893328855E+03 -0.88536198667E+03 -0.15903487917E+04  0.18247462617E+04  0.00000000000E+00 0.  1.
<mgrwt>
<rscale>  0 0.19469499E+04</rscale>
<asrwt>0</asrwt>
<pdfrwt beam="1">  1        2 0.37895534E+00 0.19469499E+04</pdfrwt>
<pdfrwt beam="2">  1       -2 0.59188158E-01 0.19469499E+04</pdfrwt>
<totfact> 0.90985809E+00</totfact>
</mgrwt>
</event>
<event>
 6    1  0.1934315E-005  0.6082147E+04  0.7818608E-02  0.7680299E-01
          2   -1    0    0  501    0  0.00000000000E+00  0.00000000000E+00  0.30774004444E+04  0.30774004444E+04  0.00000000000E+00 0.  1.
         -2   -1    0    0    0  501 -0.00000000000E+00 -0.00000000000E+00 -0.30051757490E+04  0.30051757490E+04  0.00000000000E+00 0. -1.
         23    2    1    2    0    0  0.19997006827E+04 -0.13158248796E+04 -0.18384839427E+04  0.30197334887E+04  0.92569979075E+02 0.  0.
         11    1    3    3    0    0  0.68544809565E+03 -0.41776664899E+03 -0.65910998186E+03  0.10386501014E+04  0.00000000000E+00 0. -1.
        -11    1    3    3    0    0  0.13142525870E+04 -0.89805823058E+03 -0.11793739609E+04  0.19810833874E+04  0.00000000000E+00 0.  1.
         22    1    1    2    0    0 -0.19997006827E+04  0.13158248796E+04  0.19107086381E+04  0.30628427047E+04  0.00000000000E+00 0.  1.
<mgrwt>
<rscale>  0 0.60821474E+04</rscale>
<asrwt>0</asrwt>
<pdfrwt beam="1">  1        2 0.47344622E+00 0.60821474E+04</pdfrwt>
<pdfrwt beam="2">  1       -2 0.46233473E+00 0.60821474E+04</pdfrwt>
<totfact> 0.30119463E-03</totfact>
</mgrwt>
</event>
<event>
 6    1  0.1934315E-005  0.3462328E+04  0.7818608E-02  0.8122776E-01
         -2   -1    0    0    0  501 -0.00000000000E+00  0.00000000000E+00  0.35597974730E+04  0.35597974730E+04  0.00000000000E+00 0. -1.
          2   -1    0    0  501    0  0.00000000000E+00 -0.00000000000E+00 -0.84188168514E+03  0.84188168514E+03  0.00000000000E+00 0.  1.
         23    2    1    2    0    0  0.47912701237E+03 -0.93204217395E+03  0.31098031933E+04  0.32828221313E+04  0.88203952050E+02 0.  0.
         13    1    3    3    0    0  0.15968442669E+03 -0.39850940004E+03  0.13212140679E+04  0.13892139761E+04  0.00000000000E+00 0. -1.
        -13    1    3    3    0    0  0.31944258568E+03 -0.53353277391E+03  0.17885891253E+04  0.18936081553E+04  0.00000000000E+00 0.  1.
         22    1    1    2    0    0 -0.47912701237E+03  0.93204217395E+03 -0.39188740538E+03  0.11188570268E+04  0.00000000000E+00 0.  1.
<mgrwt>
<rscale>  0 0.34623277E+04</rscale>
<asrwt>0</asrwt>
<pdfrwt beam="1">  1        2 0.12952026E+00 0.34623277E+04</pdfrwt>
<pdfrwt beam="2">  1       -2 0.54766114E+00 0.34623277E+04</pdfrwt>
<totfact> 0.23178616E-02</totfact>
</mgrwt>
</event>
<event>
 6    1  0.1934315E-005  0.1166900E+04  0.7818608E-02  0.9142333E-01
         -2   -1    0    0    0  501 -0.00000000000E+00  0.00000000000E+00  0.52139663937E+03  0.52139663937E+03  0.00000000000E+00 0. -1.
          2   -1    0    0  501    0  0.00000000000E+00 -0.00000000000E+00 -0.65288810366E+03  0.65288810366E+03  0.00000000000E+00 0.  1.
         23    2    1    2    0    0 -0.38811830920E+02  0.22184825505E+03  0.47204927041E+03  0.53009189542E+03  0.86278023904E+02 0.  0.
         13    1    3    3    0    0  0.26471531525E+02  0.54310313446E+02  0.99204387194E+02  0.11615447717E+03  0.00000000000E+00 0.  1.
        -13    1    3    3    0    0 -0.65283362445E+02  0.16753794160E+03  0.37284488321E+03  0.41393741825E+03  0.00000000000E+00 0. -1.
         22    1    1    2    0    0  0.38811830920E+02 -0.22184825505E+03 -0.60354073469E+03  0.64419284762E+03  0.00000000000E+00 0.  1.
<mgrwt>
<rscale>  0 0.11668996E+04</rscale>
<asrwt>0</asrwt>
<pdfrwt beam="1">  1        2 0.10044432E+00 0.11668996E+04</pdfrwt>
<pdfrwt beam="2">  1       -2 0.80214868E-01 0.11668996E+04</pdfrwt>
<totfact> 0.60785463E+01</totfact>
</mgrwt>
</event>
<event>
 6    1  0.1934315E-005  0.3804494E+04  0.7818608E-02  0.8045191E-01
          2   -1    0    0  501    0  0.00000000000E+00  0.00000000000E+00  0.17072116120E+04  0.17072116120E+04  0.00000000000E+00 0.  1.
         -2   -1    0    0    0  501 -0.00000000000E+00 -0.00000000000E+00 -0.21195634996E+04  0.21195634996E+04  0.00000000000E+00 0. -1.
         23    2    1    2    0    0 -0.13537627267E+04  0.13289934613E+04 -0.80652527330E+02  0.19009190407E+04  0.89951258053E+02 0.  0.
         11    1    3    3    0    0 -0.72127774588E+02  0.52568091468E+02  0.10082755186E+02  0.89819163098E+02  0.00000000000E+00 0. -1.
        -11    1    3    3    0    0 -0.12816349521E+04  0.12764253698E+04 -0.90735282516E+02  0.18110998776E+04  0.00000000000E+00 0.  1.
         22    1    1    2    0    0  0.13537627267E+04 -0.13289934613E+04 -0.33169936036E+03  0.19258560709E+04  0.00000000000E+00 0.  1.
<mgrwt>
<rscale>  0 0.38044939E+04</rscale>
<asrwt>0</asrwt>
<pdfrwt beam="1">  1        2 0.26264794E+00 0.38044939E+04</pdfrwt>
<pdfrwt beam="2">  1       -2 0.32608669E+00 0.38044939E+04</pdfrwt>
<totfact> 0.17094752E-01</totfact>
</mgrwt>
</event>
<event>
 6    1  0.1934315E-005  0.1568742E+04  0.7818608E-02  0.8839985E-01
         -1   -1    0    0    0  501 -0.00000000000E+00  0.00000000000E+00  0.17085157564E+04  0.17085157564E+04  0.00000000000E+00 0. -1.
          1   -1    0    0  501    0  0.00000000000E+00 -0.00000000000E+00 -0.36010065135E+03  0.36010065135E+03  0.00000000000E+00 0.  1.
         23    2    1    2    0    0 -0.47985000669E+03  0.57608684801E+03  0.96829047139E+03  0.12280054261E+04  0.90987933764E+02 0.  0.
         13    1    3    3    0    0 -0.42043273302E+03  0.48579595382E+03  0.87291411179E+03  0.10838544359E+04  0.00000000000E+00 0. -1.
        -13    1    3    3    0    0 -0.59417273668E+02  0.90290894190E+02  0.95376359605E+02  0.14415099013E+03  0.00000000000E+00 0.  1.
         22    1    1    2    0    0  0.47985000669E+03 -0.57608684801E+03  0.38012463362E+03  0.84061098164E+03  0.00000000000E+00 0.  1.
<mgrwt>
<rscale>  0 0.15687417E+04</rscale>
<asrwt>0</asrwt>
<pdfrwt beam="1">  1        1 0.55400101E-01 0.15687417E+04</pdfrwt>
<pdfrwt beam="2">  1       -1 0.26284857E+00 0.15687417E+04</pdfrwt>
<totfact> 0.38184689E+00</totfact>
</mgrwt>
</event>
<event>
 6    1  0.1934315E-005  0.1225975E+04  0.7818608E-02  0.9090420E-01
         -2   -1    0    0    0  501 -0.00000000000E+00  0.00000000000E+00  0.12895059710E+03  0.12895059710E+03  0.00000000000E+00 0. -1.
          2   -1    0    0  501    0  0.00000000000E+00 -0.00000000000E+00 -0.29139352111E+04  0.29139352111E+04  0.00000000000E+00 0.  1.
         23    2    1    2    0    0 -0.50520780703E+03 -0.26890483327E+03 -0.19204287935E+04  0.20060630150E+04  0.93259486422E+02 0.  0.
         11    1    3    3    0    0 -0.29966514591E+03 -0.19639118507E+03 -0.12997025175E+04  0.13481822322E+04  0.00000000000E+00 0.  1.
        -11    1    3    3    0    0 -0.20554266112E+03 -0.72513648200E+02 -0.62072627599E+03  0.65788078283E+03  0.00000000000E+00 0. -1.
         22    1    1    2    0    0  0.50520780703E+03  0.26890483327E+03 -0.86455582052E+03  0.10368227932E+04  0.00000000000E+00 0.  1.
<mgrwt>
<rscale>  0 0.12259750E+04</rscale>
<asrwt>0</asrwt>
<pdfrwt beam="1">  1        2 0.44829768E+00 0.12259750E+04</pdfrwt>
<pdfrwt beam="2">  1       -2 0.19838555E-01 0.12259750E+04</pdfrwt>
<totfact> 0.42580648E+01</totfact>
</mgrwt>
</event>
<event>
 6    1  0.1934315E-005  0.1846891E+04  0.7818608E-02  0.8681753E-01
         -2   -1    0    0    0  501 -0.00000000000E+00  0.00000000000E+00  0.24801218646E+03  0.24801218646E+03  0.00000000000E+00 0. -1.
          2   -1    0    0  501    0  0.00000000000E+00 -0.00000000000E+00 -0.34383442238E+04  0.34383442238E+04  0.00000000000E+00 0.  1.
         23    2    1    2    0    0  0.60374113812E+02  0.37899168426E+03 -0.32705731629E+04  0.32942870688E+04  0.91644678058E+02 0.  0.
         11    1    3    3    0    0  0.14177800958E+02  0.79678429347E+02 -0.42452601249E+03  0.43217125937E+03  0.00000000000E+00 0. -1.
        -11    1    3    3    0    0  0.46196312854E+02  0.29931325491E+03 -0.28460471504E+04  0.28621158094E+04  0.00000000000E+00 0.  1.
         22    1    1    2    0    0 -0.60374113812E+02 -0.37899168426E+03  0.80241125538E+02  0.39206934155E+03  0.00000000000E+00 0. -1.
<mgrwt>
<rscale>  0 0.18468907E+04</rscale>
<asrwt>0</asrwt>
<pdfrwt beam="1">  1        2 0.52897607E+00 0.18468907E+04</pdfrwt>
<pdfrwt beam="2">  1       -2 0.38155719E-01 0.18468907E+04</pdfrwt>
<totfact> 0.55112837E+00</totfact>
</mgrwt>
</event>
<event>
 6    1  0.1934315E-005  0.1370274E+04  0.7818608E-02  0.8975621E-01
          2   -1    0    0  501    0  0.00000000000E+00  0.00000000000E+00  0.24580624139E+04  0.24580624139E+04  0.00000000000E+00 0.  1.
         -2   -1    0    0    0  501 -0.00000000000E+00 -0.00000000000E+00 -0.19096851391E+03  0.19096851391E+03  0.00000000000E+00 0. -1.
         23    2    1    2    0    0  0.49204220086E+03 -0.37258719720E+03  0.57632314291E+03  0.84913301405E+03  0.89172661406E+02 0.  0.
         11    1    3    3    0    0  0.18770114389E+03 -0.11029294476E+03  0.15710875542E+03  0.26847609598E+03  0.00000000000E+00 0. -1.
        -11    1    3    3    0    0  0.30434105697E+03 -0.26229425244E+03  0.41921438749E+03  0.58065691807E+03  0.00000000000E+00 0.  1.
         22    1    1    2    0    0 -0.49204220086E+03  0.37258719720E+03  0.16907707570E+04  0.17998979137E+04  0.00000000000E+00 0.  1.
<mgrwt>
<rscale>  0 0.13702737E+04</rscale>
<asrwt>0</asrwt>
<pdfrwt beam="1">  1        2 0.37816343E+00 0.13702737E+04</pdfrwt>
<pdfrwt beam="2">  1       -2 0.29379773E-01 0.13702737E+04</pdfrwt>
<totfact> 0.38420155E+01</totfact>
</mgrwt>
</event>
<event>
 6    1  0.1934315E-005  0.2835314E+04  0.7818608E-02  0.8292388E-01
          2   -1    0    0  501    0  0.00000000000E+00  0.00000000000E+00  0.11654397650E+04  0.11654397650E+04  0.00000000000E+00 0.  1.
         -2   -1    0    0    0  501 -0.00000000000E+00 -0.00000000000E+00 -0.17244574062E+04  0.17244574062E+04  0.00000000000E+00 0. -1.
         23    2    1    2    0    0 -0.30748447079E+03  0.13661351544E+04 -0.64538305765E+02  0.14048443866E+04  0.92469441978E+02 0.  0.
         13    1    3    3    0    0 -0.90852358481E+02  0.42989467808E+03 -0.62880095052E+02  0.44386652457E+03  0.00000000000E+00 0. -1.
        -13    1    3    3    0    0 -0.21663211230E+03  0.93624047634E+03 -0.16582107123E+01  0.96097786202E+03  0.00000000000E+00 0.  1.
         22    1    1    2    0    0  0.30748447079E+03 -0.13661351544E+04 -0.49447933551E+03  0.14850527846E+04  0.00000000000E+00 0.  1.
<mgrwt>
<rscale>  0 0.28353139E+04</rscale>
<asrwt>0</asrwt>
<pdfrwt beam="1">  1        2 0.17929843E+00 0.28353139E+04</pdfrwt>
<pdfrwt beam="2">  1       -2 0.26530114E+00 0.28353139E+04</pdfrwt>
<totfact> 0.89266068E-01</totfact>
</mgrwt>
</event>
<event>
 6    1  0.1934315E-005  0.4597834E+04  0.7818608E-02  0.7893729E-01
         -2   -1    0    0    0  501 -0.00000000000E+00  0.00000000000E+00  0.21813929846E+04  0.21813929846E+04  0.00000000000E+00 0. -1.
          2   -1    0    0  501    0  0.00000000000E+00 -0.00000000000E+00 -0.24227727788E+04  0.24227727788E+04  0.00000000000E+00 0.  1.
         23    2    1    2    0    0  0.14080746409E+04 -0.15058539155E+04  0.89594510982E+03  0.22496428507E+04  0.88910668599E+02 0.  0.
         11    1    3    3    0    0  0.67731969899E+03 -0.76998332987E+03  0.41090055605E+03  0.11047513611E+04  0.00000000000E+00 0. -1.
        -11    1    3    3    0    0  0.73075494194E+03 -0.73587058559E+03  0.48504455377E+03  0.11448914896E+04  0.00000000000E+00 0.  1.
         22    1    1    2    0    0 -0.14080746409E+04  0.15058539155E+04 -0.11373249040E+04  0.23545229127E+04  0.00000000000E+00 0.  1.
<mgrwt>
<rscale>  0 0.45978341E+04</rscale>
<asrwt>0</asrwt>
<pdfrwt beam="1">  1        2 0.37273427E+00 0.45978341E+04</pdfrwt>
<pdfrwt beam="2">  1       -2 0.33559892E+00 0.45978341E+04</pdfrwt>
<totfact> 0.55553976E-02</totfact>
</mgrwt>
</event>
<event>
 6    1  0.1934315E-005  0.2377436E+04  0.7818608E-02  0.8448000E-01
         -2   -1    0    0    0  501 -0.00000000000E+00  0.00000000000E+00  0.63095787309E+03  0.63095787309E+03  0.00000000000E+00 0. -1.
          2   -1    0    0  501    0  0.00000000000E+00 -0.00000000000E+00 -0.22395314951E+04  0.22395314951E+04  0.00000000000E+00 0.  1.
         23    2    1    2    0    0 -0.27100693191E+03  0.10725790728E+04 -0.28621807945E+03  0.11463969097E+04  0.91839321337E+02 0.  0.
         11    1    3    3    0    0 -0.38286131538E+02  0.71485668688E+02 -0.35183315287E+02  0.88396235047E+02  0.00000000000E+00 0. -1.
        -11    1    3    3    0    0 -0.23272080037E+03  0.10010934041E+04 -0.25103476417E+03  0.10580006746E+04  0.00000000000E+00 0.  1.
         22    1    1    2    0    0  0.27100693191E+03 -0.10725790728E+04 -0.13223555425E+04  0.17240924585E+04  0.00000000000E+00 0.  1.
<mgrwt>
<rscale>  0 0.23774356E+04</rscale>
<asrwt>0</asrwt>
<pdfrwt beam="1">  1        2 0.34454331E+00 0.23774356E+04</pdfrwt>
<pdfrwt beam="2">  1       -2 0.97070440E-01 0.23774356E+04</pdfrwt>
<totfact> 0.39152276E+00</totfact>
</mgrwt>
</event>
<event>
 6    1  0.1934315E-005  0.3087784E+04  0.7818608E-02  0.8219098E-01
         -2   -1    0    0    0  501 -0.00000000000E+00  0.00000000000E+00  0.77533022342E+03  0.77533022342E+03  0.00000000000E+00 0. -1.
          2   -1    0    0  501    0  0.00000000000E+00 -0.00000000000E+00 -0.30743061127E+04  0.30743061127E+04  0.00000000000E+00 0.  1.
         23    2    1    2    0    0  0.13883937165E+04 -0.18189741731E+03 -0.19571875687E+04  0.24082678757E+04  0.91908648630E+02 0.  0.
         13    1    3    3    0    0  0.38847802240E+03 -0.15337342308E+02 -0.57939867194E+03  0.69774868614E+03  0.00000000000E+00 0.  1.
        -13    1    3    3    0    0  0.99991569410E+03 -0.16656007501E+03 -0.13777888968E+04  0.17105191896E+04  0.00000000000E+00 0. -1.
         22    1    1    2    0    0 -0.13883937165E+04  0.18189741731E+03 -0.34178832053E+03  0.14413684604E+04  0.00000000000E+00 0. -1.
<mgrwt>
<rscale>  0 0.30877840E+04</rscale>
<asrwt>0</asrwt>
<pdfrwt beam="1">  1        2 0.47297017E+00 0.30877840E+04</pdfrwt>
<pdfrwt beam="2">  1       -2 0.11928157E+00 0.30877840E+04</pdfrwt>
<totfact> 0.71533320E-01</totfact>
</mgrwt>
</event>
<event>
 6    1  0.1934315E-005  0.2814222E+04  0.7818608E-02  0.8298867E-01
         -2   -1    0    0    0  501 -0.00000000000E+00  0.00000000000E+00  0.84533626752E+03  0.84533626752E+03  0.00000000000E+00 0. -1.
          2   -1    0    0  501    0  0.00000000000E+00 -0.00000000000E+00 -0.23422166699E+04  0.23422166699E+04  0.00000000000E+00 0.  1.
         23    2    1    2    0    0 -0.11729205055E+02  0.12346378829E+04 -0.15105952544E+04  0.19527831721E+04  0.83641008124E+02 0.  0.
         13    1    3    3    0    0 -0.47281101004E+02  0.59463040631E+03 -0.72232418062E+03  0.93678868723E+03  0.00000000000E+00 0. -1.
        -13    1    3    3    0    0  0.35551895949E+02  0.64000747660E+03 -0.78827107380E+03  0.10159944848E+04  0.00000000000E+00 0.  1.
         22    1    1    2    0    0  0.11729205055E+02 -0.12346378829E+04  0.13714852083E+02  0.12347697653E+04  0.00000000000E+00 0. -1.
<mgrwt>
<rscale>  0 0.28142215E+04</rscale>
<asrwt>0</asrwt>
<pdfrwt beam="1">  1        2 0.36034102E+00 0.28142215E+04</pdfrwt>
<pdfrwt beam="2">  1       -2 0.13005174E+00 0.28142215E+04</pdfrwt>
<totfact> 0.16173863E+00</totfact>
</mgrwt>
</event>
<event>
 6    1  0.1934315E-005  0.1823119E+04  0.7818608E-02  0.8694101E-01
         -1   -1    0    0    0  501 -0.00000000000E+00  0.00000000000E+00  0.82602694779E+03  0.82602694779E+03  0.00000000000E+00 0.  1.
          1   -1    0    0  501    0  0.00000000000E+00 -0.00000000000E+00 -0.10059487702E+04  0.10059487702E+04  0.00000000000E+00 0. -1.
         23    2    1    2    0    0 -0.18399201986E+03  0.66977242253E+03  0.49949197699E+03  0.86035270868E+03  0.90919672784E+02 0.  0.
         11    1    3    3    0    0 -0.16982901681E+03  0.51336860930E+03  0.41778336314E+03  0.68332434647E+03  0.00000000000E+00 0. -1.
        -11    1    3    3    0    0 -0.14163003055E+02  0.15640381324E+03  0.81708613853E+02  0.17702836221E+03  0.00000000000E+00 0.  1.
         22    1    1    2    0    0  0.18399201986E+03 -0.66977242253E+03 -0.67941379936E+03  0.97162300926E+03  0.00000000000E+00 0. -1.
<mgrwt>
<rscale>  0 0.18231191E+04</rscale>
<asrwt>0</asrwt>
<pdfrwt beam="1">  1        1 0.15476135E+00 0.18231191E+04</pdfrwt>
<pdfrwt beam="2">  1       -1 0.12708107E+00 0.18231191E+04</pdfrwt>
<totfact> 0.75716734E+00</totfact>
</mgrwt>
</event>
<event>
 6    1  0.1934315E-005  0.1189951E+04  0.7818608E-02  0.9121698E-01
         -2   -1    0    0    0  501 -0.00000000000E+00  0.00000000000E+00  0.18842090050E+03  0.18842090050E+03  0.00000000000E+00 0. -1.
          2   -1    0    0  501    0  0.00000000000E+00 -0.00000000000E+00 -0.18787510599E+04  0.18787510599E+04  0.00000000000E+00 0.  1.
         23    2    1    2    0    0  0.39871554179E+03 -0.42530438549E+03 -0.10289399631E+04  0.11855286678E+04  0.83083518120E+02 0.  0.
         11    1    3    3    0    0  0.21240681824E+03 -0.19113166208E+03 -0.43485492648E+03  0.52033333140E+03  0.00000000000E+00 0. -1.
        -11    1    3    3    0    0  0.18630872355E+03 -0.23417272341E+03 -0.59408503661E+03  0.66519533641E+03  0.00000000000E+00 0.  1.
         22    1    1    2    0    0 -0.39871554179E+03  0.42530438549E+03 -0.66139019632E+03  0.88164329259E+03  0.00000000000E+00 0. -1.
<mgrwt>
<rscale>  0 0.11899512E+04</rscale>
<asrwt>0</asrwt>
<pdfrwt beam="1">  1        2 0.28903861E+00 0.11899512E+04</pdfrwt>
<pdfrwt beam="2">  1       -2 0.28987833E-01 0.11899512E+04</pdfrwt>
<totfact> 0.84273395E+01</totfact>
</mgrwt>
</event>
<event>
 6    1  0.1934315E-005  0.1734561E+04  0.7818608E-02  0.8741895E-01
         -2   -1    0    0    0  501 -0.00000000000E+00  0.00000000000E+00  0.56218325757E+03  0.56218325757E+03  0.00000000000E+00 0. -1.
          2   -1    0    0  501    0  0.00000000000E+00 -0.00000000000E+00 -0.13379544877E+04  0.13379544877E+04  0.00000000000E+00 0.  1.
         23    2    1    2    0    0  0.30282962137E+03  0.16353357652E+03 -0.12582731307E+04  0.13074682806E+04  0.88164750651E+02 0.  0.
         11    1    3    3    0    0  0.18768099446E+03  0.92642934212E+02 -0.91247801974E+03  0.93617466610E+03  0.00000000000E+00 0.  1.
        -11    1    3    3    0    0  0.11514862691E+03  0.70890642308E+02 -0.34579511091E+03  0.37129361451E+03  0.00000000000E+00 0. -1.
         22    1    1    2    0    0 -0.30282962137E+03 -0.16353357652E+03  0.48250190057E+03  0.59266946461E+03  0.00000000000E+00 0. -1.
<mgrwt>
<rscale>  0 0.17345612E+04</rscale>
<asrwt>0</asrwt>
<pdfrwt beam="1">  1        2 0.20583915E+00 0.17345612E+04</pdfrwt>
<pdfrwt beam="2">  1       -2 0.86489733E-01 0.17345612E+04</pdfrwt>
<totfact> 0.17268259E+01</totfact>
</mgrwt>
</event>
<event>
 6    1  0.1934315E-005  0.2919982E+04  0.7818608E-02  0.8266957E-01
         -2   -1    0    0    0  501 -0.00000000000E+00  0.00000000000E+00  0.10196282901E+04  0.10196282901E+04  0.00000000000E+00 0. -1.
          2   -1    0    0  501    0  0.00000000000E+00 -0.00000000000E+00 -0.20905406071E+04  0.20905406071E+04  0.00000000000E+00 0.  1.
         23    2    1    2    0    0  0.11052608126E+04 -0.43056789740E+03 -0.14401128804E+04  0.18678729444E+04  0.89632863154E+02 0.  0.
         13    1    3    3    0    0  0.47241734380E+03 -0.15786183328E+03 -0.66261197071E+03  0.82894700003E+03  0.00000000000E+00 0. -1.
        -13    1    3    3    0    0  0.63284346880E+03 -0.27270606412E+03 -0.77750090966E+03  0.10389259444E+04  0.00000000000E+00 0.  1.
         22    1    1    2    0    0 -0.11052608126E+04  0.43056789740E+03  0.36920056342E+03  0.12422959527E+04  0.00000000000E+00 0. -1.
<mgrwt>
<rscale>  0 0.29199824E+04</rscale>
<asrwt>0</asrwt>
<pdfrwt beam="1">  1        2 0.32162163E+00 0.29199824E+04</pdfrwt>
<pdfrwt beam="2">  1       -2 0.15686589E+00 0.29199824E+04</pdfrwt>
<totfact> 0.13622532E+00</totfact>
</mgrwt>
</event>
<event>
 6    1  0.1934315E-005  0.2800625E+04  0.7818608E-02  0.8303074E-01
          2   -1    0    0  501    0  0.00000000000E+00  0.00000000000E+00  0.58752091403E+03  0.58752091403E+03  0.00000000000E+00 0.  1.
         -2   -1    0    0    0  501 -0.00000000000E+00 -0.00000000000E+00 -0.33375417248E+04  0.33375417248E+04  0.00000000000E+00 0. -1.
         23    2    1    2    0    0  0.10185661502E+04 -0.66553809925E+03 -0.40977869016E+03  0.12874214299E+04  0.95485074922E+02 0.  0.
         11    1    3    3    0    0  0.37835868294E+03 -0.19448281128E+03 -0.15444254431E+03  0.45258298282E+03  0.00000000000E+00 0.  1.
        -11    1    3    3    0    0  0.64020746721E+03 -0.47105528797E+03 -0.25533614585E+03  0.83483844711E+03  0.00000000000E+00 0. -1.
         22    1    1    2    0    0 -0.10185661502E+04  0.66553809925E+03 -0.23402421206E+04  0.26376412089E+04  0.00000000000E+00 0. -1.
<mgrwt>
<rscale>  0 0.28006253E+04</rscale>
<asrwt>0</asrwt>
<pdfrwt beam="1">  1        2 0.90387833E-01 0.28006253E+04</pdfrwt>
<pdfrwt beam="2">  1       -2 0.51346796E+00 0.28006253E+04</pdfrwt>
<totfact> 0.60148557E-02</totfact>
</mgrwt>
</event>
<event>
 6    1  0.1934315E-005  0.1269000E+04  0.7818608E-02  0.9054516E-01
          1   -1    0    0  501    0  0.00000000000E+00  0.00000000000E+00  0.36201973640E+04  0.36201973640E+04  0.00000000000E+00 0.  1.
         -1   -1    0    0    0  501 -0.00000000000E+00 -0.00000000000E+00 -0.11120667549E+03  0.11120667549E+03  0.00000000000E+00 0. -1.
         23    2    1    2    0    0 -0.23109170040E+03 -0.39976307484E+03  0.30289969503E+04  0.30653650927E+04  0.91797255717E+02 0.  0.
         13    1    3    3    0    0 -0.18891056838E+03 -0.31292572315E+03  0.21227988866E+04  0.21540391882E+04  0.00000000000E+00 0.  1.
        -13    1    3    3    0    0 -0.42181132018E+02 -0.86837351684E+02  0.90619806371E+03  0.91132590450E+03  0.00000000000E+00 0. -1.
         22    1    1    2    0    0  0.23109170040E+03  0.39976307484E+03  0.47999373817E+03  0.66603894682E+03  0.00000000000E+00 0. -1.
<mgrwt>
<rscale>  0 0.12689998E+04</rscale>
<asrwt>0</asrwt>
<pdfrwt beam="1">  1        1 0.55695335E+00 0.12689998E+04</pdfrwt>
<pdfrwt beam="2">  1       -1 0.17108722E-01 0.12689998E+04</pdfrwt>
<totfact> 0.53465019E+00</totfact>
</mgrwt>
</event>
<event>
 6    1  0.1934315E-005  0.8050308E+03  0.7818608E-02  0.9552764E-01
         -2   -1    0    0    0  501 -0.00000000000E+00  0.00000000000E+00  0.58730122487E+02  0.58730122487E+02  0.00000000000E+00 0. -1.
          2   -1    0    0  501    0  0.00000000000E+00 -0.00000000000E+00 -0.27586975511E+04  0.27586975511E+04  0.00000000000E+00 0.  1.
         23    2    1    2    0    0 -0.37615151556E+03 -0.25830118121E+02 -0.92883550297E+03  0.10066086722E+04  0.91479340640E+02 0.  0.
         11    1    3    3    0    0 -0.15097685625E+03 -0.31499741147E+02 -0.27825036803E+03  0.31813442461E+03  0.00000000000E+00 0.  1.
        -11    1    3    3    0    0 -0.22517465931E+03  0.56696230256E+01 -0.65058513494E+03  0.68847424761E+03  0.00000000000E+00 0. -1.
         22    1    1    2    0    0  0.37615151556E+03  0.25830118121E+02 -0.17711319256E+04  0.18108190013E+04  0.00000000000E+00 0.  1.
<mgrwt>
<rscale>  0 0.80503079E+03</rscale>
<asrwt>0</asrwt>
<pdfrwt beam="1">  1        2 0.42441498E+00 0.80503079E+03</pdfrwt>
<pdfrwt beam="2">  1       -2 0.90354040E-02 0.80503079E+03</pdfrwt>
<totfact> 0.20619690E+02</totfact>
</mgrwt>
</event>
<event>
 6    1  0.1934315E-005  0.5005901E+04  0.7818608E-02  0.7827598E-01
         -2   -1    0    0    0  501 -0.00000000000E+00  0.00000000000E+00  0.18677305676E+04  0.18677305676E+04  0.00000000000E+00 0.  1.
          2   -1    0    0  501    0  0.00000000000E+00 -0.00000000000E+00 -0.33542098102E+04  0.33542098102E+04  0.00000000000E+00 0. -1.
         23    2    1    2    0    0 -0.83205046203E+03 -0.18903216027E+04  0.72988849144E+03  0.21924338726E+04  0.91680655746E+02 0.  0.
         13    1    3    3    0    0 -0.28581121757E+02 -0.33338651271E+02  0.18784941244E+02  0.47762121048E+02  0.00000000000E+00 0. -1.
        -13    1    3    3    0    0 -0.80346934028E+03 -0.18569829514E+04  0.71110355020E+03  0.21446717515E+04  0.00000000000E+00 0.  1.
         22    1    1    2    0    0  0.83205046203E+03  0.18903216027E+04 -0.22163677340E+04  0.30295065052E+04  0.00000000000E+00 0. -1.
<mgrwt>
<rscale>  0 0.50059006E+04</rscale>
<asrwt>0</asrwt>
<pdfrwt beam="1">  1        2 0.51603227E+00 0.50059006E+04</pdfrwt>
<pdfrwt beam="2">  1       -2 0.28734317E+00 0.50059006E+04</pdfrwt>
<totfact> 0.28269206E-02</totfact>
</mgrwt>
</event>
<event>
 6    1  0.1934315E-005  0.1324256E+04  0.7818608E-02  0.9010548E-01
          2   -1    0    0  501    0  0.00000000000E+00  0.00000000000E+00  0.21911495910E+04  0.21911495910E+04  0.00000000000E+00 0.  1.
         -2   -1    0    0    0  501 -0.00000000000E+00 -0.00000000000E+00 -0.20008363047E+03  0.20008363047E+03  0.00000000000E+00 0. -1.
         23    2    1    2    0    0  0.13792258572E+03 -0.17331160195E+03  0.21208693769E+04  0.21345067563E+04  0.94723956535E+02 0.  0.
         11    1    3    3    0    0  0.94031145958E+02 -0.43707191857E+02  0.97342942510E+03  0.97893667859E+03  0.00000000000E+00 0. -1.
        -11    1    3    3    0    0  0.43891439762E+02 -0.12960441010E+03  0.11474399518E+04  0.11555700777E+04  0.00000000000E+00 0.  1.
         22    1    1    2    0    0 -0.13792258572E+03  0.17331160195E+03 -0.12980341633E+03  0.25672646516E+03  0.00000000000E+00 0. -1.
<mgrwt>
<rscale>  0 0.13242555E+04</rscale>
<asrwt>0</asrwt>
<pdfrwt beam="1">  1        2 0.33709992E+00 0.13242555E+04</pdfrwt>
<pdfrwt beam="2">  1       -2 0.30782098E-01 0.13242555E+04</pdfrwt>
<totfact> 0.50042990E+01</totfact>
</mgrwt>
</event>
<event>
 6    1  0.1934315E-005  0.1402406E+04  0.7818608E-02  0.8952079E-01
          2   -1    0    0  501    0  0.00000000000E+00  0.00000000000E+00  0.29757833745E+04  0.29757833745E+04  0.00000000000E+00 0.  1.
         -2   -1    0    0    0  501 -0.00000000000E+00 -0.00000000000E+00 -0.16522899129E+03  0.16522899129E+03  0.00000000000E+00 0. -1.
         23    2    1    2    0    0 -0.39158535012E+03  0.33179087940E+03  0.35146631571E+03  0.62893386427E+03  0.92762926163E+02 0.  0.
         13    1    3    3    0    0 -0.18869236010E+03  0.10115573086E+03  0.15470645294E+03  0.26414271753E+03  0.00000000000E+00 0. -1.
        -13    1    3    3    0    0 -0.20289299002E+03  0.23063514854E+03  0.19675986277E+03  0.36479114674E+03  0.00000000000E+00 0.  1.
         22    1    1    2    0    0  0.39158535012E+03 -0.33179087940E+03  0.24590880675E+04  0.25120785016E+04  0.00000000000E+00 0.  1.
<mgrwt>
<rscale>  0 0.14024061E+04</rscale>
<asrwt>0</asrwt>
<pdfrwt beam="1">  1        2 0.45781279E+00 0.14024061E+04</pdfrwt>
<pdfrwt beam="2">  1       -2 0.25419847E-01 0.14024061E+04</pdfrwt>
<totfact> 0.24635955E+01</totfact>
</mgrwt>
</event>
<event>
 6    1  0.1934315E-005  0.2784784E+04  0.7818608E-02  0.8308008E-01
         -2   -1    0    0    0  501 -0.00000000000E+00  0.00000000000E+00  0.33229572377E+04  0.33229572377E+04  0.00000000000E+00 0. -1.
          2   -1    0    0  501    0  0.00000000000E+00 -0.00000000000E+00 -0.58344275561E+03  0.58344275561E+03  0.00000000000E+00 0.  1.
         23    2    1    2    0    0 -0.25578620464E+03 -0.81641374803E+03 -0.16653489256E+03  0.87703026376E+03  0.97417773811E+02 0.  0.
         11    1    3    3    0    0 -0.19595651282E+03 -0.56949950546E+03 -0.74709562020E+02  0.60688562373E+03  0.00000000000E+00 0.  1.
        -11    1    3    3    0    0 -0.59829691819E+02 -0.24691424257E+03 -0.91825330537E+02  0.27014464003E+03  0.00000000000E+00 0. -1.
         22    1    1    2    0    0  0.25578620464E+03  0.81641374803E+03  0.29060493747E+04  0.30293697296E+04  0.00000000000E+00 0. -1.
<mgrwt>
<rscale>  0 0.27847839E+04</rscale>
<asrwt>0</asrwt>
<pdfrwt beam="1">  1        2 0.89760426E-01 0.27847839E+04</pdfrwt>
<pdfrwt beam="2">  1       -2 0.51122418E+00 0.27847839E+04</pdfrwt>
<totfact> 0.62655556E-02</totfact>
</mgrwt>
</event>
<event>
 6    1  0.2034934E-005  0.3465781E+04  0.7818608E-02  0.8121948E-01
          2   -1    0    0  501    0  0.00000000000E+00  0.00000000000E+00  0.29672818012E+04  0.29672818012E+04  0.00000000000E+00 0.  1.
         -2   -1    0    0    0  501 -0.00000000000E+00 -0.00000000000E+00 -0.10120068368E+04  0.10120068368E+04  0.00000000000E+00 0. -1.
         23    2    1    2    0    0 -0.15657995075E+04 -0.29088877223E+02  0.18272363205E+04  0.24079935815E+04  0.84061031532E+02 0.  0.
         11    1    3    3    0    0 -0.71879230429E+03 -0.15597469799E+02  0.77484507557E+03  0.10570196540E+04  0.00000000000E+00 0.  1.
        -11    1    3    3    0    0 -0.84700720317E+03 -0.13491407424E+02  0.10523912450E+04  0.13509739275E+04  0.00000000000E+00 0. -1.
         22    1    1    2    0    0  0.15657995075E+04  0.29088877223E+02  0.12803864384E+03  0.15712950565E+04  0.00000000000E+00 0.  1.
<mgrwt>
<rscale>  0 0.34657810E+04</rscale>
<asrwt>0</asrwt>
<pdfrwt beam="1">  1        2 0.45650489E+00 0.34657810E+04</pdfrwt>
<pdfrwt beam="2">  1       -2 0.15569336E+00 0.34657810E+04</pdfrwt>
<totfact> 0.40766012E-01</totfact>
</mgrwt>
</event>
<event>
 6    1  0.1934315E-005  0.2315475E+04  0.7818608E-02  0.8471844E-01
          2   -1    0    0  501    0  0.00000000000E+00  0.00000000000E+00  0.31145104832E+04  0.31145104832E+04  0.00000000000E+00 0.  1.
         -2   -1    0    0    0  501 -0.00000000000E+00 -0.00000000000E+00 -0.43035850578E+03  0.43035850578E+03  0.00000000000E+00 0. -1.
         23    2    1    2    0    0 -0.57734531345E+03 -0.54819579653E+03  0.26271801474E+04  0.27466885384E+04  0.91521352065E+02 0.  0.
         11    1    3    3    0    0 -0.12192846072E+03 -0.73214968921E+02  0.52509087073E+03  0.54401048127E+03  0.00000000000E+00 0.  1.
        -11    1    3    3    0    0 -0.45541685274E+03 -0.47498082761E+03  0.21020892766E+04  0.22026780571E+04  0.00000000000E+00 0. -1.
         22    1    1    2    0    0  0.57734531345E+03  0.54819579653E+03  0.56971830059E+02  0.79818045060E+03  0.00000000000E+00 0. -1.
<mgrwt>
<rscale>  0 0.23154750E+04</rscale>
<asrwt>0</asrwt>
<pdfrwt beam="1">  1        2 0.47915544E+00 0.23154750E+04</pdfrwt>
<pdfrwt beam="2">  1       -2 0.66209003E-01 0.23154750E+04</pdfrwt>
<totfact> 0.28012994E+00</totfact>
</mgrwt>
</event>
<event>
 6    1  0.1934315E-005  0.2211776E+04  0.7818608E-02  0.8513543E-01
         -2   -1    0    0    0  501 -0.00000000000E+00  0.00000000000E+00  0.77953313400E+03  0.77953313400E+03  0.00000000000E+00 0. -1.
          2   -1    0    0  501    0  0.00000000000E+00 -0.00000000000E+00 -0.15688722419E+04  0.15688722419E+04  0.00000000000E+00 0.  1.
         23    2    1    2    0    0  0.73823019652E+03  0.59715861764E+03 -0.99346626527E+03  0.13771947221E+04  0.90043571032E+02 0.  0.
         11    1    3    3    0    0  0.47948458333E+03  0.42606660277E+03 -0.62556389638E+03  0.89597343940E+03  0.00000000000E+00 0.  1.
        -11    1    3    3    0    0  0.25874561319E+03  0.17109201487E+03 -0.36790236889E+03  0.48122128271E+03  0.00000000000E+00 0. -1.
         22    1    1    2    0    0 -0.73823019652E+03 -0.59715861764E+03  0.20412715738E+03  0.97121065380E+03  0.00000000000E+00 0. -1.
<mgrwt>
<rscale>  0 0.22117757E+04</rscale>
<asrwt>0</asrwt>
<pdfrwt beam="1">  1        2 0.24136496E+00 0.22117757E+04</pdfrwt>
<pdfrwt beam="2">  1       -2 0.11992818E+00 0.22117757E+04</pdfrwt>
<totfact> 0.56384044E+00</totfact>
</mgrwt>
</event>
<event>
 6    1  0.1934315E-005  0.4210931E+04  0.7818608E-02  0.7963296E-01
          2   -1    0    0  501    0  0.00000000000E+00  0.00000000000E+00  0.26086620104E+04  0.26086620104E+04  0.00000000000E+00 0.  1.
         -2   -1    0    0    0  501 -0.00000000000E+00 -0.00000000000E+00 -0.16993329208E+04  0.16993329208E+04  0.00000000000E+00 0. -1.
         23    2    1    2    0    0  0.89642086811E+03  0.72417693947E+03  0.22563318953E+04  0.25353079394E+04  0.93542040182E+02 0.  0.
         11    1    3    3    0    0  0.49608085085E+03  0.44863145856E+03  0.12464938686E+04  0.14146071400E+04  0.00000000000E+00 0.  1.
        -11    1    3    3    0    0  0.40034001726E+03  0.27554548091E+03  0.10098380267E+04  0.11207007994E+04  0.00000000000E+00 0. -1.
         22    1    1    2    0    0 -0.89642086811E+03 -0.72417693947E+03 -0.13470028057E+04  0.17726869918E+04  0.00000000000E+00 0. -1.
<mgrwt>
<rscale>  0 0.42109311E+04</rscale>
<asrwt>0</asrwt>
<pdfrwt beam="1">  1        2 0.40133262E+00 0.42109311E+04</pdfrwt>
<pdfrwt beam="2">  1       -2 0.26143583E+00 0.42109311E+04</pdfrwt>
<totfact> 0.12753776E-01</totfact>
</mgrwt>
</event>
<event>
 6    1  0.1934315E-005  0.1177724E+04  0.7818608E-02  0.9132581E-01
         -2   -1    0    0    0  501 -0.00000000000E+00  0.00000000000E+00  0.32222167992E+03  0.32222167992E+03  0.00000000000E+00 0. -1.
          2   -1    0    0  501    0  0.00000000000E+00 -0.00000000000E+00 -0.10761484821E+04  0.10761484821E+04  0.00000000000E+00 0.  1.
         23    2    1    2    0    0 -0.31587186719E+02 -0.44643862298E+03  0.68735013918E+02  0.46184591880E+03  0.90950294807E+02 0.  0.
         11    1    3    3    0    0 -0.32460572641E+02 -0.84367202629E+02 -0.11102765691E+02  0.91075710602E+02  0.00000000000E+00 0. -1.
        -11    1    3    3    0    0  0.87338592267E+00 -0.36207142035E+03  0.79837779610E+02  0.37077020820E+03  0.00000000000E+00 0.  1.
         22    1    1    2    0    0  0.31587186719E+02  0.44643862298E+03 -0.82266181611E+03  0.93652424322E+03  0.00000000000E+00 0.  1.
<mgrwt>
<rscale>  0 0.11777239E+04</rscale>
<asrwt>0</asrwt>
<pdfrwt beam="1">  1        2 0.16556131E+00 0.11777239E+04</pdfrwt>
<pdfrwt beam="2">  1       -2 0.49572566E-01 0.11777239E+04</pdfrwt>
<totfact> 0.85761592E+01</totfact>
</mgrwt>
</event>
<event>
 6    1  0.1934315E-005  0.5183675E+04  0.7818608E-02  0.7800782E-01
          2   -1    0    0  501    0  0.00000000000E+00  0.00000000000E+00  0.31883971099E+04  0.31883971099E+04  0.00000000000E+00 0.  1.
         -2   -1    0    0    0  501 -0.00000000000E+00 -0.00000000000E+00 -0.21068961761E+04  0.21068961761E+04  0.00000000000E+00 0. -1.
         23    2    1    2    0    0  0.15067188241E+03  0.19422195437E+04  0.22857698752E+04  0.30050569542E+04  0.10346305460E+03 0.  0.
         11    1    3    3    0    0  0.67916449879E+02  0.78170514021E+03  0.84389356386E+03  0.11523158931E+04  0.00000000000E+00 0.  1.
        -11    1    3    3    0    0  0.82755432535E+02  0.11605144035E+04  0.14418763113E+04  0.18527410611E+04  0.00000000000E+00 0. -1.
         22    1    1    2    0    0 -0.15067188241E+03 -0.19422195437E+04 -0.12042689414E+04  0.22902363318E+04  0.00000000000E+00 0. -1.
<mgrwt>
<rscale>  0 0.51836750E+04</rscale>
<asrwt>0</asrwt>
<pdfrwt beam="1">  1        2 0.49052263E+00 0.51836750E+04</pdfrwt>
<pdfrwt beam="2">  1       -2 0.32413787E+00 0.51836750E+04</pdfrwt>
<totfact> 0.21352749E-02</totfact>
</mgrwt>
</event>
<event>
 6    1  0.1934315E-005  0.5225330E+04  0.7818608E-02  0.7794658E-01
         -2   -1    0    0    0  501 -0.00000000000E+00  0.00000000000E+00  0.19091225762E+04  0.19091225762E+04  0.00000000000E+00 0. -1.
          2   -1    0    0  501    0  0.00000000000E+00 -0.00000000000E+00 -0.35754743747E+04  0.35754743747E+04  0.00000000000E+00 0.  1.
         23    2    1    2    0    0 -0.18893052525E+04  0.17651346058E+04 -0.44426585534E+03  0.26247597935E+04  0.82567002056E+02 0.  0.
         13    1    3    3    0    0 -0.86176393475E+03  0.86140497909E+03 -0.21202709825E+03  0.12367744773E+04  0.00000000000E+00 0. -1.
        -13    1    3    3    0    0 -0.10275413177E+04  0.90372962673E+03 -0.23223875709E+03  0.13879853163E+04  0.00000000000E+00 0.  1.
         22    1    1    2    0    0  0.18893052525E+04 -0.17651346058E+04 -0.12220859432E+04  0.28598371573E+04  0.00000000000E+00 0. -1.
<mgrwt>
<rscale>  0 0.52253302E+04</rscale>
<asrwt>0</asrwt>
<pdfrwt beam="1">  1        2 0.55007298E+00 0.52253302E+04</pdfrwt>
<pdfrwt beam="2">  1       -2 0.29371117E+00 0.52253302E+04</pdfrwt>
<totfact> 0.17812716E-02</totfact>
</mgrwt>
</event>
<event>
 6    1  0.1934315E-005  0.1335391E+04  0.7818608E-02  0.9001961E-01
         -2   -1    0    0    0  501 -0.00000000000E+00  0.00000000000E+00  0.38897246766E+03  0.38897246766E+03  0.00000000000E+00 0. -1.
          2   -1    0    0  501    0  0.00000000000E+00 -0.00000000000E+00 -0.11461417727E+04  0.11461417727E+04  0.00000000000E+00 0.  1.
         23    2    1    2    0    0 -0.11359469465E+03  0.30250103863E+03 -0.10480606842E+04  0.11003402445E+04  0.88920318360E+02 0.  0.
         13    1    3    3    0    0 -0.14568906621E+02  0.16427440186E+03 -0.49793362216E+03  0.52453429271E+03  0.00000000000E+00 0. -1.
        -13    1    3    3    0    0 -0.99025788025E+02  0.13822663676E+03 -0.55012706200E+03  0.57580595182E+03  0.00000000000E+00 0.  1.
         22    1    1    2    0    0  0.11359469465E+03 -0.30250103863E+03  0.29089137911E+03  0.43477399585E+03  0.00000000000E+00 0. -1.
<mgrwt>
<rscale>  0 0.13353915E+04</rscale>
<asrwt>0</asrwt>
<pdfrwt beam="1">  1        2 0.17632950E+00 0.13353915E+04</pdfrwt>
<pdfrwt beam="2">  1       -2 0.59841919E-01 0.13353915E+04</pdfrwt>
<totfact> 0.51982145E+01</totfact>
</mgrwt>
</event>
<event>
 6    1  0.1934315E-005  0.1974986E+04  0.7818608E-02  0.8618406E-01
         -2   -1    0    0    0  501 -0.00000000000E+00  0.00000000000E+00  0.67179379453E+03  0.67179379453E+03  0.00000000000E+00 0. -1.
          2   -1    0    0  501    0  0.00000000000E+00 -0.00000000000E+00 -0.14515503697E+04  0.14515503697E+04  0.00000000000E+00 0.  1.
         23    2    1    2    0    0 -0.94739996373E+03 -0.10562062168E+03 -0.12250049797E+03  0.96545472302E+03  0.91509798330E+02 0.  0.
         13    1    3    3    0    0 -0.44751884706E+03 -0.42120915590E+02 -0.10317658949E+03  0.46118618650E+03  0.00000000000E+00 0.  1.
        -13    1    3    3    0    0 -0.49988111668E+03 -0.63499706090E+02 -0.19323908488E+02  0.50426853652E+03  0.00000000000E+00 0. -1.
         22    1    1    2    0    0  0.94739996373E+03  0.10562062168E+03 -0.65725607715E+03  0.11578894412E+04  0.00000000000E+00 0.  1.
<mgrwt>
<rscale>  0 0.19749861E+04</rscale>
<asrwt>0</asrwt>
<pdfrwt beam="1">  1        2 0.22331544E+00 0.19749861E+04</pdfrwt>
<pdfrwt beam="2">  1       -2 0.10335289E+00 0.19749861E+04</pdfrwt>
<totfact> 0.96127890E+00</totfact>
</mgrwt>
</event>
<event>
 6    1  0.1934315E-005  0.4889520E+03  0.7818608E-02  0.1016704E+00
          2   -1    0    0  501    0  0.00000000000E+00  0.00000000000E+00  0.54502126160E+03  0.54502126160E+03  0.00000000000E+00 0.  1.
         -2   -1    0    0    0  501 -0.00000000000E+00 -0.00000000000E+00 -0.10966272816E+03  0.10966272816E+03  0.00000000000E+00 0. -1.
         23    2    1    2    0    0  0.10405866379E+03  0.20725120167E+03  0.16646491986E+03  0.29959943430E+03  0.90928463006E+02 0.  0.
         13    1    3    3    0    0  0.34768336779E+02  0.29739196247E+02  0.75885108373E+02  0.88610420993E+02  0.00000000000E+00 0.  1.
        -13    1    3    3    0    0  0.69290327006E+02  0.17751200542E+03  0.90579811486E+02  0.21098901330E+03  0.00000000000E+00 0. -1.
         22    1    1    2    0    0 -0.10405866379E+03 -0.20725120167E+03  0.26889361358E+03  0.35508455546E+03  0.00000000000E+00 0. -1.
<mgrwt>
<rscale>  0 0.48895202E+03</rscale>
<asrwt>0</asrwt>
<pdfrwt beam="1">  1        2 0.83849423E-01 0.48895202E+03</pdfrwt>
<pdfrwt beam="2">  1       -2 0.16871189E-01 0.48895202E+03</pdfrwt>
<totfact> 0.15933690E+03</totfact>
</mgrwt>
</event>
<event>
 6    1  0.1934315E-005  0.5995641E+03  0.7818608E-02  0.9906311E-01
         -2   -1    0    0    0  501 -0.00000000000E+00  0.00000000000E+00  0.48255518662E+02  0.48255518662E+02  0.00000000000E+00 0. -1.
          2   -1    0    0  501    0  0.00000000000E+00 -0.00000000000E+00 -0.18623627739E+04  0.18623627739E+04  0.00000000000E+00 0.  1.
         23    2    1    2    0    0 -0.21987806207E+03  0.12335290574E+03 -0.45203721906E+03  0.52541177908E+03  0.90319370255E+02 0.  0.
         11    1    3    3    0    0 -0.11397390893E+03  0.10059478676E+03 -0.32264217399E+03  0.35666137368E+03  0.00000000000E+00 0. -1.
        -11    1    3    3    0    0 -0.10590415315E+03  0.22758118984E+02 -0.12939504507E+03  0.16875040540E+03  0.00000000000E+00 0.  1.
         22    1    1    2    0    0  0.21987806207E+03 -0.12335290574E+03 -0.13620700362E+04  0.13852065135E+04  0.00000000000E+00 0.  1.
<mgrwt>
<rscale>  0 0.59956411E+03</rscale>
<asrwt>0</asrwt>
<pdfrwt beam="1">  1        2 0.28651734E+00 0.59956411E+03</pdfrwt>
<pdfrwt beam="2">  1       -2 0.74239263E-02 0.59956411E+03</pdfrwt>
<totfact> 0.90883917E+02</totfact>
</mgrwt>
</event>
<event>
 6    1  0.1934315E-005  0.2199395E+04  0.7818608E-02  0.8518680E-01
         -2   -1    0    0    0  501 -0.00000000000E+00  0.00000000000E+00  0.59061818101E+03  0.59061818101E+03  0.00000000000E+00 0. -1.
          2   -1    0    0  501    0  0.00000000000E+00 -0.00000000000E+00 -0.20475742097E+04  0.20475742097E+04  0.00000000000E+00 0.  1.
         23    2    1    2    0    0  0.15071121868E+03 -0.83598962033E+03  0.10425897260E+03  0.86083907833E+03  0.92636216831E+02 0.  0.
         13    1    3    3    0    0  0.66699242094E+02 -0.46419899524E+03  0.14207167045E+02  0.46918156365E+03  0.00000000000E+00 0. -1.
        -13    1    3    3    0    0  0.84011976582E+02 -0.37179062510E+03  0.90051805555E+02  0.39165751468E+03  0.00000000000E+00 0.  1.
         22    1    1    2    0    0 -0.15071121868E+03  0.83598962033E+03 -0.15612150013E+04  0.17773533123E+04  0.00000000000E+00 0.  1.
<mgrwt>
<rscale>  0 0.21993950E+04</rscale>
<asrwt>0</asrwt>
<pdfrwt beam="1">  1        2 0.31501141E+00 0.21993950E+04</pdfrwt>
<pdfrwt beam="2">  1       -2 0.90864337E-01 0.21993950E+04</pdfrwt>
<totfact> 0.59386972E+00</totfact>
</mgrwt>
</event>
<event>
 6    1  0.1934315E-005  0.1890944E+04  0.7818608E-02  0.8659377E-01
          2   -1    0    0  501    0  0.00000000000E+00  0.00000000000E+00  0.14104610138E+04  0.14104610138E+04  0.00000000000E+00 0.  1.
         -2   -1    0    0    0  501 -0.00000000000E+00 -0.00000000000E+00 -0.63377645053E+03  0.63377645053E+03  0.00000000000E+00 0. -1.
         23    2    1    2    0    0  0.18746456373E+03 -0.92283149279E+03  0.32991601767E+03  0.10019500471E+04  0.91095507642E+02 0.  0.
         13    1    3    3    0    0  0.88334756405E+02 -0.42323087794E+03  0.10358098934E+03  0.44458567969E+03  0.00000000000E+00 0. -1.
        -13    1    3    3    0    0  0.99129807326E+02 -0.49960061485E+03  0.22633502832E+03  0.55736436745E+03  0.00000000000E+00 0.  1.
         22    1    1    2    0    0 -0.18746456373E+03  0.92283149279E+03  0.44676854565E+03  0.10422874172E+04  0.00000000000E+00 0.  1.
<mgrwt>
<rscale>  0 0.18909437E+04</rscale>
<asrwt>0</asrwt>
<pdfrwt beam="1">  1        2 0.21699400E+00 0.18909437E+04</pdfrwt>
<pdfrwt beam="2">  1       -2 0.97504070E-01 0.18909437E+04</pdfrwt>
<totfact> 0.11730298E+01</totfact>
</mgrwt>
</event>
<event>
 6    1  0.1934315E-005  0.3523520E+04  0.7818608E-02  0.8108238E-01
          2   -1    0    0  501    0  0.00000000000E+00  0.00000000000E+00  0.16521303853E+04  0.16521303853E+04  0.00000000000E+00 0.  1.
         -2   -1    0    0    0  501 -0.00000000000E+00 -0.00000000000E+00 -0.18786645518E+04  0.18786645518E+04  0.00000000000E+00 0. -1.
         23    2    1    2    0    0  0.19913612039E+03  0.76653414205E+03  0.14624556218E+04  0.16653415631E+04  0.85768820454E+02 0.  0.
         11    1    3    3    0    0  0.15689853984E+03  0.67523895157E+03  0.12267989179E+04  0.14091133306E+04  0.00000000000E+00 0.  1.
        -11    1    3    3    0    0  0.42237580545E+02  0.91295190476E+02  0.23565670397E+03  0.25622823252E+03  0.00000000000E+00 0. -1.
         22    1    1    2    0    0 -0.19913612039E+03 -0.76653414205E+03 -0.16889897884E+04  0.18654533740E+04  0.00000000000E+00 0. -1.
<mgrwt>
<rscale>  0 0.35235203E+04</rscale>
<asrwt>0</asrwt>
<pdfrwt beam="1">  1        2 0.25417390E+00 0.35235203E+04</pdfrwt>
<pdfrwt beam="2">  1       -2 0.28902532E+00 0.35235203E+04</pdfrwt>
<totfact> 0.31724464E-01</totfact>
</mgrwt>
</event>
<event>
 6    1  0.1934315E-005  0.1396503E+04  0.7818608E-02  0.8956354E-01
          2   -1    0    0  501    0  0.00000000000E+00  0.00000000000E+00  0.22782350321E+04  0.22782350321E+04  0.00000000000E+00 0.  1.
         -2   -1    0    0    0  501 -0.00000000000E+00 -0.00000000000E+00 -0.21400574078E+03  0.21400574078E+03  0.00000000000E+00 0. -1.
         23    2    1    2    0    0  0.31388592653E+03  0.98206091123E+02  0.21296835783E+04  0.21569005354E+04  0.92189828806E+02 0.  0.
         11    1    3    3    0    0  0.19678166713E+03  0.10722244412E+03  0.14079102925E+04  0.14256335675E+04  0.00000000000E+00 0. -1.
        -11    1    3    3    0    0  0.11710425940E+03 -0.90163529994E+01  0.72177328582E+03  0.73126696788E+03  0.00000000000E+00 0.  1.
         22    1    1    2    0    0 -0.31388592653E+03 -0.98206091123E+02 -0.65454286984E+02  0.33534023751E+03  0.00000000000E+00 0. -1.
<mgrwt>
<rscale>  0 0.13965033E+04</rscale>
<asrwt>0</asrwt>
<pdfrwt beam="1">  1        2 0.35049768E+00 0.13965033E+04</pdfrwt>
<pdfrwt beam="2">  1       -2 0.32923962E-01 0.13965033E+04</pdfrwt>
<totfact> 0.39167181E+01</totfact>
</mgrwt>
</event>
<event>
 6    1  0.1934315E-005  0.4311280E+04  0.7818608E-02  0.7944536E-01
          2   -1    0    0  501    0  0.00000000000E+00  0.00000000000E+00  0.35589009923E+04  0.35589009923E+04  0.00000000000E+00 0.  1.
         -2   -1    0    0    0  501 -0.00000000000E+00 -0.00000000000E+00 -0.13056795661E+04  0.13056795661E+04  0.00000000000E+00 0. -1.
         23    2    1    2    0    0 -0.19211555630E+04 -0.47664076079E+03  0.16637438387E+03  0.19883059383E+04  0.87492607792E+02 0.  0.
         13    1    3    3    0    0 -0.74317868963E+03 -0.19185049667E+03  0.10670683916E+03  0.77492420746E+03  0.00000000000E+00 0. -1.
        -13    1    3    3    0    0 -0.11779768734E+04 -0.28479026413E+03  0.59667544706E+02  0.12133817308E+04  0.00000000000E+00 0.  1.
         22    1    1    2    0    0  0.19211555630E+04  0.47664076079E+03  0.20868470423E+04  0.28762746201E+04  0.00000000000E+00 0.  1.
<mgrwt>
<rscale>  0 0.43112802E+04</rscale>
<asrwt>0</asrwt>
<pdfrwt beam="1">  1        2 0.54752323E+00 0.43112802E+04</pdfrwt>
<pdfrwt beam="2">  1       -2 0.20087378E+00 0.43112802E+04</pdfrwt>
<totfact> 0.74442339E-02</totfact>
</mgrwt>
</event>
<event>
 6    1  0.1934315E-005  0.2385681E+04  0.7818608E-02  0.8444884E-01
         -2   -1    0    0    0  501 -0.00000000000E+00  0.00000000000E+00  0.50552407070E+03  0.50552407070E+03  0.00000000000E+00 0. -1.
          2   -1    0    0  501    0  0.00000000000E+00 -0.00000000000E+00 -0.28146408124E+04  0.28146408124E+04  0.00000000000E+00 0.  1.
         23    2    1    2    0    0  0.10742779078E+04 -0.24776100226E+03 -0.17839151484E+04  0.20989788812E+04  0.88885036656E+02 0.  0.
         11    1    3    3    0    0  0.60575711269E+03 -0.16136385666E+03 -0.10863221454E+04  0.12542231769E+04  0.00000000000E+00 0. -1.
        -11    1    3    3    0    0  0.46852079513E+03 -0.86397145606E+02 -0.69759300300E+03  0.84475570437E+03  0.00000000000E+00 0.  1.
         22    1    1    2    0    0 -0.10742779078E+04  0.24776100226E+03 -0.52520159328E+03  0.12211860018E+04  0.00000000000E+00 0. -1.
<mgrwt>
<rscale>  0 0.23856812E+04</rscale>
<asrwt>0</asrwt>
<pdfrwt beam="1">  1        2 0.43302167E+00 0.23856812E+04</pdfrwt>
<pdfrwt beam="2">  1       -2 0.77772933E-01 0.23856812E+04</pdfrwt>
<totfact> 0.30044769E+00</totfact>
</mgrwt>
</event>
<event>
 6    1  0.1934315E-005  0.2495248E+04  0.7818608E-02  0.8404680E-01
         -2   -1    0    0    0  501 -0.00000000000E+00  0.00000000000E+00  0.26356065955E+04  0.26356065955E+04  0.00000000000E+00 0. -1.
          2   -1    0    0  501    0  0.00000000000E+00 -0.00000000000E+00 -0.59059117700E+03  0.59059117700E+03  0.00000000000E+00 0.  1.
         23    2    1    2    0    0 -0.77957476811E+03 -0.88037253665E+03  0.15560155737E+04  0.19526541060E+04  0.94238896463E+02 0.  0.
         13    1    3    3    0    0 -0.23464568212E+03 -0.20462320076E+03  0.42914686825E+03  0.53018514216E+03  0.00000000000E+00 0. -1.
        -13    1    3    3    0    0 -0.54492908599E+03 -0.67574933589E+03  0.11268687054E+04  0.14224689638E+04  0.00000000000E+00 0.  1.
         22    1    1    2    0    0  0.77957476811E+03  0.88037253665E+03  0.48899984482E+03  0.12735436665E+04  0.00000000000E+00 0.  1.
<mgrwt>
<rscale>  0 0.24952483E+04</rscale>
<asrwt>0</asrwt>
<pdfrwt beam="1">  1        2 0.90860182E-01 0.24952483E+04</pdfrwt>
<pdfrwt beam="2">  1       -2 0.40547793E+00 0.24952483E+04</pdfrwt>
<totfact> 0.30831747E-01</totfact>
</mgrwt>
</event>
<event>
 6    1  0.1934315E-005  0.2273177E+04  0.7818608E-02  0.8488573E-01
          2   -1    0    0  501    0  0.00000000000E+00  0.00000000000E+00  0.14010375020E+04  0.14010375020E+04  0.00000000000E+00 0.  1.
         -2   -1    0    0    0  501 -0.00000000000E+00 -0.00000000000E+00 -0.92205463089E+03  0.92205463089E+03  0.00000000000E+00 0. -1.
         23    2    1    2    0    0  0.76632009320E+03  0.80916333807E+03  0.45831185666E+03  0.12084535889E+04  0.91205951316E+02 0.  0.
         11    1    3    3    0    0  0.35978254916E+03  0.44441123126E+03  0.22303701142E+03  0.61375103553E+03  0.00000000000E+00 0.  1.
        -11    1    3    3    0    0  0.40653754404E+03  0.36475210681E+03  0.23527484524E+03  0.59470255333E+03  0.00000000000E+00 0. -1.
         22    1    1    2    0    0 -0.76632009320E+03 -0.80916333807E+03  0.20671014430E+02  0.11146385440E+04  0.00000000000E+00 0. -1.
<mgrwt>
<rscale>  0 0.22731767E+04</rscale>
<asrwt>0</asrwt>
<pdfrwt beam="1">  1        2 0.21554423E+00 0.22731767E+04</pdfrwt>
<pdfrwt beam="2">  1       -2 0.14185456E+00 0.22731767E+04</pdfrwt>
<totfact> 0.45575773E+00</totfact>
</mgrwt>
</event>
<event>
 6    1  0.1934315E-005  0.1356505E+04  0.7818608E-02  0.8985919E-01
          2   -1    0    0  501    0  0.00000000000E+00  0.00000000000E+00  0.13048704939E+04  0.13048704939E+04  0.00000000000E+00 0.  1.
         -2   -1    0    0    0  501 -0.00000000000E+00 -0.00000000000E+00 -0.35254551409E+03  0.35254551409E+03  0.00000000000E+00 0. -1.
         23    2    1    2    0    0 -0.25875773683E+03 -0.19032322599E+03 -0.24730579347E+03  0.41552531677E+03  0.91228486114E+02 0.  0.
         13    1    3    3    0    0 -0.69294437219E+02 -0.85684937642E+02 -0.12607790031E+03  0.16744928938E+03  0.00000000000E+00 0.  1.
        -13    1    3    3    0    0 -0.18946329961E+03 -0.10463828834E+03 -0.12122789316E+03  0.24807602739E+03  0.00000000000E+00 0. -1.
         22    1    1    2    0    0  0.25875773683E+03  0.19032322599E+03  0.11996307733E+04  0.12418906912E+04  0.00000000000E+00 0.  1.
<mgrwt>
<rscale>  0 0.13565047E+04</rscale>
<asrwt>0</asrwt>
<pdfrwt beam="1">  1        2 0.20074930E+00 0.13565047E+04</pdfrwt>
<pdfrwt beam="2">  1       -2 0.54237772E-01 0.13565047E+04</pdfrwt>
<totfact> 0.51310938E+01</totfact>
</mgrwt>
</event>
<event>
 6    1  0.1934315E-005  0.8656536E+03  0.7818608E-02  0.9469565E-01
          2   -1    0    0  501    0  0.00000000000E+00  0.00000000000E+00  0.49310184536E+03  0.49310184536E+03  0.00000000000E+00 0.  1.
         -2   -1    0    0    0  501 -0.00000000000E+00 -0.00000000000E+00 -0.37991954085E+03  0.37991954085E+03  0.00000000000E+00 0. -1.
         23    2    1    2    0    0 -0.98439433358E+02  0.25480168105E+03 -0.27761442811E+03  0.39622341544E+03  0.72862923010E+02 0.  0.
         11    1    3    3    0    0 -0.74072295554E+02  0.15666619625E+03 -0.21927141033E+03  0.27948336874E+03  0.00000000000E+00 0.  1.
        -11    1    3    3    0    0 -0.24367137804E+02  0.98135484793E+02 -0.58343017781E+02  0.11674004670E+03  0.00000000000E+00 0. -1.
         22    1    1    2    0    0  0.98439433358E+02 -0.25480168105E+03  0.39079673262E+03  0.47679797077E+03  0.00000000000E+00 0.  1.
<mgrwt>
<rscale>  0 0.86565357E+03</rscale>
<asrwt>0</asrwt>
<pdfrwt beam="1">  1        2 0.75861823E-01 0.86565357E+03</pdfrwt>
<pdfrwt beam="2">  1       -2 0.58449160E-01 0.86565357E+03</pdfrwt>
<totfact> 0.17220565E+02</totfact>
</mgrwt>
</event>
<event>
 6    1  0.1934315E-005  0.2297046E+04  0.7818608E-02  0.8479087E-01
         -2   -1    0    0    0  501 -0.00000000000E+00  0.00000000000E+00  0.85752856830E+03  0.85752856830E+03  0.00000000000E+00 0. -1.
          2   -1    0    0  501    0  0.00000000000E+00 -0.00000000000E+00 -0.15382640641E+04  0.15382640641E+04  0.00000000000E+00 0.  1.
         23    2    1    2    0    0 -0.65283365124E+02  0.56140981556E+03 -0.13817241731E+04  0.14953327364E+04  0.86112735225E+02 0.  0.
         11    1    3    3    0    0 -0.39092604667E+02  0.34098488935E+03 -0.94574504024E+03  0.10060977128E+04  0.00000000000E+00 0.  1.
        -11    1    3    3    0    0 -0.26190760457E+02  0.22042492621E+03 -0.43597913285E+03  0.48923502359E+03  0.00000000000E+00 0. -1.
         22    1    1    2    0    0  0.65283365124E+02 -0.56140981556E+03  0.70098867727E+03  0.90045989607E+03  0.00000000000E+00 0. -1.
<mgrwt>
<rscale>  0 0.22970463E+04</rscale>
<asrwt>0</asrwt>
<pdfrwt beam="1">  1        2 0.23665601E+00 0.22970463E+04</pdfrwt>
<pdfrwt beam="2">  1       -2 0.13192747E+00 0.22970463E+04</pdfrwt>
<totfact> 0.45832381E+00</totfact>
</mgrwt>
</event>
<event>
 6    1  0.1934315E-005  0.3039376E+04  0.7818608E-02  0.8232575E-01
          2   -1    0    0  501    0  0.00000000000E+00  0.00000000000E+00  0.33265454733E+04  0.33265454733E+04  0.00000000000E+00 0.  1.
         -2   -1    0    0    0  501 -0.00000000000E+00 -0.00000000000E+00 -0.69424921166E+03  0.69424921166E+03  0.00000000000E+00 0. -1.
         23    2    1    2    0    0 -0.10843159204E+04  0.16708835596E+03 -0.71303559694E+02  0.11030709955E+04  0.89565002615E+02 0.  0.
         13    1    3    3    0    0 -0.46946796043E+03  0.10875922605E+03 -0.51401307039E+01  0.48192857984E+03  0.00000000000E+00 0.  1.
        -13    1    3    3    0    0 -0.61484795995E+03  0.58329129915E+02 -0.66163428990E+02  0.62114241570E+03  0.00000000000E+00 0. -1.
         22    1    1    2    0    0  0.10843159204E+04 -0.16708835596E+03  0.27035998213E+04  0.29177236894E+04  0.00000000000E+00 0.  1.
<mgrwt>
<rscale>  0 0.30393760E+04</rscale>
<asrwt>0</asrwt>
<pdfrwt beam="1">  1        2 0.51177622E+00 0.30393760E+04</pdfrwt>
<pdfrwt beam="2">  1       -2 0.10680757E+00 0.30393760E+04</pdfrwt>
<totfact> 0.64306862E-01</totfact>
</mgrwt>
</event>
<event>
 6    1  0.1934315E-005  0.1145531E+04  0.7818608E-02  0.9161916E-01
          2   -1    0    0  501    0  0.00000000000E+00  0.00000000000E+00  0.83643608566E+03  0.83643608566E+03  0.00000000000E+00 0.  1.
         -2   -1    0    0    0  501 -0.00000000000E+00 -0.00000000000E+00 -0.39221228025E+03  0.39221228025E+03  0.00000000000E+00 0. -1.
         23    2    1    2    0    0 -0.39511029861E+03  0.68283851279E+02  0.65666971722E+03  0.77487739079E+03  0.91896794510E+02 0.  0.
         11    1    3    3    0    0 -0.19350268814E+03  0.59688284919E+02  0.25735203352E+03  0.32746916012E+03  0.00000000000E+00 0.  1.
        -11    1    3    3    0    0 -0.20160761047E+03  0.85955663596E+01  0.39931768370E+03  0.44740823067E+03  0.00000000000E+00 0. -1.
         22    1    1    2    0    0  0.39511029861E+03 -0.68283851279E+02 -0.21244591181E+03  0.45377097512E+03  0.00000000000E+00 0. -1.
<mgrwt>
<rscale>  0 0.11455313E+04</rscale>
<asrwt>0</asrwt>
<pdfrwt beam="1">  1        2 0.12868247E+00 0.11455313E+04</pdfrwt>
<pdfrwt beam="2">  1       -2 0.60340351E-01 0.11455313E+04</pdfrwt>
<totfact> 0.82229170E+01</totfact>
</mgrwt>
</event>
<event>
 6    1  0.1934315E-005  0.6570485E+04  0.7818608E-02  0.7623430E-01
         -2   -1    0    0    0  501 -0.00000000000E+00  0.00000000000E+00  0.32398225622E+04  0.32398225622E+04  0.00000000000E+00 0. -1.
          2   -1    0    0  501    0  0.00000000000E+00 -0.00000000000E+00 -0.33312991796E+04  0.33312991796E+04  0.00000000000E+00 0.  1.
         23    2    1    2    0    0 -0.15348512170E+04  0.15913468819E+04  0.23835880400E+04  0.32523722462E+04  0.90995200253E+02 0.  0.
         11    1    3    3    0    0 -0.10905089405E+04  0.11701640725E+04  0.17675168907E+04  0.23838224902E+04  0.00000000000E+00 0. -1.
        -11    1    3    3    0    0 -0.44434227649E+03  0.42118280935E+03  0.61607114926E+03  0.86854975593E+03  0.00000000000E+00 0.  1.
         22    1    1    2    0    0  0.15348512170E+04 -0.15913468819E+04 -0.24750646574E+04  0.33187494957E+04  0.00000000000E+00 0.  1.
<mgrwt>
<rscale>  0 0.65704850E+04</rscale>
<asrwt>0</asrwt>
<pdfrwt beam="1">  1        2 0.51250757E+00 0.65704850E+04</pdfrwt>
<pdfrwt beam="2">  1       -2 0.49843424E+00 0.65704850E+04</pdfrwt>
<totfact> 0.11672323E-03</totfact>
</mgrwt>
</event>
<event>
 6    1  0.1934315E-005  0.3217809E+04  0.7818608E-02  0.8184130E-01
         -2   -1    0    0    0  501 -0.00000000000E+00  0.00000000000E+00  0.14400158297E+04  0.14400158297E+04  0.00000000000E+00 0. -1.
          2   -1    0    0  501    0  0.00000000000E+00 -0.00000000000E+00 -0.17976009430E+04  0.17976009430E+04  0.00000000000E+00 0.  1.
         23    2    1    2    0    0  0.53744554580E+03 -0.15114900891E+04 -0.28072076878E+03  0.16315787497E+04  0.98970006813E+02 0.  0.
         13    1    3    3    0    0  0.24237956319E+03 -0.63682056539E+03 -0.72024611882E+02  0.68518306303E+03  0.00000000000E+00 0.  1.
        -13    1    3    3    0    0  0.29506598261E+03 -0.87466952370E+03 -0.20869615690E+03  0.94639568664E+03  0.00000000000E+00 0. -1.
         22    1    1    2    0    0 -0.53744554580E+03  0.15114900891E+04 -0.76864344560E+02  0.16060380231E+04  0.00000000000E+00 0.  1.
<mgrwt>
<rscale>  0 0.32178091E+04</rscale>
<asrwt>0</asrwt>
<pdfrwt beam="1">  1        2 0.27655399E+00 0.32178091E+04</pdfrwt>
<pdfrwt beam="2">  1       -2 0.22154090E+00 0.32178091E+04</pdfrwt>
<totfact> 0.70336335E-01</totfact>
</mgrwt>
</event>
<event>
 6    1  0.1934315E-005  0.2018852E+04  0.7818608E-02  0.8597857E-01
          2   -1    0    0  501    0  0.00000000000E+00  0.00000000000E+00  0.15965071545E+04  0.15965071545E+04  0.00000000000E+00 0.  1.
         -2   -1    0    0    0  501 -0.00000000000E+00 -0.00000000000E+00 -0.63823144482E+03  0.63823144482E+03  0.00000000000E+00 0. -1.
         23    2    1    2    0    0  0.48987929766E+03  0.78866702825E+03  0.91296190427E+03  0.13052060562E+04  0.89922204056E+02 0.  0.
         13    1    3    3    0    0  0.24352821450E+03  0.31280930972E+03  0.40938702415E+03  0.56987138115E+03  0.00000000000E+00 0.  1.
        -13    1    3    3    0    0  0.24635108315E+03  0.47585771853E+03  0.50357488012E+03  0.73533467506E+03  0.00000000000E+00 0. -1.
         22    1    1    2    0    0 -0.48987929766E+03 -0.78866702825E+03  0.45313805396E+02  0.92953254310E+03  0.00000000000E+00 0. -1.
<mgrwt>
<rscale>  0 0.20188522E+04</rscale>
<asrwt>0</asrwt>
<pdfrwt beam="1">  1        2 0.24561648E+00 0.20188522E+04</pdfrwt>
<pdfrwt beam="2">  1       -2 0.98189454E-01 0.20188522E+04</pdfrwt>
<totfact> 0.89630834E+00</totfact>
</mgrwt>
</event>
<event>
 6    1  0.1934315E-005  0.3348325E+04  0.7818608E-02  0.8150707E-01
         -2   -1    0    0    0  501 -0.00000000000E+00  0.00000000000E+00  0.12469528338E+04  0.12469528338E+04  0.00000000000E+00 0. -1.
          2   -1    0    0  501    0  0.00000000000E+00 -0.00000000000E+00 -0.22477350886E+04  0.22477350886E+04  0.00000000000E+00 0.  1.
         23    2    1    2    0    0 -0.14692942349E+04  0.67921303910E+03 -0.94130729534E+03  0.18749060938E+04  0.95171083693E+02 0.  0.
         13    1    3    3    0    0 -0.57805604825E+03  0.23157431645E+03 -0.40029935858E+03  0.74028037623E+03  0.00000000000E+00 0. -1.
        -13    1    3    3    0    0 -0.89123818666E+03  0.44763872265E+03 -0.54100793676E+03  0.11346257176E+04  0.00000000000E+00 0.  1.
         22    1    1    2    0    0  0.14692942349E+04 -0.67921303910E+03 -0.59474959464E+02  0.16197818285E+04  0.00000000000E+00 0. -1.
<mgrwt>
<rscale>  0 0.33483247E+04</rscale>
<asrwt>0</asrwt>
<pdfrwt beam="1">  1        2 0.34580539E+00 0.33483247E+04</pdfrwt>
<pdfrwt beam="2">  1       -2 0.19183890E+00 0.33483247E+04</pdfrwt>
<totfact> 0.60834005E-01</totfact>
</mgrwt>
</event>
<event>
 6    1  0.1934315E-005  0.3239814E+04  0.7818608E-02  0.8178381E-01
          2   -1    0    0  501    0  0.00000000000E+00  0.00000000000E+00  0.97767650620E+03  0.97767650620E+03  0.00000000000E+00 0.  1.
         -2   -1    0    0    0  501 -0.00000000000E+00 -0.00000000000E+00 -0.26840145000E+04  0.26840145000E+04  0.00000000000E+00 0. -1.
         23    2    1    2    0    0 -0.62972482762E+03  0.10338436438E+04 -0.20682557569E+04  0.23982154403E+04  0.91484336294E+02 0.  0.
         13    1    3    3    0    0 -0.19378409305E+03  0.35417820067E+03 -0.76774887876E+03  0.86742885206E+03  0.00000000000E+00 0. -1.
        -13    1    3    3    0    0 -0.43594073457E+03  0.67966544311E+03 -0.13005068782E+04  0.15307865883E+04  0.00000000000E+00 0.  1.
         22    1    1    2    0    0  0.62972482762E+03 -0.10338436438E+04  0.36191776313E+03  0.12634755659E+04  0.00000000000E+00 0.  1.
<mgrwt>
<rscale>  0 0.32398135E+04</rscale>
<asrwt>0</asrwt>
<pdfrwt beam="1">  1        2 0.15041177E+00 0.32398135E+04</pdfrwt>
<pdfrwt beam="2">  1       -2 0.41292531E+00 0.32398135E+04</pdfrwt>
<totfact> 0.13329159E-01</totfact>
</mgrwt>
</event>
<event>
 6    1  0.1934315E-005  0.3867525E+04  0.7818608E-02  0.8031817E-01
         -2   -1    0    0    0  501 -0.00000000000E+00  0.00000000000E+00  0.13389570941E+04  0.13389570941E+04  0.00000000000E+00 0. -1.
          2   -1    0    0  501    0  0.00000000000E+00 -0.00000000000E+00 -0.27927990081E+04  0.27927990081E+04  0.00000000000E+00 0.  1.
         23    2    1    2    0    0  0.16356720680E+04  0.15095924478E+02  0.37226011915E+03  0.16801648565E+04  0.93409569810E+02 0.  0.
         11    1    3    3    0    0  0.54416147133E+03 -0.25450548371E+02  0.91411464895E+02  0.55237260360E+03  0.00000000000E+00 0. -1.
        -11    1    3    3    0    0  0.10915105967E+04  0.40546472848E+02  0.28084865426E+03  0.11277922529E+04  0.00000000000E+00 0.  1.
         22    1    1    2    0    0 -0.16356720680E+04 -0.15095924478E+02 -0.18261020331E+04  0.24515912458E+04  0.00000000000E+00 0.  1.
<mgrwt>
<rscale>  0 0.38675253E+04</rscale>
<asrwt>0</asrwt>
<pdfrwt beam="1">  1        2 0.42966138E+00 0.38675253E+04</pdfrwt>
<pdfrwt beam="2">  1       -2 0.20599340E+00 0.38675253E+04</pdfrwt>
<totfact> 0.22630168E-01</totfact>
</mgrwt>
</event>
<event>
 6    1  0.2089911E-005  0.2986770E+04  0.7818608E-02  0.8247519E-01
         -2   -1    0    0    0  501 -0.00000000000E+00  0.00000000000E+00  0.15532378798E+04  0.15532378798E+04  0.00000000000E+00 0. -1.
          2   -1    0    0  501    0  0.00000000000E+00 -0.00000000000E+00 -0.14358386924E+04  0.14358386924E+04  0.00000000000E+00 0.  1.
         23    2    1    2    0    0  0.27679244973E+03  0.11599137794E+04 -0.83860287284E+03  0.14606937749E+04  0.91419308386E+02 0.  0.
         13    1    3    3    0    0  0.13614022642E+03  0.73134090162E+03 -0.49272720234E+03  0.89228570063E+03  0.00000000000E+00 0. -1.
        -13    1    3    3    0    0  0.14065222331E+03  0.42857287774E+03 -0.34587567050E+03  0.56840807427E+03  0.00000000000E+00 0.  1.
         22    1    1    2    0    0 -0.27679244973E+03 -0.11599137794E+04  0.95600206032E+03  0.15283827973E+04  0.00000000000E+00 0. -1.
<mgrwt>
<rscale>  0 0.29867702E+04</rscale>
<asrwt>0</asrwt>
<pdfrwt beam="1">  1        2 0.22089826E+00 0.29867702E+04</pdfrwt>
<pdfrwt beam="2">  1       -2 0.23895967E+00 0.29867702E+04</pdfrwt>
<totfact> 0.88940314E-01</totfact>
</mgrwt>
</event>
<event>
 6    1  0.1934315E-005  0.5127215E+04  0.7818608E-02  0.7809177E-01
         -2   -1    0    0    0  501 -0.00000000000E+00  0.00000000000E+00  0.13080483594E+04  0.13080483594E+04  0.00000000000E+00 0. -1.
          2   -1    0    0  501    0  0.00000000000E+00 -0.00000000000E+00 -0.50243429360E+04  0.50243429360E+04  0.00000000000E+00 0.  1.
         23    2    1    2    0    0  0.25569211712E+04 -0.14971323731E+03 -0.17502848871E+04  0.31035441283E+04  0.90714062456E+02 0.  0.
         11    1    3    3    0    0  0.23017405413E+03 -0.39432663253E+02 -0.15597915342E+03  0.28082828637E+03  0.00000000000E+00 0.  1.
        -11    1    3    3    0    0  0.23267471171E+04 -0.11028057406E+03 -0.15943057337E+04  0.28227158419E+04  0.00000000000E+00 0. -1.
         22    1    1    2    0    0 -0.25569211712E+04  0.14971323731E+03 -0.19660096895E+04  0.32288471671E+04  0.00000000000E+00 0.  1.
<mgrwt>
<rscale>  0 0.51272150E+04</rscale>
<asrwt>0</asrwt>
<pdfrwt beam="1">  1        2 0.77297584E+00 0.51272150E+04</pdfrwt>
<pdfrwt beam="2">  1       -2 0.20123821E+00 0.51272150E+04</pdfrwt>
<totfact> 0.29524511E-03</totfact>
</mgrwt>
</event>
<event>
 6    1  0.1934315E-005  0.4108079E+04  0.7818608E-02  0.7983092E-01
          2   -1    0    0  501    0  0.00000000000E+00  0.00000000000E+00  0.26881817096E+04  0.26881817096E+04  0.00000000000E+00 0.  1.
         -2   -1    0    0    0  501 -0.00000000000E+00 -0.00000000000E+00 -0.15694913326E+04  0.15694913326E+04  0.00000000000E+00 0. -1.
         23    2    1    2    0    0  0.23913994375E+03 -0.13229006306E+04  0.21678166857E+04  0.25524105982E+04  0.90092661382E+02 0.  0.
         13    1    3    3    0    0  0.15222856582E+03 -0.71214569244E+03  0.12462175075E+04  0.14433929124E+04  0.00000000000E+00 0.  1.
        -13    1    3    3    0    0  0.86911377928E+02 -0.61075493816E+03  0.92159917823E+03  0.11090176858E+04  0.00000000000E+00 0. -1.
         22    1    1    2    0    0 -0.23913994375E+03  0.13229006306E+04 -0.10491263087E+04  0.17052624440E+04  0.00000000000E+00 0. -1.
<mgrwt>
<rscale>  0 0.41080788E+04</rscale>
<asrwt>0</asrwt>
<pdfrwt beam="1">  1        2 0.41356642E+00 0.41080788E+04</pdfrwt>
<pdfrwt beam="2">  1       -2 0.24146021E+00 0.41080788E+04</pdfrwt>
<totfact> 0.15310567E-01</totfact>
</mgrwt>
</event>
<event>
 6    1  0.1934315E-005  0.2878462E+04  0.7818608E-02  0.8279315E-01
          2   -1    0    0  501    0  0.00000000000E+00  0.00000000000E+00  0.21391393744E+04  0.21391393744E+04  0.00000000000E+00 0.  1.
         -2   -1    0    0    0  501 -0.00000000000E+00 -0.00000000000E+00 -0.96832646037E+03  0.96832646037E+03  0.00000000000E+00 0. -1.
         23    2    1    2    0    0 -0.34829457822E+03 -0.12425549640E+04 -0.98542784073E+02  0.12973509654E+04  0.90315532045E+02 0.  0.
         13    1    3    3    0    0 -0.24628118185E+03 -0.91429228006E+03 -0.11107315202E+03  0.95337402891E+03  0.00000000000E+00 0.  1.
        -13    1    3    3    0    0 -0.10201339636E+03 -0.32826268399E+03  0.12530367945E+02  0.34397693652E+03  0.00000000000E+00 0. -1.
         22    1    1    2    0    0  0.34829457822E+03  0.12425549640E+04  0.12693556981E+04  0.18101148693E+04  0.00000000000E+00 0.  1.
<mgrwt>
<rscale>  0 0.28784616E+04</rscale>
<asrwt>0</asrwt>
<pdfrwt beam="1">  1        2 0.32909836E+00 0.28784616E+04</pdfrwt>
<pdfrwt beam="2">  1       -2 0.14897330E+00 0.28784616E+04</pdfrwt>
<totfact> 0.14738193E+00</totfact>
</mgrwt>
</event>
<event>
 6    1  0.1934315E-005  0.3524114E+04  0.7818608E-02  0.8108099E-01
          2   -1    0    0  501    0  0.00000000000E+00  0.00000000000E+00  0.35817232795E+04  0.35817232795E+04  0.00000000000E+00 0.  1.
         -2   -1    0    0    0  501 -0.00000000000E+00 -0.00000000000E+00 -0.86685770582E+03  0.86685770582E+03  0.00000000000E+00 0. -1.
         23    2    1    2    0    0  0.67691464608E+03  0.15584151758E+04  0.19423334716E+04  0.25821198560E+04  0.88387430714E+02 0.  0.
         11    1    3    3    0    0  0.33710266391E+03  0.85261330152E+03  0.99904210591E+03  0.13559766876E+04  0.00000000000E+00 0.  1.
        -11    1    3    3    0    0  0.33981198217E+03  0.70580187429E+03  0.94329136564E+03  0.12261431684E+04  0.00000000000E+00 0. -1.
         22    1    1    2    0    0 -0.67691464608E+03 -0.15584151758E+04  0.77253210209E+03  0.18664611293E+04  0.00000000000E+00 0. -1.
<mgrwt>
<rscale>  0 0.35241137E+04</rscale>
<asrwt>0</asrwt>
<pdfrwt beam="1">  1        2 0.55103434E+00 0.35241137E+04</pdfrwt>
<pdfrwt beam="2">  1       -2 0.13336273E+00 0.35241137E+04</pdfrwt>
<totfact> 0.23707868E-01</totfact>
</mgrwt>
</event>
<event>
 6    1  0.1934315E-005  0.2835746E+04  0.7818608E-02  0.8292256E-01
         -2   -1    0    0    0  501 -0.00000000000E+00  0.00000000000E+00  0.18749298639E+04  0.18749298639E+04  0.00000000000E+00 0. -1.
          2   -1    0    0  501    0  0.00000000000E+00 -0.00000000000E+00 -0.10722338910E+04  0.10722338910E+04  0.00000000000E+00 0.  1.
         23    2    1    2    0    0  0.71050816265E+03 -0.96703011173E+03  0.11839322714E+04  0.16880727329E+04  0.89021582748E+02 0.  0.
         11    1    3    3    0    0  0.58781310619E+03 -0.84212893830E+03  0.10373952681E+04  0.14597583152E+04  0.00000000000E+00 0. -1.
        -11    1    3    3    0    0  0.12269505646E+03 -0.12490117343E+03  0.14653700333E+03  0.22831441774E+03  0.00000000000E+00 0.  1.
         22    1    1    2    0    0 -0.71050816265E+03  0.96703011173E+03 -0.38123629860E+03  0.12590910219E+04  0.00000000000E+00 0.  1.
<mgrwt>
<rscale>  0 0.28357456E+04</rscale>
<asrwt>0</asrwt>
<pdfrwt beam="1">  1        2 0.16495906E+00 0.28357456E+04</pdfrwt>
<pdfrwt beam="2">  1       -2 0.28845075E+00 0.28357456E+04</pdfrwt>
<totfact> 0.73547522E-01</totfact>
</mgrwt>
</event>
<event>
 6    1  0.1934315E-005  0.1629323E+04  0.7818608E-02  0.8802734E-01
          1   -1    0    0  501    0  0.00000000000E+00  0.00000000000E+00  0.17580219955E+04  0.17580219955E+04  0.00000000000E+00 0.  1.
         -1   -1    0    0    0  501 -0.00000000000E+00 -0.00000000000E+00 -0.37751124540E+03  0.37751124540E+03  0.00000000000E+00 0. -1.
         23    2    1    2    0    0  0.60265562632E+03  0.16720322169E+03  0.13440352945E+02  0.63219289618E+03  0.91304400895E+02 0.  0.
         13    1    3    3    0    0  0.32356997080E+02  0.10955604724E+02  0.22327515391E+02  0.40810764248E+02  0.00000000000E+00 0.  1.
        -13    1    3    3    0    0  0.57029862924E+03  0.15624761697E+03 -0.88871624463E+01  0.59138213194E+03  0.00000000000E+00 0. -1.
         22    1    1    2    0    0 -0.60265562632E+03 -0.16720322169E+03  0.13670703971E+04  0.15033403447E+04  0.00000000000E+00 0.  1.
<mgrwt>
<rscale>  0 0.16293226E+04</rscale>
<asrwt>0</asrwt>
<pdfrwt beam="1">  1        1 0.27046492E+00 0.16293226E+04</pdfrwt>
<pdfrwt beam="2">  1       -1 0.58078654E-01 0.16293226E+04</pdfrwt>
<totfact> 0.12510071E+01</totfact>
</mgrwt>
</event>
<event>
 6    1  0.1934315E-005  0.2513573E+04  0.7818608E-02  0.8398166E-01
          2   -1    0    0  501    0  0.00000000000E+00  0.00000000000E+00  0.10256486393E+04  0.10256486393E+04  0.00000000000E+00 0.  1.
         -2   -1    0    0    0  501 -0.00000000000E+00 -0.00000000000E+00 -0.15400126705E+04  0.15400126705E+04  0.00000000000E+00 0. -1.
         23    2    1    2    0    0 -0.20941051393E+03  0.11891782842E+04 -0.60728686727E+03  0.13546153122E+04  0.90485080654E+02 0.  0.
         13    1    3    3    0    0 -0.22998250205E+02  0.38305874470E+02 -0.28347233352E+02  0.52913374208E+02  0.00000000000E+00 0. -1.
        -13    1    3    3    0    0 -0.18641226373E+03  0.11508724097E+04 -0.57893963392E+03  0.13017019380E+04  0.00000000000E+00 0.  1.
         22    1    1    2    0    0  0.20941051393E+03 -0.11891782842E+04  0.92922836031E+02  0.12110459977E+04  0.00000000000E+00 0.  1.
<mgrwt>
<rscale>  0 0.25135727E+04</rscale>
<asrwt>0</asrwt>
<pdfrwt beam="1">  1        2 0.15779210E+00 0.25135727E+04</pdfrwt>
<pdfrwt beam="2">  1       -2 0.23692503E+00 0.25135727E+04</pdfrwt>
<totfact> 0.16722732E+00</totfact>
</mgrwt>
</event>
<event>
 6    1  0.1934315E-005  0.2254475E+04  0.7818608E-02  0.8496090E-01
         -2   -1    0    0    0  501 -0.00000000000E+00  0.00000000000E+00  0.87084886822E+03  0.87084886822E+03  0.00000000000E+00 0. -1.
          2   -1    0    0  501    0  0.00000000000E+00 -0.00000000000E+00 -0.14591106522E+04  0.14591106522E+04  0.00000000000E+00 0.  1.
         23    2    1    2    0    0 -0.81650586456E+03  0.32840057417E+03 -0.10195048982E+04  0.13499088138E+04  0.91295147732E+02 0.  0.
         13    1    3    3    0    0 -0.36977985935E+03  0.11794013574E+03 -0.39537767497E+03  0.55404920888E+03  0.00000000000E+00 0. -1.
        -13    1    3    3    0    0 -0.44672600521E+03  0.21046043843E+03 -0.62412722324E+03  0.79585960487E+03  0.00000000000E+00 0.  1.
         22    1    1    2    0    0  0.81650586456E+03 -0.32840057417E+03  0.43124311427E+03  0.98005070663E+03  0.00000000000E+00 0. -1.
<mgrwt>
<rscale>  0 0.22544754E+04</rscale>
<asrwt>0</asrwt>
<pdfrwt beam="1">  1        2 0.22447856E+00 0.22544754E+04</pdfrwt>
<pdfrwt beam="2">  1       -2 0.13397675E+00 0.22544754E+04</pdfrwt>
<totfact> 0.49020863E+00</totfact>
</mgrwt>
</event>
<event>
 6    1  0.1934315E-005  0.2904316E+04  0.7818608E-02  0.8271594E-01
          2   -1    0    0  501    0  0.00000000000E+00  0.00000000000E+00  0.20839033480E+04  0.20839033480E+04  0.00000000000E+00 0.  1.
         -2   -1    0    0    0  501 -0.00000000000E+00 -0.00000000000E+00 -0.10119293937E+04  0.10119293937E+04  0.00000000000E+00 0. -1.
         23    2    1    2    0    0 -0.11752213064E+04 -0.78379954198E+03  0.88827650019E+03  0.16713217394E+04  0.93778327241E+02 0.  0.
         13    1    3    3    0    0 -0.21102706692E+03 -0.10109613914E+03  0.16002735153E+03  0.28348122612E+03  0.00000000000E+00 0. -1.
        -13    1    3    3    0    0 -0.96419423951E+03 -0.68270340284E+03  0.72824914866E+03  0.13878405133E+04  0.00000000000E+00 0.  1.
         22    1    1    2    0    0  0.11752213064E+04  0.78379954198E+03  0.18369745403E+03  0.14245110023E+04  0.00000000000E+00 0. -1.
<mgrwt>
<rscale>  0 0.29043161E+04</rscale>
<asrwt>0</asrwt>
<pdfrwt beam="1">  1        2 0.32060051E+00 0.29043161E+04</pdfrwt>
<pdfrwt beam="2">  1       -2 0.15568145E+00 0.29043161E+04</pdfrwt>
<totfact> 0.14041775E+00</totfact>
</mgrwt>
</event>
<event>
 6    1  0.2728431E-005  0.2959413E+04  0.7818608E-02  0.8255417E-01
          2   -1    0    0  501    0  0.00000000000E+00  0.00000000000E+00  0.13493324335E+04  0.13493324335E+04  0.00000000000E+00 0.  1.
         -2   -1    0    0    0  501 -0.00000000000E+00 -0.00000000000E+00 -0.16226774025E+04  0.16226774025E+04  0.00000000000E+00 0. -1.
         23    2    1    2    0    0 -0.14542092854E+04  0.26402786326E+03 -0.10442886246E+03  0.14844050467E+04  0.90097707905E+02 0.  0.
         11    1    3    3    0    0 -0.43049515209E+03  0.79122154401E+02 -0.72246743192E+02  0.44362820379E+03  0.00000000000E+00 0.  1.
        -11    1    3    3    0    0 -0.10237141333E+04  0.18490570886E+03 -0.32182119268E+02  0.10407768429E+04  0.00000000000E+00 0. -1.
         22    1    1    2    0    0  0.14542092854E+04 -0.26402786326E+03 -0.16891610653E+03  0.14876047894E+04  0.00000000000E+00 0. -1.
<mgrwt>
<rscale>  0 0.29594129E+04</rscale>
<asrwt>0</asrwt>
<pdfrwt beam="1">  1        2 0.20758960E+00 0.29594129E+04</pdfrwt>
<pdfrwt beam="2">  1       -2 0.24964268E+00 0.29594129E+04</pdfrwt>
<totfact> 0.85848741E-01</totfact>
</mgrwt>
</event>
<event>
 6    1  0.1934315E-005  0.3009541E+03  0.7818608E-02  0.1084765E+00
         -2   -1    0    0    0  501 -0.00000000000E+00  0.00000000000E+00  0.44182393252E+02  0.44182393252E+02  0.00000000000E+00 0. -1.
          2   -1    0    0  501    0  0.00000000000E+00 -0.00000000000E+00 -0.51249683248E+03  0.51249683248E+03  0.00000000000E+00 0.  1.
         23    2    1    2    0    0  0.90512084155E+02  0.96766648053E+02 -0.32211732149E+03  0.35937281735E+03  0.88504415107E+02 0.  0.
         13    1    3    3    0    0  0.27992373338E+02  0.53058600100E+02 -0.23960693746E+03  0.24700257588E+03  0.00000000000E+00 0.  1.
        -13    1    3    3    0    0  0.62519710818E+02  0.43708047953E+02 -0.82510384026E+02  0.11237024147E+03  0.00000000000E+00 0. -1.
         22    1    1    2    0    0 -0.90512084155E+02 -0.96766648053E+02 -0.14619711774E+03  0.19730640839E+03  0.00000000000E+00 0. -1.
<mgrwt>
<rscale>  0 0.30095406E+03</rscale>
<asrwt>0</asrwt>
<pdfrwt beam="1">  1        2 0.78845664E-01 0.30095406E+03</pdfrwt>
<pdfrwt beam="2">  1       -2 0.67972915E-02 0.30095406E+03</pdfrwt>
<totfact> 0.73748780E+03</totfact>
</mgrwt>
</event>
<event>
 6    1  0.1934315E-005  0.2974790E+04  0.7818608E-02  0.8250967E-01
          2   -1    0    0  501    0  0.00000000000E+00  0.00000000000E+00  0.13331886614E+04  0.13331886614E+04  0.00000000000E+00 0.  1.
         -2   -1    0    0    0  501 -0.00000000000E+00 -0.00000000000E+00 -0.16594378198E+04  0.16594378198E+04  0.00000000000E+00 0. -1.
         23    2    1    2    0    0  0.22096979460E+03  0.44746315591E+03  0.12447306489E+04  0.13442853512E+04  0.93261948316E+02 0.  0.
         13    1    3    3    0    0  0.21121151174E+02  0.11594265782E+03  0.23495711447E+03  0.26285670729E+03  0.00000000000E+00 0. -1.
        -13    1    3    3    0    0  0.19984864343E+03  0.33152049809E+03  0.10097735344E+04  0.10814286439E+04  0.00000000000E+00 0.  1.
         22    1    1    2    0    0 -0.22096979460E+03 -0.44746315591E+03 -0.15709798073E+04  0.16483411301E+04  0.00000000000E+00 0. -1.
<mgrwt>
<rscale>  0 0.29747899E+04</rscale>
<asrwt>0</asrwt>
<pdfrwt beam="1">  1        2 0.20510595E+00 0.29747899E+04</pdfrwt>
<pdfrwt beam="2">  1       -2 0.25529813E+00 0.29747899E+04</pdfrwt>
<totfact> 0.80866982E-01</totfact>
</mgrwt>
</event>
<event>
 6    1  0.1934315E-005  0.4347794E+04  0.7818608E-02  0.7937839E-01
          2   -1    0    0  501    0  0.00000000000E+00  0.00000000000E+00  0.23986852994E+04  0.23986852994E+04  0.00000000000E+00 0.  1.
         -2   -1    0    0    0  501 -0.00000000000E+00 -0.00000000000E+00 -0.19701738691E+04  0.19701738691E+04  0.00000000000E+00 0. -1.
         23    2    1    2    0    0  0.14461726046E+04  0.41875424321E+03  0.17887261888E+04  0.23398311973E+04  0.92186414254E+02 0.  0.
         13    1    3    3    0    0  0.12801103138E+04  0.38040609199E+03  0.16269848000E+04  0.21048683450E+04  0.00000000000E+00 0.  1.
        -13    1    3    3    0    0  0.16606229076E+03  0.38348151221E+02  0.16174138882E+03  0.23496285233E+03  0.00000000000E+00 0. -1.
         22    1    1    2    0    0 -0.14461726046E+04 -0.41875424321E+03 -0.13602147585E+04  0.20290279712E+04  0.00000000000E+00 0.  1.
<mgrwt>
<rscale>  0 0.43477935E+04</rscale>
<asrwt>0</asrwt>
<pdfrwt beam="1">  1        2 0.36902851E+00 0.43477935E+04</pdfrwt>
<pdfrwt beam="2">  1       -2 0.30310367E+00 0.43477935E+04</pdfrwt>
<totfact> 0.92934850E-02</totfact>
</mgrwt>
</event>
<event>
 6    1  0.1934315E-005  0.1919113E+04  0.7818608E-02  0.8645401E-01
         -2   -1    0    0    0  501 -0.00000000000E+00  0.00000000000E+00  0.33305609974E+03  0.33305609974E+03  0.00000000000E+00 0. -1.
          2   -1    0    0  501    0  0.00000000000E+00 -0.00000000000E+00 -0.27645459542E+04  0.27645459542E+04  0.00000000000E+00 0.  1.
         23    2    1    2    0    0  0.65320522503E+03 -0.48526741537E+03 -0.20327743893E+04  0.21914367530E+04  0.89787495610E+02 0.  0.
         13    1    3    3    0    0  0.36034601182E+03 -0.23212897901E+03 -0.11603052377E+04  0.12369484046E+04  0.00000000000E+00 0.  1.
        -13    1    3    3    0    0  0.29285921321E+03 -0.25313843636E+03 -0.87246915157E+03  0.95448834837E+03  0.00000000000E+00 0. -1.
         22    1    1    2    0    0 -0.65320522503E+03  0.48526741537E+03 -0.39871546522E+03  0.90616530095E+03  0.00000000000E+00 0. -1.
<mgrwt>
<rscale>  0 0.19191132E+04</rscale>
<asrwt>0</asrwt>
<pdfrwt beam="1">  1        2 0.42531477E+00 0.19191132E+04</pdfrwt>
<pdfrwt beam="2">  1       -2 0.51239399E-01 0.19191132E+04</pdfrwt>
<totfact> 0.81904296E+00</totfact>
</mgrwt>
</event>
<event>
 6    1  0.1934315E-005  0.3568179E+04  0.7818608E-02  0.8097820E-01
          2   -1    0    0  501    0  0.00000000000E+00  0.00000000000E+00  0.15748604753E+04  0.15748604753E+04  0.00000000000E+00 0.  1.
         -2   -1    0    0    0  501 -0.00000000000E+00 -0.00000000000E+00 -0.20211162009E+04  0.20211162009E+04  0.00000000000E+00 0. -1.
         23    2    1    2    0    0 -0.10513856533E+04 -0.25485339599E+03  0.12050593148E+04  0.16218430920E+04  0.88572102399E+02 0.  0.
         13    1    3    3    0    0 -0.29540432465E+03 -0.10346626329E+03  0.31049400959E+03  0.44088038361E+03  0.00000000000E+00 0. -1.
        -13    1    3    3    0    0 -0.75598132868E+03 -0.15138713270E+03  0.89456530523E+03  0.11809627084E+04  0.00000000000E+00 0.  1.
         22    1    1    2    0    0  0.10513856533E+04  0.25485339599E+03 -0.16513150405E+04  0.19741335842E+04  0.00000000000E+00 0. -1.
<mgrwt>
<rscale>  0 0.35681794E+04</rscale>
<asrwt>0</asrwt>
<pdfrwt beam="1">  1        2 0.24228623E+00 0.35681794E+04</pdfrwt>
<pdfrwt beam="2">  1       -2 0.31094095E+00 0.35681794E+04</pdfrwt>
<totfact> 0.25628805E-01</totfact>
</mgrwt>
</event>
<event>
 6    1  0.1934315E-005  0.3528514E+04  0.7818608E-02  0.8107065E-01
         -2   -1    0    0    0  501 -0.00000000000E+00  0.00000000000E+00  0.12928293335E+04  0.12928293335E+04  0.00000000000E+00 0. -1.
          2   -1    0    0  501    0  0.00000000000E+00 -0.00000000000E+00 -0.24075903015E+04  0.24075903015E+04  0.00000000000E+00 0.  1.
         23    2    1    2    0    0  0.17774298893E+03 -0.10322362783E+04  0.92952306323E+03  0.14034212666E+04  0.92053365085E+02 0.  0.
         11    1    3    3    0    0  0.13694330220E+03 -0.68782710226E+03  0.67342384485E+03  0.97229587340E+03  0.00000000000E+00 0. -1.
        -11    1    3    3    0    0  0.40799686737E+02 -0.34440917603E+03  0.25609921838E+03  0.43112539316E+03  0.00000000000E+00 0.  1.
         22    1    1    2    0    0 -0.17774298893E+03  0.10322362783E+04 -0.20442840313E+04  0.22969983685E+04  0.00000000000E+00 0.  1.
<mgrwt>
<rscale>  0 0.35285143E+04</rscale>
<asrwt>0</asrwt>
<pdfrwt beam="1">  1        2 0.37039851E+00 0.35285143E+04</pdfrwt>
<pdfrwt beam="2">  1       -2 0.19889682E+00 0.35285143E+04</pdfrwt>
<totfact> 0.43635048E-01</totfact>
</mgrwt>
</event>
<event>
 6    1  0.1934315E-005  0.3527662E+04  0.7818608E-02  0.8107266E-01
          2   -1    0    0  501    0  0.00000000000E+00  0.00000000000E+00  0.34010637372E+04  0.34010637372E+04  0.00000000000E+00 0.  1.
         -2   -1    0    0    0  501 -0.00000000000E+00 -0.00000000000E+00 -0.91474301508E+03  0.91474301508E+03  0.00000000000E+00 0. -1.
         23    2    1    2    0    0 -0.12447715695E+04 -0.11404971784E+04  0.62428087652E+03  0.18023663888E+04  0.92778837424E+02 0.  0.
         13    1    3    3    0    0 -0.61259679535E+03 -0.62408893072E+03  0.32522001161E+03  0.93302190921E+03  0.00000000000E+00 0.  1.
        -13    1    3    3    0    0 -0.63217477414E+03 -0.51640824765E+03  0.29906086491E+03  0.86934447961E+03  0.00000000000E+00 0. -1.
         22    1    1    2    0    0  0.12447715695E+04  0.11404971784E+04  0.18620398456E+04  0.25134403635E+04  0.00000000000E+00 0. -1.
<mgrwt>
<rscale>  0 0.35276617E+04</rscale>
<asrwt>0</asrwt>
<pdfrwt beam="1">  1        2 0.52324057E+00 0.35276617E+04</pdfrwt>
<pdfrwt beam="2">  1       -2 0.14072970E+00 0.35276617E+04</pdfrwt>
<totfact> 0.27610899E-01</totfact>
</mgrwt>
</event>
<event>
 6    1  0.1934315E-005  0.2974670E+04  0.7818608E-02  0.8251001E-01
          2   -1    0    0  501    0  0.00000000000E+00  0.00000000000E+00  0.21137062020E+04  0.21137062020E+04  0.00000000000E+00 0.  1.
         -2   -1    0    0    0  501 -0.00000000000E+00 -0.00000000000E+00 -0.10465810487E+04  0.10465810487E+04  0.00000000000E+00 0. -1.
         23    2    1    2    0    0  0.91999678482E+03  0.81586738852E+03  0.14201786726E+04  0.18809591195E+04  0.95215898529E+02 0.  0.
         13    1    3    3    0    0  0.80726617479E+03  0.73778570876E+03  0.12979980708E+04  0.16972935576E+04  0.00000000000E+00 0. -1.
        -13    1    3    3    0    0  0.11273061003E+03  0.78081679757E+02  0.12218060183E+03  0.18366556187E+03  0.00000000000E+00 0.  1.
         22    1    1    2    0    0 -0.91999678482E+03 -0.81586738852E+03 -0.35305351933E+03  0.12793281312E+04  0.00000000000E+00 0. -1.
<mgrwt>
<rscale>  0 0.29746696E+04</rscale>
<asrwt>0</asrwt>
<pdfrwt beam="1">  1        2 0.32518557E+00 0.29746696E+04</pdfrwt>
<pdfrwt beam="2">  1       -2 0.16101247E+00 0.29746696E+04</pdfrwt>
<totfact> 0.12261390E+00</totfact>
</mgrwt>
</event>
<event>
 6    1  0.1934315E-005  0.2078317E+04  0.7818608E-02  0.8570855E-01
          2   -1    0    0  501    0  0.00000000000E+00  0.00000000000E+00  0.40275179544E+03  0.40275179544E+03  0.00000000000E+00 0.  1.
         -2   -1    0    0    0  501 -0.00000000000E+00 -0.00000000000E+00 -0.26811808764E+04  0.26811808764E+04  0.00000000000E+00 0. -1.
         23    2    1    2    0    0 -0.23413356693E+03  0.99321562567E+03 -0.14171253816E+04  0.17485900683E+04  0.89593937018E+02 0.  0.
         11    1    3    3    0    0 -0.15314164116E+03  0.57490808475E+03 -0.75548820830E+03  0.96163095887E+03  0.00000000000E+00 0.  1.
        -11    1    3    3    0    0 -0.80991925765E+02  0.41830754092E+03 -0.66163717333E+03  0.78695910946E+03  0.00000000000E+00 0. -1.
         22    1    1    2    0    0  0.23413356693E+03 -0.99321562567E+03 -0.86130369931E+03  0.13353426035E+04  0.00000000000E+00 0.  1.
<mgrwt>
<rscale>  0 0.20783170E+04</rscale>
<asrwt>0</asrwt>
<pdfrwt beam="1">  1        2 0.61961812E-01 0.20783170E+04</pdfrwt>
<pdfrwt beam="2">  1       -2 0.41248939E+00 0.20783170E+04</pdfrwt>
<totfact> 0.44867112E-01</totfact>
</mgrwt>
</event>
<event>
 6    1  0.1934315E-005  0.1144529E+04  0.7818608E-02  0.9162846E-01
         -2   -1    0    0    0  501 -0.00000000000E+00  0.00000000000E+00  0.34476663856E+03  0.34476663856E+03  0.00000000000E+00 0. -1.
          2   -1    0    0  501    0  0.00000000000E+00 -0.00000000000E+00 -0.94987871352E+03  0.94987871352E+03  0.00000000000E+00 0.  1.
         23    2    1    2    0    0  0.21752651727E+03 -0.95040155734E+02 -0.88897713225E+03  0.92460510066E+03  0.90905630059E+02 0.  0.
         13    1    3    3    0    0  0.10596066387E+03 -0.36247237710E+02 -0.58300102223E+03  0.59365959644E+03  0.00000000000E+00 0. -1.
        -13    1    3    3    0    0  0.11156585340E+03 -0.58792918024E+02 -0.30597611003E+03  0.33094550422E+03  0.00000000000E+00 0.  1.
         22    1    1    2    0    0 -0.21752651727E+03  0.95040155734E+02  0.28386505730E+03  0.37004025142E+03  0.00000000000E+00 0. -1.
<mgrwt>
<rscale>  0 0.11445287E+04</rscale>
<asrwt>0</asrwt>
<pdfrwt beam="1">  1        2 0.14613518E+00 0.11445287E+04</pdfrwt>
<pdfrwt beam="2">  1       -2 0.53041023E-01 0.11445287E+04</pdfrwt>
<totfact> 0.90125563E+01</totfact>
</mgrwt>
</event>
<event>
 6    1  0.1934315E-005  0.1970329E+04  0.7818608E-02  0.8620620E-01
          2   -1    0    0  501    0  0.00000000000E+00  0.00000000000E+00  0.43901476694E+04  0.43901476694E+04  0.00000000000E+00 0.  1.
         -2   -1    0    0    0  501 -0.00000000000E+00 -0.00000000000E+00 -0.22107433162E+03  0.22107433162E+03  0.00000000000E+00 0. -1.
         23    2    1    2    0    0  0.18705719156E+02 -0.90961765476E+03  0.29611634990E+04  0.30990049662E+04  0.87111027036E+02 0.  0.
         13    1    3    3    0    0  0.46113077226E+02 -0.61768252346E+03  0.20868564611E+04  0.21768389938E+04  0.00000000000E+00 0.  1.
        -13    1    3    3    0    0 -0.27407358070E+02 -0.29193513129E+03  0.87430703788E+03  0.92216597239E+03  0.00000000000E+00 0. -1.
         22    1    1    2    0    0 -0.18705719156E+02  0.90961765476E+03  0.12079098389E+04  0.15122170349E+04  0.00000000000E+00 0. -1.
<mgrwt>
<rscale>  0 0.19703289E+04</rscale>
<asrwt>0</asrwt>
<pdfrwt beam="1">  1        2 0.67540727E+00 0.19703289E+04</pdfrwt>
<pdfrwt beam="2">  1       -2 0.34011439E-01 0.19703289E+04</pdfrwt>
<totfact> 0.12003835E+00</totfact>
</mgrwt>
</event>
<event>
 6    1  0.1934315E-005  0.5605197E+03  0.7818608E-02  0.9990880E-01
         -2   -1    0    0    0  501 -0.00000000000E+00  0.00000000000E+00  0.41427808910E+02  0.41427808910E+02  0.00000000000E+00 0. -1.
          2   -1    0    0  501    0  0.00000000000E+00 -0.00000000000E+00 -0.18959624397E+04  0.18959624397E+04  0.00000000000E+00 0.  1.
         23    2    1    2    0    0 -0.89606562862E+02  0.25279890752E+03 -0.11269162038E+04  0.11619128478E+04  0.90358795492E+02 0.  0.
         11    1    3    3    0    0 -0.83434835102E+02  0.11490587205E+03 -0.65547061036E+03  0.67067611571E+03  0.00000000000E+00 0. -1.
        -11    1    3    3    0    0 -0.61717277599E+01  0.13789303546E+03 -0.47144559341E+03  0.49123673213E+03  0.00000000000E+00 0.  1.
         22    1    1    2    0    0  0.89606562862E+02 -0.25279890752E+03 -0.72761842699E+03  0.77547740073E+03  0.00000000000E+00 0. -1.
<mgrwt>
<rscale>  0 0.56051965E+03</rscale>
<asrwt>0</asrwt>
<pdfrwt beam="1">  1        2 0.29168656E+00 0.56051965E+03</pdfrwt>
<pdfrwt beam="2">  1       -2 0.63735085E-02 0.56051965E+03</pdfrwt>
<totfact> 0.11115180E+03</totfact>
</mgrwt>
</event>
<event>
 6    1  0.1934315E-005  0.3600797E+04  0.7818608E-02  0.8090309E-01
          2   -1    0    0  501    0  0.00000000000E+00  0.00000000000E+00  0.30114191253E+04  0.30114191253E+04  0.00000000000E+00 0.  1.
         -2   -1    0    0    0  501 -0.00000000000E+00 -0.00000000000E+00 -0.10763813506E+04  0.10763813506E+04  0.00000000000E+00 0. -1.
         23    2    1    2    0    0  0.15028940631E+04 -0.62965055576E+02  0.20887102206E+04  0.25757586830E+04  0.95745728173E+02 0.  0.
         13    1    3    3    0    0  0.96934014349E+03 -0.57460685502E+02  0.14197438266E+04  0.17200565622E+04  0.00000000000E+00 0.  1.
        -13    1    3    3    0    0  0.53355391957E+03 -0.55043700740E+01  0.66896639398E+03  0.85570212075E+03  0.00000000000E+00 0. -1.
         22    1    1    2    0    0 -0.15028940631E+04  0.62965055576E+02 -0.15367244591E+03  0.15120417930E+04  0.00000000000E+00 0. -1.
<mgrwt>
<rscale>  0 0.36007973E+04</rscale>
<asrwt>0</asrwt>
<pdfrwt beam="1">  1        2 0.46329525E+00 0.36007973E+04</pdfrwt>
<pdfrwt beam="2">  1       -2 0.16559713E+00 0.36007973E+04</pdfrwt>
<totfact> 0.31971276E-01</totfact>
</mgrwt>
</event>
<event>
 6    1  0.1934315E-005  0.1774489E+04  0.7818608E-02  0.8719985E-01
          2   -1    0    0  501    0  0.00000000000E+00  0.00000000000E+00  0.93517461929E+03  0.93517461929E+03  0.00000000000E+00 0.  1.
         -2   -1    0    0    0  501 -0.00000000000E+00 -0.00000000000E+00 -0.84177120549E+03  0.84177120549E+03  0.00000000000E+00 0. -1.
         23    2    1    2    0    0  0.17242589274E+03 -0.86649249722E+03 -0.41849766784E+01  0.88809070151E+03  0.90264299981E+02 0.  0.
         13    1    3    3    0    0  0.59959280617E+02 -0.39447202436E+03 -0.42965104301E+02  0.40130947350E+03  0.00000000000E+00 0. -1.
        -13    1    3    3    0    0  0.11246661213E+03 -0.47202047285E+03  0.38780127623E+02  0.48678122800E+03  0.00000000000E+00 0.  1.
         22    1    1    2    0    0 -0.17242589274E+03  0.86649249722E+03  0.97588390482E+02  0.88885512328E+03  0.00000000000E+00 0.  1.
<mgrwt>
<rscale>  0 0.17744893E+04</rscale>
<asrwt>0</asrwt>
<pdfrwt beam="1">  1        2 0.14387302E+00 0.17744893E+04</pdfrwt>
<pdfrwt beam="2">  1       -2 0.12950326E+00 0.17744893E+04</pdfrwt>
<totfact> 0.11519923E+01</totfact>
</mgrwt>
</event>
<event>
 6    1  0.1934315E-005  0.1887254E+04  0.7818608E-02  0.8661227E-01
          2   -1    0    0  501    0  0.00000000000E+00  0.00000000000E+00  0.11713535998E+04  0.11713535998E+04  0.00000000000E+00 0. -1.
         -2   -1    0    0    0  501 -0.00000000000E+00 -0.00000000000E+00 -0.76017344964E+03  0.76017344964E+03  0.00000000000E+00 0.  1.
         23    2    1    2    0    0 -0.64601752380E+03 -0.57733826468E+02 -0.49228037509E+03  0.81936125403E+03  0.91329410002E+02 0.  0.
         11    1    3    3    0    0 -0.58559348986E+03 -0.75707087971E+02 -0.42755511531E+03  0.72900937934E+03  0.00000000000E+00 0.  1.
        -11    1    3    3    0    0 -0.60424033943E+02  0.17973261503E+02 -0.64725259784E+02  0.90351874696E+02  0.00000000000E+00 0. -1.
         22    1    1    2    0    0  0.64601752380E+03  0.57733826468E+02  0.90346052527E+03  0.11121657954E+04  0.00000000000E+00 0. -1.
<mgrwt>
<rscale>  0 0.18872540E+04</rscale>
<asrwt>0</asrwt>
<pdfrwt beam="1">  1        2 0.18020825E+00 0.18872540E+04</pdfrwt>
<pdfrwt beam="2">  1       -2 0.11694976E+00 0.18872540E+04</pdfrwt>
<totfact> 0.10456471E+01</totfact>
</mgrwt>
</event>
<event>
 6    1  0.1934315E-005  0.4318662E+04  0.7818608E-02  0.7943176E-01
          2   -1    0    0  501    0  0.00000000000E+00  0.00000000000E+00  0.43556783800E+04  0.43556783800E+04  0.00000000000E+00 0.  1.
         -2   -1    0    0    0  501 -0.00000000000E+00 -0.00000000000E+00 -0.10704901350E+04  0.10704901350E+04  0.00000000000E+00 0. -1.
         23    2    1    2    0    0  0.19466413716E+04 -0.89062993468E+03  0.12973979057E+04  0.25048768926E+04  0.92372134279E+02 0.  0.
         11    1    3    3    0    0  0.50229874973E+03 -0.26395888947E+03  0.31307897400E+03  0.64807158036E+03  0.00000000000E+00 0. -1.
        -11    1    3    3    0    0  0.14443426219E+04 -0.62667104522E+03  0.98431893170E+03  0.18568053123E+04  0.00000000000E+00 0.  1.
         22    1    1    2    0    0 -0.19466413716E+04  0.89062993468E+03  0.19877903393E+04  0.29212916224E+04  0.00000000000E+00 0.  1.
<mgrwt>
<rscale>  0 0.43186622E+04</rscale>
<asrwt>0</asrwt>
<pdfrwt beam="1">  1        2 0.67010436E+00 0.43186622E+04</pdfrwt>
<pdfrwt beam="2">  1       -2 0.16469079E+00 0.43186622E+04</pdfrwt>
<totfact> 0.29993985E-02</totfact>
</mgrwt>
</event>
<event>
 6    1  0.1934315E-005  0.3139178E+04  0.7818608E-02  0.8205067E-01
         -2   -1    0    0    0  501 -0.00000000000E+00  0.00000000000E+00  0.77935264464E+03  0.77935264464E+03  0.00000000000E+00 0. -1.
          2   -1    0    0  501    0  0.00000000000E+00 -0.00000000000E+00 -0.31610976498E+04  0.31610976498E+04  0.00000000000E+00 0.  1.
         23    2    1    2    0    0 -0.83445153191E+03  0.29099990795E+03  0.43437413794E+03  0.98892232851E+03  0.91083338657E+02 0.  0.
         13    1    3    3    0    0 -0.42862049005E+03  0.14300748021E+03  0.17179747114E+03  0.48340566296E+03  0.00000000000E+00 0. -1.
        -13    1    3    3    0    0 -0.40583104186E+03  0.14799242774E+03  0.26257666680E+03  0.50551666555E+03  0.00000000000E+00 0.  1.
         22    1    1    2    0    0  0.83445153191E+03 -0.29099990795E+03 -0.28161191431E+04  0.29515279659E+04  0.00000000000E+00 0.  1.
<mgrwt>
<rscale>  0 0.31391781E+04</rscale>
<asrwt>0</asrwt>
<pdfrwt beam="1">  1        2 0.48632271E+00 0.31391781E+04</pdfrwt>
<pdfrwt beam="2">  1       -2 0.11990041E+00 0.31391781E+04</pdfrwt>
<totfact> 0.61845685E-01</totfact>
</mgrwt>
</event>
<event>
 6    1  0.1934315E-005  0.2656695E+04  0.7818608E-02  0.8349194E-01
         -2   -1    0    0    0  501 -0.00000000000E+00  0.00000000000E+00  0.11811273868E+04  0.11811273868E+04  0.00000000000E+00 0. -1.
          2   -1    0    0  501    0  0.00000000000E+00 -0.00000000000E+00 -0.14939180883E+04  0.14939180883E+04  0.00000000000E+00 0.  1.
         23    2    1    2    0    0 -0.61505174059E+03 -0.46785538588E+03  0.92941725715E+03  0.12120834393E+04  0.90291307729E+02 0.  0.
         13    1    3    3    0    0 -0.18939841813E+03 -0.12331081055E+03  0.21507062863E+03  0.31198187782E+03  0.00000000000E+00 0. -1.
        -13    1    3    3    0    0 -0.42565332246E+03 -0.34454457533E+03  0.71434662852E+03  0.90010156149E+03  0.00000000000E+00 0.  1.
         22    1    1    2    0    0  0.61505174059E+03  0.46785538588E+03 -0.12422079586E+04  0.14629620358E+04  0.00000000000E+00 0.  1.
<mgrwt>
<rscale>  0 0.26566954E+04</rscale>
<asrwt>0</asrwt>
<pdfrwt beam="1">  1        2 0.22983355E+00 0.26566954E+04</pdfrwt>
<pdfrwt beam="2">  1       -2 0.18171191E+00 0.26566954E+04</pdfrwt>
<totfact> 0.19881184E+00</totfact>
</mgrwt>
</event>
<event>
 6    1  0.1934315E-005  0.2682819E+04  0.7818608E-02  0.8340601E-01
         -2   -1    0    0    0  501 -0.00000000000E+00  0.00000000000E+00  0.69512147080E+03  0.69512147080E+03  0.00000000000E+00 0.  1.
          2   -1    0    0  501    0  0.00000000000E+00 -0.00000000000E+00 -0.25885821653E+04  0.25885821653E+04  0.00000000000E+00 0. -1.
         23    2    1    2    0    0  0.82110795675E+03 -0.74551837882E+03 -0.18680553828E+04  0.21743518615E+04  0.90328151132E+02 0.  0.
         11    1    3    3    0    0  0.54607658085E+03 -0.45279904018E+03 -0.12495594040E+04  0.14368804080E+04  0.00000000000E+00 0. -1.
        -11    1    3    3    0    0  0.27503137591E+03 -0.29271933865E+03 -0.61849597880E+03  0.73747145351E+03  0.00000000000E+00 0.  1.
         22    1    1    2    0    0 -0.82110795675E+03  0.74551837882E+03 -0.25405311704E+02  0.11093517745E+04  0.00000000000E+00 0.  1.
<mgrwt>
<rscale>  0 0.26828187E+04</rscale>
<asrwt>0</asrwt>
<pdfrwt beam="1">  1        2 0.39824342E+00 0.26828187E+04</pdfrwt>
<pdfrwt beam="2">  1       -2 0.10694176E+00 0.26828187E+04</pdfrwt>
<totfact> 0.19092307E+00</totfact>
</mgrwt>
</event>
<event>
 6    1  0.1934315E-005  0.2698996E+04  0.7818608E-02  0.8335331E-01
         -2   -1    0    0    0  501 -0.00000000000E+00  0.00000000000E+00  0.81427296343E+03  0.81427296343E+03  0.00000000000E+00 0. -1.
          2   -1    0    0  501    0  0.00000000000E+00 -0.00000000000E+00 -0.22365292815E+04  0.22365292815E+04  0.00000000000E+00 0.  1.
         23    2    1    2    0    0  0.30482556251E+03  0.79208504725E+03 -0.18956453365E+04  0.20789923311E+04  0.91763421237E+02 0.  0.
         13    1    3    3    0    0  0.24958878126E+03  0.53127268514E+03 -0.12899709287E+04  0.14172403546E+04  0.00000000000E+00 0. -1.
        -13    1    3    3    0    0  0.55236781254E+02  0.26081236211E+03 -0.60567440779E+03  0.66175197656E+03  0.00000000000E+00 0.  1.
         22    1    1    2    0    0 -0.30482556251E+03 -0.79208504725E+03  0.47338901848E+03  0.97180991374E+03  0.00000000000E+00 0. -1.
<mgrwt>
<rscale>  0 0.26989964E+04</rscale>
<asrwt>0</asrwt>
<pdfrwt beam="1">  1        2 0.34408142E+00 0.26989964E+04</pdfrwt>
<pdfrwt beam="2">  1       -2 0.12527277E+00 0.26989964E+04</pdfrwt>
<totfact> 0.20602003E+00</totfact>
</mgrwt>
</event>
<event>
 6    1  0.1934315E-005  0.2274721E+04  0.7818608E-02  0.8487955E-01
          2   -1    0    0  501    0  0.00000000000E+00  0.00000000000E+00  0.26457748540E+04  0.26457748540E+04  0.00000000000E+00 0.  1.
         -2   -1    0    0    0  501 -0.00000000000E+00 -0.00000000000E+00 -0.48892642600E+03  0.48892642600E+03  0.00000000000E+00 0. -1.
         23    2    1    2    0    0  0.85281803965E+03  0.72982618295E+03  0.83858412364E+03  0.14032955961E+04  0.77912332579E+02 0.  0.
         11    1    3    3    0    0  0.47750882162E+03  0.45476816568E+03  0.51108335873E+03  0.83428709616E+03  0.00000000000E+00 0.  1.
        -11    1    3    3    0    0  0.37530921804E+03  0.27505801727E+03  0.32750076491E+03  0.56900849996E+03  0.00000000000E+00 0. -1.
         22    1    1    2    0    0 -0.85281803965E+03 -0.72982618295E+03  0.13182643044E+04  0.17314056839E+04  0.00000000000E+00 0.  1.
<mgrwt>
<rscale>  0 0.22747213E+04</rscale>
<asrwt>0</asrwt>
<pdfrwt beam="1">  1        2 0.40704228E+00 0.22747213E+04</pdfrwt>
<pdfrwt beam="2">  1       -2 0.75219452E-01 0.22747213E+04</pdfrwt>
<totfact> 0.41226216E+00</totfact>
</mgrwt>
</event>
<event>
 6    1  0.2403830E-005  0.3652795E+04  0.7818608E-02  0.8078504E-01
          2   -1    0    0  501    0  0.00000000000E+00  0.00000000000E+00  0.25818874872E+04  0.25818874872E+04  0.00000000000E+00 0.  1.
         -2   -1    0    0    0  501 -0.00000000000E+00 -0.00000000000E+00 -0.12919729212E+04  0.12919729212E+04  0.00000000000E+00 0. -1.
         23    2    1    2    0    0  0.11311001226E+04 -0.37520563464E+03  0.21115792321E+04  0.24263454416E+04  0.90656455737E+02 0.  0.
         13    1    3    3    0    0  0.71077951066E+03 -0.23584166453E+03  0.12364298991E+04  0.14455406251E+04  0.00000000000E+00 0. -1.
        -13    1    3    3    0    0  0.42032061198E+03 -0.13936397011E+03  0.87514933301E+03  0.98080481650E+03  0.00000000000E+00 0.  1.
         22    1    1    2    0    0 -0.11311001226E+04  0.37520563464E+03 -0.82166466611E+03  0.14475149668E+04  0.00000000000E+00 0. -1.
<mgrwt>
<rscale>  0 0.36527955E+04</rscale>
<asrwt>0</asrwt>
<pdfrwt beam="1">  1        2 0.39721346E+00 0.36527955E+04</pdfrwt>
<pdfrwt beam="2">  1       -2 0.19876506E+00 0.36527955E+04</pdfrwt>
<totfact> 0.34291540E-01</totfact>
</mgrwt>
</event>
<event>
 6    1  0.1934315E-005  0.1883016E+04  0.7818608E-02  0.8663357E-01
          2   -1    0    0  501    0  0.00000000000E+00  0.00000000000E+00  0.23533906935E+04  0.23533906935E+04  0.00000000000E+00 0.  1.
         -2   -1    0    0    0  501 -0.00000000000E+00 -0.00000000000E+00 -0.37666380351E+03  0.37666380351E+03  0.00000000000E+00 0. -1.
         23    2    1    2    0    0  0.58521842443E+03  0.33907714348E+03  0.45697512595E+02  0.68400259886E+03  0.91199665895E+02 0.  0.
         13    1    3    3    0    0  0.43282947486E+03  0.27733805157E+03  0.66214369755E+02  0.51830694759E+03  0.00000000000E+00 0.  1.
        -13    1    3    3    0    0  0.15238894957E+03  0.61739091913E+02 -0.20516857160E+02  0.16569565127E+03  0.00000000000E+00 0. -1.
         22    1    1    2    0    0 -0.58521842443E+03 -0.33907714348E+03  0.19310293774E+04  0.20460518981E+04  0.00000000000E+00 0.  1.
<mgrwt>
<rscale>  0 0.18830158E+04</rscale>
<asrwt>0</asrwt>
<pdfrwt beam="1">  1        2 0.36206010E+00 0.18830158E+04</pdfrwt>
<pdfrwt beam="2">  1       -2 0.57948279E-01 0.18830158E+04</pdfrwt>
<totfact> 0.11054858E+01</totfact>
</mgrwt>
</event>
<event>
 6    1  0.1934315E-005  0.1842994E+04  0.7818608E-02  0.8683764E-01
         -2   -1    0    0    0  501 -0.00000000000E+00  0.00000000000E+00  0.15742176235E+04  0.15742176235E+04  0.00000000000E+00 0.  1.
          2   -1    0    0  501    0  0.00000000000E+00 -0.00000000000E+00 -0.53941533224E+03  0.53941533224E+03  0.00000000000E+00 0. -1.
         23    2    1    2    0    0  0.63088390458E+03  0.43904464426E+02  0.12839016547E+04  0.14339325836E+04  0.88414321654E+02 0.  0.
         13    1    3    3    0    0  0.27470359549E+03 -0.89349140271E+01  0.48106840311E+03  0.55404756704E+03  0.00000000000E+00 0. -1.
        -13    1    3    3    0    0  0.35618030909E+03  0.52839378454E+02  0.80283325155E+03  0.87988501652E+03  0.00000000000E+00 0.  1.
         22    1    1    2    0    0 -0.63088390458E+03 -0.43904464426E+02 -0.24909936343E+03  0.67970037216E+03  0.00000000000E+00 0. -1.
<mgrwt>
<rscale>  0 0.18429944E+04</rscale>
<asrwt>0</asrwt>
<pdfrwt beam="1">  1        2 0.82986975E-01 0.18429944E+04</pdfrwt>
<pdfrwt beam="2">  1       -2 0.24218732E+00 0.18429944E+04</pdfrwt>
<totfact> 0.38044113E+00</totfact>
</mgrwt>
</event>
<event>
 6    1  0.1934315E-005  0.1741412E+04  0.7818608E-02  0.8738092E-01
          2   -1    0    0  501    0  0.00000000000E+00  0.00000000000E+00  0.10720022623E+04  0.10720022623E+04  0.00000000000E+00 0.  1.
         -2   -1    0    0    0  501 -0.00000000000E+00 -0.00000000000E+00 -0.70720856532E+03  0.70720856532E+03  0.00000000000E+00 0. -1.
         23    2    1    2    0    0  0.29497834972E+03  0.35211202580E+03 -0.56994900909E+03  0.73770277098E+03  0.91478958444E+02 0.  0.
         11    1    3    3    0    0  0.57948743900E+02  0.61450850424E+02 -0.16744600951E+03  0.18754314181E+03  0.00000000000E+00 0. -1.
        -11    1    3    3    0    0  0.23702960582E+03  0.29066117537E+03 -0.40250299957E+03  0.55015962917E+03  0.00000000000E+00 0.  1.
         22    1    1    2    0    0 -0.29497834972E+03 -0.35211202580E+03  0.93474270603E+03  0.10415080566E+04  0.00000000000E+00 0.  1.
<mgrwt>
<rscale>  0 0.17414123E+04</rscale>
<asrwt>0</asrwt>
<pdfrwt beam="1">  1        2 0.16492343E+00 0.17414123E+04</pdfrwt>
<pdfrwt beam="2">  1       -2 0.10880132E+00 0.17414123E+04</pdfrwt>
<totfact> 0.14513116E+01</totfact>
</mgrwt>
</event>
<event>
 6    1  0.1934315E-005  0.2191081E+04  0.7818608E-02  0.8522150E-01
         -2   -1    0    0    0  501 -0.00000000000E+00  0.00000000000E+00  0.75369480584E+03  0.75369480584E+03  0.00000000000E+00 0. -1.
          2   -1    0    0  501    0  0.00000000000E+00 -0.00000000000E+00 -0.15924335200E+04  0.15924335200E+04  0.00000000000E+00 0.  1.
         23    2    1    2    0    0  0.10986532576E+03  0.90308667640E+03 -0.10703083433E+04  0.14073736039E+04  0.86628957219E+02 0.  0.
         13    1    3    3    0    0 -0.90241189074E+01  0.14671177814E+03 -0.19997865053E+03  0.24818791517E+03  0.00000000000E+00 0. -1.
        -13    1    3    3    0    0  0.11888944467E+03  0.75637489826E+03 -0.87032969280E+03  0.11591856887E+04  0.00000000000E+00 0.  1.
         22    1    1    2    0    0 -0.10986532576E+03 -0.90308667640E+03  0.23156962914E+03  0.93875472198E+03  0.00000000000E+00 0. -1.
<mgrwt>
<rscale>  0 0.21910809E+04</rscale>
<asrwt>0</asrwt>
<pdfrwt beam="1">  1        2 0.24498977E+00 0.21910809E+04</pdfrwt>
<pdfrwt beam="2">  1       -2 0.11595305E+00 0.21910809E+04</pdfrwt>
<totfact> 0.59532844E+00</totfact>
</mgrwt>
</event>
<event>
 6    1  0.1934315E-005  0.2823907E+04  0.7818608E-02  0.8295884E-01
         -2   -1    0    0    0  501 -0.00000000000E+00  0.00000000000E+00  0.13018890781E+04  0.13018890781E+04  0.00000000000E+00 0. -1.
          2   -1    0    0  501    0  0.00000000000E+00 -0.00000000000E+00 -0.15313231290E+04  0.15313231290E+04  0.00000000000E+00 0.  1.
         23    2    1    2    0    0  0.86465619890E+03 -0.79389866980E+03 -0.89937714333E+03  0.14816467491E+04  0.92154235357E+02 0.  0.
         13    1    3    3    0    0  0.68629474276E+03 -0.67789422006E+03 -0.73205761273E+03  0.12109704356E+04  0.00000000000E+00 0. -1.
        -13    1    3    3    0    0  0.17836145614E+03 -0.11600444975E+03 -0.16731953061E+03  0.27067631355E+03  0.00000000000E+00 0.  1.
         22    1    1    2    0    0 -0.86465619890E+03  0.79389866980E+03  0.66994309245E+03  0.13515654580E+04  0.00000000000E+00 0. -1.
<mgrwt>
<rscale>  0 0.28239071E+04</rscale>
<asrwt>0</asrwt>
<pdfrwt beam="1">  1        2 0.23558817E+00 0.28239071E+04</pdfrwt>
<pdfrwt beam="2">  1       -2 0.20029063E+00 0.28239071E+04</pdfrwt>
<totfact> 0.14016973E+00</totfact>
</mgrwt>
</event>
<event>
 6    1  0.1934315E-005  0.7610685E+03  0.7818608E-02  0.9618144E-01
          4   -1    0    0  501    0  0.00000000000E+00  0.00000000000E+00  0.52750337148E+03  0.52750337148E+03  0.00000000000E+00 0. -1.
         -4   -1    0    0    0  501 -0.00000000000E+00 -0.00000000000E+00 -0.27451258878E+03  0.27451258878E+03  0.00000000000E+00 0.  1.
         23    2    1    2    0    0  0.28616786133E+03  0.11852433803E+03 -0.85768701243E+02  0.34299738599E+03  0.11979512978E+03 0.  0.
         11    1    3    3    0    0  0.54911094014E+02  0.11894907407E+02 -0.67304271739E+02  0.87673154741E+02  0.00000000000E+00 0.  1.
        -11    1    3    3    0    0  0.23125676732E+03  0.10662943062E+03 -0.18464429504E+02  0.25532423125E+03  0.00000000000E+00 0. -1.
         22    1    1    2    0    0 -0.28616786133E+03 -0.11852433803E+03  0.33875948394E+03  0.45901857427E+03  0.00000000000E+00 0. -1.
<mgrwt>
<rscale>  0 0.76106850E+03</rscale>
<asrwt>0</asrwt>
<pdfrwt beam="1">  1        4 0.81154365E-01 0.76106850E+03</pdfrwt>
<pdfrwt beam="2">  1       -4 0.42232706E-01 0.76106850E+03</pdfrwt>
<totfact> 0.14583265E+01</totfact>
</mgrwt>
</event>
<event>
 6    1  0.1934315E-005  0.4003807E+04  0.7818608E-02  0.8003779E-01
          2   -1    0    0  501    0  0.00000000000E+00  0.00000000000E+00  0.17968768048E+04  0.17968768048E+04  0.00000000000E+00 0.  1.
         -2   -1    0    0    0  501 -0.00000000000E+00 -0.00000000000E+00 -0.22303238370E+04  0.22303238370E+04  0.00000000000E+00 0. -1.
         23    2    1    2    0    0 -0.92149471631E+03 -0.46629706236E+03  0.15068923708E+04  0.18291327491E+04  0.91741669787E+02 0.  0.
         11    1    3    3    0    0 -0.41046001275E+03 -0.25521348615E+03  0.73333707585E+03  0.87829073342E+03  0.00000000000E+00 0.  1.
        -11    1    3    3    0    0 -0.51103470355E+03 -0.21108357620E+03  0.77355529495E+03  0.95084201565E+03  0.00000000000E+00 0. -1.
         22    1    1    2    0    0  0.92149471631E+03  0.46629706236E+03 -0.19403394030E+04  0.21980678928E+04  0.00000000000E+00 0. -1.
<mgrwt>
<rscale>  0 0.40038068E+04</rscale>
<asrwt>0</asrwt>
<pdfrwt beam="1">  1        2 0.27644259E+00 0.40038068E+04</pdfrwt>
<pdfrwt beam="2">  1       -2 0.34312674E+00 0.40038068E+04</pdfrwt>
<totfact> 0.11740323E-01</totfact>
</mgrwt>
</event>
<event>
 6    1  0.1934315E-005  0.3611816E+04  0.7818608E-02  0.8087790E-01
         -2   -1    0    0    0  501 -0.00000000000E+00  0.00000000000E+00  0.99018945867E+03  0.99018945867E+03  0.00000000000E+00 0. -1.
          2   -1    0    0  501    0  0.00000000000E+00 -0.00000000000E+00 -0.32936158347E+04  0.32936158347E+04  0.00000000000E+00 0.  1.
         23    2    1    2    0    0  0.13799623601E+04 -0.45996665188E+03 -0.24195014437E+04  0.28245798627E+04  0.91644576936E+02 0.  0.
         13    1    3    3    0    0  0.62758237651E+03 -0.17596716273E+03 -0.11471712183E+04  0.13194036099E+04  0.00000000000E+00 0.  1.
        -13    1    3    3    0    0  0.75237998363E+03 -0.28399948915E+03 -0.12723302254E+04  0.15051762529E+04  0.00000000000E+00 0. -1.
         22    1    1    2    0    0 -0.13799623601E+04  0.45996665188E+03  0.11607506764E+03  0.14592254307E+04  0.00000000000E+00 0. -1.
<mgrwt>
<rscale>  0 0.36118160E+04</rscale>
<asrwt>0</asrwt>
<pdfrwt beam="1">  1        2 0.50671013E+00 0.36118160E+04</pdfrwt>
<pdfrwt beam="2">  1       -2 0.15233684E+00 0.36118160E+04</pdfrwt>
<totfact> 0.26303622E-01</totfact>
</mgrwt>
</event>
<event>
 6    1  0.1934315E-005  0.2111437E+04  0.7818608E-02  0.8556222E-01
         -2   -1    0    0    0  501 -0.00000000000E+00  0.00000000000E+00  0.87077587267E+03  0.87077587267E+03  0.00000000000E+00 0. -1.
          2   -1    0    0  501    0  0.00000000000E+00 -0.00000000000E+00 -0.12799406486E+04  0.12799406486E+04  0.00000000000E+00 0.  1.
         23    2    1    2    0    0 -0.98866326134E+03  0.21206949469E+03 -0.50705019523E+03  0.11348375569E+04  0.91257138094E+02 0.  0.
         11    1    3    3    0    0 -0.15348807440E+03  0.18410906584E+02 -0.45428205352E+02  0.16112502073E+03  0.00000000000E+00 0.  1.
        -11    1    3    3    0    0 -0.83517518694E+03  0.19365858810E+03 -0.46162198987E+03  0.97371253620E+03  0.00000000000E+00 0. -1.
         22    1    1    2    0    0  0.98866326134E+03 -0.21206949469E+03  0.97885419295E+02  0.10158789643E+04  0.00000000000E+00 0. -1.
<mgrwt>
<rscale>  0 0.21114369E+04</rscale>
<asrwt>0</asrwt>
<pdfrwt beam="1">  1        2 0.19691395E+00 0.21114369E+04</pdfrwt>
<pdfrwt beam="2">  1       -2 0.13396552E+00 0.21114369E+04</pdfrwt>
<totfact> 0.62926024E+00</totfact>
</mgrwt>
</event>
<event>
 6    1  0.1934315E-005  0.7916635E+03  0.7818608E-02  0.9572163E-01
          2   -1    0    0  501    0  0.00000000000E+00  0.00000000000E+00  0.11882319646E+04  0.11882319646E+04  0.00000000000E+00 0.  1.
         -2   -1    0    0    0  501 -0.00000000000E+00 -0.00000000000E+00 -0.13186210651E+03  0.13186210651E+03  0.00000000000E+00 0. -1.
         23    2    1    2    0    0 -0.12699749311E+03 -0.24919669931E+03  0.82383220902E+02  0.30674451265E+03  0.95277713824E+02 0.  0.
         11    1    3    3    0    0 -0.99861622785E+02 -0.18556814389E+03  0.10301022196E+03  0.23456126185E+03  0.00000000000E+00 0. -1.
        -11    1    3    3    0    0 -0.27135870324E+02 -0.63628555418E+02 -0.20627001062E+02  0.72183250797E+02  0.00000000000E+00 0.  1.
         22    1    1    2    0    0  0.12699749311E+03  0.24919669931E+03  0.97398663719E+03  0.10133495585E+04  0.00000000000E+00 0.  1.
<mgrwt>
<rscale>  0 0.79166349E+03</rscale>
<asrwt>0</asrwt>
<pdfrwt beam="1">  1        2 0.18280491E+00 0.79166349E+03</pdfrwt>
<pdfrwt beam="2">  1       -2 0.20286479E-01 0.79166349E+03</pdfrwt>
<totfact> 0.40315204E+02</totfact>
</mgrwt>
</event>
<event>
 6    1  0.1934315E-005  0.1416491E+04  0.7818608E-02  0.8941967E-01
          2   -1    0    0  501    0  0.00000000000E+00  0.00000000000E+00  0.13578126395E+04  0.13578126395E+04  0.00000000000E+00 0.  1.
         -2   -1    0    0    0  501 -0.00000000000E+00 -0.00000000000E+00 -0.36942614559E+03  0.36942614559E+03  0.00000000000E+00 0. -1.
         23    2    1    2    0    0 -0.20589472836E+03 -0.77370060696E+02  0.13134288179E+04  0.13347705980E+04  0.90213769316E+02 0.  0.
         11    1    3    3    0    0 -0.62852161490E+02 -0.24313474855E+02  0.67543765497E+03  0.67879125290E+03  0.00000000000E+00 0. -1.
        -11    1    3    3    0    0 -0.14304256687E+03 -0.53056585841E+02  0.63799116291E+03  0.65597934510E+03  0.00000000000E+00 0.  1.
         22    1    1    2    0    0  0.20589472836E+03  0.77370060696E+02 -0.32504232400E+03  0.39246818706E+03  0.00000000000E+00 0. -1.
<mgrwt>
<rscale>  0 0.14164907E+04</rscale>
<asrwt>0</asrwt>
<pdfrwt beam="1">  1        2 0.20889425E+00 0.14164907E+04</pdfrwt>
<pdfrwt beam="2">  1       -2 0.56834792E-01 0.14164907E+04</pdfrwt>
<totfact> 0.43179739E+01</totfact>
</mgrwt>
</event>
<event>
 6    1  0.1934315E-005  0.2275690E+04  0.7818608E-02  0.8487568E-01
         -2   -1    0    0    0  501 -0.00000000000E+00  0.00000000000E+00  0.56276768949E+03  0.56276768949E+03  0.00000000000E+00 0. -1.
          2   -1    0    0  501    0  0.00000000000E+00 -0.00000000000E+00 -0.23005775861E+04  0.23005775861E+04  0.00000000000E+00 0.  1.
         23    2    1    2    0    0 -0.86174844267E+03  0.68811803479E+03 -0.52668125112E+03  0.12253741513E+04  0.89620656470E+02 0.  0.
         11    1    3    3    0    0 -0.60547940688E+03  0.47131636603E+03 -0.32128812264E+03  0.83184763436E+03  0.00000000000E+00 0. -1.
        -11    1    3    3    0    0 -0.25626903579E+03  0.21680166877E+03 -0.20539312848E+03  0.39352651691E+03  0.00000000000E+00 0.  1.
         22    1    1    2    0    0  0.86174844267E+03 -0.68811803479E+03 -0.12111286455E+04  0.16379711244E+04  0.00000000000E+00 0. -1.
<mgrwt>
<rscale>  0 0.22756896E+04</rscale>
<asrwt>0</asrwt>
<pdfrwt beam="1">  1        2 0.35393502E+00 0.22756896E+04</pdfrwt>
<pdfrwt beam="2">  1       -2 0.86579644E-01 0.22756896E+04</pdfrwt>
<totfact> 0.47537226E+00</totfact>
</mgrwt>
</event>
<event>
 6    1  0.1934315E-005  0.5007458E+04  0.7818608E-02  0.7827358E-01
         -2   -1    0    0    0  501 -0.00000000000E+00  0.00000000000E+00  0.14473890899E+04  0.14473890899E+04  0.00000000000E+00 0. -1.
          2   -1    0    0  501    0  0.00000000000E+00 -0.00000000000E+00 -0.43310115015E+04  0.43310115015E+04  0.00000000000E+00 0.  1.
         23    2    1    2    0    0 -0.18041674311E+04  0.16405207726E+04 -0.20930924653E+04  0.32149524994E+04  0.92493138706E+02 0.  0.
         11    1    3    3    0    0 -0.16857555254E+04  0.15425552669E+04 -0.19881245805E+04  0.30288426487E+04  0.00000000000E+00 0. -1.
        -11    1    3    3    0    0 -0.11841190570E+03  0.97965505644E+02 -0.10496788478E+03  0.18610985074E+03  0.00000000000E+00 0.  1.
         22    1    1    2    0    0  0.18041674311E+04 -0.16405207726E+04 -0.79052994629E+03  0.25634480920E+04  0.00000000000E+00 0. -1.
<mgrwt>
<rscale>  0 0.50074580E+04</rscale>
<asrwt>0</asrwt>
<pdfrwt beam="1">  1        2 0.66630947E+00 0.50074580E+04</pdfrwt>
<pdfrwt beam="2">  1       -2 0.22267524E+00 0.50074580E+04</pdfrwt>
<totfact> 0.12201440E-02</totfact>
</mgrwt>
</event>
<event>
 6    1  0.1934315E-005  0.1563254E+04  0.7818608E-02  0.8843446E-01
         -2   -1    0    0    0  501 -0.00000000000E+00  0.00000000000E+00  0.37916086605E+03  0.37916086605E+03  0.00000000000E+00 0. -1.
          2   -1    0    0  501    0  0.00000000000E+00 -0.00000000000E+00 -0.16112960082E+04  0.16112960082E+04  0.00000000000E+00 0.  1.
         23    2    1    2    0    0  0.88271981173E+01 -0.77858505202E+03 -0.57840504264E+03  0.97377814149E+03  0.86132878886E+02 0.  0.
         13    1    3    3    0    0  0.41988435461E+01 -0.46904625434E+03 -0.29533181102E+03  0.55429495541E+03  0.00000000000E+00 0.  1.
        -13    1    3    3    0    0  0.46283545713E+01 -0.30953879768E+03 -0.28307323162E+03  0.41948318608E+03  0.00000000000E+00 0. -1.
         22    1    1    2    0    0 -0.88271981173E+01  0.77858505202E+03 -0.65373009952E+03  0.10166787328E+04  0.00000000000E+00 0. -1.
<mgrwt>
<rscale>  0 0.15632535E+04</rscale>
<asrwt>0</asrwt>
<pdfrwt beam="1">  1        2 0.24789169E+00 0.15632535E+04</pdfrwt>
<pdfrwt beam="2">  1       -2 0.58332442E-01 0.15632535E+04</pdfrwt>
<totfact> 0.29046801E+01</totfact>
</mgrwt>
</event>
<event>
 6    1  0.1934315E-005  0.9721613E+03  0.7818608E-02  0.9339616E-01
          2   -1    0    0  501    0  0.00000000000E+00  0.00000000000E+00  0.43997565842E+03  0.43997565842E+03  0.00000000000E+00 0.  1.
         -2   -1    0    0    0  501 -0.00000000000E+00 -0.00000000000E+00 -0.53701701707E+03  0.53701701707E+03  0.00000000000E+00 0. -1.
         23    2    1    2    0    0 -0.16112632948E+03 -0.12388637242E+03  0.39065794058E+03  0.44863660825E+03  0.85741777440E+02 0.  0.
         13    1    3    3    0    0 -0.97118213383E+02 -0.73342648982E+02  0.14237419011E+03  0.18730056471E+03  0.00000000000E+00 0. -1.
        -13    1    3    3    0    0 -0.64008116092E+02 -0.50543723438E+02  0.24828375047E+03  0.26133604354E+03  0.00000000000E+00 0.  1.
         22    1    1    2    0    0  0.16112632948E+03  0.12388637242E+03 -0.48769929924E+03  0.52835606725E+03  0.00000000000E+00 0. -1.
<mgrwt>
<rscale>  0 0.97216134E+03</rscale>
<asrwt>0</asrwt>
<pdfrwt beam="1">  1        2 0.67688563E-01 0.97216134E+03</pdfrwt>
<pdfrwt beam="2">  1       -2 0.82618002E-01 0.97216134E+03</pdfrwt>
<totfact> 0.91772037E+01</totfact>
</mgrwt>
</event>
<event>
 6    1  0.1934315E-005  0.2185699E+04  0.7818608E-02  0.8524404E-01
         -2   -1    0    0    0  501 -0.00000000000E+00  0.00000000000E+00  0.72433631830E+03  0.72433631830E+03  0.00000000000E+00 0. -1.
          2   -1    0    0  501    0  0.00000000000E+00 -0.00000000000E+00 -0.16488480363E+04  0.16488480363E+04  0.00000000000E+00 0.  1.
         23    2    1    2    0    0 -0.36829404470E+03 -0.20252956208E+02  0.65173429245E+03  0.75435694841E+03  0.90808215847E+02 0.  0.
         11    1    3    3    0    0 -0.17948187621E+03 -0.54963480760E+02  0.31063571999E+03  0.36294528326E+03  0.00000000000E+00 0. -1.
        -11    1    3    3    0    0 -0.18881216848E+03  0.34710524552E+02  0.34109857246E+03  0.39141166515E+03  0.00000000000E+00 0.  1.
         22    1    1    2    0    0  0.36829404470E+03  0.20252956208E+02 -0.15762460104E+04  0.16188274062E+04  0.00000000000E+00 0.  1.
<mgrwt>
<rscale>  0 0.21856994E+04</rscale>
<asrwt>0</asrwt>
<pdfrwt beam="1">  1        2 0.25366893E+00 0.21856994E+04</pdfrwt>
<pdfrwt beam="2">  1       -2 0.11143636E+00 0.21856994E+04</pdfrwt>
<totfact> 0.61019458E+00</totfact>
</mgrwt>
</event>
<event>
 6    1  0.1934315E-005  0.5523387E+04  0.7818608E-02  0.7752479E-01
          2   -1    0    0  501    0  0.00000000000E+00  0.00000000000E+00  0.28144932374E+04  0.28144932374E+04  0.00000000000E+00 0.  1.
         -2   -1    0    0    0  501 -0.00000000000E+00 -0.00000000000E+00 -0.27098841328E+04  0.27098841328E+04  0.00000000000E+00 0. -1.
         23    2    1    2    0    0 -0.14109521941E+04  0.10625522772E+04  0.21747301360E+04  0.28031268267E+04  0.90914281183E+02 0.  0.
         13    1    3    3    0    0 -0.11647009089E+04  0.83910586240E+03  0.17360246427E+04  0.22526447602E+04  0.00000000000E+00 0.  1.
        -13    1    3    3    0    0 -0.24625128522E+03  0.22344641479E+03  0.43870549328E+03  0.55048206655E+03  0.00000000000E+00 0. -1.
         22    1    1    2    0    0  0.14109521941E+04 -0.10625522772E+04 -0.20701210314E+04  0.27212505435E+04  0.00000000000E+00 0. -1.
<mgrwt>
<rscale>  0 0.55233868E+04</rscale>
<asrwt>0</asrwt>
<pdfrwt beam="1">  1        2 0.43299896E+00 0.55233868E+04</pdfrwt>
<pdfrwt beam="2">  1       -2 0.41690525E+00 0.55233868E+04</pdfrwt>
<totfact> 0.91115161E-03</totfact>
</mgrwt>
</event>
<event>
 6    1  0.1934315E-005  0.1893771E+04  0.7818608E-02  0.8657963E-01
          2   -1    0    0  501    0  0.00000000000E+00  0.00000000000E+00  0.42219228038E+04  0.42219228038E+04  0.00000000000E+00 0.  1.
         -2   -1    0    0    0  501 -0.00000000000E+00 -0.00000000000E+00 -0.21236580639E+03  0.21236580639E+03  0.00000000000E+00 0. -1.
         23    2    1    2    0    0  0.80445349395E+03  0.48728262631E+03  0.22162127872E+04  0.24092766996E+04  0.91789515465E+02 0.  0.
         11    1    3    3    0    0  0.29636032654E+03  0.13112061651E+03  0.79525976870E+03  0.85875500519E+03  0.00000000000E+00 0. -1.
        -11    1    3    3    0    0  0.50809316740E+03  0.35616200980E+03  0.14209530185E+04  0.15505216944E+04  0.00000000000E+00 0.  1.
         22    1    1    2    0    0 -0.80445349395E+03 -0.48728262631E+03  0.17933442102E+04  0.20250119106E+04  0.00000000000E+00 0. -1.
<mgrwt>
<rscale>  0 0.18937709E+04</rscale>
<asrwt>0</asrwt>
<pdfrwt beam="1">  1        2 0.64952652E+00 0.18937709E+04</pdfrwt>
<pdfrwt beam="2">  1       -2 0.32671666E-01 0.18937709E+04</pdfrwt>
<totfact> 0.18496306E+00</totfact>
</mgrwt>
</event>
<event>
 6    1  0.1934315E-005  0.4396198E+04  0.7818608E-02  0.7929066E-01
          2   -1    0    0  501    0  0.00000000000E+00  0.00000000000E+00  0.17751793477E+04  0.17751793477E+04  0.00000000000E+00 0.  1.
         -2   -1    0    0    0  501 -0.00000000000E+00 -0.00000000000E+00 -0.27217750444E+04  0.27217750444E+04  0.00000000000E+00 0. -1.
         23    2    1    2    0    0  0.79975818684E+03  0.15518117222E+04  0.89119059660E+03  0.19621582981E+04  0.90065135717E+02 0.  0.
         13    1    3    3    0    0  0.54158385819E+03  0.95702067995E+03  0.56808381790E+03  0.12377079144E+04  0.00000000000E+00 0.  1.
        -13    1    3    3    0    0  0.25817432866E+03  0.59479104222E+03  0.32310677870E+03  0.72445038362E+03  0.00000000000E+00 0. -1.
         22    1    1    2    0    0 -0.79975818684E+03 -0.15518117222E+04 -0.18377862934E+04  0.25347960941E+04  0.00000000000E+00 0.  1.
<mgrwt>
<rscale>  0 0.43961978E+04</rscale>
<asrwt>0</asrwt>
<pdfrwt beam="1">  1        2 0.27310451E+00 0.43961978E+04</pdfrwt>
<pdfrwt beam="2">  1       -2 0.41873462E+00 0.43961978E+04</pdfrwt>
<totfact> 0.38048871E-02</totfact>
</mgrwt>
</event>
<event>
 6    1  0.1934315E-005  0.2088019E+04  0.7818608E-02  0.8566540E-01
         -2   -1    0    0    0  501 -0.00000000000E+00  0.00000000000E+00  0.15500884128E+04  0.15500884128E+04  0.00000000000E+00 0. -1.
          2   -1    0    0  501    0  0.00000000000E+00 -0.00000000000E+00 -0.70315695463E+03  0.70315695463E+03  0.00000000000E+00 0.  1.
         23    2    1    2    0    0 -0.80211324761E+03 -0.50583911384E+03 -0.41021818033E+02  0.95412262810E+03  0.96996540243E+02 0.  0.
         13    1    3    3    0    0 -0.48020781018E+03 -0.25219494480E+03 -0.45094027910E+02  0.54427502468E+03  0.00000000000E+00 0. -1.
        -13    1    3    3    0    0 -0.32190543743E+03 -0.25364416904E+03  0.40722098767E+01  0.40984760342E+03  0.00000000000E+00 0.  1.
         22    1    1    2    0    0  0.80211324761E+03  0.50583911384E+03  0.88795327615E+03  0.12991227393E+04  0.00000000000E+00 0. -1.
<mgrwt>
<rscale>  0 0.20880186E+04</rscale>
<asrwt>0</asrwt>
<pdfrwt beam="1">  1        2 0.10817799E+00 0.20880186E+04</pdfrwt>
<pdfrwt beam="2">  1       -2 0.23847514E+00 0.20880186E+04</pdfrwt>
<totfact> 0.28440787E+00</totfact>
</mgrwt>
</event>
<event>
 6    1  0.1934315E-005  0.1590194E+04  0.7818608E-02  0.8826595E-01
          2   -1    0    0  501    0  0.00000000000E+00  0.00000000000E+00  0.40010661887E+03  0.40010661887E+03  0.00000000000E+00 0.  1.
         -2   -1    0    0    0  501 -0.00000000000E+00 -0.00000000000E+00 -0.15800259920E+04  0.15800259920E+04  0.00000000000E+00 0. -1.
         23    2    1    2    0    0  0.26454071488E+03  0.73619655414E+03 -0.74986805929E+03  0.10874337318E+04  0.90790189582E+02 0.  0.
         11    1    3    3    0    0  0.16507567915E+03  0.45495298638E+03 -0.40185635542E+03  0.62906337523E+03  0.00000000000E+00 0. -1.
        -11    1    3    3    0    0  0.99465035738E+02  0.28124356775E+03 -0.34801170387E+03  0.45837035655E+03  0.00000000000E+00 0.  1.
         22    1    1    2    0    0 -0.26454071488E+03 -0.73619655414E+03 -0.43005131379E+03  0.89269887905E+03  0.00000000000E+00 0.  1.
<mgrwt>
<rscale>  0 0.15901935E+04</rscale>
<asrwt>0</asrwt>
<pdfrwt beam="1">  1        2 0.61554865E-01 0.15901935E+04</pdfrwt>
<pdfrwt beam="2">  1       -2 0.24308092E+00 0.15901935E+04</pdfrwt>
<totfact> 0.54085825E+00</totfact>
</mgrwt>
</event>
<event>
 6    1  0.1934315E-005  0.1164326E+04  0.7818608E-02  0.9144668E-01
          2   -1    0    0  501    0  0.00000000000E+00  0.00000000000E+00  0.43030762364E+03  0.43030762364E+03  0.00000000000E+00 0.  1.
         -2   -1    0    0    0  501 -0.00000000000E+00 -0.00000000000E+00 -0.78760864417E+03  0.78760864417E+03  0.00000000000E+00 0. -1.
         23    2    1    2    0    0  0.18302982953E+01  0.54435782756E+03  0.25998612879E+02  0.55214798726E+03  0.88671740403E+02 0.  0.
         13    1    3    3    0    0 -0.25090311323E+02  0.21769085038E+03 -0.24534351348E+02  0.22050116657E+03  0.00000000000E+00 0. -1.
        -13    1    3    3    0    0  0.26920609618E+02  0.32666697718E+03  0.50532964227E+02  0.33164682069E+03  0.00000000000E+00 0.  1.
         22    1    1    2    0    0 -0.18302982953E+01 -0.54435782756E+03 -0.38329963341E+03  0.66576828055E+03  0.00000000000E+00 0.  1.
<mgrwt>
<rscale>  0 0.11643264E+04</rscale>
<asrwt>0</asrwt>
<pdfrwt beam="1">  1        2 0.66201173E-01 0.11643264E+04</pdfrwt>
<pdfrwt beam="2">  1       -2 0.12117056E+00 0.11643264E+04</pdfrwt>
<totfact> 0.37505775E+01</totfact>
</mgrwt>
</event>
<event>
 6    1  0.1934315E-005  0.4081377E+04  0.7818608E-02  0.7988328E-01
         -2   -1    0    0    0  501 -0.00000000000E+00  0.00000000000E+00  0.19807616212E+04  0.19807616212E+04  0.00000000000E+00 0. -1.
          2   -1    0    0  501    0  0.00000000000E+00 -0.00000000000E+00 -0.21024283781E+04  0.21024283781E+04  0.00000000000E+00 0.  1.
         23    2    1    2    0    0 -0.19634737984E+04 -0.52241093836E+03  0.11842165470E+03  0.20372708927E+04  0.91139762519E+02 0.  0.
         13    1    3    3    0    0 -0.35218912397E+03 -0.57994730763E+02  0.23835417522E+02  0.35772712361E+03  0.00000000000E+00 0. -1.
        -13    1    3    3    0    0 -0.16112846744E+04 -0.46441620760E+03  0.94586237182E+02  0.16795437691E+04  0.00000000000E+00 0.  1.
         22    1    1    2    0    0  0.19634737984E+04  0.52241093836E+03 -0.24008841160E+03  0.20459191066E+04  0.00000000000E+00 0. -1.
<mgrwt>
<rscale>  0 0.40813769E+04</rscale>
<asrwt>0</asrwt>
<pdfrwt beam="1">  1        2 0.32345052E+00 0.40813769E+04</pdfrwt>
<pdfrwt beam="2">  1       -2 0.30473256E+00 0.40813769E+04</pdfrwt>
<totfact> 0.13648297E-01</totfact>
</mgrwt>
</event>
<event>
 6    1  0.1934315E-005  0.2706838E+04  0.7818608E-02  0.8332790E-01
         -2   -1    0    0    0  501 -0.00000000000E+00  0.00000000000E+00  0.70436473514E+03  0.70436473514E+03  0.00000000000E+00 0.  1.
          2   -1    0    0  501    0  0.00000000000E+00 -0.00000000000E+00 -0.26005610797E+04  0.26005610797E+04  0.00000000000E+00 0. -1.
         23    2    1    2    0    0 -0.11655288349E+03  0.11080951525E+04 -0.14497480018E+02  0.11180901881E+04  0.91956783429E+02 0.  0.
         13    1    3    3    0    0 -0.48496558541E+02  0.26832972138E+03  0.30459285100E+02  0.27437296444E+03  0.00000000000E+00 0. -1.
        -13    1    3    3    0    0 -0.68056324948E+02  0.83976543114E+03 -0.44956765117E+02  0.84371722362E+03  0.00000000000E+00 0.  1.
         22    1    1    2    0    0  0.11655288349E+03 -0.11080951525E+04 -0.18816988646E+04  0.21868356268E+04  0.00000000000E+00 0. -1.
<mgrwt>
<rscale>  0 0.27068384E+04</rscale>
<asrwt>0</asrwt>
<pdfrwt beam="1">  1        2 0.40008633E+00 0.27068384E+04</pdfrwt>
<pdfrwt beam="2">  1       -2 0.10836380E+00 0.27068384E+04</pdfrwt>
<totfact> 0.18160106E+00</totfact>
</mgrwt>
</event>
<event>
 6    1  0.1934315E-005  0.1846200E+04  0.7818608E-02  0.8682110E-01
          2   -1    0    0  501    0  0.00000000000E+00  0.00000000000E+00  0.88593057790E+03  0.88593057790E+03  0.00000000000E+00 0.  1.
         -2   -1    0    0    0  501 -0.00000000000E+00 -0.00000000000E+00 -0.96182859652E+03  0.96182859652E+03  0.00000000000E+00 0. -1.
         23    2    1    2    0    0 -0.43245542579E+03  0.62034128743E+03  0.48785105160E+03  0.90454444682E+03  0.91438501392E+02 0.  0.
         11    1    3    3    0    0 -0.98490694603E+02  0.19347541744E+03  0.10632011059E+03  0.24173770908E+03  0.00000000000E+00 0.  1.
        -11    1    3    3    0    0 -0.33396473118E+03  0.42686586999E+03  0.38153094101E+03  0.66280673774E+03  0.00000000000E+00 0. -1.
         22    1    1    2    0    0  0.43245542579E+03 -0.62034128743E+03 -0.56374907023E+03  0.94321472760E+03  0.00000000000E+00 0. -1.
<mgrwt>
<rscale>  0 0.18461997E+04</rscale>
<asrwt>0</asrwt>
<pdfrwt beam="1">  1        2 0.13629701E+00 0.18461997E+04</pdfrwt>
<pdfrwt beam="2">  1       -2 0.14797363E+00 0.18461997E+04</pdfrwt>
<totfact> 0.87552896E+00</totfact>
</mgrwt>
</event>
<event>
 6    1  0.1934315E-005  0.1109226E+04  0.7818608E-02  0.9196246E-01
         -2   -1    0    0    0  501 -0.00000000000E+00  0.00000000000E+00  0.26609810931E+03  0.26609810931E+03  0.00000000000E+00 0. -1.
          2   -1    0    0  501    0  0.00000000000E+00 -0.00000000000E+00 -0.11559479061E+04  0.11559479061E+04  0.00000000000E+00 0.  1.
         23    2    1    2    0    0  0.17907001714E+03 -0.47234587394E+03 -0.72984635481E+03  0.89216131371E+03  0.89996735404E+02 0.  0.
         11    1    3    3    0    0  0.11810528625E+03 -0.38778644018E+03 -0.53559816822E+03  0.67170870147E+03  0.00000000000E+00 0. -1.
        -11    1    3    3    0    0  0.60964730896E+02 -0.84559433761E+02 -0.19424818659E+03  0.22045261224E+03  0.00000000000E+00 0.  1.
         22    1    1    2    0    0 -0.17907001714E+03  0.47234587394E+03 -0.16000344200E+03  0.52988470172E+03  0.00000000000E+00 0. -1.
<mgrwt>
<rscale>  0 0.11092260E+04</rscale>
<asrwt>0</asrwt>
<pdfrwt beam="1">  1        2 0.17783814E+00 0.11092260E+04</pdfrwt>
<pdfrwt beam="2">  1       -2 0.40938171E-01 0.11092260E+04</pdfrwt>
<totfact> 0.11282181E+02</totfact>
</mgrwt>
</event>
<event>
 6    1  0.1934315E-005  0.1165260E+04  0.7818608E-02  0.9143820E-01
         -2   -1    0    0    0  501 -0.00000000000E+00  0.00000000000E+00  0.20466881290E+03  0.20466881290E+03  0.00000000000E+00 0. -1.
          2   -1    0    0  501    0  0.00000000000E+00 -0.00000000000E+00 -0.16585702886E+04  0.16585702886E+04  0.00000000000E+00 0.  1.
         23    2    1    2    0    0 -0.51455007690E+03  0.16965618058E+03 -0.40502694975E+03  0.68269567898E+03  0.92095378983E+02 0.  0.
         13    1    3    3    0    0 -0.23217643762E+03  0.11844753297E+03 -0.22150505640E+03  0.34205292904E+03  0.00000000000E+00 0.  1.
        -13    1    3    3    0    0 -0.28237363929E+03  0.51208647615E+02 -0.18352189334E+03  0.34064274995E+03  0.00000000000E+00 0. -1.
         22    1    1    2    0    0  0.51455007690E+03 -0.16965618058E+03 -0.10488745260E+04  0.11805434226E+04  0.00000000000E+00 0.  1.
<mgrwt>
<rscale>  0 0.11652598E+04</rscale>
<asrwt>0</asrwt>
<pdfrwt beam="1">  1        2 0.25516467E+00 0.11652598E+04</pdfrwt>
<pdfrwt beam="2">  1       -2 0.31487509E-01 0.11652598E+04</pdfrwt>
<totfact> 0.95755189E+01</totfact>
</mgrwt>
</event>
<event>
 6    1  0.2739692E-005  0.4254277E+04  0.7818608E-02  0.7955127E-01
         -2   -1    0    0    0  501 -0.00000000000E+00  0.00000000000E+00  0.22521791869E+04  0.22521791869E+04  0.00000000000E+00 0. -1.
          2   -1    0    0  501    0  0.00000000000E+00 -0.00000000000E+00 -0.20090402002E+04  0.20090402002E+04  0.00000000000E+00 0.  1.
         23    2    1    2    0    0  0.67931048610E+03  0.20291499231E+03  0.21293871020E+04  0.22461339837E+04  0.90505314533E+02 0.  0.
         11    1    3    3    0    0  0.29364759061E+03  0.44784305570E+02  0.94067703622E+03  0.98646227904E+03  0.00000000000E+00 0. -1.
        -11    1    3    3    0    0  0.38566289549E+03  0.15813068674E+03  0.11887100658E+04  0.12596717047E+04  0.00000000000E+00 0.  1.
         22    1    1    2    0    0 -0.67931048610E+03 -0.20291499231E+03 -0.18862481153E+04  0.20150854034E+04  0.00000000000E+00 0.  1.
<mgrwt>
<rscale>  0 0.42542772E+04</rscale>
<asrwt>0</asrwt>
<pdfrwt beam="1">  1        2 0.30908311E+00 0.42542772E+04</pdfrwt>
<pdfrwt beam="2">  1       -2 0.34648911E+00 0.42542772E+04</pdfrwt>
<totfact> 0.83552599E-02</totfact>
</mgrwt>
</event>
<event>
 6    1  0.1934315E-005  0.1311266E+04  0.7818608E-02  0.9020678E-01
         -2   -1    0    0    0  501 -0.00000000000E+00  0.00000000000E+00  0.43787668608E+03  0.43787668608E+03  0.00000000000E+00 0. -1.
          2   -1    0    0  501    0  0.00000000000E+00 -0.00000000000E+00 -0.98168016374E+03  0.98168016374E+03  0.00000000000E+00 0.  1.
         23    2    1    2    0    0  0.23420762111E+03  0.10325879261E+03 -0.92300773360E+03  0.96205116050E+03  0.89908682015E+02 0.  0.
         13    1    3    3    0    0  0.14033964693E+03  0.45641415075E+02 -0.37317295400E+03  0.40129341991E+03  0.00000000000E+00 0.  1.
        -13    1    3    3    0    0  0.93867974185E+02  0.57617377532E+02 -0.54983477960E+03  0.56075774059E+03  0.00000000000E+00 0. -1.
         22    1    1    2    0    0 -0.23420762111E+03 -0.10325879261E+03  0.37920425594E+03  0.45750568932E+03  0.00000000000E+00 0. -1.
<mgrwt>
<rscale>  0 0.13112663E+04</rscale>
<asrwt>0</asrwt>
<pdfrwt beam="1">  1        2 0.15102772E+00 0.13112663E+04</pdfrwt>
<pdfrwt beam="2">  1       -2 0.67365645E-01 0.13112663E+04</pdfrwt>
<totfact> 0.51245084E+01</totfact>
</mgrwt>
</event>
<event>
 6    1  0.1934315E-005  0.1270546E+04  0.7818608E-02  0.9053254E-01
          2   -1    0    0  501    0  0.00000000000E+00  0.00000000000E+00  0.37903874642E+03  0.37903874642E+03  0.00000000000E+00 0.  1.
         -2   -1    0    0    0  501 -0.00000000000E+00 -0.00000000000E+00 -0.10647238168E+04  0.10647238168E+04  0.00000000000E+00 0. -1.
         23    2    1    2    0    0  0.14705856273E+03 -0.52387908958E+03  0.21411409786E+02  0.55154008333E+03  0.87535670902E+02 0.  0.
         13    1    3    3    0    0  0.90522933132E+02 -0.30938316156E+03 -0.30285996528E+02  0.32377397003E+03  0.00000000000E+00 0. -1.
        -13    1    3    3    0    0  0.56535629593E+02 -0.21449592802E+03  0.51697406313E+02  0.22776611330E+03  0.00000000000E+00 0.  1.
         22    1    1    2    0    0 -0.14705856273E+03  0.52387908958E+03 -0.70709648017E+03  0.89222247990E+03  0.00000000000E+00 0. -1.
<mgrwt>
<rscale>  0 0.12705457E+04</rscale>
<asrwt>0</asrwt>
<pdfrwt beam="1">  1        2 0.58313654E-01 0.12705457E+04</pdfrwt>
<pdfrwt beam="2">  1       -2 0.16380366E+00 0.12705457E+04</pdfrwt>
<totfact> 0.19578258E+01</totfact>
</mgrwt>
</event>
<event>
 6    1  0.1934315E-005  0.3194780E+04  0.7818608E-02  0.8190197E-01
         -2   -1    0    0    0  501 -0.00000000000E+00  0.00000000000E+00  0.28565692867E+04  0.28565692867E+04  0.00000000000E+00 0. -1.
          2   -1    0    0  501    0  0.00000000000E+00 -0.00000000000E+00 -0.89325858271E+03  0.89325858271E+03  0.00000000000E+00 0.  1.
         23    2    1    2    0    0  0.12263034645E+04  0.10060980261E+04  0.11910540823E+04  0.19856187789E+04  0.89547098782E+02 0.  0.
         13    1    3    3    0    0  0.26662966149E+03  0.18864725985E+03  0.21107916405E+03  0.38888761684E+03  0.00000000000E+00 0. -1.
        -13    1    3    3    0    0  0.95967380305E+03  0.81745076624E+03  0.97997491823E+03  0.15967311620E+04  0.00000000000E+00 0.  1.
         22    1    1    2    0    0 -0.12263034645E+04 -0.10060980261E+04  0.77225662167E+03  0.17642090905E+04  0.00000000000E+00 0.  1.
<mgrwt>
<rscale>  0 0.31947801E+04</rscale>
<asrwt>0</asrwt>
<pdfrwt beam="1">  1        2 0.13742440E+00 0.31947801E+04</pdfrwt>
<pdfrwt beam="2">  1       -2 0.43947219E+00 0.31947801E+04</pdfrwt>
<totfact> 0.10158730E-01</totfact>
</mgrwt>
</event>
<event>
 6    1  0.1934315E-005  0.1993577E+04  0.7818608E-02  0.8609630E-01
         -2   -1    0    0    0  501 -0.00000000000E+00  0.00000000000E+00  0.52046450688E+03  0.52046450688E+03  0.00000000000E+00 0. -1.
          2   -1    0    0  501    0  0.00000000000E+00 -0.00000000000E+00 -0.19090388934E+04  0.19090388934E+04  0.00000000000E+00 0.  1.
         23    2    1    2    0    0 -0.18909053938E+02  0.85866868355E+03 -0.13071196877E+04  0.15667726611E+04  0.92440429778E+02 0.  0.
         13    1    3    3    0    0 -0.46075826195E+02  0.60552348371E+03 -0.96798023761E+03  0.11427018034E+04  0.00000000000E+00 0.  1.
        -13    1    3    3    0    0  0.27166772257E+02  0.25314519984E+03 -0.33913945013E+03  0.42407085770E+03  0.00000000000E+00 0. -1.
         22    1    1    2    0    0  0.18909053938E+02 -0.85866868355E+03 -0.81454698818E+02  0.86273073922E+03  0.00000000000E+00 0. -1.
<mgrwt>
<rscale>  0 0.19935767E+04</rscale>
<asrwt>0</asrwt>
<pdfrwt beam="1">  1        2 0.29369829E+00 0.19935767E+04</pdfrwt>
<pdfrwt beam="2">  1       -2 0.80071463E-01 0.19935767E+04</pdfrwt>
<totfact> 0.96245648E+00</totfact>
</mgrwt>
</event>
<event>
 6    1  0.1934315E-005  0.1772188E+04  0.7818608E-02  0.8721231E-01
         -2   -1    0    0    0  501 -0.00000000000E+00  0.00000000000E+00  0.50916107195E+03  0.50916107195E+03  0.00000000000E+00 0. -1.
          2   -1    0    0  501    0  0.00000000000E+00 -0.00000000000E+00 -0.15420717154E+04  0.15420717154E+04  0.00000000000E+00 0.  1.
         23    2    1    2    0    0 -0.67897869950E+03  0.22843420964E+03 -0.11168050886E+04  0.13299613125E+04  0.91374089949E+02 0.  0.
         11    1    3    3    0    0 -0.61552098311E+03  0.17695931249E+03 -0.98761522257E+03  0.11771000411E+04  0.00000000000E+00 0.  1.
        -11    1    3    3    0    0 -0.63457716384E+02  0.51474897155E+02 -0.12918986599E+03  0.15286127135E+03  0.00000000000E+00 0. -1.
         22    1    1    2    0    0  0.67897869950E+03 -0.22843420964E+03  0.83894445137E+02  0.72127147485E+03  0.00000000000E+00 0. -1.
<mgrwt>
<rscale>  0 0.17721884E+04</rscale>
<asrwt>0</asrwt>
<pdfrwt beam="1">  1        2 0.23724180E+00 0.17721884E+04</pdfrwt>
<pdfrwt beam="2">  1       -2 0.78332474E-01 0.17721884E+04</pdfrwt>
<totfact> 0.16480136E+01</totfact>
</mgrwt>
</event>
<event>
 6    1  0.1934315E-005  0.2256198E+04  0.7818608E-02  0.8495395E-01
          2   -1    0    0  501    0  0.00000000000E+00  0.00000000000E+00  0.11402938259E+04  0.11402938259E+04  0.00000000000E+00 0. -1.
         -2   -1    0    0    0  501 -0.00000000000E+00 -0.00000000000E+00 -0.11160343433E+04  0.11160343433E+04  0.00000000000E+00 0.  1.
         23    2    1    2    0    0 -0.25246253741E+03 -0.80195197637E+03 -0.73728484252E+03  0.11219498971E+04  0.91204865293E+02 0.  0.
         11    1    3    3    0    0 -0.12160351095E+03 -0.52227687021E+03 -0.48910550241E+03  0.72579937691E+03  0.00000000000E+00 0. -1.
        -11    1    3    3    0    0 -0.13085902646E+03 -0.27967510615E+03 -0.24817934011E+03  0.39615052021E+03  0.00000000000E+00 0.  1.
         22    1    1    2    0    0  0.25246253741E+03  0.80195197637E+03  0.76154432508E+03  0.11343782721E+04  0.00000000000E+00 0. -1.
<mgrwt>
<rscale>  0 0.22561977E+04</rscale>
<asrwt>0</asrwt>
<pdfrwt beam="1">  1        2 0.17542982E+00 0.22561977E+04</pdfrwt>
<pdfrwt beam="2">  1       -2 0.17169759E+00 0.22561977E+04</pdfrwt>
<totfact> 0.38816269E+00</totfact>
</mgrwt>
</event>
<event>
 6    1  0.1934315E-005  0.2305203E+04  0.7818608E-02  0.8475872E-01
          1   -1    0    0  501    0  0.00000000000E+00  0.00000000000E+00  0.74151075912E+03  0.74151075912E+03  0.00000000000E+00 0. -1.
         -1   -1    0    0    0  501 -0.00000000000E+00 -0.00000000000E+00 -0.17916001556E+04  0.17916001556E+04  0.00000000000E+00 0.  1.
         23    2    1    2    0    0  0.68019449080E+03 -0.48846095235E+03  0.34178065173E+03  0.90874615324E+03  0.88016531729E+02 0.  0.
         13    1    3    3    0    0  0.41488028917E+03 -0.27205825223E+03  0.16114818766E+03  0.52164172124E+03  0.00000000000E+00 0. -1.
        -13    1    3    3    0    0  0.26531420163E+03 -0.21640270011E+03  0.18063246407E+03  0.38710443200E+03  0.00000000000E+00 0.  1.
         22    1    1    2    0    0 -0.68019449080E+03  0.48846095235E+03 -0.13918700482E+04  0.16243647615E+04  0.00000000000E+00 0.  1.
<mgrwt>
<rscale>  0 0.23052035E+04</rscale>
<asrwt>0</asrwt>
<pdfrwt beam="1">  1        1 0.11407858E+00 0.23052035E+04</pdfrwt>
<pdfrwt beam="2">  1       -1 0.27563079E+00 0.23052035E+04</pdfrwt>
<totfact> 0.10700913E+00</totfact>
</mgrwt>
</event>
<event>
 6    1  0.1934315E-005  0.1440541E+04  0.7818608E-02  0.8924985E-01
          2   -1    0    0  501    0  0.00000000000E+00  0.00000000000E+00  0.22529364701E+04  0.22529364701E+04  0.00000000000E+00 0.  1.
         -2   -1    0    0    0  501 -0.00000000000E+00 -0.00000000000E+00 -0.23027254369E+03  0.23027254369E+03  0.00000000000E+00 0. -1.
         23    2    1    2    0    0  0.60967716788E+03 -0.36544608300E+03  0.11830292173E+04  0.13830983224E+04  0.90253818577E+02 0.  0.
         11    1    3    3    0    0  0.40769168839E+03 -0.22627847892E+03  0.84993395774E+03  0.96943395614E+03  0.00000000000E+00 0.  1.
        -11    1    3    3    0    0  0.20198547950E+03 -0.13916760408E+03  0.33309525954E+03  0.41366436622E+03  0.00000000000E+00 0. -1.
         22    1    1    2    0    0 -0.60967716788E+03  0.36544608300E+03  0.83963470915E+03  0.11001106914E+04  0.00000000000E+00 0. -1.
<mgrwt>
<rscale>  0 0.14405407E+04</rscale>
<asrwt>0</asrwt>
<pdfrwt beam="1">  1        2 0.34660560E+00 0.14405407E+04</pdfrwt>
<pdfrwt beam="2">  1       -2 0.35426547E-01 0.14405407E+04</pdfrwt>
<totfact> 0.35073176E+01</totfact>
</mgrwt>
</event>
<event>
 6    1  0.1934315E-005  0.1544650E+04  0.7818608E-02  0.8855292E-01
          2   -1    0    0  501    0  0.00000000000E+00  0.00000000000E+00  0.64101478420E+03  0.64101478420E+03  0.00000000000E+00 0.  1.
         -2   -1    0    0    0  501 -0.00000000000E+00 -0.00000000000E+00 -0.93053396575E+03  0.93053396575E+03  0.00000000000E+00 0. -1.
         23    2    1    2    0    0 -0.76577226599E+03  0.50332775327E+01 -0.22504963266E+03  0.80305098159E+03  0.88380114401E+02 0.  0.
         11    1    3    3    0    0 -0.34261816956E+03  0.15615091625E+02 -0.14448793519E+03  0.37216636685E+03  0.00000000000E+00 0.  1.
        -11    1    3    3    0    0 -0.42315409644E+03 -0.10581814092E+02 -0.80561697468E+02  0.43088461474E+03  0.00000000000E+00 0. -1.
         22    1    1    2    0    0  0.76577226599E+03 -0.50332775327E+01 -0.64469548882E+02  0.76849776836E+03  0.00000000000E+00 0. -1.
<mgrwt>
<rscale>  0 0.15446502E+04</rscale>
<asrwt>0</asrwt>
<pdfrwt beam="1">  1        2 0.98617660E-01 0.15446502E+04</pdfrwt>
<pdfrwt beam="2">  1       -2 0.14315907E+00 0.15446502E+04</pdfrwt>
<totfact> 0.14917271E+01</totfact>
</mgrwt>
</event>
<event>
 6    1  0.2047598E-005  0.2191205E+04  0.7818608E-02  0.8522098E-01
          2   -1    0    0  501    0  0.00000000000E+00  0.00000000000E+00  0.17468203952E+04  0.17468203952E+04  0.00000000000E+00 0.  1.
         -2   -1    0    0    0  501 -0.00000000000E+00 -0.00000000000E+00 -0.68716014262E+03  0.68716014262E+03  0.00000000000E+00 0. -1.
         23    2    1    2    0    0  0.92910508513E+03  0.65355515904E+02 -0.10552021788E+03  0.94228581992E+03  0.96231218240E+02 0.  0.
         11    1    3    3    0    0  0.63766464854E+03  0.64170841425E+01 -0.95223026259E+02  0.64476725079E+03  0.00000000000E+00 0. -1.
        -11    1    3    3    0    0  0.29144043659E+03  0.58938431762E+02 -0.10297191618E+02  0.29751856913E+03  0.00000000000E+00 0.  1.
         22    1    1    2    0    0 -0.92910508513E+03 -0.65355515904E+02  0.11651804705E+04  0.14916947179E+04  0.00000000000E+00 0.  1.
<mgrwt>
<rscale>  0 0.21912055E+04</rscale>
<asrwt>0</asrwt>
<pdfrwt beam="1">  1        2 0.26874160E+00 0.21912055E+04</pdfrwt>
<pdfrwt beam="2">  1       -2 0.10571695E+00 0.21912055E+04</pdfrwt>
<totfact> 0.61097030E+00</totfact>
</mgrwt>
</event>
<event>
 6    1  0.1934315E-005  0.3156837E+04  0.7818608E-02  0.8200310E-01
          2   -1    0    0  501    0  0.00000000000E+00  0.00000000000E+00  0.14581259713E+04  0.14581259713E+04  0.00000000000E+00 0.  1.
         -2   -1    0    0    0  501 -0.00000000000E+00 -0.00000000000E+00 -0.17086346790E+04  0.17086346790E+04  0.00000000000E+00 0. -1.
         23    2    1    2    0    0 -0.63178652030E+03 -0.58758179034E+03 -0.14497484267E+04  0.16894040679E+04  0.88932763771E+02 0.  0.
         13    1    3    3    0    0 -0.26781295531E+03 -0.27618967447E+03 -0.56948694092E+03  0.68725533188E+03  0.00000000000E+00 0.  1.
        -13    1    3    3    0    0 -0.36397356499E+03 -0.31139211587E+03 -0.88026148579E+03  0.10021487361E+04  0.00000000000E+00 0. -1.
         22    1    1    2    0    0  0.63178652030E+03  0.58758179034E+03  0.11992397191E+04  0.14773565823E+04  0.00000000000E+00 0.  1.
<mgrwt>
<rscale>  0 0.31568368E+04</rscale>
<asrwt>0</asrwt>
<pdfrwt beam="1">  1        2 0.22432707E+00 0.31568368E+04</pdfrwt>
<pdfrwt beam="2">  1       -2 0.26286687E+00 0.31568368E+04</pdfrwt>
<totfact> 0.60708583E-01</totfact>
</mgrwt>
</event>
<event>
 6    1  0.1934315E-005  0.3048072E+04  0.7818608E-02  0.8230135E-01
         -2   -1    0    0    0  501 -0.00000000000E+00  0.00000000000E+00  0.12569837377E+04  0.12569837377E+04  0.00000000000E+00 0. -1.
          2   -1    0    0  501    0  0.00000000000E+00 -0.00000000000E+00 -0.18478248241E+04  0.18478248241E+04  0.00000000000E+00 0.  1.
         23    2    1    2    0    0 -0.31953989750E+03  0.14875372690E+04 -0.23462345594E+03  0.15421941266E+04  0.91878644697E+02 0.  0.
         13    1    3    3    0    0 -0.13325954166E+03  0.53435035211E+03 -0.44230802177E+02  0.55248960905E+03  0.00000000000E+00 0. -1.
        -13    1    3    3    0    0 -0.18628035584E+03  0.95318691688E+03 -0.19039265376E+03  0.98970451756E+03  0.00000000000E+00 0.  1.
         22    1    1    2    0    0  0.31953989750E+03 -0.14875372690E+04 -0.35621763049E+03  0.15626144352E+04  0.00000000000E+00 0. -1.
<mgrwt>
<rscale>  0 0.30480720E+04</rscale>
<asrwt>0</asrwt>
<pdfrwt beam="1">  1        2 0.28428074E+00 0.30480720E+04</pdfrwt>
<pdfrwt beam="2">  1       -2 0.19338211E+00 0.30480720E+04</pdfrwt>
<totfact> 0.10183746E+00</totfact>
</mgrwt>
</event>
<event>
 6    1  0.1934315E-005  0.1695258E+04  0.7818608E-02  0.8764073E-01
          2   -1    0    0  501    0  0.00000000000E+00  0.00000000000E+00  0.11346594978E+04  0.11346594978E+04  0.00000000000E+00 0.  1.
         -2   -1    0    0    0  501 -0.00000000000E+00 -0.00000000000E+00 -0.63320782970E+03  0.63320782970E+03  0.00000000000E+00 0. -1.
         23    2    1    2    0    0 -0.83656394265E+03 -0.43570504928E+02  0.13448100172E+03  0.85331547603E+03  0.91238932285E+02 0.  0.
         13    1    3    3    0    0 -0.35014632067E+03  0.17148596646E+02  0.27935357312E+02  0.35167727312E+03  0.00000000000E+00 0. -1.
        -13    1    3    3    0    0 -0.48641762198E+03 -0.60719101574E+02  0.10654564441E+03  0.50163820291E+03  0.00000000000E+00 0.  1.
         22    1    1    2    0    0  0.83656394265E+03  0.43570504928E+02  0.36697066638E+03  0.91455185147E+03  0.00000000000E+00 0.  1.
<mgrwt>
<rscale>  0 0.16952584E+04</rscale>
<asrwt>0</asrwt>
<pdfrwt beam="1">  1        2 0.17456300E+00 0.16952584E+04</pdfrwt>
<pdfrwt beam="2">  1       -2 0.97416589E-01 0.16952584E+04</pdfrwt>
<totfact> 0.17353487E+01</totfact>
</mgrwt>
</event>
<event>
 6    1  0.1934315E-005  0.3457419E+03  0.7818608E-02  0.1064376E+00
          2   -1    0    0  501    0  0.00000000000E+00  0.00000000000E+00  0.21528613697E+03  0.21528613697E+03  0.00000000000E+00 0.  1.
         -2   -1    0    0    0  501 -0.00000000000E+00 -0.00000000000E+00 -0.13881229855E+03  0.13881229855E+03  0.00000000000E+00 0. -1.
         23    2    1    2    0    0 -0.15900432923E+03  0.94799760340E+01  0.17443088039E+02  0.18422531771E+03  0.90898073172E+02 0.  0.
         13    1    3    3    0    0 -0.16790986797E+03  0.42366712247E+01  0.27035392081E+02  0.17012520557E+03  0.00000000000E+00 0.  1.
        -13    1    3    3    0    0  0.89055387407E+01  0.52433048093E+01 -0.95923040427E+01  0.14100112143E+02  0.00000000000E+00 0. -1.
         22    1    1    2    0    0  0.15900432923E+03 -0.94799760340E+01  0.59030750379E+02  0.16987311780E+03  0.00000000000E+00 0.  1.
<mgrwt>
<rscale>  0 0.34574189E+03</rscale>
<asrwt>0</asrwt>
<pdfrwt beam="1">  1        2 0.33120944E-01 0.34574189E+03</pdfrwt>
<pdfrwt beam="2">  1       -2 0.21355738E-01 0.34574189E+03</pdfrwt>
<totfact> 0.29590025E+03</totfact>
</mgrwt>
</event>
<event>
 6    1  0.1934315E-005  0.2105162E+04  0.7818608E-02  0.8558973E-01
          2   -1    0    0  501    0  0.00000000000E+00  0.00000000000E+00  0.83583646492E+03  0.83583646492E+03  0.00000000000E+00 0.  1.
         -2   -1    0    0    0  501 -0.00000000000E+00 -0.00000000000E+00 -0.13255309027E+04  0.13255309027E+04  0.00000000000E+00 0. -1.
         23    2    1    2    0    0  0.12244808296E+03  0.58432621541E+03  0.64235160837E+03  0.88153968013E+03  0.89810688889E+02 0.  0.
         13    1    3    3    0    0  0.54934714065E+02  0.36332772071E+03  0.44932015894E+03  0.58044246974E+03  0.00000000000E+00 0.  1.
        -13    1    3    3    0    0  0.67513368890E+02  0.22099849470E+03  0.19303144943E+03  0.30109721039E+03  0.00000000000E+00 0. -1.
         22    1    1    2    0    0 -0.12244808296E+03 -0.58432621541E+03 -0.11320460461E+04  0.12798276874E+04  0.00000000000E+00 0. -1.
<mgrwt>
<rscale>  0 0.21051623E+04</rscale>
<asrwt>0</asrwt>
<pdfrwt beam="1">  1        2 0.12859023E+00 0.21051623E+04</pdfrwt>
<pdfrwt beam="2">  1       -2 0.20392783E+00 0.21051623E+04</pdfrwt>
<totfact> 0.37482744E+00</totfact>
</mgrwt>
</event>
<event>
 6    1  0.1934315E-005  0.1999653E+04  0.7818608E-02  0.8606783E-01
         -2   -1    0    0    0  501 -0.00000000000E+00  0.00000000000E+00  0.45341379386E+03  0.45341379386E+03  0.00000000000E+00 0. -1.
          2   -1    0    0  501    0  0.00000000000E+00 -0.00000000000E+00 -0.22047254943E+04  0.22047254943E+04  0.00000000000E+00 0.  1.
         23    2    1    2    0    0 -0.73799615319E+03  0.30544561787E+03 -0.16721336065E+04  0.18555157661E+04  0.94723875749E+02 0.  0.
         13    1    3    3    0    0 -0.68241003760E+03  0.30255369154E+03 -0.15173276143E+04  0.16910071806E+04  0.00000000000E+00 0. -1.
        -13    1    3    3    0    0 -0.55586115581E+02  0.28919263228E+01 -0.15480599215E+03  0.16450858546E+03  0.00000000000E+00 0.  1.
         22    1    1    2    0    0  0.73799615319E+03 -0.30544561787E+03 -0.79178093917E+02  0.80262352205E+03  0.00000000000E+00 0. -1.
<mgrwt>
<rscale>  0 0.19996529E+04</rscale>
<asrwt>0</asrwt>
<pdfrwt beam="1">  1        2 0.33918853E+00 0.19996529E+04</pdfrwt>
<pdfrwt beam="2">  1       -2 0.69755970E-01 0.19996529E+04</pdfrwt>
<totfact> 0.89321506E+00</totfact>
</mgrwt>
</event>
<event>
 6    1  0.1934315E-005  0.3806445E+04  0.7818608E-02  0.8044773E-01
          2   -1    0    0  501    0  0.00000000000E+00  0.00000000000E+00  0.30828236812E+04  0.30828236812E+04  0.00000000000E+00 0. -1.
         -2   -1    0    0    0  501 -0.00000000000E+00 -0.00000000000E+00 -0.11749800905E+04  0.11749800905E+04  0.00000000000E+00 0.  1.
         23    2    1    2    0    0 -0.18317420772E+04  0.46130945728E+03  0.12050138483E+04  0.22423497039E+04  0.89377665300E+02 0.  0.
         13    1    3    3    0    0 -0.11092338834E+04  0.28563354566E+03  0.78167720998E+03  0.13867247712E+04  0.00000000000E+00 0.  1.
        -13    1    3    3    0    0 -0.72250819377E+03  0.17567591161E+03  0.42333663833E+03  0.85562493263E+03  0.00000000000E+00 0. -1.
         22    1    1    2    0    0  0.18317420772E+04 -0.46130945728E+03  0.70282974234E+03  0.20154540678E+04  0.00000000000E+00 0.  1.
<mgrwt>
<rscale>  0 0.38064453E+04</rscale>
<asrwt>0</asrwt>
<pdfrwt beam="1">  1        2 0.47428056E+00 0.38064453E+04</pdfrwt>
<pdfrwt beam="2">  1       -2 0.18076617E+00 0.38064453E+04</pdfrwt>
<totfact> 0.22137662E-01</totfact>
</mgrwt>
</event>
<event>
 6    1  0.1934315E-005  0.1398219E+04  0.7818608E-02  0.8955109E-01
         -2   -1    0    0    0  501 -0.00000000000E+00  0.00000000000E+00  0.25183513429E+03  0.25183513429E+03  0.00000000000E+00 0. -1.
          2   -1    0    0  501    0  0.00000000000E+00 -0.00000000000E+00 -0.19407697598E+04  0.19407697598E+04  0.00000000000E+00 0.  1.
         23    2    1    2    0    0  0.61427275424E+03 -0.20621935735E+03 -0.12470638472E+04  0.14083171760E+04  0.91277541003E+02 0.  0.
         11    1    3    3    0    0  0.52453159318E+03 -0.20827324054E+03 -0.10627931613E+04  0.12033455192E+04  0.00000000000E+00 0. -1.
        -11    1    3    3    0    0  0.89741161067E+02  0.20538831903E+01 -0.18427068585E+03  0.20497165680E+03  0.00000000000E+00 0.  1.
         22    1    1    2    0    0 -0.61427275424E+03  0.20621935735E+03 -0.44187077837E+03  0.78428771808E+03  0.00000000000E+00 0. -1.
<mgrwt>
<rscale>  0 0.13982189E+04</rscale>
<asrwt>0</asrwt>
<pdfrwt beam="1">  1        2 0.29857996E+00 0.13982189E+04</pdfrwt>
<pdfrwt beam="2">  1       -2 0.38743868E-01 0.13982189E+04</pdfrwt>
<totfact> 0.44184152E+01</totfact>
</mgrwt>
</event>
<event>
 6    1  0.1934315E-005  0.2326572E+04  0.7818608E-02  0.8467517E-01
          1   -1    0    0  501    0  0.00000000000E+00  0.00000000000E+00  0.16690950401E+04  0.16690950401E+04  0.00000000000E+00 0.  1.
         -1   -1    0    0    0  501 -0.00000000000E+00 -0.00000000000E+00 -0.81075931173E+03  0.81075931173E+03  0.00000000000E+00 0. -1.
         23    2    1    2    0    0  0.82793596223E+03 -0.19374968879E+03 -0.41426185202E+03  0.94932454124E+03  0.81162202417E+02 0.  0.
         13    1    3    3    0    0  0.57937677895E+03 -0.10180838550E+03 -0.26530764249E+03  0.64531429901E+03  0.00000000000E+00 0. -1.
        -13    1    3    3    0    0  0.24855918329E+03 -0.91941303287E+02 -0.14895420954E+03  0.30401024224E+03  0.00000000000E+00 0.  1.
         22    1    1    2    0    0 -0.82793596223E+03  0.19374968879E+03  0.12725975804E+04  0.15305298106E+04  0.00000000000E+00 0.  1.
<mgrwt>
<rscale>  0 0.23265720E+04</rscale>
<asrwt>0</asrwt>
<pdfrwt beam="1">  1        1 0.25678385E+00 0.23265720E+04</pdfrwt>
<pdfrwt beam="2">  1       -1 0.12473220E+00 0.23265720E+04</pdfrwt>
<totfact> 0.25385823E+00</totfact>
</mgrwt>
</event>
<event>
 6    1  0.1934315E-005  0.1096204E+04  0.7818608E-02  0.9208900E-01
         -2   -1    0    0    0  501 -0.00000000000E+00  0.00000000000E+00  0.38440021414E+03  0.38440021414E+03  0.00000000000E+00 0. -1.
          2   -1    0    0  501    0  0.00000000000E+00 -0.00000000000E+00 -0.78151819297E+03  0.78151819297E+03  0.00000000000E+00 0.  1.
         23    2    1    2    0    0 -0.41258043795E+03 -0.33473989924E+03 -0.68207742961E+02  0.54105413290E+03  0.76248676125E+02 0.  0.
         11    1    3    3    0    0 -0.27063435390E+03 -0.26367565505E+03 -0.53859891351E+02  0.38166568155E+03  0.00000000000E+00 0. -1.
        -11    1    3    3    0    0 -0.14194608405E+03 -0.71064244193E+02 -0.14347851610E+02  0.15938845135E+03  0.00000000000E+00 0.  1.
         22    1    1    2    0    0  0.41258043795E+03  0.33473989924E+03 -0.32891023587E+03  0.62486427421E+03  0.00000000000E+00 0. -1.
<mgrwt>
<rscale>  0 0.10962039E+04</rscale>
<asrwt>0</asrwt>
<pdfrwt beam="1">  1        2 0.12023357E+00 0.10962039E+04</pdfrwt>
<pdfrwt beam="2">  1       -2 0.59138495E-01 0.10962039E+04</pdfrwt>
<totfact> 0.94257627E+01</totfact>
</mgrwt>
</event>
<event>
 6    1  0.1934315E-005  0.2101384E+04  0.7818608E-02  0.8560634E-01
          2   -1    0    0  501    0  0.00000000000E+00  0.00000000000E+00  0.28009636245E+04  0.28009636245E+04  0.00000000000E+00 0.  1.
         -2   -1    0    0    0  501 -0.00000000000E+00 -0.00000000000E+00 -0.39413353222E+03  0.39413353222E+03  0.00000000000E+00 0. -1.
         23    2    1    2    0    0 -0.78537769614E+03 -0.34320668144E+03  0.21241965321E+04  0.22926057822E+04  0.96028193505E+02 0.  0.
         13    1    3    3    0    0 -0.42691858979E+03 -0.18775163400E+03  0.10275901472E+04  0.11284731583E+04  0.00000000000E+00 0. -1.
        -13    1    3    3    0    0 -0.35845910634E+03 -0.15545504744E+03  0.10966063848E+04  0.11641326239E+04  0.00000000000E+00 0.  1.
         22    1    1    2    0    0  0.78537769614E+03  0.34320668144E+03  0.28263356025E+03  0.90249137456E+03  0.00000000000E+00 0. -1.
<mgrwt>
<rscale>  0 0.21013840E+04</rscale>
<asrwt>0</asrwt>
<pdfrwt beam="1">  1        2 0.43091747E+00 0.21013840E+04</pdfrwt>
<pdfrwt beam="2">  1       -2 0.60635930E-01 0.21013840E+04</pdfrwt>
<totfact> 0.53950299E+00</totfact>
</mgrwt>
</event>
<event>
 6    1  0.1934315E-005  0.3869010E+04  0.7818608E-02  0.8031506E-01
          2   -1    0    0  501    0  0.00000000000E+00  0.00000000000E+00  0.23167785151E+04  0.23167785151E+04  0.00000000000E+00 0.  1.
         -2   -1    0    0    0  501 -0.00000000000E+00 -0.00000000000E+00 -0.16153071828E+04  0.16153071828E+04  0.00000000000E+00 0. -1.
         23    2    1    2    0    0  0.12818817504E+04  0.11723570383E+04  0.12137378535E+04  0.21209924270E+04  0.88359781446E+02 0.  0.
         11    1    3    3    0    0  0.11262955805E+04  0.10662871351E+04  0.10896373536E+04  0.18954734373E+04  0.00000000000E+00 0.  1.
        -11    1    3    3    0    0  0.15558616989E+03  0.10606990323E+03  0.12410049992E+03  0.22551898969E+03  0.00000000000E+00 0. -1.
         22    1    1    2    0    0 -0.12818817504E+04 -0.11723570383E+04 -0.51226652124E+03  0.18110932709E+04  0.00000000000E+00 0. -1.
<mgrwt>
<rscale>  0 0.38690097E+04</rscale>
<asrwt>0</asrwt>
<pdfrwt beam="1">  1        2 0.35642746E+00 0.38690097E+04</pdfrwt>
<pdfrwt beam="2">  1       -2 0.24850880E+00 0.38690097E+04</pdfrwt>
<totfact> 0.23210866E-01</totfact>
</mgrwt>
</event>
<event>
 6    1  0.1934315E-005  0.9801748E+03  0.7818608E-02  0.9330560E-01
         -2   -1    0    0    0  501 -0.00000000000E+00  0.00000000000E+00  0.88454413116E+03  0.88454413116E+03  0.00000000000E+00 0. -1.
          2   -1    0    0  501    0  0.00000000000E+00 -0.00000000000E+00 -0.27153611068E+03  0.27153611068E+03  0.00000000000E+00 0.  1.
         23    2    1    2    0    0  0.25915781984E+03  0.14411441239E+03  0.76382978245E+03  0.82339579176E+03  0.81320070669E+02 0.  0.
         11    1    3    3    0    0  0.74938014759E+02  0.33623849006E+02  0.31913171138E+03  0.32953196884E+03  0.00000000000E+00 0. -1.
        -11    1    3    3    0    0  0.18421980508E+03  0.11049056339E+03  0.44469807107E+03  0.49386382292E+03  0.00000000000E+00 0.  1.
         22    1    1    2    0    0 -0.25915781984E+03 -0.14411441239E+03 -0.15082176197E+03  0.33268445008E+03  0.00000000000E+00 0.  1.
<mgrwt>
<rscale>  0 0.98017483E+03</rscale>
<asrwt>0</asrwt>
<pdfrwt beam="1">  1        2 0.41774787E-01 0.98017483E+03</pdfrwt>
<pdfrwt beam="2">  1       -2 0.13608371E+00 0.98017483E+03</pdfrwt>
<totfact> 0.47364664E+01</totfact>
</mgrwt>
</event>
<event>
 6    1  0.1934315E-005  0.3161245E+04  0.7818608E-02  0.8199128E-01
         -2   -1    0    0    0  501 -0.00000000000E+00  0.00000000000E+00  0.90451525703E+03  0.90451525703E+03  0.00000000000E+00 0. -1.
          2   -1    0    0  501    0  0.00000000000E+00 -0.00000000000E+00 -0.27621071417E+04  0.27621071417E+04  0.00000000000E+00 0.  1.
         23    2    1    2    0    0  0.12369345818E+04  0.73185501966E+03 -0.17044404641E+03  0.14502995978E+04  0.93267470013E+02 0.  0.
         13    1    3    3    0    0  0.10482141763E+04  0.61101379504E+03 -0.17682553934E+03  0.12261150388E+04  0.00000000000E+00 0.  1.
        -13    1    3    3    0    0  0.18872040554E+03  0.12084122463E+03  0.63814929321E+01  0.22418455899E+03  0.00000000000E+00 0. -1.
         22    1    1    2    0    0 -0.12369345818E+04 -0.73185501966E+03 -0.16871478382E+04  0.22163228009E+04  0.00000000000E+00 0.  1.
<mgrwt>
<rscale>  0 0.31612454E+04</rscale>
<asrwt>0</asrwt>
<pdfrwt beam="1">  1        2 0.42493956E+00 0.31612454E+04</pdfrwt>
<pdfrwt beam="2">  1       -2 0.13915619E+00 0.31612454E+04</pdfrwt>
<totfact> 0.75092110E-01</totfact>
</mgrwt>
</event>
<event>
 6    1  0.1934315E-005  0.1088282E+04  0.7818608E-02  0.9216689E-01
         -1   -1    0    0    0  501 -0.00000000000E+00  0.00000000000E+00  0.21932085212E+03  0.21932085212E+03  0.00000000000E+00 0. -1.
          1   -1    0    0  501    0  0.00000000000E+00 -0.00000000000E+00 -0.13500289119E+04  0.13500289119E+04  0.00000000000E+00 0.  1.
         23    2    1    2    0    0  0.33774296386E+02 -0.22000927165E+03  0.14301474375E+03  0.27632441125E+03  0.79731929694E+02 0.  0.
         11    1    3    3    0    0 -0.14756968103E+02 -0.14194717553E+03  0.10339585021E+03  0.17623129856E+03  0.00000000000E+00 0. -1.
        -11    1    3    3    0    0  0.48531264489E+02 -0.78062096118E+02  0.39618893535E+02  0.10009311269E+03  0.00000000000E+00 0.  1.
         22    1    1    2    0    0 -0.33774296386E+02  0.22000927165E+03 -0.12737228036E+04  0.12930253528E+04  0.00000000000E+00 0.  1.
<mgrwt>
<rscale>  0 0.10882821E+04</rscale>
<asrwt>0</asrwt>
<pdfrwt beam="1">  1        1 0.20769676E+00 0.10882821E+04</pdfrwt>
<pdfrwt beam="2">  1       -1 0.33741669E-01 0.10882821E+04</pdfrwt>
<totfact> 0.68809537E+01</totfact>
</mgrwt>
</event>
<event>
 6    1  0.1934315E-005  0.2561948E+04  0.7818608E-02  0.8381243E-01
         -2   -1    0    0    0  501 -0.00000000000E+00  0.00000000000E+00  0.54418147897E+03  0.54418147897E+03  0.00000000000E+00 0. -1.
          2   -1    0    0  501    0  0.00000000000E+00 -0.00000000000E+00 -0.30153448857E+04  0.30153448857E+04  0.00000000000E+00 0.  1.
         23    2    1    2    0    0  0.98503684162E+03 -0.80928497603E+03 -0.10885204182E+04  0.16788505857E+04  0.91776013041E+02 0.  0.
         13    1    3    3    0    0  0.63383329165E+02 -0.80320104563E+02 -0.10326309507E+03  0.14536860877E+03  0.00000000000E+00 0. -1.
        -13    1    3    3    0    0  0.92165351245E+03 -0.72896487147E+03 -0.98525732315E+03  0.15334819770E+04  0.00000000000E+00 0.  1.
         22    1    1    2    0    0 -0.98503684162E+03  0.80928497603E+03 -0.13826429885E+04  0.18806757789E+04  0.00000000000E+00 0.  1.
<mgrwt>
<rscale>  0 0.25619484E+04</rscale>
<asrwt>0</asrwt>
<pdfrwt beam="1">  1        2 0.46389919E+00 0.25619484E+04</pdfrwt>
<pdfrwt beam="2">  1       -2 0.83720231E-01 0.25619484E+04</pdfrwt>
<totfact> 0.18847125E+00</totfact>
</mgrwt>
</event>
<event>
 6    1  0.1934315E-005  0.2777900E+04  0.7818608E-02  0.8310162E-01
         -2   -1    0    0    0  501 -0.00000000000E+00  0.00000000000E+00  0.11968189660E+04  0.11968189660E+04  0.00000000000E+00 0. -1.
          2   -1    0    0  501    0  0.00000000000E+00 -0.00000000000E+00 -0.16119249183E+04  0.16119249183E+04  0.00000000000E+00 0.  1.
         23    2    1    2    0    0 -0.97983366222E+02  0.69480694337E+03  0.10024708098E+04  0.12270102453E+04  0.90823945491E+02 0.  0.
         13    1    3    3    0    0 -0.75810291957E+02  0.24365466482E+03  0.33664479036E+03  0.42242692970E+03  0.00000000000E+00 0. -1.
        -13    1    3    3    0    0 -0.22173074265E+02  0.45115227854E+03  0.66582601940E+03  0.80458331561E+03  0.00000000000E+00 0.  1.
         22    1    1    2    0    0  0.97983366222E+02 -0.69480694337E+03 -0.14175767621E+04  0.15817336391E+04  0.00000000000E+00 0.  1.
<mgrwt>
<rscale>  0 0.27779002E+04</rscale>
<asrwt>0</asrwt>
<pdfrwt beam="1">  1        2 0.24798845E+00 0.27779002E+04</pdfrwt>
<pdfrwt beam="2">  1       -2 0.18412599E+00 0.27779002E+04</pdfrwt>
<totfact> 0.16264109E+00</totfact>
</mgrwt>
</event>
<event>
 6    1  0.1934315E-005  0.9989059E+03  0.7818608E-02  0.9309746E-01
          1   -1    0    0  501    0  0.00000000000E+00  0.00000000000E+00  0.35384608124E+03  0.35384608124E+03  0.00000000000E+00 0.  1.
         -1   -1    0    0    0  501 -0.00000000000E+00 -0.00000000000E+00 -0.70497672950E+03  0.70497672950E+03  0.00000000000E+00 0. -1.
         23    2    1    2    0    0 -0.18525084364E+01 -0.14272483243E+03  0.32490384104E+03  0.36788399991E+03  0.96965570622E+02 0.  0.
         13    1    3    3    0    0 -0.90432205490E+00 -0.46131643154E+02  0.24315402203E+02  0.52155393611E+02  0.00000000000E+00 0. -1.
        -13    1    3    3    0    0 -0.94818638152E+00 -0.96593189279E+02  0.30058843884E+03  0.31572860630E+03  0.00000000000E+00 0.  1.
         22    1    1    2    0    0  0.18525084364E+01  0.14272483243E+03 -0.67603448930E+03  0.69093881082E+03  0.00000000000E+00 0. -1.
<mgrwt>
<rscale>  0 0.99890591E+03</rscale>
<asrwt>0</asrwt>
<pdfrwt beam="1">  1        1 0.54437859E-01 0.99890591E+03</pdfrwt>
<pdfrwt beam="2">  1       -1 0.10845796E+00 0.99890591E+03</pdfrwt>
<totfact> 0.55882104E+01</totfact>
</mgrwt>
</event>
<event>
 6    1  0.1934315E-005  0.9573525E+03  0.7818608E-02  0.9356598E-01
         -2   -1    0    0    0  501 -0.00000000000E+00  0.00000000000E+00  0.29505612557E+03  0.29505612557E+03  0.00000000000E+00 0. -1.
          2   -1    0    0  501    0  0.00000000000E+00 -0.00000000000E+00 -0.77656730821E+03  0.77656730821E+03  0.00000000000E+00 0.  1.
         23    2    1    2    0    0 -0.29538162108E+03  0.29213996916E+03  0.13597632705E+02  0.42530400602E+03  0.90014100411E+02 0.  0.
         13    1    3    3    0    0 -0.15988152850E+03  0.98001342910E+02 -0.70251139642E+01  0.18765851591E+03  0.00000000000E+00 0.  1.
        -13    1    3    3    0    0 -0.13550009258E+03  0.19413862625E+03  0.20622746669E+02  0.23764549011E+03  0.00000000000E+00 0. -1.
         22    1    1    2    0    0  0.29538162108E+03 -0.29213996916E+03 -0.49510881535E+03  0.64631942775E+03  0.00000000000E+00 0. -1.
<mgrwt>
<rscale>  0 0.95735248E+03</rscale>
<asrwt>0</asrwt>
<pdfrwt beam="1">  1        2 0.11947189E+00 0.95735248E+03</pdfrwt>
<pdfrwt beam="2">  1       -2 0.45393250E-01 0.95735248E+03</pdfrwt>
<totfact> 0.16493415E+02</totfact>
</mgrwt>
</event>
<event>
 6    1  0.1934315E-005  0.3223370E+04  0.7818608E-02  0.8182672E-01
          2   -1    0    0  501    0  0.00000000000E+00  0.00000000000E+00  0.18001155427E+04  0.18001155427E+04  0.00000000000E+00 0.  1.
         -2   -1    0    0    0  501 -0.00000000000E+00 -0.00000000000E+00 -0.14429790390E+04  0.14429790390E+04  0.00000000000E+00 0. -1.
         23    2    1    2    0    0  0.32945081644E+03 -0.29234001919E+03 -0.13794691920E+04  0.14515031468E+04  0.99627336001E+02 0.  0.
         11    1    3    3    0    0  0.77101879990E+02 -0.12861269265E+03 -0.50091202742E+03  0.52287549552E+03  0.00000000000E+00 0. -1.
        -11    1    3    3    0    0  0.25234893645E+03 -0.16372732654E+03 -0.87855716462E+03  0.92862765126E+03  0.00000000000E+00 0.  1.
         22    1    1    2    0    0 -0.32945081644E+03  0.29234001919E+03  0.17366056958E+04  0.17915914350E+04  0.00000000000E+00 0.  1.
<mgrwt>
<rscale>  0 0.32233703E+04</rscale>
<asrwt>0</asrwt>
<pdfrwt beam="1">  1        2 0.27694085E+00 0.32233703E+04</pdfrwt>
<pdfrwt beam="2">  1       -2 0.22199678E+00 0.32233703E+04</pdfrwt>
<totfact> 0.69614894E-01</totfact>
</mgrwt>
</event>
<event>
 6    1  0.1934315E-005  0.2996808E+04  0.7818608E-02  0.8244643E-01
          2   -1    0    0  501    0  0.00000000000E+00  0.00000000000E+00  0.21961064837E+04  0.21961064837E+04  0.00000000000E+00 0.  1.
         -2   -1    0    0    0  501 -0.00000000000E+00 -0.00000000000E+00 -0.10223616271E+04  0.10223616271E+04  0.00000000000E+00 0. -1.
         23    2    1    2    0    0 -0.14158435464E+04 -0.35004955585E+03  0.22480631642E+03  0.14784589176E+04  0.90306432501E+02 0.  0.
         13    1    3    3    0    0 -0.13793198392E+03 -0.47462955192E+02 -0.13796020485E+01  0.14587620644E+03  0.00000000000E+00 0. -1.
        -13    1    3    3    0    0 -0.12779115625E+04 -0.30258660066E+03  0.22618591847E+03  0.13325827112E+04  0.00000000000E+00 0.  1.
         22    1    1    2    0    0  0.14158435464E+04  0.35004955585E+03  0.94893854011E+03  0.17400091932E+04  0.00000000000E+00 0. -1.
<mgrwt>
<rscale>  0 0.29968083E+04</rscale>
<asrwt>0</asrwt>
<pdfrwt beam="1">  1        2 0.33786254E+00 0.29968083E+04</pdfrwt>
<pdfrwt beam="2">  1       -2 0.15728640E+00 0.29968083E+04</pdfrwt>
<totfact> 0.11726093E+00</totfact>
</mgrwt>
</event>
<event>
 6    1  0.1934315E-005  0.2061629E+04  0.7818608E-02  0.8578337E-01
          2   -1    0    0  501    0  0.00000000000E+00  0.00000000000E+00  0.18997026243E+04  0.18997026243E+04  0.00000000000E+00 0.  1.
         -2   -1    0    0    0  501 -0.00000000000E+00 -0.00000000000E+00 -0.55933922193E+03  0.55933922193E+03  0.00000000000E+00 0. -1.
         23    2    1    2    0    0  0.47913464441E+03  0.21135824765E+03 -0.38472099144E+03  0.65622225402E+03  0.91515512826E+02 0.  0.
         13    1    3    3    0    0  0.26425420525E+03  0.15977856842E+03 -0.25085583432E+03  0.39785440242E+03  0.00000000000E+00 0. -1.
        -13    1    3    3    0    0  0.21488043916E+03  0.51579679223E+02 -0.13386515713E+03  0.25836785159E+03  0.00000000000E+00 0.  1.
         22    1    1    2    0    0 -0.47913464441E+03 -0.21135824765E+03  0.17250843938E+04  0.18028195922E+04  0.00000000000E+00 0.  1.
<mgrwt>
<rscale>  0 0.20616287E+04</rscale>
<asrwt>0</asrwt>
<pdfrwt beam="1">  1        2 0.29226194E+00 0.20616287E+04</pdfrwt>
<pdfrwt beam="2">  1       -2 0.86052189E-01 0.20616287E+04</pdfrwt>
<totfact> 0.82263169E+00</totfact>
</mgrwt>
</event>
<event>
 6    1  0.1934315E-005  0.1048102E+04  0.7818608E-02  0.9257305E-01
         -2   -1    0    0    0  501 -0.00000000000E+00  0.00000000000E+00  0.30977737584E+03  0.30977737584E+03  0.00000000000E+00 0. -1.
          2   -1    0    0  501    0  0.00000000000E+00 -0.00000000000E+00 -0.88653890043E+03  0.88653890043E+03  0.00000000000E+00 0.  1.
         23    2    1    2    0    0  0.22152934503E+03 -0.62437507004E+02 -0.82287996370E+03  0.85934746604E+03  0.91503769030E+02 0.  0.
         13    1    3    3    0    0  0.65164023512E+02 -0.33517449659E+02 -0.13799751547E+03  0.15624686771E+03  0.00000000000E+00 0.  1.
        -13    1    3    3    0    0  0.15636532152E+03 -0.28920057345E+02 -0.68488244823E+03  0.70310059834E+03  0.00000000000E+00 0. -1.
         22    1    1    2    0    0 -0.22152934503E+03  0.62437507004E+02  0.24611843911E+03  0.33696881022E+03  0.00000000000E+00 0. -1.
<mgrwt>
<rscale>  0 0.10481025E+04</rscale>
<asrwt>0</asrwt>
<pdfrwt beam="1">  1        2 0.13639060E+00 0.10481025E+04</pdfrwt>
<pdfrwt beam="2">  1       -2 0.47658059E-01 0.10481025E+04</pdfrwt>
<totfact> 0.12438735E+02</totfact>
</mgrwt>
</event>
<event>
 6    1  0.1934315E-005  0.2611840E+04  0.7818608E-02  0.8364191E-01
         -2   -1    0    0    0  501 -0.00000000000E+00  0.00000000000E+00  0.68416451423E+03  0.68416451423E+03  0.00000000000E+00 0. -1.
          2   -1    0    0  501    0  0.00000000000E+00 -0.00000000000E+00 -0.24927149429E+04  0.24927149429E+04  0.00000000000E+00 0.  1.
         23    2    1    2    0    0  0.47811177513E+03 -0.72751996995E+03 -0.20868106820E+04  0.22629292698E+04  0.90520061937E+02 0.  0.
         11    1    3    3    0    0  0.44850592510E+03 -0.64014443024E+03 -0.18249231612E+04  0.19852674885E+04  0.00000000000E+00 0. -1.
        -11    1    3    3    0    0  0.29605850023E+02 -0.87375539711E+02 -0.26188752075E+03  0.27766178135E+03  0.00000000000E+00 0.  1.
         22    1    1    2    0    0 -0.47811177513E+03  0.72751996995E+03  0.27826025336E+03  0.91395018726E+03  0.00000000000E+00 0. -1.
<mgrwt>
<rscale>  0 0.26118400E+04</rscale>
<asrwt>0</asrwt>
<pdfrwt beam="1">  1        2 0.38349461E+00 0.26118400E+04</pdfrwt>
<pdfrwt beam="2">  1       -2 0.10525608E+00 0.26118400E+04</pdfrwt>
<totfact> 0.22695759E+00</totfact>
</mgrwt>
</event>
<event>
 6    1  0.1934315E-005  0.1212206E+04  0.7818608E-02  0.9102239E-01
          2   -1    0    0  501    0  0.00000000000E+00  0.00000000000E+00  0.13765598892E+04  0.13765598892E+04  0.00000000000E+00 0.  1.
         -2   -1    0    0    0  501 -0.00000000000E+00 -0.00000000000E+00 -0.26686869395E+03  0.26686869395E+03  0.00000000000E+00 0. -1.
         23    2    1    2    0    0  0.55530741505E+02  0.45911007699E+03  0.10818742408E+04  0.11801365489E+04  0.91677015323E+02 0.  0.
         13    1    3    3    0    0  0.74631379436E+02  0.27201450627E+03  0.60523732899E+03  0.66773794173E+03  0.00000000000E+00 0. -1.
        -13    1    3    3    0    0 -0.19100637931E+02  0.18709557072E+03  0.47663691177E+03  0.51239860715E+03  0.00000000000E+00 0.  1.
         22    1    1    2    0    0 -0.55530741505E+02 -0.45911007699E+03  0.27816954470E+02  0.46329203425E+03  0.00000000000E+00 0. -1.
<mgrwt>
<rscale>  0 0.12122058E+04</rscale>
<asrwt>0</asrwt>
<pdfrwt beam="1">  1        2 0.21177844E+00 0.12122058E+04</pdfrwt>
<pdfrwt beam="2">  1       -2 0.41056723E-01 0.12122058E+04</pdfrwt>
<totfact> 0.82642898E+01</totfact>
</mgrwt>
</event>
<event>
 6    1  0.1934315E-005  0.2786890E+04  0.7818608E-02  0.8307350E-01
          2   -1    0    0  501    0  0.00000000000E+00  0.00000000000E+00  0.96182104764E+03  0.96182104764E+03  0.00000000000E+00 0.  1.
         -2   -1    0    0    0  501 -0.00000000000E+00 -0.00000000000E+00 -0.20187630757E+04  0.20187630757E+04  0.00000000000E+00 0. -1.
         23    2    1    2    0    0  0.36620653153E+03 -0.13364337224E+04 -0.66897425759E+03  0.15415979146E+04  0.93996035544E+02 0.  0.
         11    1    3    3    0    0  0.91710552294E+02 -0.43633477095E+03 -0.25395468810E+03  0.51311971445E+03  0.00000000000E+00 0.  1.
        -11    1    3    3    0    0  0.27449597924E+03 -0.90009895146E+03 -0.41501956949E+03  0.10284782001E+04  0.00000000000E+00 0. -1.
         22    1    1    2    0    0 -0.36620653153E+03  0.13364337224E+04 -0.38796777045E+03  0.14389862088E+04  0.00000000000E+00 0. -1.
<mgrwt>
<rscale>  0 0.27868899E+04</rscale>
<asrwt>0</asrwt>
<pdfrwt beam="1">  1        2 0.14797247E+00 0.27868899E+04</pdfrwt>
<pdfrwt beam="2">  1       -2 0.31057894E+00 0.27868899E+04</pdfrwt>
<totfact> 0.63581815E-01</totfact>
</mgrwt>
</event>
<event>
 6    1  0.2990817E-005  0.3574789E+04  0.7818608E-02  0.8096291E-01
          2   -1    0    0  501    0  0.00000000000E+00  0.00000000000E+00  0.19534847685E+04  0.19534847685E+04  0.00000000000E+00 0.  1.
         -2   -1    0    0    0  501 -0.00000000000E+00 -0.00000000000E+00 -0.16354255489E+04  0.16354255489E+04  0.00000000000E+00 0. -1.
         23    2    1    2    0    0  0.10500465930E+04  0.84132213533E+02  0.16073606547E+04  0.19239856142E+04  0.91849291586E+02 0.  0.
         13    1    3    3    0    0  0.73658910145E+03  0.16813691541E+02  0.11257739818E+04  0.13454416609E+04  0.00000000000E+00 0. -1.
        -13    1    3    3    0    0  0.31345749159E+03  0.67318521993E+02  0.48158667287E+03  0.57854395333E+03  0.00000000000E+00 0.  1.
         22    1    1    2    0    0 -0.10500465930E+04 -0.84132213533E+02 -0.12893014351E+04  0.16649247032E+04  0.00000000000E+00 0. -1.
<mgrwt>
<rscale>  0 0.35747889E+04</rscale>
<asrwt>0</asrwt>
<pdfrwt beam="1">  1        2 0.30053612E+00 0.35747889E+04</pdfrwt>
<pdfrwt beam="2">  1       -2 0.25160393E+00 0.35747889E+04</pdfrwt>
<totfact> 0.36383770E-01</totfact>
</mgrwt>
</event>
<event>
 6    1  0.1934315E-005  0.3995363E+04  0.7818608E-02  0.8005483E-01
         -2   -1    0    0    0  501 -0.00000000000E+00  0.00000000000E+00  0.23879667865E+04  0.23879667865E+04  0.00000000000E+00 0. -1.
          2   -1    0    0  501    0  0.00000000000E+00 -0.00000000000E+00 -0.16711838309E+04  0.16711838309E+04  0.00000000000E+00 0.  1.
         23    2    1    2    0    0 -0.16468060878E+04 -0.48905626923E+03  0.13923543909E+04  0.22131974519E+04  0.91901502051E+02 0.  0.
         11    1    3    3    0    0 -0.11427250515E+04 -0.35298363202E+03  0.10202532689E+04  0.15720479384E+04  0.00000000000E+00 0. -1.
        -11    1    3    3    0    0 -0.50408103625E+03 -0.13607263721E+03  0.37210112192E+03  0.64114951348E+03  0.00000000000E+00 0.  1.
         22    1    1    2    0    0  0.16468060878E+04  0.48905626923E+03 -0.67557143519E+03  0.18459531655E+04  0.00000000000E+00 0.  1.
<mgrwt>
<rscale>  0 0.39953631E+04</rscale>
<asrwt>0</asrwt>
<pdfrwt beam="1">  1        2 0.25710520E+00 0.39953631E+04</pdfrwt>
<pdfrwt beam="2">  1       -2 0.36737951E+00 0.39953631E+04</pdfrwt>
<totfact> 0.96871730E-02</totfact>
</mgrwt>
</event>
<event>
 6    1  0.1934315E-005  0.4516223E+04  0.7818608E-02  0.7907803E-01
          1   -1    0    0  501    0  0.00000000000E+00  0.00000000000E+00  0.33374278054E+04  0.33374278054E+04  0.00000000000E+00 0.  1.
         -1   -1    0    0    0  501 -0.00000000000E+00 -0.00000000000E+00 -0.15278438411E+04  0.15278438411E+04  0.00000000000E+00 0. -1.
         23    2    1    2    0    0 -0.92395121083E+03  0.90223860811E+03  0.28994352901E+04  0.31754502779E+04  0.95074286604E+02 0.  0.
         13    1    3    3    0    0 -0.46863196901E+03  0.39173121285E+03  0.13542036632E+04  0.14855762609E+04  0.00000000000E+00 0.  1.
        -13    1    3    3    0    0 -0.45531924183E+03  0.51050739526E+03  0.15452316269E+04  0.16898740170E+04  0.00000000000E+00 0. -1.
         22    1    1    2    0    0  0.92395121083E+03 -0.90223860811E+03 -0.10898513257E+04  0.16898213687E+04  0.00000000000E+00 0. -1.
<mgrwt>
<rscale>  0 0.45162234E+04</rscale>
<asrwt>0</asrwt>
<pdfrwt beam="1">  1        1 0.51345043E+00 0.45162234E+04</pdfrwt>
<pdfrwt beam="2">  1       -1 0.23505290E+00 0.45162234E+04</pdfrwt>
<totfact> 0.21908300E-02</totfact>
</mgrwt>
</event>
<event>
 6    1  0.1934315E-005  0.3153994E+04  0.7818608E-02  0.8201074E-01
          2   -1    0    0  501    0  0.00000000000E+00  0.00000000000E+00  0.19295711853E+04  0.19295711853E+04  0.00000000000E+00 0.  1.
         -2   -1    0    0    0  501 -0.00000000000E+00 -0.00000000000E+00 -0.12888457162E+04  0.12888457162E+04  0.00000000000E+00 0. -1.
         23    2    1    2    0    0 -0.82340418688E+03  0.12820250054E+04 -0.88912532764E+02  0.15290518778E+04  0.92258533050E+02 0.  0.
         13    1    3    3    0    0 -0.27018552120E+03  0.45792929881E+03  0.81081911031E+01  0.53175671254E+03  0.00000000000E+00 0. -1.
        -13    1    3    3    0    0 -0.55321866568E+03  0.82409570662E+03 -0.97020723867E+02  0.99729516523E+03  0.00000000000E+00 0.  1.
         22    1    1    2    0    0  0.82340418688E+03 -0.12820250054E+04  0.72963800195E+03  0.16893650237E+04  0.00000000000E+00 0.  1.
<mgrwt>
<rscale>  0 0.31539940E+04</rscale>
<asrwt>0</asrwt>
<pdfrwt beam="1">  1        2 0.29685711E+00 0.31539940E+04</pdfrwt>
<pdfrwt beam="2">  1       -2 0.19828396E+00 0.31539940E+04</pdfrwt>
<totfact> 0.84371536E-01</totfact>
</mgrwt>
</event>
<event>
 6    1  0.1934315E-005  0.3745168E+04  0.7818608E-02  0.8058025E-01
         -2   -1    0    0    0  501 -0.00000000000E+00  0.00000000000E+00  0.17253114741E+04  0.17253114741E+04  0.00000000000E+00 0. -1.
          2   -1    0    0  501    0  0.00000000000E+00 -0.00000000000E+00 -0.20324276323E+04  0.20324276323E+04  0.00000000000E+00 0.  1.
         23    2    1    2    0    0 -0.14397159525E+04  0.75601689257E+03 -0.10832109556E+04  0.19558881968E+04  0.88369102738E+02 0.  0.
         13    1    3    3    0    0 -0.75275840877E+03  0.34544713783E+03 -0.55351539609E+03  0.99617179278E+03  0.00000000000E+00 0. -1.
        -13    1    3    3    0    0 -0.68695754374E+03  0.41056975474E+03 -0.52969555952E+03  0.95971640404E+03  0.00000000000E+00 0.  1.
         22    1    1    2    0    0  0.14397159525E+04 -0.75601689257E+03  0.77609479739E+03  0.18018509096E+04  0.00000000000E+00 0. -1.
<mgrwt>
<rscale>  0 0.37451679E+04</rscale>
<asrwt>0</asrwt>
<pdfrwt beam="1">  1        2 0.31268117E+00 0.37451679E+04</pdfrwt>
<pdfrwt beam="2">  1       -2 0.26543254E+00 0.37451679E+04</pdfrwt>
<totfact> 0.26681306E-01</totfact>
</mgrwt>
</event>
<event>
 6    1  0.1934315E-005  0.3149562E+04  0.7818608E-02  0.8202266E-01
         -2   -1    0    0    0  501 -0.00000000000E+00  0.00000000000E+00  0.16845944157E+04  0.16845944157E+04  0.00000000000E+00 0. -1.
          2   -1    0    0  501    0  0.00000000000E+00 -0.00000000000E+00 -0.14721262280E+04  0.14721262280E+04  0.00000000000E+00 0.  1.
         23    2    1    2    0    0  0.71095962942E+03  0.98311132989E+03 -0.89774151668E+03  0.15121729644E+04  0.93572228491E+02 0.  0.
         11    1    3    3    0    0  0.21482709152E+03  0.25072443951E+03 -0.20547749650E+03  0.38888870565E+03  0.00000000000E+00 0.  1.
        -11    1    3    3    0    0  0.49613253790E+03  0.73238689038E+03 -0.69226402018E+03  0.11232842588E+04  0.00000000000E+00 0. -1.
         22    1    1    2    0    0 -0.71095962942E+03 -0.98311132989E+03  0.11102097044E+04  0.16445476792E+04  0.00000000000E+00 0. -1.
<mgrwt>
<rscale>  0 0.31495623E+04</rscale>
<asrwt>0</asrwt>
<pdfrwt beam="1">  1        2 0.22648096E+00 0.31495623E+04</pdfrwt>
<pdfrwt beam="2">  1       -2 0.25916837E+00 0.31495623E+04</pdfrwt>
<totfact> 0.62833911E-01</totfact>
</mgrwt>
</event>
<event>
 6    1  0.1934315E-005  0.1865901E+04  0.7818608E-02  0.8672018E-01
         -2   -1    0    0    0  501 -0.00000000000E+00  0.00000000000E+00  0.47928627267E+03  0.47928627267E+03  0.00000000000E+00 0. -1.
          2   -1    0    0  501    0  0.00000000000E+00 -0.00000000000E+00 -0.18160272408E+04  0.18160272408E+04  0.00000000000E+00 0.  1.
         23    2    1    2    0    0  0.36013437906E+03 -0.57424282285E+03 -0.14547218831E+04  0.16072938285E+04  0.87898256428E+02 0.  0.
         11    1    3    3    0    0  0.14708833999E+03 -0.17743237301E+03 -0.42734506963E+03  0.48553170369E+03  0.00000000000E+00 0.  1.
        -11    1    3    3    0    0  0.21304603908E+03 -0.39681044983E+03 -0.10273768135E+04  0.11217621248E+04  0.00000000000E+00 0. -1.
         22    1    1    2    0    0 -0.36013437906E+03  0.57424282285E+03  0.11798091497E+03  0.68801968494E+03  0.00000000000E+00 0. -1.
<mgrwt>
<rscale>  0 0.18659013E+04</rscale>
<asrwt>0</asrwt>
<pdfrwt beam="1">  1        2 0.27938881E+00 0.18659013E+04</pdfrwt>
<pdfrwt beam="2">  1       -2 0.73736349E-01 0.18659013E+04</pdfrwt>
<totfact> 0.13162212E+01</totfact>
</mgrwt>
</event>
<event>
 6    1  0.2578512E-005  0.3292577E+04  0.7818608E-02  0.8164787E-01
         -2   -1    0    0    0  501 -0.00000000000E+00  0.00000000000E+00  0.19177118829E+04  0.19177118829E+04  0.00000000000E+00 0. -1.
          2   -1    0    0  501    0  0.00000000000E+00 -0.00000000000E+00 -0.14132813517E+04  0.14132813517E+04  0.00000000000E+00 0.  1.
         23    2    1    2    0    0  0.93917537553E+03 -0.86384726791E+03  0.13027759968E+04  0.18257896036E+04  0.89442107645E+02 0.  0.
         13    1    3    3    0    0  0.22420448685E+03 -0.20652989726E+03  0.36736584098E+03  0.47736769005E+03  0.00000000000E+00 0.  1.
        -13    1    3    3    0    0  0.71497088868E+03 -0.65731737065E+03  0.93541015585E+03  0.13484219136E+04  0.00000000000E+00 0. -1.
         22    1    1    2    0    0 -0.93917537553E+03  0.86384726791E+03 -0.79834546557E+03  0.15052036310E+04  0.00000000000E+00 0.  1.
<mgrwt>
<rscale>  0 0.32925774E+04</rscale>
<asrwt>0</asrwt>
<pdfrwt beam="1">  1        2 0.21742790E+00 0.32925774E+04</pdfrwt>
<pdfrwt beam="2">  1       -2 0.29503260E+00 0.32925774E+04</pdfrwt>
<totfact> 0.40504063E-01</totfact>
</mgrwt>
</event>
<event>
 6    1  0.1934315E-005  0.1628884E+04  0.7818608E-02  0.8802997E-01
          2   -1    0    0  501    0  0.00000000000E+00  0.00000000000E+00  0.30188706832E+04  0.30188706832E+04  0.00000000000E+00 0.  1.
         -2   -1    0    0    0  501 -0.00000000000E+00 -0.00000000000E+00 -0.21972313073E+03  0.21972313073E+03  0.00000000000E+00 0. -1.
         23    2    1    2    0    0  0.62058244593E+03 -0.42936909335E+03  0.19995681392E+04  0.21391359345E+04  0.90274096333E+02 0.  0.
         13    1    3    3    0    0  0.54803939494E+03 -0.39900670411E+03  0.18473292731E+04  0.19677852961E+04  0.00000000000E+00 0. -1.
        -13    1    3    3    0    0  0.72543050987E+02 -0.30362389236E+02  0.15223886608E+03  0.17135063838E+03  0.00000000000E+00 0.  1.
         22    1    1    2    0    0 -0.62058244593E+03  0.42936909335E+03  0.79957941331E+03  0.10994578795E+04  0.00000000000E+00 0. -1.
<mgrwt>
<rscale>  0 0.16288839E+04</rscale>
<asrwt>0</asrwt>
<pdfrwt beam="1">  1        2 0.46444161E+00 0.16288839E+04</pdfrwt>
<pdfrwt beam="2">  1       -2 0.33803561E-01 0.16288839E+04</pdfrwt>
<totfact> 0.13349178E+01</totfact>
</mgrwt>
</event>
<event>
 6    1  0.1934315E-005  0.1304782E+04  0.7818608E-02  0.9025781E-01
          2   -1    0    0  501    0  0.00000000000E+00  0.00000000000E+00  0.20899051490E+03  0.20899051490E+03  0.00000000000E+00 0.  1.
         -2   -1    0    0    0  501 -0.00000000000E+00 -0.00000000000E+00 -0.20365234441E+04  0.20365234441E+04  0.00000000000E+00 0. -1.
         23    2    1    2    0    0  0.30217039792E+03  0.37235537219E+03 -0.16717885430E+04  0.17413197639E+04  0.85802767984E+02 0.  0.
         13    1    3    3    0    0  0.10698937046E+03  0.90345484130E+02 -0.59381304567E+03  0.61010078274E+03  0.00000000000E+00 0. -1.
        -13    1    3    3    0    0  0.19518102746E+03  0.28200988806E+03 -0.10779754974E+04  0.11312189812E+04  0.00000000000E+00 0.  1.
         22    1    1    2    0    0 -0.30217039792E+03 -0.37235537219E+03 -0.15574438620E+03  0.50419419514E+03  0.00000000000E+00 0.  1.
<mgrwt>
<rscale>  0 0.13047821E+04</rscale>
<asrwt>0</asrwt>
<pdfrwt beam="1">  1        2 0.32152386E-01 0.13047821E+04</pdfrwt>
<pdfrwt beam="2">  1       -2 0.31331131E+00 0.13047821E+04</pdfrwt>
<totfact> 0.42801753E+00</totfact>
</mgrwt>
</event>
<event>
 6    1  0.1934315E-005  0.2488911E+04  0.7818608E-02  0.8406947E-01
         -2   -1    0    0    0  501 -0.00000000000E+00  0.00000000000E+00  0.11817461647E+04  0.11817461647E+04  0.00000000000E+00 0. -1.
          2   -1    0    0  501    0  0.00000000000E+00 -0.00000000000E+00 -0.13104922707E+04  0.13104922707E+04  0.00000000000E+00 0.  1.
         23    2    1    2    0    0  0.99614369396E+03  0.33614008418E+03  0.59917231170E+03  0.12135056104E+04  0.91082336626E+02 0.  0.
         13    1    3    3    0    0  0.29103620271E+03  0.10602701766E+03  0.22441261507E+03  0.38249813276E+03  0.00000000000E+00 0. -1.
        -13    1    3    3    0    0  0.70510749125E+03  0.23011306652E+03  0.37475969663E+03  0.83100747760E+03  0.00000000000E+00 0.  1.
         22    1    1    2    0    0 -0.99614369396E+03 -0.33614008418E+03 -0.72791841771E+03  0.12787328251E+04  0.00000000000E+00 0.  1.
<mgrwt>
<rscale>  0 0.24889108E+04</rscale>
<asrwt>0</asrwt>
<pdfrwt beam="1">  1        2 0.20161420E+00 0.24889108E+04</pdfrwt>
<pdfrwt beam="2">  1       -2 0.18180710E+00 0.24889108E+04</pdfrwt>
<totfact> 0.25640359E+00</totfact>
</mgrwt>
</event>
<event>
 6    1  0.1934315E-005  0.2472986E+04  0.7818608E-02  0.8412673E-01
          1   -1    0    0  501    0  0.00000000000E+00  0.00000000000E+00  0.13734378488E+04  0.13734378488E+04  0.00000000000E+00 0.  1.
         -1   -1    0    0    0  501 -0.00000000000E+00 -0.00000000000E+00 -0.11132031622E+04  0.11132031622E+04  0.00000000000E+00 0. -1.
         23    2    1    2    0    0  0.94854840831E+03 -0.27102865571E+03 -0.61665018934E+03  0.11667441587E+04  0.88509099468E+02 0.  0.
         11    1    3    3    0    0  0.59446980189E+03 -0.15609736268E+03 -0.43157747466E+03  0.75101254892E+03  0.00000000000E+00 0. -1.
        -11    1    3    3    0    0  0.35407860642E+03 -0.11493129304E+03 -0.18507271468E+03  0.41573160977E+03  0.00000000000E+00 0.  1.
         22    1    1    2    0    0 -0.94854840831E+03  0.27102865571E+03  0.87688487595E+03  0.13198968523E+04  0.00000000000E+00 0.  1.
<mgrwt>
<rscale>  0 0.24729863E+04</rscale>
<asrwt>0</asrwt>
<pdfrwt beam="1">  1        1 0.21129813E+00 0.24729863E+04</pdfrwt>
<pdfrwt beam="2">  1       -1 0.17126202E+00 0.24729863E+04</pdfrwt>
<totfact> 0.17205575E+00</totfact>
</mgrwt>
</event>
<event>
 6    1  0.1934315E-005  0.1323787E+04  0.7818608E-02  0.9010912E-01
         -2   -1    0    0    0  501 -0.00000000000E+00  0.00000000000E+00  0.48230044626E+03  0.48230044626E+03  0.00000000000E+00 0. -1.
          2   -1    0    0  501    0  0.00000000000E+00 -0.00000000000E+00 -0.90836106448E+03  0.90836106448E+03  0.00000000000E+00 0.  1.
         23    2    1    2    0    0  0.50745488604E+03 -0.30437757251E+03  0.89914380020E+02  0.60555873605E+03  0.91981623466E+02 0.  0.
         13    1    3    3    0    0  0.20002980831E+03 -0.15210646599E+03  0.15748957299E+01  0.25129819241E+03  0.00000000000E+00 0.  1.
        -13    1    3    3    0    0  0.30742507773E+03 -0.15227110652E+03  0.88339484290E+02  0.35426054364E+03  0.00000000000E+00 0. -1.
         22    1    1    2    0    0 -0.50745488604E+03  0.30437757251E+03 -0.51597499824E+03  0.78510277469E+03  0.00000000000E+00 0.  1.
<mgrwt>
<rscale>  0 0.13237869E+04</rscale>
<asrwt>0</asrwt>
<pdfrwt beam="1">  1        2 0.13974786E+00 0.13237869E+04</pdfrwt>
<pdfrwt beam="2">  1       -2 0.74200069E-01 0.13237869E+04</pdfrwt>
<totfact> 0.46328380E+01</totfact>
</mgrwt>
</event>
<event>
 6    1  0.1934315E-005  0.5795925E+04  0.7818608E-02  0.7716233E-01
         -2   -1    0    0    0  501 -0.00000000000E+00  0.00000000000E+00  0.29220996596E+04  0.29220996596E+04  0.00000000000E+00 0. -1.
          2   -1    0    0  501    0  0.00000000000E+00 -0.00000000000E+00 -0.28740245274E+04  0.28740245274E+04  0.00000000000E+00 0.  1.
         23    2    1    2    0    0 -0.27172097890E+04 -0.64885838268E+03  0.79207138815E+03  0.29051422315E+04  0.90708672441E+02 0.  0.
         11    1    3    3    0    0 -0.24597569396E+04 -0.56698195715E+03  0.69661138522E+03  0.26186141685E+04  0.00000000000E+00 0. -1.
        -11    1    3    3    0    0 -0.25745284947E+03 -0.81876425535E+02  0.95460002936E+02  0.28652806305E+03  0.00000000000E+00 0.  1.
         22    1    1    2    0    0  0.27172097890E+04  0.64885838268E+03 -0.74399625596E+03  0.28909819555E+04  0.00000000000E+00 0.  1.
<mgrwt>
<rscale>  0 0.57959248E+04</rscale>
<asrwt>0</asrwt>
<pdfrwt beam="1">  1        2 0.44215762E+00 0.57959248E+04</pdfrwt>
<pdfrwt beam="2">  1       -2 0.44955379E+00 0.57959248E+04</pdfrwt>
<totfact> 0.50012894E-03</totfact>
</mgrwt>
</event>
<event>
 6    1  0.1934315E-005  0.4516420E+04  0.7818608E-02  0.7907768E-01
          2   -1    0    0  501    0  0.00000000000E+00  0.00000000000E+00  0.33837903797E+04  0.33837903797E+04  0.00000000000E+00 0.  1.
         -2   -1    0    0    0  501 -0.00000000000E+00 -0.00000000000E+00 -0.15070413783E+04  0.15070413783E+04  0.00000000000E+00 0. -1.
         23    2    1    2    0    0 -0.11732244942E+04  0.18362335478E+04  0.15767626629E+04  0.26912406235E+04  0.91576430686E+02 0.  0.
         13    1    3    3    0    0 -0.92906663818E+03  0.14284456292E+04  0.12756554505E+04  0.21285954435E+04  0.00000000000E+00 0. -1.
        -13    1    3    3    0    0 -0.24415785601E+03  0.40778791856E+03  0.30110721236E+03  0.56264517994E+03  0.00000000000E+00 0.  1.
         22    1    1    2    0    0  0.11732244942E+04 -0.18362335478E+04  0.29998633846E+03  0.21995911345E+04  0.00000000000E+00 0. -1.
<mgrwt>
<rscale>  0 0.45164199E+04</rscale>
<asrwt>0</asrwt>
<pdfrwt beam="1">  1        2 0.52058313E+00 0.45164199E+04</pdfrwt>
<pdfrwt beam="2">  1       -2 0.23185252E+00 0.45164199E+04</pdfrwt>
<totfact> 0.61513928E-02</totfact>
</mgrwt>
</event>
<event>
 6    1  0.1934315E-005  0.4340378E+04  0.7818608E-02  0.7939194E-01
          2   -1    0    0  501    0  0.00000000000E+00  0.00000000000E+00  0.16659948144E+04  0.16659948144E+04  0.00000000000E+00 0.  1.
         -2   -1    0    0    0  501 -0.00000000000E+00 -0.00000000000E+00 -0.28269721688E+04  0.28269721688E+04  0.00000000000E+00 0. -1.
         23    2    1    2    0    0  0.11470306984E+04  0.40009920925E+03  0.12795639011E+04  0.17667974323E+04  0.92361190230E+02 0.  0.
         11    1    3    3    0    0  0.62250493422E+03  0.26105905052E+03  0.68071897531E+03  0.95866706647E+03  0.00000000000E+00 0. -1.
        -11    1    3    3    0    0  0.52452576419E+03  0.13904015872E+03  0.59884492577E+03  0.80813036582E+03  0.00000000000E+00 0.  1.
         22    1    1    2    0    0 -0.11470306984E+04 -0.40009920925E+03 -0.24405412555E+04  0.27261695509E+04  0.00000000000E+00 0. -1.
<mgrwt>
<rscale>  0 0.43403783E+04</rscale>
<asrwt>0</asrwt>
<pdfrwt beam="1">  1        2 0.25630690E+00 0.43403783E+04</pdfrwt>
<pdfrwt beam="2">  1       -2 0.43491879E+00 0.43403783E+04</pdfrwt>
<totfact> 0.34360625E-02</totfact>
</mgrwt>
</event>
<event>
 6    1  0.1934315E-005  0.1832958E+04  0.7818608E-02  0.8688966E-01
         -2   -1    0    0    0  501 -0.00000000000E+00  0.00000000000E+00  0.78085591530E+03  0.78085591530E+03  0.00000000000E+00 0. -1.
          2   -1    0    0  501    0  0.00000000000E+00 -0.00000000000E+00 -0.10756582455E+04  0.10756582455E+04  0.00000000000E+00 0.  1.
         23    2    1    2    0    0  0.70639875536E+03 -0.54213074623E+03 -0.35711502312E+03  0.96388443954E+03  0.92936136567E+02 0.  0.
         13    1    3    3    0    0  0.27642418604E+03 -0.26592175815E+03 -0.13465989910E+03  0.40651937286E+03  0.00000000000E+00 0. -1.
        -13    1    3    3    0    0  0.42997456932E+03 -0.27620898808E+03 -0.22245512402E+03  0.55736506669E+03  0.00000000000E+00 0.  1.
         22    1    1    2    0    0 -0.70639875536E+03  0.54213074623E+03  0.62312692927E+02  0.89262972126E+03  0.00000000000E+00 0. -1.
<mgrwt>
<rscale>  0 0.18329584E+04</rscale>
<asrwt>0</asrwt>
<pdfrwt beam="1">  1        2 0.16548588E+00 0.18329584E+04</pdfrwt>
<pdfrwt beam="2">  1       -2 0.12013168E+00 0.18329584E+04</pdfrwt>
<totfact> 0.11248894E+01</totfact>
</mgrwt>
</event>
<event>
 6    1  0.1934315E-005  0.2484580E+04  0.7818608E-02  0.8408500E-01
         -1   -1    0    0    0  501 -0.00000000000E+00  0.00000000000E+00  0.93408393103E+03  0.93408393103E+03  0.00000000000E+00 0. -1.
          1   -1    0    0  501    0  0.00000000000E+00 -0.00000000000E+00 -0.16521906204E+04  0.16521906204E+04  0.00000000000E+00 0.  1.
         23    2    1    2    0    0  0.14247483826E+03 -0.68826801453E+03  0.70329710427E+03  0.10005883643E+04  0.11197463365E+03 0.  0.
         11    1    3    3    0    0  0.76525156796E+02 -0.56997510422E+03  0.54567663704E+03  0.79277406067E+03  0.00000000000E+00 0.  1.
        -11    1    3    3    0    0  0.65949681460E+02 -0.11829291031E+03  0.15762046723E+03  0.20781430366E+03  0.00000000000E+00 0. -1.
         22    1    1    2    0    0 -0.14247483826E+03  0.68826801453E+03 -0.14214037936E+04  0.15856861871E+04  0.00000000000E+00 0.  1.
<mgrwt>
<rscale>  0 0.24845802E+04</rscale>
<asrwt>0</asrwt>
<pdfrwt beam="1">  1        1 0.25418317E+00 0.24845802E+04</pdfrwt>
<pdfrwt beam="2">  1       -1 0.14370522E+00 0.24845802E+04</pdfrwt>
<totfact> 0.17886487E+00</totfact>
</mgrwt>
</event>
<event>
 6    1  0.1934315E-005  0.2149267E+04  0.7818608E-02  0.8539846E-01
          2   -1    0    0  501    0  0.00000000000E+00  0.00000000000E+00  0.15643117028E+04  0.15643117028E+04  0.00000000000E+00 0.  1.
         -2   -1    0    0    0  501 -0.00000000000E+00 -0.00000000000E+00 -0.73823948346E+03  0.73823948346E+03  0.00000000000E+00 0. -1.
         23    2    1    2    0    0  0.41319928540E+03 -0.98569204049E+03  0.51123326258E+03  0.11883492222E+04  0.92151922854E+02 0.  0.
         11    1    3    3    0    0  0.18392471921E+03 -0.38458081255E+03  0.24831989135E+03  0.49334923954E+03  0.00000000000E+00 0.  1.
        -11    1    3    3    0    0  0.22927456619E+03 -0.60111122794E+03  0.26291337123E+03  0.69499998261E+03  0.00000000000E+00 0. -1.
         22    1    1    2    0    0 -0.41319928540E+03  0.98569204049E+03  0.31483895677E+03  0.11142019641E+04  0.00000000000E+00 0. -1.
<mgrwt>
<rscale>  0 0.21492665E+04</rscale>
<asrwt>0</asrwt>
<pdfrwt beam="1">  1        2 0.24066334E+00 0.21492665E+04</pdfrwt>
<pdfrwt beam="2">  1       -2 0.11357531E+00 0.21492665E+04</pdfrwt>
<totfact> 0.65163049E+00</totfact>
</mgrwt>
</event>
<event>
 6    1  0.1934315E-005  0.3128623E+04  0.7818608E-02  0.8207926E-01
          2   -1    0    0  501    0  0.00000000000E+00  0.00000000000E+00  0.16375690232E+04  0.16375690232E+04  0.00000000000E+00 0.  1.
         -2   -1    0    0    0  501 -0.00000000000E+00 -0.00000000000E+00 -0.14943314706E+04  0.14943314706E+04  0.00000000000E+00 0. -1.
         23    2    1    2    0    0  0.59732746133E+03  0.77719120723E+03 -0.11470173224E+04  0.15115351303E+04  0.90903486093E+02 0.  0.
         11    1    3    3    0    0  0.45452089198E+03  0.53405977344E+03 -0.78427699677E+03  0.10520929096E+04  0.00000000000E+00 0. -1.
        -11    1    3    3    0    0  0.14280656935E+03  0.24313143379E+03 -0.36274032558E+03  0.45944222068E+03  0.00000000000E+00 0.  1.
         22    1    1    2    0    0 -0.59732746133E+03 -0.77719120723E+03  0.12902548750E+04  0.16203653635E+04  0.00000000000E+00 0.  1.
<mgrwt>
<rscale>  0 0.31286233E+04</rscale>
<asrwt>0</asrwt>
<pdfrwt beam="1">  1        2 0.25193369E+00 0.31286233E+04</pdfrwt>
<pdfrwt beam="2">  1       -2 0.22989715E+00 0.31286233E+04</pdfrwt>
<totfact> 0.77067122E-01</totfact>
</mgrwt>
</event>
<event>
 6    1  0.1934315E-005  0.3056720E+04  0.7818608E-02  0.8227717E-01
         -2   -1    0    0    0  501 -0.00000000000E+00  0.00000000000E+00  0.11151533560E+04  0.11151533560E+04  0.00000000000E+00 0. -1.
          2   -1    0    0  501    0  0.00000000000E+00 -0.00000000000E+00 -0.20946751288E+04  0.20946751288E+04  0.00000000000E+00 0.  1.
         23    2    1    2    0    0 -0.13002206317E+04  0.79966148426E+03 -0.44562798786E+03  0.15927092084E+04  0.90034095761E+02 0.  0.
         11    1    3    3    0    0 -0.78587303013E+03  0.46317069823E+03 -0.22373740684E+03  0.93924541116E+03  0.00000000000E+00 0. -1.
        -11    1    3    3    0    0 -0.51434760158E+03  0.33649078603E+03 -0.22189058102E+03  0.65346379722E+03  0.00000000000E+00 0.  1.
         22    1    1    2    0    0  0.13002206317E+04 -0.79966148426E+03 -0.53389378500E+03  0.16171192764E+04  0.00000000000E+00 0. -1.
<mgrwt>
<rscale>  0 0.30567198E+04</rscale>
<asrwt>0</asrwt>
<pdfrwt beam="1">  1        2 0.32225771E+00 0.30567198E+04</pdfrwt>
<pdfrwt beam="2">  1       -2 0.17156206E+00 0.30567198E+04</pdfrwt>
<totfact> 0.10473417E+00</totfact>
</mgrwt>
</event>
<event>
 6    1  0.1934315E-005  0.2308929E+04  0.7818608E-02  0.8474409E-01
          2   -1    0    0  501    0  0.00000000000E+00  0.00000000000E+00  0.21807288111E+04  0.21807288111E+04  0.00000000000E+00 0.  1.
         -2   -1    0    0    0  501 -0.00000000000E+00 -0.00000000000E+00 -0.61116627606E+03  0.61116627606E+03  0.00000000000E+00 0. -1.
         23    2    1    2    0    0 -0.27083972423E+03  0.10587009407E+04  0.34251126386E+03  0.11487710322E+04  0.90327628089E+02 0.  0.
         13    1    3    3    0    0 -0.24689079082E+03  0.89041804385E+03  0.26043107100E+03  0.96001234271E+03  0.00000000000E+00 0. -1.
        -13    1    3    3    0    0 -0.23948933404E+02  0.16828289685E+03  0.82080192862E+02  0.18875868945E+03  0.00000000000E+00 0.  1.
         22    1    1    2    0    0  0.27083972423E+03 -0.10587009407E+04  0.12270512712E+04  0.16431240550E+04  0.00000000000E+00 0.  1.
<mgrwt>
<rscale>  0 0.23089287E+04</rscale>
<asrwt>0</asrwt>
<pdfrwt beam="1">  1        2 0.33549674E+00 0.23089287E+04</pdfrwt>
<pdfrwt beam="2">  1       -2 0.94025582E-01 0.23089287E+04</pdfrwt>
<totfact> 0.45787127E+00</totfact>
</mgrwt>
</event>
<event>
 6    1  0.1934315E-005  0.8825550E+03  0.7818608E-02  0.9447655E-01
         -2   -1    0    0    0  501 -0.00000000000E+00  0.00000000000E+00  0.26745436638E+03  0.26745436638E+03  0.00000000000E+00 0. -1.
          2   -1    0    0  501    0  0.00000000000E+00 -0.00000000000E+00 -0.72807121857E+03  0.72807121857E+03  0.00000000000E+00 0.  1.
         23    2    1    2    0    0 -0.36970282678E+03 -0.22304180319E+03 -0.15653125102E+03  0.46741964962E+03  0.86898044911E+02 0.  0.
         11    1    3    3    0    0 -0.14126924348E+03 -0.51227069625E+02 -0.85494658727E+02  0.17288883274E+03  0.00000000000E+00 0. -1.
        -11    1    3    3    0    0 -0.22843358330E+03 -0.17181473356E+03 -0.71036592297E+02  0.29453081688E+03  0.00000000000E+00 0.  1.
         22    1    1    2    0    0  0.36970282678E+03  0.22304180319E+03 -0.30408560116E+03  0.52810593533E+03  0.00000000000E+00 0.  1.
<mgrwt>
<rscale>  0 0.88255499E+03</rscale>
<asrwt>0</asrwt>
<pdfrwt beam="1">  1        2 0.11201095E+00 0.88255499E+03</pdfrwt>
<pdfrwt beam="2">  1       -2 0.41146826E-01 0.88255499E+03</pdfrwt>
<totfact> 0.21868914E+02</totfact>
</mgrwt>
</event>
<event>
 6    1  0.1934315E-005  0.2125166E+04  0.7818608E-02  0.8550238E-01
          1   -1    0    0  501    0  0.00000000000E+00  0.00000000000E+00  0.70068792667E+03  0.70068792667E+03  0.00000000000E+00 0.  1.
         -1   -1    0    0    0  501 -0.00000000000E+00 -0.00000000000E+00 -0.16113918979E+04  0.16113918979E+04  0.00000000000E+00 0. -1.
         23    2    1    2    0    0  0.40318546771E+03 -0.32732259559E+03  0.54996279181E+03  0.76183919951E+03  0.90781554225E+02 0.  0.
         11    1    3    3    0    0  0.15373223272E+03 -0.72672595411E+02  0.19599145372E+03  0.25947553918E+03  0.00000000000E+00 0.  1.
        -11    1    3    3    0    0  0.24945323499E+03 -0.25465000018E+03  0.35397133809E+03  0.50236366034E+03  0.00000000000E+00 0. -1.
         22    1    1    2    0    0 -0.40318546771E+03  0.32732259559E+03 -0.14606667630E+04  0.15502406250E+04  0.00000000000E+00 0. -1.
<mgrwt>
<rscale>  0 0.21251662E+04</rscale>
<asrwt>0</asrwt>
<pdfrwt beam="1">  1        1 0.10779814E+00 0.21251662E+04</pdfrwt>
<pdfrwt beam="2">  1       -1 0.24790644E+00 0.21251662E+04</pdfrwt>
<totfact> 0.17961276E+00</totfact>
</mgrwt>
</event>
<event>
 6    1  0.1934315E-005  0.2343590E+04  0.7818608E-02  0.8460930E-01
         -2   -1    0    0    0  501 -0.00000000000E+00  0.00000000000E+00  0.87839129552E+03  0.87839129552E+03  0.00000000000E+00 0. -1.
          2   -1    0    0  501    0  0.00000000000E+00 -0.00000000000E+00 -0.15632032114E+04  0.15632032114E+04  0.00000000000E+00 0.  1.
         23    2    1    2    0    0  0.24939618098E+03 -0.44329201812E+03 -0.14406663723E+04  0.15305389500E+04  0.91233836871E+02 0.  0.
         11    1    3    3    0    0  0.12430554886E+03 -0.26768472811E+03 -0.71496910283E+03  0.77349066003E+03  0.00000000000E+00 0.  1.
        -11    1    3    3    0    0  0.12509063211E+03 -0.17560729001E+03 -0.72569726943E+03  0.75704829000E+03  0.00000000000E+00 0. -1.
         22    1    1    2    0    0 -0.24939618098E+03  0.44329201812E+03  0.75585445640E+03  0.91105555686E+03  0.00000000000E+00 0. -1.
<mgrwt>
<rscale>  0 0.23435905E+04</rscale>
<asrwt>0</asrwt>
<pdfrwt beam="1">  1        2 0.24049280E+00 0.23435905E+04</pdfrwt>
<pdfrwt beam="2">  1       -2 0.13513712E+00 0.23435905E+04</pdfrwt>
<totfact> 0.41578566E+00</totfact>
</mgrwt>
</event>
<event>
 6    1  0.1934315E-005  0.2412493E+04  0.7818608E-02  0.8434841E-01
          2   -1    0    0  501    0  0.00000000000E+00  0.00000000000E+00  0.11252976573E+04  0.11252976573E+04  0.00000000000E+00 0. -1.
         -2   -1    0    0    0  501 -0.00000000000E+00 -0.00000000000E+00 -0.12930181581E+04  0.12930181581E+04  0.00000000000E+00 0.  1.
         23    2    1    2    0    0  0.13217446001E+03 -0.11253840291E+04 -0.49460353096E+03  0.12389889666E+04  0.80633155658E+02 0.  0.
         11    1    3    3    0    0  0.56639296927E+02 -0.36262397638E+03 -0.12228221965E+03  0.38685539863E+03  0.00000000000E+00 0. -1.
        -11    1    3    3    0    0  0.75535163079E+02 -0.76276005273E+03 -0.37232131131E+03  0.85213356802E+03  0.00000000000E+00 0.  1.
         22    1    1    2    0    0 -0.13217446001E+03  0.11253840291E+04  0.32688303009E+03  0.11793268488E+04  0.00000000000E+00 0.  1.
<mgrwt>
<rscale>  0 0.24124927E+04</rscale>
<asrwt>0</asrwt>
<pdfrwt beam="1">  1        2 0.17312272E+00 0.24124927E+04</pdfrwt>
<pdfrwt beam="2">  1       -2 0.19892587E+00 0.24124927E+04</pdfrwt>
<totfact> 0.25522439E+00</totfact>
</mgrwt>
</event>
<event>
 6    1  0.1934315E-005  0.1882090E+04  0.7818608E-02  0.8663823E-01
         -2   -1    0    0    0  501 -0.00000000000E+00  0.00000000000E+00  0.36225450950E+03  0.36225450950E+03  0.00000000000E+00 0. -1.
          2   -1    0    0  501    0  0.00000000000E+00 -0.00000000000E+00 -0.24445946169E+04  0.24445946169E+04  0.00000000000E+00 0.  1.
         23    2    1    2    0    0  0.13733537722E+03  0.84187704038E+03 -0.45886133861E+03  0.97291857437E+03  0.91645334424E+02 0.  0.
         11    1    3    3    0    0  0.77112230138E+02  0.36678963438E+03 -0.15391471301E+03  0.40517980058E+03  0.00000000000E+00 0. -1.
        -11    1    3    3    0    0  0.60223147085E+02  0.47508740601E+03 -0.30494662560E+03  0.56773877378E+03  0.00000000000E+00 0.  1.
         22    1    1    2    0    0 -0.13733537722E+03 -0.84187704038E+03 -0.16234787688E+04  0.18339305521E+04  0.00000000000E+00 0.  1.
<mgrwt>
<rscale>  0 0.18820897E+04</rscale>
<asrwt>0</asrwt>
<pdfrwt beam="1">  1        2 0.37609148E+00 0.18820897E+04</pdfrwt>
<pdfrwt beam="2">  1       -2 0.55731463E-01 0.18820897E+04</pdfrwt>
<totfact> 0.10638497E+01</totfact>
</mgrwt>
</event>
<event>
 6    1  0.1934315E-005  0.1194811E+04  0.7818608E-02  0.9117411E-01
          2   -1    0    0  501    0  0.00000000000E+00  0.00000000000E+00  0.25631671931E+04  0.25631671931E+04  0.00000000000E+00 0.  1.
         -2   -1    0    0    0  501 -0.00000000000E+00 -0.00000000000E+00 -0.13923911483E+03  0.13923911483E+03  0.00000000000E+00 0. -1.
         23    2    1    2    0    0  0.50092770436E+02 -0.38998862385E+03  0.22257623446E+04  0.22620995167E+04  0.92064090253E+02 0.  0.
         13    1    3    3    0    0  0.62290653461E+02 -0.16997601052E+03  0.88146473080E+03  0.89986223463E+03  0.00000000000E+00 0. -1.
        -13    1    3    3    0    0 -0.12197883026E+02 -0.22001261332E+03  0.13442976138E+04  0.13622372821E+04  0.00000000000E+00 0.  1.
         22    1    1    2    0    0 -0.50092770436E+02  0.38998862385E+03  0.19816573373E+03  0.44030679123E+03  0.00000000000E+00 0. -1.
<mgrwt>
<rscale>  0 0.11948107E+04</rscale>
<asrwt>0</asrwt>
<pdfrwt beam="1">  1        2 0.39433338E+00 0.11948107E+04</pdfrwt>
<pdfrwt beam="2">  1       -2 0.21421404E-01 0.11948107E+04</pdfrwt>
<totfact> 0.60212683E+01</totfact>
</mgrwt>
</event>
<event>
 6    1  0.1934315E-005  0.1108903E+04  0.7818608E-02  0.9196558E-01
         -2   -1    0    0    0  501 -0.00000000000E+00  0.00000000000E+00  0.39271798872E+03  0.39271798872E+03  0.00000000000E+00 0. -1.
          2   -1    0    0  501    0  0.00000000000E+00 -0.00000000000E+00 -0.78279135957E+03  0.78279135957E+03  0.00000000000E+00 0.  1.
         23    2    1    2    0    0 -0.29811995826E+03 -0.46036670429E+02  0.29217437769E+03  0.42954897740E+03  0.90286059111E+02 0.  0.
         11    1    3    3    0    0 -0.24244178718E+03 -0.33874468571E+01  0.24702747445E+03  0.34613879890E+03  0.00000000000E+00 0.  1.
        -11    1    3    3    0    0 -0.55678171085E+02 -0.42649223572E+02  0.45146903240E+02  0.83410178508E+02  0.00000000000E+00 0. -1.
         22    1    1    2    0    0  0.29811995826E+03  0.46036670429E+02 -0.68224774854E+03  0.74596037088E+03  0.00000000000E+00 0.  1.
<mgrwt>
<rscale>  0 0.11089026E+04</rscale>
<asrwt>0</asrwt>
<pdfrwt beam="1">  1        2 0.12042944E+00 0.11089026E+04</pdfrwt>
<pdfrwt beam="2">  1       -2 0.60418152E-01 0.11089026E+04</pdfrwt>
<totfact> 0.89825249E+01</totfact>
</mgrwt>
</event>
<event>
 6    1  0.1934315E-005  0.3597297E+04  0.7818608E-02  0.8091111E-01
         -2   -1    0    0    0  501 -0.00000000000E+00  0.00000000000E+00  0.17608042152E+04  0.17608042152E+04  0.00000000000E+00 0. -1.
          2   -1    0    0  501    0  0.00000000000E+00 -0.00000000000E+00 -0.18373058797E+04  0.18373058797E+04  0.00000000000E+00 0.  1.
         23    2    1    2    0    0  0.10115589154E+04 -0.96923167002E+03  0.10881894486E+04  0.17762520163E+04  0.90848666393E+02 0.  0.
         13    1    3    3    0    0  0.85309886191E+03 -0.80414660115E+03  0.86827574685E+03  0.14588804601E+04  0.00000000000E+00 0.  1.
        -13    1    3    3    0    0  0.15846005347E+03 -0.16508506887E+03  0.21991370171E+03  0.31737155624E+03  0.00000000000E+00 0. -1.
         22    1    1    2    0    0 -0.10115589154E+04  0.96923167002E+03 -0.11646911131E+04  0.18218580785E+04  0.00000000000E+00 0.  1.
<mgrwt>
<rscale>  0 0.35972967E+04</rscale>
<asrwt>0</asrwt>
<pdfrwt beam="1">  1        2 0.28266244E+00 0.35972967E+04</pdfrwt>
<pdfrwt beam="2">  1       -2 0.27089296E+00 0.35972967E+04</pdfrwt>
<totfact> 0.32100842E-01</totfact>
</mgrwt>
</event>
<event>
 6    1  0.1934315E-005  0.2561759E+04  0.7818608E-02  0.8381308E-01
         -2   -1    0    0    0  501 -0.00000000000E+00  0.00000000000E+00  0.17045366792E+04  0.17045366792E+04  0.00000000000E+00 0. -1.
          2   -1    0    0  501    0  0.00000000000E+00 -0.00000000000E+00 -0.96252092353E+03  0.96252092353E+03  0.00000000000E+00 0.  1.
         23    2    1    2    0    0 -0.18872268597E+02  0.10236912108E+04  0.11698925355E+04  0.15573826971E+04  0.92154560784E+02 0.  0.
         11    1    3    3    0    0 -0.90481270110E+01  0.99223626499E+02  0.77160065272E+02  0.12601933316E+03  0.00000000000E+00 0.  1.
        -11    1    3    3    0    0 -0.98241415864E+01  0.92446758427E+03  0.10927324702E+04  0.14313633639E+04  0.00000000000E+00 0. -1.
         22    1    1    2    0    0  0.18872268597E+02 -0.10236912108E+04 -0.42787677981E+03  0.11096749056E+04  0.00000000000E+00 0.  1.
<mgrwt>
<rscale>  0 0.25617589E+04</rscale>
<asrwt>0</asrwt>
<pdfrwt beam="1">  1        2 0.14808014E+00 0.25617589E+04</pdfrwt>
<pdfrwt beam="2">  1       -2 0.26223641E+00 0.25617589E+04</pdfrwt>
<totfact> 0.12779114E+00</totfact>
</mgrwt>
</event>
<event>
 6    1  0.1934315E-005  0.1510877E+04  0.7818608E-02  0.8877252E-01
          2   -1    0    0  501    0  0.00000000000E+00  0.00000000000E+00  0.98885328470E+03  0.98885328470E+03  0.00000000000E+00 0.  1.
         -2   -1    0    0    0  501 -0.00000000000E+00 -0.00000000000E+00 -0.57712064890E+03  0.57712064890E+03  0.00000000000E+00 0. -1.
         23    2    1    2    0    0  0.48871231848E+03 -0.49028675277E+03 -0.99775854401E+02  0.70524066148E+03  0.90489443106E+02 0.  0.
         11    1    3    3    0    0  0.16726226735E+03 -0.19489762242E+03  0.25740580359E+01  0.25684309428E+03  0.00000000000E+00 0.  1.
        -11    1    3    3    0    0  0.32145005113E+03 -0.29538913035E+03 -0.10234991244E+03  0.44839756721E+03  0.00000000000E+00 0. -1.
         22    1    1    2    0    0 -0.48871231848E+03  0.49028675277E+03  0.51150849020E+03  0.86073327212E+03  0.00000000000E+00 0.  1.
<mgrwt>
<rscale>  0 0.15108774E+04</rscale>
<asrwt>0</asrwt>
<pdfrwt beam="1">  1        2 0.15213127E+00 0.15108774E+04</pdfrwt>
<pdfrwt beam="2">  1       -2 0.88787792E-01 0.15108774E+04</pdfrwt>
<totfact> 0.26964276E+01</totfact>
</mgrwt>
</event>
<event>
 6    1  0.1934315E-005  0.1595285E+04  0.7818608E-02  0.8823450E-01
          1   -1    0    0  501    0  0.00000000000E+00  0.00000000000E+00  0.41234967719E+03  0.41234967719E+03  0.00000000000E+00 0.  1.
         -1   -1    0    0    0  501 -0.00000000000E+00 -0.00000000000E+00 -0.15429457497E+04  0.15429457497E+04  0.00000000000E+00 0. -1.
         23    2    1    2    0    0 -0.47334424970E+03  0.46847601506E+03 -0.10996943210E+04  0.12886024888E+04  0.87431225344E+02 0.  0.
         13    1    3    3    0    0 -0.10770755607E+03  0.10090428589E+03 -0.31829115589E+03  0.35084448473E+03  0.00000000000E+00 0.  1.
        -13    1    3    3    0    0 -0.36563669363E+03  0.36757172917E+03 -0.78140316512E+03  0.93775800411E+03  0.00000000000E+00 0. -1.
         22    1    1    2    0    0  0.47334424970E+03 -0.46847601506E+03 -0.30901751517E+02  0.66669293806E+03  0.00000000000E+00 0.  1.
<mgrwt>
<rscale>  0 0.15952845E+04</rscale>
<asrwt>0</asrwt>
<pdfrwt beam="1">  1        1 0.63438412E-01 0.15952845E+04</pdfrwt>
<pdfrwt beam="2">  1       -1 0.23737627E+00 0.15952845E+04</pdfrwt>
<totfact> 0.46656457E+00</totfact>
</mgrwt>
</event>
<event>
 6    1  0.1934315E-005  0.1904659E+04  0.7818608E-02  0.8652541E-01
          2   -1    0    0  501    0  0.00000000000E+00  0.00000000000E+00  0.97398435951E+03  0.97398435951E+03  0.00000000000E+00 0.  1.
         -2   -1    0    0    0  501 -0.00000000000E+00 -0.00000000000E+00 -0.93115562169E+03  0.93115562169E+03  0.00000000000E+00 0. -1.
         23    2    1    2    0    0  0.75520115880E+03  0.44792006625E+03 -0.34174732380E+03  0.94656816691E+03  0.90768305473E+02 0.  0.
         13    1    3    3    0    0  0.45547113331E+03  0.22386329451E+03 -0.21882414062E+03  0.55267778354E+03  0.00000000000E+00 0.  1.
        -13    1    3    3    0    0  0.29973002550E+03  0.22405677173E+03 -0.12292318317E+03  0.39389038336E+03  0.00000000000E+00 0. -1.
         22    1    1    2    0    0 -0.75520115880E+03 -0.44792006625E+03  0.38457606161E+03  0.95857181429E+03  0.00000000000E+00 0.  1.
<mgrwt>
<rscale>  0 0.19046585E+04</rscale>
<asrwt>0</asrwt>
<pdfrwt beam="1">  1        2 0.14984375E+00 0.19046585E+04</pdfrwt>
<pdfrwt beam="2">  1       -2 0.14325471E+00 0.19046585E+04</pdfrwt>
<totfact> 0.82912577E+00</totfact>
</mgrwt>
</event>
<event>
 6    1  0.1934315E-005  0.3231346E+04  0.7818608E-02  0.8180588E-01
          2   -1    0    0  501    0  0.00000000000E+00  0.00000000000E+00  0.32589858392E+04  0.32589858392E+04  0.00000000000E+00 0.  1.
         -2   -1    0    0    0  501 -0.00000000000E+00 -0.00000000000E+00 -0.80098501873E+03  0.80098501873E+03  0.00000000000E+00 0. -1.
         23    2    1    2    0    0  0.67096849276E+03  0.13447883400E+04  0.19710191268E+04  0.24801589806E+04  0.87279855677E+02 0.  0.
         13    1    3    3    0    0  0.23887160523E+03  0.43739345162E+03  0.71475438766E+03  0.87134752539E+03  0.00000000000E+00 0.  1.
        -13    1    3    3    0    0  0.43209688753E+03  0.90739488840E+03  0.12562647392E+04  0.16088114552E+04  0.00000000000E+00 0. -1.
         22    1    1    2    0    0 -0.67096849276E+03 -0.13447883400E+04  0.48698169368E+03  0.15798118773E+04  0.00000000000E+00 0. -1.
<mgrwt>
<rscale>  0 0.32313457E+04</rscale>
<asrwt>0</asrwt>
<pdfrwt beam="1">  1        2 0.50138243E+00 0.32313457E+04</pdfrwt>
<pdfrwt beam="2">  1       -2 0.12322847E+00 0.32313457E+04</pdfrwt>
<totfact> 0.49450931E-01</totfact>
</mgrwt>
</event>
<event>
 6    1  0.1934315E-005  0.2468212E+04  0.7818608E-02  0.8414399E-01
         -2   -1    0    0    0  501 -0.00000000000E+00  0.00000000000E+00  0.76545641537E+03  0.76545641537E+03  0.00000000000E+00 0. -1.
          2   -1    0    0  501    0  0.00000000000E+00 -0.00000000000E+00 -0.19896849058E+04  0.19896849058E+04  0.00000000000E+00 0.  1.
         23    2    1    2    0    0 -0.26205691342E+03 -0.91712342551E+03  0.25798005552E+03  0.99254908892E+03  0.93865762553E+02 0.  0.
         11    1    3    3    0    0 -0.92000016522E+02 -0.37597980974E+03  0.59652129687E+02  0.39164166907E+03  0.00000000000E+00 0. -1.
        -11    1    3    3    0    0 -0.17005689690E+03 -0.54114361577E+03  0.19832792583E+03  0.60090741985E+03  0.00000000000E+00 0.  1.
         22    1    1    2    0    0  0.26205691342E+03  0.91712342551E+03 -0.14822085459E+04  0.17625922322E+04  0.00000000000E+00 0.  1.
<mgrwt>
<rscale>  0 0.24682116E+04</rscale>
<asrwt>0</asrwt>
<pdfrwt beam="1">  1        2 0.30610537E+00 0.24682116E+04</pdfrwt>
<pdfrwt beam="2">  1       -2 0.11776253E+00 0.24682116E+04</pdfrwt>
<totfact> 0.33680345E+00</totfact>
</mgrwt>
</event>
<event>
 6    1  0.1934315E-005  0.8069801E+03  0.7818608E-02  0.9549968E-01
         -2   -1    0    0    0  501 -0.00000000000E+00  0.00000000000E+00  0.21632647058E+03  0.21632647058E+03  0.00000000000E+00 0.  1.
          2   -1    0    0  501    0  0.00000000000E+00 -0.00000000000E+00 -0.75258566472E+03  0.75258566472E+03  0.00000000000E+00 0. -1.
         23    2    1    2    0    0 -0.22052943319E+03 -0.15165593822E+03  0.82094115708E+02  0.29512168546E+03  0.93405625618E+02 0.  0.
         13    1    3    3    0    0 -0.21616883373E+03 -0.14172550919E+03  0.52717813681E+02  0.26380722604E+03  0.00000000000E+00 0.  1.
        -13    1    3    3    0    0 -0.43605994614E+01 -0.99304290302E+01  0.29376302027E+02  0.31314459427E+02  0.00000000000E+00 0. -1.
         22    1    1    2    0    0  0.22052943319E+03  0.15165593822E+03 -0.61835330985E+03  0.67379044984E+03  0.00000000000E+00 0. -1.
<mgrwt>
<rscale>  0 0.80698005E+03</rscale>
<asrwt>0</asrwt>
<pdfrwt beam="1">  1        2 0.11578241E+00 0.80698005E+03</pdfrwt>
<pdfrwt beam="2">  1       -2 0.33280995E-01 0.80698005E+03</pdfrwt>
<totfact> 0.31629784E+02</totfact>
</mgrwt>
</event>
<event>
 6    1  0.1934315E-005  0.4201045E+04  0.7818608E-02  0.7965174E-01
         -2   -1    0    0    0  501 -0.00000000000E+00  0.00000000000E+00  0.12245855579E+04  0.12245855579E+04  0.00000000000E+00 0. -1.
          2   -1    0    0  501    0  0.00000000000E+00 -0.00000000000E+00 -0.36030103237E+04  0.36030103237E+04  0.00000000000E+00 0.  1.
         23    2    1    2    0    0 -0.12524656010E+04 -0.15841358040E+04 -0.52992410740E+03  0.20898758427E+04  0.92763954336E+02 0.  0.
         11    1    3    3    0    0 -0.11104848306E+04 -0.14473936388E+04 -0.47098977778E+03  0.18841327648E+04  0.00000000000E+00 0. -1.
        -11    1    3    3    0    0 -0.14198077039E+03 -0.13674216517E+03 -0.58934329618E+02  0.20574307790E+03  0.00000000000E+00 0.  1.
         22    1    1    2    0    0  0.12524656010E+04  0.15841358040E+04 -0.18485006583E+04  0.27377200388E+04  0.00000000000E+00 0.  1.
<mgrwt>
<rscale>  0 0.42010448E+04</rscale>
<asrwt>0</asrwt>
<pdfrwt beam="1">  1        2 0.55430928E+00 0.42010448E+04</pdfrwt>
<pdfrwt beam="2">  1       -2 0.18839778E+00 0.42010448E+04</pdfrwt>
<totfact> 0.84540732E-02</totfact>
</mgrwt>
</event>
<event>
 6    1  0.1934315E-005  0.2764272E+04  0.7818608E-02  0.8314447E-01
         -2   -1    0    0    0  501 -0.00000000000E+00  0.00000000000E+00  0.29095099557E+04  0.29095099557E+04  0.00000000000E+00 0. -1.
          2   -1    0    0  501    0  0.00000000000E+00 -0.00000000000E+00 -0.65657101203E+03  0.65657101203E+03  0.00000000000E+00 0.  1.
         23    2    1    2    0    0  0.13092771557E+02  0.12369493628E+04  0.33674304237E+03  0.12852868343E+04  0.91385025857E+02 0.  0.
         13    1    3    3    0    0  0.19464260989E+02  0.42750766099E+03  0.15901514861E+03  0.45653858013E+03  0.00000000000E+00 0.  1.
        -13    1    3    3    0    0 -0.63714894319E+01  0.80944170186E+03  0.17772789376E+03  0.82874825418E+03  0.00000000000E+00 0. -1.
         22    1    1    2    0    0 -0.13092771557E+02 -0.12369493628E+04  0.19161959013E+04  0.22807941335E+04  0.00000000000E+00 0. -1.
<mgrwt>
<rscale>  0 0.27642720E+04</rscale>
<asrwt>0</asrwt>
<pdfrwt beam="1">  1        2 0.10101093E+00 0.27642720E+04</pdfrwt>
<pdfrwt beam="2">  1       -2 0.44761691E+00 0.27642720E+04</pdfrwt>
<totfact> 0.13929208E-01</totfact>
</mgrwt>
</event>
<event>
 6    1  0.1934315E-005  0.3152687E+04  0.7818608E-02  0.8201425E-01
          2   -1    0    0  501    0  0.00000000000E+00  0.00000000000E+00  0.10151243974E+04  0.10151243974E+04  0.00000000000E+00 0. -1.
         -2   -1    0    0    0  501 -0.00000000000E+00 -0.00000000000E+00 -0.24478369420E+04  0.24478369420E+04  0.00000000000E+00 0.  1.
         23    2    1    2    0    0 -0.43468814416E+03 -0.97209233045E+03 -0.19917183425E+04  0.22602956488E+04  0.89873145804E+02 0.  0.
         11    1    3    3    0    0 -0.31659488536E+03 -0.65727654244E+03 -0.12846625444E+04  0.14773634041E+04  0.00000000000E+00 0.  1.
        -11    1    3    3    0    0 -0.11809325881E+03 -0.31481578801E+03 -0.70705579808E+03  0.78293224468E+03  0.00000000000E+00 0. -1.
         22    1    1    2    0    0  0.43468814416E+03  0.97209233045E+03  0.55900579789E+03  0.12026656907E+04  0.00000000000E+00 0. -1.
<mgrwt>
<rscale>  0 0.31526871E+04</rscale>
<asrwt>0</asrwt>
<pdfrwt beam="1">  1        2 0.15617298E+00 0.31526871E+04</pdfrwt>
<pdfrwt beam="2">  1       -2 0.37659030E+00 0.31526871E+04</pdfrwt>
<totfact> 0.21917245E-01</totfact>
</mgrwt>
</event>
<event>
 6    1  0.1934315E-005  0.9229193E+03  0.7818608E-02  0.9397376E-01
          2   -1    0    0  501    0  0.00000000000E+00  0.00000000000E+00  0.13164377825E+03  0.13164377825E+03  0.00000000000E+00 0.  1.
         -2   -1    0    0    0  501 -0.00000000000E+00 -0.00000000000E+00 -0.16175850621E+04  0.16175850621E+04  0.00000000000E+00 0. -1.
         23    2    1    2    0    0 -0.40519107980E+03 -0.20823523604E+03 -0.81862289737E+03  0.94123406710E+03  0.90754593828E+02 0.  0.
         11    1    3    3    0    0 -0.20821015062E+03 -0.67399916843E+02 -0.44671262827E+03  0.49743983341E+03  0.00000000000E+00 0. -1.
        -11    1    3    3    0    0 -0.19698092918E+03 -0.14083531920E+03 -0.37191026910E+03  0.44379423369E+03  0.00000000000E+00 0.  1.
         22    1    1    2    0    0  0.40519107980E+03  0.20823523604E+03 -0.66731838650E+03  0.80799477328E+03  0.00000000000E+00 0.  1.
<mgrwt>
<rscale>  0 0.92291930E+03</rscale>
<asrwt>0</asrwt>
<pdfrwt beam="1">  1        2 0.20252890E-01 0.92291930E+03</pdfrwt>
<pdfrwt beam="2">  1       -2 0.24885922E+00 0.92291930E+03</pdfrwt>
<totfact> 0.18517962E+01</totfact>
</mgrwt>
</event>
<event>
 6    1  0.1934315E-005  0.2437123E+04  0.7818608E-02  0.8425735E-01
          2   -1    0    0  501    0  0.00000000000E+00  0.00000000000E+00  0.82562306256E+03  0.82562306256E+03  0.00000000000E+00 0.  1.
         -2   -1    0    0    0  501 -0.00000000000E+00 -0.00000000000E+00 -0.17985109056E+04  0.17985109056E+04  0.00000000000E+00 0. -1.
         23    2    1    2    0    0  0.89251805978E+03 -0.46039402831E+03 -0.12269602202E+04  0.15882266744E+04  0.92094728730E+02 0.  0.
         11    1    3    3    0    0  0.55614164970E+03 -0.24667917809E+03 -0.78412817429E+03  0.99247223898E+03  0.00000000000E+00 0.  1.
        -11    1    3    3    0    0  0.33637641008E+03 -0.21371485022E+03 -0.44283204589E+03  0.59575443543E+03  0.00000000000E+00 0. -1.
         22    1    1    2    0    0 -0.89251805978E+03  0.46039402831E+03  0.25407237717E+03  0.10359072937E+04  0.00000000000E+00 0.  1.
<mgrwt>
<rscale>  0 0.24371230E+04</rscale>
<asrwt>0</asrwt>
<pdfrwt beam="1">  1        2 0.12701893E+00 0.24371230E+04</pdfrwt>
<pdfrwt beam="2">  1       -2 0.27669398E+00 0.24371230E+04</pdfrwt>
<totfact> 0.13058915E+00</totfact>
</mgrwt>
</event>
<event>
 6    1  0.1934315E-005  0.1222954E+04  0.7818608E-02  0.9092999E-01
         -1   -1    0    0    0  501 -0.00000000000E+00  0.00000000000E+00  0.73856399507E+03  0.73856399507E+03  0.00000000000E+00 0.  1.
          1   -1    0    0  501    0  0.00000000000E+00 -0.00000000000E+00 -0.50625786701E+03  0.50625786701E+03  0.00000000000E+00 0. -1.
         23    2    1    2    0    0 -0.27848645452E+03 -0.43348214419E+03 -0.21199653974E+03  0.56447905488E+03  0.90733653409E+02 0.  0.
         13    1    3    3    0    0 -0.32498870757E+02 -0.14296956216E+02 -0.26288348124E+02  0.44177559967E+02  0.00000000000E+00 0.  1.
        -13    1    3    3    0    0 -0.24598758376E+03 -0.41918518797E+03 -0.18570819162E+03  0.52030149492E+03  0.00000000000E+00 0. -1.
         22    1    1    2    0    0  0.27848645452E+03  0.43348214419E+03  0.44430266781E+03  0.68034280720E+03  0.00000000000E+00 0.  1.
<mgrwt>
<rscale>  0 0.12229535E+04</rscale>
<asrwt>0</asrwt>
<pdfrwt beam="1">  1        1 0.77885825E-01 0.12229535E+04</pdfrwt>
<pdfrwt beam="2">  1       -1 0.11362523E+00 0.12229535E+04</pdfrwt>
<totfact> 0.30425919E+01</totfact>
</mgrwt>
</event>
<event>
 6    1  0.1934315E-005  0.2154382E+04  0.7818608E-02  0.8537659E-01
         -2   -1    0    0    0  501 -0.00000000000E+00  0.00000000000E+00  0.67871571750E+03  0.67871571750E+03  0.00000000000E+00 0. -1.
          2   -1    0    0  501    0  0.00000000000E+00 -0.00000000000E+00 -0.17096122658E+04  0.17096122658E+04  0.00000000000E+00 0.  1.
         23    2    1    2    0    0 -0.90339441929E+03 -0.44966598101E+03 -0.10684893616E+03  0.10200498826E+04  0.10375016451E+03 0.  0.
         13    1    3    3    0    0 -0.43461739754E+03 -0.16112304434E+03 -0.33654515343E+02  0.46474244917E+03  0.00000000000E+00 0.  1.
        -13    1    3    3    0    0 -0.46877702175E+03 -0.28854293667E+03 -0.73194420822E+02  0.55530743347E+03  0.00000000000E+00 0. -1.
         22    1    1    2    0    0  0.90339441929E+03  0.44966598101E+03 -0.92404761215E+03  0.13682781007E+04  0.00000000000E+00 0.  1.
<mgrwt>
<rscale>  0 0.21543822E+04</rscale>
<asrwt>0</asrwt>
<pdfrwt beam="1">  1        2 0.26301727E+00 0.21543822E+04</pdfrwt>
<pdfrwt beam="2">  1       -2 0.10441780E+00 0.21543822E+04</pdfrwt>
<totfact> 0.66211151E+00</totfact>
</mgrwt>
</event>
<event>
 6    1  0.1934315E-005  0.1393108E+04  0.7818608E-02  0.8958822E-01
          2   -1    0    0  501    0  0.00000000000E+00  0.00000000000E+00  0.12742094961E+04  0.12742094961E+04  0.00000000000E+00 0.  1.
         -2   -1    0    0    0  501 -0.00000000000E+00 -0.00000000000E+00 -0.38077534060E+03  0.38077534060E+03  0.00000000000E+00 0. -1.
         23    2    1    2    0    0 -0.58350464712E+03  0.16994416381E+03  0.51284571035E+02  0.61644036743E+03  0.89498197417E+02 0.  0.
         11    1    3    3    0    0 -0.52528316289E+03  0.17966502148E+03  0.42807234305E+02  0.55680731000E+03  0.00000000000E+00 0. -1.
        -11    1    3    3    0    0 -0.58221484237E+02 -0.97208576724E+01  0.84773367297E+01  0.59633057432E+02  0.00000000000E+00 0.  1.
         22    1    1    2    0    0  0.58350464712E+03 -0.16994416381E+03  0.84214958447E+03  0.10385444693E+04  0.00000000000E+00 0.  1.
<mgrwt>
<rscale>  0 0.13931081E+04</rscale>
<asrwt>0</asrwt>
<pdfrwt beam="1">  1        2 0.19603223E+00 0.13931081E+04</pdfrwt>
<pdfrwt beam="2">  1       -2 0.58580822E-01 0.13931081E+04</pdfrwt>
<totfact> 0.45403808E+01</totfact>
</mgrwt>
</event>
<event>
 6    1  0.1934315E-005  0.2794878E+04  0.7818608E-02  0.8304860E-01
          2   -1    0    0  501    0  0.00000000000E+00  0.00000000000E+00  0.21926287589E+04  0.21926287589E+04  0.00000000000E+00 0.  1.
         -2   -1    0    0    0  501 -0.00000000000E+00 -0.00000000000E+00 -0.89063697144E+03  0.89063697144E+03  0.00000000000E+00 0. -1.
         23    2    1    2    0    0 -0.47086288641E+03 -0.92725327161E+03 -0.37585208016E+03  0.11092671154E+04  0.87739727287E+02 0.  0.
         11    1    3    3    0    0 -0.28018352845E+03 -0.47145121922E+03 -0.22367756510E+03  0.59228431926E+03  0.00000000000E+00 0.  1.
        -11    1    3    3    0    0 -0.19067935795E+03 -0.45580205239E+03 -0.15217451506E+03  0.51698279618E+03  0.00000000000E+00 0. -1.
         22    1    1    2    0    0  0.47086288641E+03  0.92725327161E+03  0.16778438676E+04  0.19739986149E+04  0.00000000000E+00 0.  1.
<mgrwt>
<rscale>  0 0.27948783E+04</rscale>
<asrwt>0</asrwt>
<pdfrwt beam="1">  1        2 0.33732750E+00 0.27948783E+04</pdfrwt>
<pdfrwt beam="2">  1       -2 0.13702107E+00 0.27948783E+04</pdfrwt>
<totfact> 0.17234088E+00</totfact>
</mgrwt>
</event>
<event>
 6    1  0.1934315E-005  0.6594119E+03  0.7818608E-02  0.9789277E-01
          2   -1    0    0  501    0  0.00000000000E+00  0.00000000000E+00  0.10314212491E+04  0.10314212491E+04  0.00000000000E+00 0.  1.
         -2   -1    0    0    0  501 -0.00000000000E+00 -0.00000000000E+00 -0.10539440365E+03  0.10539440365E+03  0.00000000000E+00 0. -1.
         23    2    1    2    0    0 -0.44519597889E+02  0.31939625915E+03  0.42718674075E+03  0.54281446167E+03  0.90349672771E+02 0.  0.
         13    1    3    3    0    0  0.15551151471E+02  0.20348632485E+03  0.24980733681E+03  0.32257127621E+03  0.00000000000E+00 0. -1.
        -13    1    3    3    0    0 -0.60070749361E+02  0.11590993430E+03  0.17737940394E+03  0.22024318546E+03  0.00000000000E+00 0.  1.
         22    1    1    2    0    0  0.44519597889E+02 -0.31939625915E+03  0.49884010472E+03  0.59400119111E+03  0.00000000000E+00 0. -1.
<mgrwt>
<rscale>  0 0.65941194E+03</rscale>
<asrwt>0</asrwt>
<pdfrwt beam="1">  1        2 0.15868019E+00 0.65941194E+03</pdfrwt>
<pdfrwt beam="2">  1       -2 0.16214524E-01 0.65941194E+03</pdfrwt>
<totfact> 0.74398169E+02</totfact>
</mgrwt>
</event>
<event>
 6    1  0.1934315E-005  0.1570928E+04  0.7818608E-02  0.8838610E-01
         -2   -1    0    0    0  501 -0.00000000000E+00  0.00000000000E+00  0.50729673355E+03  0.50729673355E+03  0.00000000000E+00 0.  1.
          2   -1    0    0  501    0  0.00000000000E+00 -0.00000000000E+00 -0.12161590205E+04  0.12161590205E+04  0.00000000000E+00 0. -1.
         23    2    1    2    0    0  0.35061844533E+03 -0.94351919723E+02 -0.11164813617E+04  0.11775721685E+04  0.91159212180E+02 0.  0.
         13    1    3    3    0    0  0.27817975785E+03 -0.78871990912E+02 -0.75271033106E+03  0.80633591704E+03  0.00000000000E+00 0.  1.
        -13    1    3    3    0    0  0.72438687481E+02 -0.15479928811E+02 -0.36377103063E+03  0.37123625142E+03  0.00000000000E+00 0. -1.
         22    1    1    2    0    0 -0.35061844533E+03  0.94351919723E+02  0.40761907472E+03  0.54588358561E+03  0.00000000000E+00 0.  1.
<mgrwt>
<rscale>  0 0.15709277E+04</rscale>
<asrwt>0</asrwt>
<pdfrwt beam="1">  1        2 0.18710139E+00 0.15709277E+04</pdfrwt>
<pdfrwt beam="2">  1       -2 0.78045651E-01 0.15709277E+04</pdfrwt>
<totfact> 0.26017324E+01</totfact>
</mgrwt>
</event>
<event>
 6    1  0.1934315E-005  0.1556205E+04  0.7818608E-02  0.8847914E-01
          2   -1    0    0  501    0  0.00000000000E+00  0.00000000000E+00  0.10149843881E+04  0.10149843881E+04  0.00000000000E+00 0.  1.
         -2   -1    0    0    0  501 -0.00000000000E+00 -0.00000000000E+00 -0.59650493432E+03  0.59650493432E+03  0.00000000000E+00 0. -1.
         23    2    1    2    0    0  0.38054456687E+03 -0.27041443489E+03 -0.43125645948E+03  0.64195889162E+03  0.90503871312E+02 0.  0.
         11    1    3    3    0    0  0.15179308826E+03 -0.15751077708E+03 -0.17228538315E+03  0.27844755302E+03  0.00000000000E+00 0.  1.
        -11    1    3    3    0    0  0.22875147862E+03 -0.11290365781E+03 -0.25897107633E+03  0.36351133860E+03  0.00000000000E+00 0. -1.
         22    1    1    2    0    0 -0.38054456687E+03  0.27041443489E+03  0.84973591330E+03  0.96953043084E+03  0.00000000000E+00 0.  1.
<mgrwt>
<rscale>  0 0.15562046E+04</rscale>
<asrwt>0</asrwt>
<pdfrwt beam="1">  1        2 0.15615144E+00 0.15562046E+04</pdfrwt>
<pdfrwt beam="2">  1       -2 0.91769990E-01 0.15562046E+04</pdfrwt>
<totfact> 0.23951660E+01</totfact>
</mgrwt>
</event>
<event>
 6    1  0.1934315E-005  0.1962964E+04  0.7818608E-02  0.8624135E-01
         -1   -1    0    0    0  501 -0.00000000000E+00  0.00000000000E+00  0.91390276478E+03  0.91390276478E+03  0.00000000000E+00 0. -1.
          1   -1    0    0  501    0  0.00000000000E+00 -0.00000000000E+00 -0.10540584381E+04  0.10540584381E+04  0.00000000000E+00 0.  1.
         23    2    1    2    0    0  0.15491782316E+02  0.79668565543E+03 -0.64108345159E+03  0.10267509883E+04  0.91003138568E+02 0.  0.
         11    1    3    3    0    0 -0.12552569155E+02  0.71852972197E+03 -0.56533048889E+03  0.91435282578E+03  0.00000000000E+00 0.  1.
        -11    1    3    3    0    0  0.28044351471E+02  0.78155933458E+02 -0.75752962700E+02  0.11239816254E+03  0.00000000000E+00 0. -1.
         22    1    1    2    0    0 -0.15491782316E+02 -0.79668565543E+03  0.50092777829E+03  0.94121021454E+03  0.00000000000E+00 0. -1.
<mgrwt>
<rscale>  0 0.19629640E+04</rscale>
<asrwt>0</asrwt>
<pdfrwt beam="1">  1        1 0.16216284E+00 0.19629640E+04</pdfrwt>
<pdfrwt beam="2">  1       -1 0.14060043E+00 0.19629640E+04</pdfrwt>
<totfact> 0.53004733E+00</totfact>
</mgrwt>
</event>
<event>
 6    1  0.1934315E-005  0.1536701E+04  0.7818608E-02  0.8860408E-01
          2   -1    0    0  501    0  0.00000000000E+00  0.00000000000E+00  0.22654638455E+04  0.22654638455E+04  0.00000000000E+00 0.  1.
         -2   -1    0    0    0  501 -0.00000000000E+00 -0.00000000000E+00 -0.26059220272E+03  0.26059220272E+03  0.00000000000E+00 0. -1.
         23    2    1    2    0    0 -0.42098150691E+03  0.63856130650E+03  0.94099284588E+03  0.12157797164E+04  0.87560330136E+02 0.  0.
         13    1    3    3    0    0 -0.91641824299E+02  0.20032729100E+03  0.23783757791E+03  0.32418507206E+03  0.00000000000E+00 0. -1.
        -13    1    3    3    0    0 -0.32933968261E+03  0.43823401549E+03  0.70315526797E+03  0.89159464430E+03  0.00000000000E+00 0.  1.
         22    1    1    2    0    0  0.42098150691E+03 -0.63856130650E+03  0.10638787969E+04  0.13102763318E+04  0.00000000000E+00 0.  1.
<mgrwt>
<rscale>  0 0.15367006E+04</rscale>
<asrwt>0</asrwt>
<pdfrwt beam="1">  1        2 0.34853289E+00 0.15367006E+04</pdfrwt>
<pdfrwt beam="2">  1       -2 0.40091110E-01 0.15367006E+04</pdfrwt>
<totfact> 0.26939325E+01</totfact>
</mgrwt>
</event>
<event>
 6    1  0.1934315E-005  0.2201093E+04  0.7818608E-02  0.8517973E-01
         -2   -1    0    0    0  501 -0.00000000000E+00  0.00000000000E+00  0.52572361501E+03  0.52572361501E+03  0.00000000000E+00 0. -1.
          2   -1    0    0  501    0  0.00000000000E+00 -0.00000000000E+00 -0.23038774068E+04  0.23038774068E+04  0.00000000000E+00 0.  1.
         23    2    1    2    0    0  0.95361816799E+03  0.35999737753E+03 -0.14176446209E+04  0.17484199156E+04  0.90940684029E+02 0.  0.
         13    1    3    3    0    0  0.35561216158E+03  0.17103704919E+03 -0.50042374473E+03  0.63728926395E+03  0.00000000000E+00 0. -1.
        -13    1    3    3    0    0  0.59800600641E+03  0.18896032834E+03 -0.91722087614E+03  0.11111306516E+04  0.00000000000E+00 0.  1.
         22    1    1    2    0    0 -0.95361816799E+03 -0.35999737753E+03 -0.36050917094E+03  0.10811811062E+04  0.00000000000E+00 0. -1.
<mgrwt>
<rscale>  0 0.22010931E+04</rscale>
<asrwt>0</asrwt>
<pdfrwt beam="1">  1        2 0.35444267E+00 0.22010931E+04</pdfrwt>
<pdfrwt beam="2">  1       -2 0.80880558E-01 0.22010931E+04</pdfrwt>
<totfact> 0.55593057E+00</totfact>
</mgrwt>
</event>
<event>
 6    1  0.1934315E-005  0.9357971E+03  0.7818608E-02  0.9381907E-01
          2   -1    0    0  501    0  0.00000000000E+00  0.00000000000E+00  0.22892225965E+04  0.22892225965E+04  0.00000000000E+00 0.  1.
         -2   -1    0    0    0  501 -0.00000000000E+00 -0.00000000000E+00 -0.95634663198E+02  0.95634663198E+02  0.00000000000E+00 0. -1.
         23    2    1    2    0    0 -0.40426812602E+03 -0.15735512508E+03  0.69177515163E+03  0.82164422741E+03  0.91394873622E+02 0.  0.
         11    1    3    3    0    0 -0.12733411913E+03 -0.64148529774E+02  0.15579452840E+03  0.21118936254E+03  0.00000000000E+00 0. -1.
        -11    1    3    3    0    0 -0.27693400689E+03 -0.93206595306E+02  0.53598062323E+03  0.61045486488E+03  0.00000000000E+00 0.  1.
         22    1    1    2    0    0  0.40426812602E+03  0.15735512508E+03  0.15018127816E+04  0.15632130322E+04  0.00000000000E+00 0.  1.
<mgrwt>
<rscale>  0 0.93579705E+03</rscale>
<asrwt>0</asrwt>
<pdfrwt beam="1">  1        2 0.35218805E+00 0.93579705E+03</pdfrwt>
<pdfrwt beam="2">  1       -2 0.14713027E-01 0.93579705E+03</pdfrwt>
<totfact> 0.16887003E+02</totfact>
</mgrwt>
</event>
<event>
 6    1  0.1934315E-005  0.3241650E+04  0.7818608E-02  0.8177903E-01
          2   -1    0    0  501    0  0.00000000000E+00  0.00000000000E+00  0.17085347394E+04  0.17085347394E+04  0.00000000000E+00 0.  1.
         -2   -1    0    0    0  501 -0.00000000000E+00 -0.00000000000E+00 -0.15376179261E+04  0.15376179261E+04  0.00000000000E+00 0. -1.
         23    2    1    2    0    0  0.49345008580E+03 -0.10128195032E+04 -0.10795684291E+04  0.15629979862E+04  0.90544897126E+02 0.  0.
         11    1    3    3    0    0  0.19625017349E+03 -0.37458527799E+03 -0.46408487607E+03  0.62785590168E+03  0.00000000000E+00 0.  1.
        -11    1    3    3    0    0  0.29719991231E+03 -0.63823422526E+03 -0.61548355301E+03  0.93514208449E+03  0.00000000000E+00 0. -1.
         22    1    1    2    0    0 -0.49345008580E+03  0.10128195032E+04  0.12504852423E+04  0.16831546794E+04  0.00000000000E+00 0.  1.
<mgrwt>
<rscale>  0 0.32416500E+04</rscale>
<asrwt>0</asrwt>
<pdfrwt beam="1">  1        2 0.26285150E+00 0.32416500E+04</pdfrwt>
<pdfrwt beam="2">  1       -2 0.23655660E+00 0.32416500E+04</pdfrwt>
<totfact> 0.63344726E-01</totfact>
</mgrwt>
</event>
<event>
 6    1  0.2188334E-005  0.2628801E+04  0.7818608E-02  0.8358483E-01
          2   -1    0    0  501    0  0.00000000000E+00  0.00000000000E+00  0.11854955031E+04  0.11854955031E+04  0.00000000000E+00 0.  1.
         -2   -1    0    0    0  501 -0.00000000000E+00 -0.00000000000E+00 -0.14573220684E+04  0.14573220684E+04  0.00000000000E+00 0. -1.
         23    2    1    2    0    0 -0.78674571890E+03  0.14297197480E+03  0.91075571643E+03  0.12152634868E+04  0.89328357785E+02 0.  0.
         11    1    3    3    0    0 -0.23801476563E+03  0.23075277896E+02  0.32771059721E+03  0.40568181206E+03  0.00000000000E+00 0. -1.
        -11    1    3    3    0    0 -0.54873095327E+03  0.11989669691E+03  0.58304511922E+03  0.80958167472E+03  0.00000000000E+00 0.  1.
         22    1    1    2    0    0  0.78674571890E+03 -0.14297197480E+03 -0.11825822817E+04  0.14275540847E+04  0.00000000000E+00 0. -1.
<mgrwt>
<rscale>  0 0.26288011E+04</rscale>
<asrwt>0</asrwt>
<pdfrwt beam="1">  1        2 0.18238392E+00 0.26288011E+04</pdfrwt>
<pdfrwt beam="2">  1       -2 0.22420340E+00 0.26288011E+04</pdfrwt>
<totfact> 0.15853548E+00</totfact>
</mgrwt>
</event>
<event>
 6    1  0.1934315E-005  0.1666614E+04  0.7818608E-02  0.8780638E-01
         -2   -1    0    0    0  501 -0.00000000000E+00  0.00000000000E+00  0.25862109429E+03  0.25862109429E+03  0.00000000000E+00 0. -1.
          2   -1    0    0  501    0  0.00000000000E+00 -0.00000000000E+00 -0.26850097059E+04  0.26850097059E+04  0.00000000000E+00 0.  1.
         23    2    1    2    0    0  0.58632385149E+03 -0.24081584813E+03 -0.21655128370E+04  0.22581936395E+04  0.90690321910E+02 0.  0.
         11    1    3    3    0    0  0.24184030095E+03 -0.14645259771E+03 -0.91708533698E+03  0.95967734674E+03  0.00000000000E+00 0. -1.
        -11    1    3    3    0    0  0.34448355054E+03 -0.94363250428E+02 -0.12484275000E+04  0.12985162927E+04  0.00000000000E+00 0.  1.
         22    1    1    2    0    0 -0.58632385149E+03  0.24081584813E+03 -0.26087577460E+03  0.68543716073E+03  0.00000000000E+00 0. -1.
<mgrwt>
<rscale>  0 0.16666135E+04</rscale>
<asrwt>0</asrwt>
<pdfrwt beam="1">  1        2 0.41307840E+00 0.16666135E+04</pdfrwt>
<pdfrwt beam="2">  1       -2 0.39787862E-01 0.16666135E+04</pdfrwt>
<totfact> 0.15498849E+01</totfact>
</mgrwt>
</event>
<event>
 6    1  0.1934315E-005  0.7958552E+04  0.7818608E-02  0.7485923E-01
         -2   -1    0    0    0  501 -0.00000000000E+00  0.00000000000E+00  0.51225783800E+04  0.51225783800E+04  0.00000000000E+00 0. -1.
          2   -1    0    0  501    0  0.00000000000E+00 -0.00000000000E+00 -0.30911463491E+04  0.30911463491E+04  0.00000000000E+00 0.  1.
         23    2    1    2    0    0  0.38141832077E+04 -0.92668134668E+03  0.34423426084E+03  0.39413286596E+04  0.94034654384E+02 0.  0.
         13    1    3    3    0    0  0.21431372405E+04 -0.48680864729E+03  0.15948882918E+03  0.22035100584E+04  0.00000000000E+00 0.  1.
        -13    1    3    3    0    0  0.16710459672E+04 -0.43987269940E+03  0.18474543166E+03  0.17378186012E+04  0.00000000000E+00 0. -1.
         22    1    1    2    0    0 -0.38141832077E+04  0.92668134668E+03  0.16871977701E+04  0.42723960696E+04  0.00000000000E+00 0.  1.
<mgrwt>
<rscale>  0 0.79585525E+04</rscale>
<asrwt>0</asrwt>
<pdfrwt beam="1">  1        2 0.47556098E+00 0.79585525E+04</pdfrwt>
<pdfrwt beam="2">  1       -2 0.78808898E+00 0.79585525E+04</pdfrwt>
<totfact> 0.82659177E-05</totfact>
</mgrwt>
</event>
<event>
 6    1  0.1934315E-005  0.2813234E+04  0.7818608E-02  0.8299172E-01
         -2   -1    0    0    0  501 -0.00000000000E+00  0.00000000000E+00  0.14616415886E+04  0.14616415886E+04  0.00000000000E+00 0. -1.
          2   -1    0    0  501    0  0.00000000000E+00 -0.00000000000E+00 -0.13536636177E+04  0.13536636177E+04  0.00000000000E+00 0.  1.
         23    2    1    2    0    0  0.31034895632E+01 -0.11560032126E+04 -0.74571750413E+03  0.13782425691E+04  0.84290712991E+02 0.  0.
         13    1    3    3    0    0 -0.32152068159E+02 -0.81066564133E+03 -0.54308811282E+03  0.97629771884E+03  0.00000000000E+00 0. -1.
        -13    1    3    3    0    0  0.35255557722E+02 -0.34533757123E+03 -0.20262939130E+03  0.40194485029E+03  0.00000000000E+00 0.  1.
         22    1    1    2    0    0 -0.31034895632E+01  0.11560032126E+04  0.85369547502E+03  0.14370626372E+04  0.00000000000E+00 0. -1.
<mgrwt>
<rscale>  0 0.28132338E+04</rscale>
<asrwt>0</asrwt>
<pdfrwt beam="1">  1        2 0.20825594E+00 0.28132338E+04</pdfrwt>
<pdfrwt beam="2">  1       -2 0.22486794E+00 0.28132338E+04</pdfrwt>
<totfact> 0.12315546E+00</totfact>
</mgrwt>
</event>
<event>
 6    1  0.1934315E-005  0.1420197E+04  0.7818608E-02  0.8939327E-01
         -2   -1    0    0    0  501 -0.00000000000E+00  0.00000000000E+00  0.20802638928E+03  0.20802638928E+03  0.00000000000E+00 0. -1.
          2   -1    0    0  501    0  0.00000000000E+00 -0.00000000000E+00 -0.24239225803E+04  0.24239225803E+04  0.00000000000E+00 0.  1.
         23    2    1    2    0    0  0.31030527284E+03  0.21765554034E+03 -0.22185500303E+04  0.22529102651E+04  0.99885579381E+02 0.  0.
         11    1    3    3    0    0  0.13451860954E+03  0.42149824501E+02 -0.68266168452E+03  0.69706444432E+03  0.00000000000E+00 0. -1.
        -11    1    3    3    0    0  0.17578666330E+03  0.17550571584E+03 -0.15358883458E+04  0.15558458208E+04  0.00000000000E+00 0.  1.
         22    1    1    2    0    0 -0.31030527284E+03 -0.21765554034E+03  0.26538393389E+01  0.37903870443E+03  0.00000000000E+00 0. -1.
<mgrwt>
<rscale>  0 0.14201970E+04</rscale>
<asrwt>0</asrwt>
<pdfrwt beam="1">  1        2 0.37291116E+00 0.14201970E+04</pdfrwt>
<pdfrwt beam="2">  1       -2 0.32004061E-01 0.14201970E+04</pdfrwt>
<totfact> 0.34095659E+01</totfact>
</mgrwt>
</event>
<event>
 6    1  0.1934315E-005  0.1593022E+04  0.7818608E-02  0.8824846E-01
         -2   -1    0    0    0  501 -0.00000000000E+00  0.00000000000E+00  0.34407664343E+03  0.34407664343E+03  0.00000000000E+00 0. -1.
          2   -1    0    0  501    0  0.00000000000E+00 -0.00000000000E+00 -0.18438628209E+04  0.18438628209E+04  0.00000000000E+00 0.  1.
         23    2    1    2    0    0 -0.56562105267E+03 -0.17131120112E+03 -0.24288741301E+02  0.59848440456E+03  0.91208205214E+02 0.  0.
         13    1    3    3    0    0 -0.15992344322E+03 -0.61056625069E+02 -0.46816309367E+02  0.17746883101E+03  0.00000000000E+00 0.  1.
        -13    1    3    3    0    0 -0.40569760945E+03 -0.11025457605E+03  0.22527568067E+02  0.42101557356E+03  0.00000000000E+00 0. -1.
         22    1    1    2    0    0  0.56562105267E+03  0.17131120112E+03 -0.14754974362E+04  0.15894550597E+04  0.00000000000E+00 0.  1.
<mgrwt>
<rscale>  0 0.15930224E+04</rscale>
<asrwt>0</asrwt>
<pdfrwt beam="1">  1        2 0.28367120E+00 0.15930224E+04</pdfrwt>
<pdfrwt beam="2">  1       -2 0.52934868E-01 0.15930224E+04</pdfrwt>
<totfact> 0.26345057E+01</totfact>
</mgrwt>
</event>
<event>
 6    1  0.1934315E-005  0.2419681E+04  0.7818608E-02  0.8432172E-01
          2   -1    0    0  501    0  0.00000000000E+00  0.00000000000E+00  0.26541069134E+04  0.26541069134E+04  0.00000000000E+00 0.  1.
         -2   -1    0    0    0  501 -0.00000000000E+00 -0.00000000000E+00 -0.55149013322E+03  0.55149013322E+03  0.00000000000E+00 0. -1.
         23    2    1    2    0    0 -0.85146489901E+02  0.77123169369E+03 -0.17386126935E+03  0.80051896887E+03  0.92491234483E+02 0.  0.
         11    1    3    3    0    0  0.51399862465E+01  0.37324963784E+03 -0.79496524948E+02  0.38165613985E+03  0.00000000000E+00 0. -1.
        -11    1    3    3    0    0 -0.90286476148E+02  0.39798205584E+03 -0.94364744400E+02  0.41886282902E+03  0.00000000000E+00 0.  1.
         22    1    1    2    0    0  0.85146489901E+02 -0.77123169369E+03  0.22764780495E+04  0.24050780778E+04  0.00000000000E+00 0.  1.
<mgrwt>
<rscale>  0 0.24196808E+04</rscale>
<asrwt>0</asrwt>
<pdfrwt beam="1">  1        2 0.40832413E+00 0.24196808E+04</pdfrwt>
<pdfrwt beam="2">  1       -2 0.84844637E-01 0.24196808E+04</pdfrwt>
<totfact> 0.30713852E+00</totfact>
</mgrwt>
</event>
<event>
 6    1  0.1934315E-005  0.4647976E+04  0.7818608E-02  0.7885231E-01
         -2   -1    0    0    0  501 -0.00000000000E+00  0.00000000000E+00  0.29003268120E+04  0.29003268120E+04  0.00000000000E+00 0. -1.
          2   -1    0    0  501    0  0.00000000000E+00 -0.00000000000E+00 -0.18621761287E+04  0.18621761287E+04  0.00000000000E+00 0.  1.
         23    2    1    2    0    0  0.12287162278E+04  0.76738066693E+03  0.23800828973E+04  0.27878134148E+04  0.92154116942E+02 0.  0.
         11    1    3    3    0    0  0.73293115948E+02  0.72709203168E+02  0.18067974626E+03  0.20809536222E+03  0.00000000000E+00 0.  1.
        -11    1    3    3    0    0  0.11554231119E+04  0.69467146376E+03  0.21994031510E+04  0.25797180526E+04  0.00000000000E+00 0. -1.
         22    1    1    2    0    0 -0.12287162278E+04 -0.76738066693E+03 -0.13419322140E+04  0.19746895259E+04  0.00000000000E+00 0.  1.
<mgrwt>
<rscale>  0 0.46479756E+04</rscale>
<asrwt>0</asrwt>
<pdfrwt beam="1">  1        2 0.28648864E+00 0.46479756E+04</pdfrwt>
<pdfrwt beam="2">  1       -2 0.44620412E+00 0.46479756E+04</pdfrwt>
<totfact> 0.21977849E-02</totfact>
</mgrwt>
</event>
<event>
 6    1  0.1934315E-005  0.6758211E+03  0.7818608E-02  0.9759499E-01
          2   -1    0    0  501    0  0.00000000000E+00  0.00000000000E+00  0.33877300109E+03  0.33877300109E+03  0.00000000000E+00 0.  1.
         -2   -1    0    0    0  501 -0.00000000000E+00 -0.00000000000E+00 -0.33705029362E+03  0.33705029362E+03  0.00000000000E+00 0. -1.
         23    2    1    2    0    0 -0.30957262001E+03 -0.10850603316E+03  0.37311685132E+02  0.34586065801E+03  0.10304691464E+03 0.  0.
         11    1    3    3    0    0 -0.25839540982E+02 -0.42522439908E+02 -0.99620154561E+01  0.50745261117E+02  0.00000000000E+00 0. -1.
        -11    1    3    3    0    0 -0.28373307903E+03 -0.65983593255E+02  0.47273700588E+02  0.29511539689E+03  0.00000000000E+00 0.  1.
         22    1    1    2    0    0  0.30957262001E+03  0.10850603316E+03 -0.35588977668E+02  0.32996263671E+03  0.00000000000E+00 0. -1.
<mgrwt>
<rscale>  0 0.67582110E+03</rscale>
<asrwt>0</asrwt>
<pdfrwt beam="1">  1        2 0.52118923E-01 0.67582110E+03</pdfrwt>
<pdfrwt beam="2">  1       -2 0.51853891E-01 0.67582110E+03</pdfrwt>
<totfact> 0.33981718E+02</totfact>
</mgrwt>
</event>
<event>
 6    1  0.1934315E-005  0.1487174E+04  0.7818608E-02  0.8893027E-01
          3   -1    0    0  501    0  0.00000000000E+00  0.00000000000E+00  0.86109077050E+03  0.86109077050E+03  0.00000000000E+00 0.  1.
         -3   -1    0    0    0  501 -0.00000000000E+00 -0.00000000000E+00 -0.64211803296E+03  0.64211803296E+03  0.00000000000E+00 0. -1.
         23    2    1    2    0    0 -0.44419041985E+03  0.43843628023E+02 -0.48768897553E+03  0.66738695071E+03  0.91309431731E+02 0.  0.
         13    1    3    3    0    0 -0.13515382410E+03  0.50365922067E+02 -0.18694256051E+03  0.23611607993E+03  0.00000000000E+00 0. -1.
        -13    1    3    3    0    0 -0.30903659575E+03 -0.65222940437E+01 -0.30074641502E+03  0.43127087078E+03  0.00000000000E+00 0.  1.
         22    1    1    2    0    0  0.44419041985E+03 -0.43843628023E+02  0.70666171307E+03  0.83582185274E+03  0.00000000000E+00 0.  1.
<mgrwt>
<rscale>  0 0.14871744E+04</rscale>
<asrwt>0</asrwt>
<pdfrwt beam="1">  1        3 0.13247550E+00 0.14871744E+04</pdfrwt>
<pdfrwt beam="2">  1       -3 0.98787390E-01 0.14871744E+04</pdfrwt>
<totfact> 0.10109017E+00</totfact>
</mgrwt>
</event>
<event>
 6    1  0.2481126E-005  0.2933009E+04  0.7818608E-02  0.8263123E-01
         -2   -1    0    0    0  501 -0.00000000000E+00  0.00000000000E+00  0.13882912502E+04  0.13882912502E+04  0.00000000000E+00 0. -1.
          2   -1    0    0  501    0  0.00000000000E+00 -0.00000000000E+00 -0.15491243367E+04  0.15491243367E+04  0.00000000000E+00 0.  1.
         23    2    1    2    0    0  0.89835190975E+03  0.43317195308E+03  0.99434312677E+03  0.14112746438E+04  0.91125033926E+02 0.  0.
         13    1    3    3    0    0  0.35959767252E+03  0.19314810805E+03  0.46527298003E+03  0.61894718973E+03  0.00000000000E+00 0. -1.
        -13    1    3    3    0    0  0.53875423723E+03  0.24002384503E+03  0.52907014674E+03  0.79232745408E+03  0.00000000000E+00 0.  1.
         22    1    1    2    0    0 -0.89835190975E+03 -0.43317195308E+03 -0.11551762132E+04  0.15261409431E+04  0.00000000000E+00 0.  1.
<mgrwt>
<rscale>  0 0.29330092E+04</rscale>
<asrwt>0</asrwt>
<pdfrwt beam="1">  1        2 0.23832682E+00 0.29330092E+04</pdfrwt>
<pdfrwt beam="2">  1       -2 0.21358327E+00 0.29330092E+04</pdfrwt>
<totfact> 0.11132993E+00</totfact>
</mgrwt>
</event>
<event>
 6    1  0.1934315E-005  0.1892218E+04  0.7818608E-02  0.8658740E-01
          2   -1    0    0  501    0  0.00000000000E+00  0.00000000000E+00  0.12985476702E+04  0.12985476702E+04  0.00000000000E+00 0. -1.
         -2   -1    0    0    0  501 -0.00000000000E+00 -0.00000000000E+00 -0.68932557683E+03  0.68932557683E+03  0.00000000000E+00 0.  1.
         23    2    1    2    0    0 -0.53077442609E+03  0.68956214877E+03 -0.77747033310E+02  0.87920556491E+03  0.98693342112E+02 0.  0.
         13    1    3    3    0    0 -0.12340347316E+03  0.23332096110E+03 -0.15421665681E+02  0.26439537788E+03  0.00000000000E+00 0.  1.
        -13    1    3    3    0    0 -0.40737095293E+03  0.45624118767E+03 -0.62325367629E+02  0.61481018702E+03  0.00000000000E+00 0. -1.
         22    1    1    2    0    0  0.53077442609E+03 -0.68956214877E+03  0.68696912673E+03  0.11086676822E+04  0.00000000000E+00 0. -1.
<mgrwt>
<rscale>  0 0.18922179E+04</rscale>
<asrwt>0</asrwt>
<pdfrwt beam="1">  1        2 0.19977656E+00 0.18922179E+04</pdfrwt>
<pdfrwt beam="2">  1       -2 0.10605009E+00 0.18922179E+04</pdfrwt>
<totfact> 0.11142520E+01</totfact>
</mgrwt>
</event>
<event>
 6    1  0.1934315E-005  0.5729190E+03  0.7818608E-02  0.9963240E-01
          2   -1    0    0  501    0  0.00000000000E+00  0.00000000000E+00  0.22241412755E+04  0.22241412755E+04  0.00000000000E+00 0.  1.
         -2   -1    0    0    0  501 -0.00000000000E+00 -0.00000000000E+00 -0.36894705551E+02  0.36894705551E+02  0.00000000000E+00 0. -1.
         23    2    1    2    0    0  0.71032956600E+02  0.13975097303E+03  0.20328166562E+04  0.20409800480E+04  0.93166429333E+02 0.  0.
         11    1    3    3    0    0 -0.22941362775E+02  0.25912908849E+02  0.41818330030E+03  0.41961298552E+03  0.00000000000E+00 0. -1.
        -11    1    3    3    0    0  0.93974319375E+02  0.11383806418E+03  0.16146333559E+04  0.16213670625E+04  0.00000000000E+00 0.  1.
         22    1    1    2    0    0 -0.71032956600E+02 -0.13975097303E+03  0.15442991383E+03  0.22005593305E+03  0.00000000000E+00 0. -1.
<mgrwt>
<rscale>  0 0.57291897E+03</rscale>
<asrwt>0</asrwt>
<pdfrwt beam="1">  1        2 0.34217548E+00 0.57291897E+03</pdfrwt>
<pdfrwt beam="2">  1       -2 0.56761103E-02 0.57291897E+03</pdfrwt>
<totfact> 0.88366510E+02</totfact>
</mgrwt>
</event>
<event>
 6    1  0.1934315E-005  0.1114769E+04  0.7818608E-02  0.9190915E-01
          2   -1    0    0  501    0  0.00000000000E+00  0.00000000000E+00  0.72233608454E+03  0.72233608454E+03  0.00000000000E+00 0.  1.
         -2   -1    0    0    0  501 -0.00000000000E+00 -0.00000000000E+00 -0.43010117077E+03  0.43010117077E+03  0.00000000000E+00 0. -1.
         23    2    1    2    0    0  0.41862937339E+03  0.15393282277E+03 -0.19219972003E+03  0.49393685241E+03  0.89927835488E+02 0.  0.
         11    1    3    3    0    0  0.22786855992E+03  0.12659984125E+03 -0.13101896935E+03  0.29174915721E+03  0.00000000000E+00 0.  1.
        -11    1    3    3    0    0  0.19076081347E+03  0.27332981520E+02 -0.61180750683E+02  0.20218769520E+03  0.00000000000E+00 0. -1.
         22    1    1    2    0    0 -0.41862937339E+03 -0.15393282277E+03  0.48443463381E+03  0.65850040290E+03  0.00000000000E+00 0.  1.
<mgrwt>
<rscale>  0 0.11147692E+04</rscale>
<asrwt>0</asrwt>
<pdfrwt beam="1">  1        2 0.11112863E+00 0.11147692E+04</pdfrwt>
<pdfrwt beam="2">  1       -2 0.66169411E-01 0.11147692E+04</pdfrwt>
<totfact> 0.82077006E+01</totfact>
</mgrwt>
</event>
<event>
 6    1  0.1934315E-005  0.2905591E+04  0.7818608E-02  0.8271216E-01
          2   -1    0    0  501    0  0.00000000000E+00  0.00000000000E+00  0.10781480546E+04  0.10781480546E+04  0.00000000000E+00 0.  1.
         -2   -1    0    0    0  501 -0.00000000000E+00 -0.00000000000E+00 -0.19576300904E+04  0.19576300904E+04  0.00000000000E+00 0. -1.
         23    2    1    2    0    0 -0.11197578778E+04 -0.83399628983E+03 -0.85392457979E+03  0.16393324067E+04  0.93893745303E+02 0.  0.
         13    1    3    3    0    0 -0.85588504845E+02 -0.77359112036E+02 -0.44293179627E+02  0.12357876087E+03  0.00000000000E+00 0. -1.
        -13    1    3    3    0    0 -0.10341693730E+04 -0.75663717779E+03 -0.80963140017E+03  0.15157536459E+04  0.00000000000E+00 0.  1.
         22    1    1    2    0    0  0.11197578778E+04  0.83399628983E+03 -0.25557455964E+02  0.13964457383E+04  0.00000000000E+00 0.  1.
<mgrwt>
<rscale>  0 0.29055912E+04</rscale>
<asrwt>0</asrwt>
<pdfrwt beam="1">  1        2 0.16586893E+00 0.29055912E+04</pdfrwt>
<pdfrwt beam="2">  1       -2 0.30117386E+00 0.29055912E+04</pdfrwt>
<totfact> 0.60614642E-01</totfact>
</mgrwt>
</event>
<event>
 6    1  0.1934315E-005  0.2935514E+04  0.7818608E-02  0.8262389E-01
         -2   -1    0    0    0  501 -0.00000000000E+00  0.00000000000E+00  0.10449038830E+04  0.10449038830E+04  0.00000000000E+00 0. -1.
          2   -1    0    0  501    0  0.00000000000E+00 -0.00000000000E+00 -0.20617311190E+04  0.20617311190E+04  0.00000000000E+00 0.  1.
         23    2    1    2    0    0 -0.76566380937E+03 -0.39417256941E+03 -0.17648621994E+04  0.19659468808E+04  0.92711767468E+02 0.  0.
         13    1    3    3    0    0 -0.30476781152E+03 -0.14380444776E+03 -0.59314985685E+03  0.68219490676E+03  0.00000000000E+00 0. -1.
        -13    1    3    3    0    0 -0.46089599785E+03 -0.25036812164E+03 -0.11717123425E+04  0.12837519740E+04  0.00000000000E+00 0.  1.
         22    1    1    2    0    0  0.76566380937E+03  0.39417256941E+03  0.74803496335E+03  0.11406881212E+04  0.00000000000E+00 0. -1.
<mgrwt>
<rscale>  0 0.29355142E+04</rscale>
<asrwt>0</asrwt>
<pdfrwt beam="1">  1        2 0.31718940E+00 0.29355142E+04</pdfrwt>
<pdfrwt beam="2">  1       -2 0.16075444E+00 0.29355142E+04</pdfrwt>
<totfact> 0.13209718E+00</totfact>
</mgrwt>
</event>
<event>
 6    1  0.1934315E-005  0.1292573E+04  0.7818608E-02  0.9035476E-01
          3   -1    0    0  501    0  0.00000000000E+00  0.00000000000E+00  0.59792646976E+03  0.59792646976E+03  0.00000000000E+00 0.  1.
         -3   -1    0    0    0  501 -0.00000000000E+00 -0.00000000000E+00 -0.69855748390E+03  0.69855748390E+03  0.00000000000E+00 0. -1.
         23    2    1    2    0    0  0.60190668390E+03  0.13985189358E+03  0.13017736694E+03  0.63684563075E+03  0.82316476387E+02 0.  0.
         11    1    3    3    0    0  0.35082888439E+03  0.49778485700E+02  0.47083321113E+02  0.35745719029E+03  0.00000000000E+00 0. -1.
        -11    1    3    3    0    0  0.25107779951E+03  0.90073407884E+02  0.83094045830E+02  0.27938844047E+03  0.00000000000E+00 0.  1.
         22    1    1    2    0    0 -0.60190668390E+03 -0.13985189358E+03 -0.23080838109E+03  0.65963832290E+03  0.00000000000E+00 0. -1.
<mgrwt>
<rscale>  0 0.12925726E+04</rscale>
<asrwt>0</asrwt>
<pdfrwt beam="1">  1        3 0.91988687E-01 0.12925726E+04</pdfrwt>
<pdfrwt beam="2">  1       -3 0.10747038E+00 0.12925726E+04</pdfrwt>
<totfact> 0.20106149E+00</totfact>
</mgrwt>
</event>
<event>
 6    1  0.1934315E-005  0.3233568E+04  0.7818608E-02  0.8180008E-01
         -2   -1    0    0    0  501 -0.00000000000E+00  0.00000000000E+00  0.10513227226E+04  0.10513227226E+04  0.00000000000E+00 0. -1.
          2   -1    0    0  501    0  0.00000000000E+00 -0.00000000000E+00 -0.24863824688E+04  0.24863824688E+04  0.00000000000E+00 0.  1.
         23    2    1    2    0    0  0.11890969345E+04  0.31116691832E+02 -0.19140208327E+04  0.22553934155E+04  0.91673020221E+02 0.  0.
         11    1    3    3    0    0  0.50003905694E+03  0.55276908511E+02 -0.77645462850E+03  0.92518991845E+03  0.00000000000E+00 0. -1.
        -11    1    3    3    0    0  0.68905787758E+03 -0.24160216679E+02 -0.11375662042E+04  0.13302034971E+04  0.00000000000E+00 0.  1.
         22    1    1    2    0    0 -0.11890969345E+04 -0.31116691832E+02  0.47896108651E+03  0.12823117759E+04  0.00000000000E+00 0. -1.
<mgrwt>
<rscale>  0 0.32335679E+04</rscale>
<asrwt>0</asrwt>
<pdfrwt beam="1">  1        2 0.38252038E+00 0.32335679E+04</pdfrwt>
<pdfrwt beam="2">  1       -2 0.16174196E+00 0.32335679E+04</pdfrwt>
<totfact> 0.72786234E-01</totfact>
</mgrwt>
</event>
<event>
 6    1  0.1934315E-005  0.4837374E+04  0.7818608E-02  0.7854095E-01
         -2   -1    0    0    0  501 -0.00000000000E+00  0.00000000000E+00  0.20509394022E+04  0.20509394022E+04  0.00000000000E+00 0. -1.
          2   -1    0    0  501    0  0.00000000000E+00 -0.00000000000E+00 -0.28523737384E+04  0.28523737384E+04  0.00000000000E+00 0.  1.
         23    2    1    2    0    0  0.27873985439E+03  0.20370747279E+04  0.88865370670E+03  0.22417784430E+04  0.92172791913E+02 0.  0.
         13    1    3    3    0    0  0.42176502523E+02  0.61745099629E+03  0.26141598725E+03  0.67183547731E+03  0.00000000000E+00 0.  1.
        -13    1    3    3    0    0  0.23656335187E+03  0.14196237316E+04  0.62723771944E+03  0.15699429657E+04  0.00000000000E+00 0. -1.
         22    1    1    2    0    0 -0.27873985439E+03 -0.20370747279E+04 -0.16900880429E+04  0.26615346976E+04  0.00000000000E+00 0.  1.
<mgrwt>
<rscale>  0 0.48373735E+04</rscale>
<asrwt>0</asrwt>
<pdfrwt beam="1">  1        2 0.43882673E+00 0.48373735E+04</pdfrwt>
<pdfrwt beam="2">  1       -2 0.31552914E+00 0.48373735E+04</pdfrwt>
<totfact> 0.40423646E-02</totfact>
</mgrwt>
</event>
<event>
 6    1  0.1934315E-005  0.1700244E+04  0.7818608E-02  0.8761225E-01
         -2   -1    0    0    0  501 -0.00000000000E+00  0.00000000000E+00  0.25213974176E+03  0.25213974176E+03  0.00000000000E+00 0. -1.
          2   -1    0    0  501    0  0.00000000000E+00 -0.00000000000E+00 -0.28662976068E+04  0.28662976068E+04  0.00000000000E+00 0.  1.
         23    2    1    2    0    0 -0.47844515353E+03 -0.31254599153E+03 -0.24590964176E+04  0.25262897198E+04  0.91595827414E+02 0.  0.
         11    1    3    3    0    0 -0.46097147594E+03 -0.29441718936E+03 -0.22428480930E+04  0.23085804624E+04  0.00000000000E+00 0. -1.
        -11    1    3    3    0    0 -0.17473677591E+02 -0.18128802168E+02 -0.21624832461E+03  0.21770925744E+03  0.00000000000E+00 0.  1.
         22    1    1    2    0    0  0.47844515353E+03  0.31254599153E+03 -0.15506144743E+03  0.59214762875E+03  0.00000000000E+00 0. -1.
<mgrwt>
<rscale>  0 0.17002441E+04</rscale>
<asrwt>0</asrwt>
<pdfrwt beam="1">  1        2 0.44096885E+00 0.17002441E+04</pdfrwt>
<pdfrwt beam="2">  1       -2 0.38790731E-01 0.17002441E+04</pdfrwt>
<totfact> 0.12639769E+01</totfact>
</mgrwt>
</event>
<event>
 6    1  0.1934315E-005  0.2737075E+04  0.7818608E-02  0.8323075E-01
         -2   -1    0    0    0  501 -0.00000000000E+00  0.00000000000E+00  0.80986830754E+03  0.80986830754E+03  0.00000000000E+00 0. -1.
          2   -1    0    0  501    0  0.00000000000E+00 -0.00000000000E+00 -0.23125912261E+04  0.23125912261E+04  0.00000000000E+00 0.  1.
         23    2    1    2    0    0  0.50132329475E+01  0.85735373223E+03  0.46247354054E+03  0.97837985287E+03  0.90910979122E+02 0.  0.
         11    1    3    3    0    0 -0.13571504575E+02  0.46524497767E+03  0.29864919489E+03  0.55301755541E+03  0.00000000000E+00 0.  1.
        -11    1    3    3    0    0  0.18584737522E+02  0.39210875456E+03  0.16382434565E+03  0.42536229746E+03  0.00000000000E+00 0. -1.
         22    1    1    2    0    0 -0.50132329475E+01 -0.85735373223E+03 -0.19651964591E+04  0.21440796808E+04  0.00000000000E+00 0.  1.
<mgrwt>
<rscale>  0 0.27370746E+04</rscale>
<asrwt>0</asrwt>
<pdfrwt beam="1">  1        2 0.35578327E+00 0.27370746E+04</pdfrwt>
<pdfrwt beam="2">  1       -2 0.12459512E+00 0.27370746E+04</pdfrwt>
<totfact> 0.18852699E+00</totfact>
</mgrwt>
</event>
<event>
 6    1  0.1934315E-005  0.4968277E+03  0.7818608E-02  0.1014610E+00
          2   -1    0    0  501    0  0.00000000000E+00  0.00000000000E+00  0.57833929454E+03  0.57833929454E+03  0.00000000000E+00 0.  1.
         -2   -1    0    0    0  501 -0.00000000000E+00 -0.00000000000E+00 -0.10670112021E+03  0.10670112021E+03  0.00000000000E+00 0. -1.
         23    2    1    2    0    0  0.75156028656E+02 -0.22854580531E+02  0.55651049847E+03  0.56939409229E+03  0.91295875757E+02 0.  0.
         11    1    3    3    0    0  0.20170369252E+02  0.31940240462E+02  0.26692087862E+03  0.26958074524E+03  0.00000000000E+00 0. -1.
        -11    1    3    3    0    0  0.54985659404E+02 -0.54794820993E+02  0.28958961985E+03  0.29981334705E+03  0.00000000000E+00 0.  1.
         22    1    1    2    0    0 -0.75156028656E+02  0.22854580531E+02 -0.84872324141E+02  0.11564632247E+03  0.00000000000E+00 0. -1.
<mgrwt>
<rscale>  0 0.49682774E+03</rscale>
<asrwt>0</asrwt>
<pdfrwt beam="1">  1        2 0.88975274E-01 0.49682774E+03</pdfrwt>
<pdfrwt beam="2">  1       -2 0.16415557E-01 0.49682774E+03</pdfrwt>
<totfact> 0.15570811E+03</totfact>
</mgrwt>
</event>
<event>
 6    1  0.1934315E-005  0.4283616E+04  0.7818608E-02  0.7949655E-01
          2   -1    0    0  501    0  0.00000000000E+00  0.00000000000E+00  0.16519175119E+04  0.16519175119E+04  0.00000000000E+00 0.  1.
         -2   -1    0    0    0  501 -0.00000000000E+00 -0.00000000000E+00 -0.27769795999E+04  0.27769795999E+04  0.00000000000E+00 0. -1.
         23    2    1    2    0    0 -0.10081406070E+03  0.63827248679E+03  0.15474528365E+04  0.16793714684E+04  0.90127716386E+02 0.  0.
         13    1    3    3    0    0 -0.42750260997E+02  0.34708336846E+03  0.94723086177E+03  0.10097231081E+04  0.00000000000E+00 0. -1.
        -13    1    3    3    0    0 -0.58063799707E+02  0.29118911833E+03  0.60022197476E+03  0.66964836030E+03  0.00000000000E+00 0.  1.
         22    1    1    2    0    0  0.10081406070E+03 -0.63827248679E+03 -0.26725149246E+04  0.27495256435E+04  0.00000000000E+00 0. -1.
<mgrwt>
<rscale>  0 0.42836159E+04</rscale>
<asrwt>0</asrwt>
<pdfrwt beam="1">  1        2 0.25414116E+00 0.42836159E+04</pdfrwt>
<pdfrwt beam="2">  1       -2 0.42722763E+00 0.42836159E+04</pdfrwt>
<totfact> 0.39510757E-02</totfact>
</mgrwt>
</event>
<event>
 6    1  0.1934315E-005  0.4384071E+04  0.7818608E-02  0.7931253E-01
          2   -1    0    0  501    0  0.00000000000E+00  0.00000000000E+00  0.13122816566E+04  0.13122816566E+04  0.00000000000E+00 0.  1.
         -2   -1    0    0    0  501 -0.00000000000E+00 -0.00000000000E+00 -0.36615768127E+04  0.36615768127E+04  0.00000000000E+00 0. -1.
         23    2    1    2    0    0  0.14607600079E+04  0.15780376985E+04 -0.69816151550E+03  0.22627212397E+04  0.91951770729E+02 0.  0.
         11    1    3    3    0    0  0.87184543029E+03  0.87492531090E+03 -0.40180766741E+03  0.12988680285E+04  0.00000000000E+00 0. -1.
        -11    1    3    3    0    0  0.58891457761E+03  0.70311238765E+03 -0.29635384809E+03  0.96385321116E+03  0.00000000000E+00 0.  1.
         22    1    1    2    0    0 -0.14607600079E+04 -0.15780376985E+04 -0.16511336406E+04  0.27111372296E+04  0.00000000000E+00 0. -1.
<mgrwt>
<rscale>  0 0.43840712E+04</rscale>
<asrwt>0</asrwt>
<pdfrwt beam="1">  1        2 0.20188949E+00 0.43840712E+04</pdfrwt>
<pdfrwt beam="2">  1       -2 0.56331951E+00 0.43840712E+04</pdfrwt>
<totfact> 0.91540828E-03</totfact>
</mgrwt>
</event>
<event>
 6    1  0.2386405E-005  0.2946609E+04  0.7818608E-02  0.8259143E-01
          2   -1    0    0  501    0  0.00000000000E+00  0.00000000000E+00  0.20255585555E+04  0.20255585555E+04  0.00000000000E+00 0.  1.
         -2   -1    0    0    0  501 -0.00000000000E+00 -0.00000000000E+00 -0.10716185770E+04  0.10716185770E+04  0.00000000000E+00 0. -1.
         23    2    1    2    0    0 -0.90354531792E+03 -0.85433188920E+03  0.13051206679E+04  0.18050451752E+04  0.92579739955E+02 0.  0.
         11    1    3    3    0    0 -0.71472093620E+03 -0.69834784701E+03  0.99868322303E+03  0.14127575560E+04  0.00000000000E+00 0. -1.
        -11    1    3    3    0    0 -0.18882438172E+03 -0.15598404219E+03  0.30643744492E+03  0.39228761923E+03  0.00000000000E+00 0.  1.
         22    1    1    2    0    0  0.90354531792E+03  0.85433188920E+03 -0.35118068942E+03  0.12921319573E+04  0.00000000000E+00 0. -1.
<mgrwt>
<rscale>  0 0.29466090E+04</rscale>
<asrwt>0</asrwt>
<pdfrwt beam="1">  1        2 0.31162439E+00 0.29466090E+04</pdfrwt>
<pdfrwt beam="2">  1       -2 0.16486440E+00 0.29466090E+04</pdfrwt>
<totfact> 0.12900470E+00</totfact>
</mgrwt>
</event>
<event>
 6    1  0.1934315E-005  0.1471044E+04  0.7818608E-02  0.8903940E-01
         -2   -1    0    0    0  501 -0.00000000000E+00  0.00000000000E+00  0.12706377854E+03  0.12706377854E+03  0.00000000000E+00 0. -1.
          2   -1    0    0  501    0  0.00000000000E+00 -0.00000000000E+00 -0.42576453536E+04  0.42576453536E+04  0.00000000000E+00 0.  1.
         23    2    1    2    0    0  0.12681999844E+03  0.71039788266E+03 -0.16912598026E+04  0.18408854014E+04  0.88039067222E+02 0.  0.
         13    1    3    3    0    0 -0.66607350514E+01  0.10848895016E+03 -0.30206413049E+03  0.32102485360E+03  0.00000000000E+00 0. -1.
        -13    1    3    3    0    0  0.13348073350E+03  0.60190893250E+03 -0.13891956721E+04  0.15198605478E+04  0.00000000000E+00 0.  1.
         22    1    1    2    0    0 -0.12681999844E+03 -0.71039788266E+03 -0.24393217724E+04  0.25438237308E+04  0.00000000000E+00 0.  1.
<mgrwt>
<rscale>  0 0.14710439E+04</rscale>
<asrwt>0</asrwt>
<pdfrwt beam="1">  1        2 0.65502230E+00 0.14710439E+04</pdfrwt>
<pdfrwt beam="2">  1       -2 0.19548276E-01 0.14710439E+04</pdfrwt>
<totfact> 0.45993425E+00</totfact>
</mgrwt>
</event>
<event>
 6    1  0.1934315E-005  0.2508224E+04  0.7818608E-02  0.8400062E-01
         -1   -1    0    0    0  501 -0.00000000000E+00  0.00000000000E+00  0.88847279390E+03  0.88847279390E+03  0.00000000000E+00 0. -1.
          1   -1    0    0  501    0  0.00000000000E+00 -0.00000000000E+00 -0.17702246312E+04  0.17702246312E+04  0.00000000000E+00 0.  1.
         23    2    1    2    0    0  0.11004120622E+04 -0.55242481038E+03 -0.67855337716E+03  0.14107513157E+04  0.11706712230E+03 0.  0.
         11    1    3    3    0    0  0.60644391081E+03 -0.24365950648E+03 -0.38331083550E+03  0.75767497561E+03  0.00000000000E+00 0. -1.
        -11    1    3    3    0    0  0.49396815144E+03 -0.30876530390E+03 -0.29524254166E+03  0.65307634005E+03  0.00000000000E+00 0.  1.
         22    1    1    2    0    0 -0.11004120622E+04  0.55242481038E+03 -0.20319846015E+03  0.12479461094E+04  0.00000000000E+00 0. -1.
<mgrwt>
<rscale>  0 0.25082236E+04</rscale>
<asrwt>0</asrwt>
<pdfrwt beam="1">  1        1 0.27234225E+00 0.25082236E+04</pdfrwt>
<pdfrwt beam="2">  1       -1 0.13668812E+00 0.25082236E+04</pdfrwt>
<totfact> 0.16905627E+00</totfact>
</mgrwt>
</event>
<event>
 6    1  0.1934315E-005  0.8436984E+03  0.7818608E-02  0.9498834E-01
          2   -1    0    0  501    0  0.00000000000E+00  0.00000000000E+00  0.16225869269E+04  0.16225869269E+04  0.00000000000E+00 0.  1.
         -2   -1    0    0    0  501 -0.00000000000E+00 -0.00000000000E+00 -0.10967469534E+03  0.10967469534E+03  0.00000000000E+00 0. -1.
         23    2    1    2    0    0 -0.43260141808E+02  0.11788330060E+03  0.15815806967E+04  0.15891418454E+04  0.90589139071E+02 0.  0.
         13    1    3    3    0    0 -0.34537590531E+02  0.24418172672E+02  0.91577576618E+03  0.91675206366E+03  0.00000000000E+00 0.  1.
        -13    1    3    3    0    0 -0.87225512771E+01  0.93465127928E+02  0.66580493051E+03  0.67238978169E+03  0.00000000000E+00 0. -1.
         22    1    1    2    0    0  0.43260141808E+02 -0.11788330060E+03 -0.68668465130E+02  0.14311977688E+03  0.00000000000E+00 0. -1.
<mgrwt>
<rscale>  0 0.84369835E+03</rscale>
<asrwt>0</asrwt>
<pdfrwt beam="1">  1        2 0.24962874E+00 0.84369835E+03</pdfrwt>
<pdfrwt beam="2">  1       -2 0.16873031E-01 0.84369835E+03</pdfrwt>
<totfact> 0.31334834E+02</totfact>
</mgrwt>
</event>
<event>
 6    1  0.1934315E-005  0.6792481E+04  0.7818608E-02  0.7599224E-01
         -2   -1    0    0    0  501 -0.00000000000E+00  0.00000000000E+00  0.29566150901E+04  0.29566150901E+04  0.00000000000E+00 0. -1.
          2   -1    0    0  501    0  0.00000000000E+00 -0.00000000000E+00 -0.39012350759E+04  0.39012350759E+04  0.00000000000E+00 0.  1.
         23    2    1    2    0    0 -0.16229365383E+04 -0.16483856018E+04 -0.29821205691E+04  0.37752365467E+04  0.90938416464E+02 0.  0.
         11    1    3    3    0    0 -0.55580373610E+03 -0.52284532047E+03 -0.10346479144E+04  0.12856054328E+04  0.00000000000E+00 0. -1.
        -11    1    3    3    0    0 -0.10671328022E+04 -0.11255402813E+04 -0.19474726547E+04  0.24896311138E+04  0.00000000000E+00 0.  1.
         22    1    1    2    0    0  0.16229365383E+04  0.16483856018E+04  0.20375005833E+04  0.30826136193E+04  0.00000000000E+00 0. -1.
<mgrwt>
<rscale>  0 0.67924813E+04</rscale>
<asrwt>0</asrwt>
<pdfrwt beam="1">  1        2 0.60019001E+00 0.67924813E+04</pdfrwt>
<pdfrwt beam="2">  1       -2 0.45486386E+00 0.67924813E+04</pdfrwt>
<totfact> 0.83882440E-04</totfact>
</mgrwt>
</event>
<event>
 6    1  0.1934315E-005  0.1461381E+04  0.7818608E-02  0.8910548E-01
         -2   -1    0    0    0  501 -0.00000000000E+00  0.00000000000E+00  0.20466353637E+04  0.20466353637E+04  0.00000000000E+00 0. -1.
          2   -1    0    0  501    0  0.00000000000E+00 -0.00000000000E+00 -0.26087123187E+03  0.26087123187E+03  0.00000000000E+00 0.  1.
         23    2    1    2    0    0  0.10287036701E+01  0.61823761352E+03  0.15029075070E+04  0.16276340522E+04  0.90790022601E+02 0.  0.
         11    1    3    3    0    0 -0.28138694974E+02  0.54106881995E+03  0.13269048534E+04  0.14332563428E+04  0.00000000000E+00 0. -1.
        -11    1    3    3    0    0  0.29167398644E+02  0.77168793572E+02  0.17600265360E+03  0.19437770942E+03  0.00000000000E+00 0.  1.
         22    1    1    2    0    0 -0.10287036701E+01 -0.61823761352E+03  0.28285662478E+03  0.67987254334E+03  0.00000000000E+00 0.  1.
<mgrwt>
<rscale>  0 0.14613806E+04</rscale>
<asrwt>0</asrwt>
<pdfrwt beam="1">  1        2 0.40134037E-01 0.14613806E+04</pdfrwt>
<pdfrwt beam="2">  1       -2 0.31486697E+00 0.14613806E+04</pdfrwt>
<totfact> 0.32195371E+00</totfact>
</mgrwt>
</event>
<event>
 6    1  0.1934315E-005  0.7334862E+03  0.7818608E-02  0.9661620E-01
          2   -1    0    0  501    0  0.00000000000E+00  0.00000000000E+00  0.12123075174E+04  0.12123075174E+04  0.00000000000E+00 0.  1.
         -2   -1    0    0    0  501 -0.00000000000E+00 -0.00000000000E+00 -0.11094586653E+03  0.11094586653E+03  0.00000000000E+00 0. -1.
         23    2    1    2    0    0 -0.12845324323E+03 -0.31995413349E+03  0.36503278340E+03  0.51020290314E+03  0.90483071272E+02 0.  0.
         11    1    3    3    0    0 -0.81926584021E+02 -0.28940478848E+03  0.30632364692E+03  0.42930324181E+03  0.00000000000E+00 0.  1.
        -11    1    3    3    0    0 -0.46526659211E+02 -0.30549345002E+02  0.58709136481E+02  0.80899661333E+02  0.00000000000E+00 0. -1.
         22    1    1    2    0    0  0.12845324323E+03  0.31995413349E+03  0.73632886744E+03  0.81305048076E+03  0.00000000000E+00 0.  1.
<mgrwt>
<rscale>  0 0.73348622E+03</rscale>
<asrwt>0</asrwt>
<pdfrwt beam="1">  1        2 0.18650884E+00 0.73348622E+03</pdfrwt>
<pdfrwt beam="2">  1       -2 0.17068596E-01 0.73348622E+03</pdfrwt>
<totfact> 0.52785161E+02</totfact>
</mgrwt>
</event>
<event>
 6    1  0.2103002E-005  0.3871413E+04  0.7818608E-02  0.8031001E-01
         -2   -1    0    0    0  501 -0.00000000000E+00  0.00000000000E+00  0.21070716030E+04  0.21070716030E+04  0.00000000000E+00 0. -1.
          2   -1    0    0  501    0  0.00000000000E+00 -0.00000000000E+00 -0.17782780284E+04  0.17782780284E+04  0.00000000000E+00 0.  1.
         23    2    1    2    0    0 -0.34385809864E+03  0.19037293530E+04  0.18447067722E+03  0.19454390819E+04  0.90994224651E+02 0.  0.
         13    1    3    3    0    0 -0.25513965896E+03  0.11848435777E+04  0.98048182553E+02  0.12159621685E+04  0.00000000000E+00 0.  1.
        -13    1    3    3    0    0 -0.88718439681E+02  0.71888577537E+03  0.86422494671E+02  0.72947691338E+03  0.00000000000E+00 0. -1.
         22    1    1    2    0    0  0.34385809864E+03 -0.19037293530E+04  0.14432289738E+03  0.19399105496E+04  0.00000000000E+00 0. -1.
<mgrwt>
<rscale>  0 0.38714127E+04</rscale>
<asrwt>0</asrwt>
<pdfrwt beam="1">  1        2 0.27358124E+00 0.38714127E+04</pdfrwt>
<pdfrwt beam="2">  1       -2 0.32416486E+00 0.38714127E+04</pdfrwt>
<totfact> 0.15955524E-01</totfact>
</mgrwt>
</event>
<event>
 6    1  0.1934315E-005  0.4202271E+04  0.7818608E-02  0.7964940E-01
         -2   -1    0    0    0  501 -0.00000000000E+00  0.00000000000E+00  0.95525982828E+03  0.95525982828E+03  0.00000000000E+00 0. -1.
          2   -1    0    0  501    0  0.00000000000E+00 -0.00000000000E+00 -0.46215389357E+04  0.46215389357E+04  0.00000000000E+00 0.  1.
         23    2    1    2    0    0  0.40975288527E+03 -0.14379089919E+03 -0.45609098588E+04  0.45823454312E+04  0.86125843123E+02 0.  0.
         11    1    3    3    0    0  0.56387877197E+02 -0.52292964271E+02 -0.69533195370E+03  0.69957177805E+03  0.00000000000E+00 0.  1.
        -11    1    3    3    0    0  0.35336500807E+03 -0.91497934920E+02 -0.38655779051E+04  0.38827736531E+04  0.00000000000E+00 0. -1.
         22    1    1    2    0    0 -0.40975288527E+03  0.14379089919E+03  0.89463075141E+03  0.99445333277E+03  0.00000000000E+00 0. -1.
<mgrwt>
<rscale>  0 0.42022710E+04</rscale>
<asrwt>0</asrwt>
<pdfrwt beam="1">  1        2 0.71100600E+00 0.42022710E+04</pdfrwt>
<pdfrwt beam="2">  1       -2 0.14696305E+00 0.42022710E+04</pdfrwt>
<totfact> 0.22590047E-02</totfact>
</mgrwt>
</event>
<event>
 6    1  0.3525805E-005  0.2637704E+04  0.7818608E-02  0.8355506E-01
          2   -1    0    0  501    0  0.00000000000E+00  0.00000000000E+00  0.21030734997E+04  0.21030734997E+04  0.00000000000E+00 0.  1.
         -2   -1    0    0    0  501 -0.00000000000E+00 -0.00000000000E+00 -0.82706123975E+03  0.82706123975E+03  0.00000000000E+00 0. -1.
         23    2    1    2    0    0 -0.84153785600E+03 -0.97241232463E+03  0.31724602119E+03  0.13260760146E+04  0.63724927454E+02 0.  0.
         13    1    3    3    0    0 -0.37662620666E+03 -0.47074927898E+03  0.12631100942E+03  0.61595994537E+03  0.00000000000E+00 0.  1.
        -13    1    3    3    0    0 -0.46491164934E+03 -0.50166304565E+03  0.19093501177E+03  0.71011606923E+03  0.00000000000E+00 0. -1.
         22    1    1    2    0    0  0.84153785600E+03  0.97241232463E+03  0.95876623875E+03  0.16040587248E+04  0.00000000000E+00 0.  1.
<mgrwt>
<rscale>  0 0.26377040E+04</rscale>
<asrwt>0</asrwt>
<pdfrwt beam="1">  1        2 0.32354977E+00 0.26377040E+04</pdfrwt>
<pdfrwt beam="2">  1       -2 0.12724019E+00 0.26377040E+04</pdfrwt>
<totfact> 0.23663034E+00</totfact>
</mgrwt>
</event>
<event>
 6    1  0.1934315E-005  0.2791378E+04  0.7818608E-02  0.8305950E-01
         -2   -1    0    0    0  501 -0.00000000000E+00  0.00000000000E+00  0.80135193051E+03  0.80135193051E+03  0.00000000000E+00 0. -1.
          2   -1    0    0  501    0  0.00000000000E+00 -0.00000000000E+00 -0.24308268214E+04  0.24308268214E+04  0.00000000000E+00 0.  1.
         23    2    1    2    0    0  0.68950217614E+03  0.37905520462E+03  0.51630229678E+03  0.94669065564E+03  0.10275717380E+03 0.  0.
         11    1    3    3    0    0  0.14474989752E+03  0.10685519697E+03  0.16227122077E+03  0.24228601908E+03  0.00000000000E+00 0.  1.
        -11    1    3    3    0    0  0.54475227862E+03  0.27220000766E+03  0.35403107601E+03  0.70440463657E+03  0.00000000000E+00 0. -1.
         22    1    1    2    0    0 -0.68950217614E+03 -0.37905520462E+03 -0.21457771876E+04  0.22854880962E+04  0.00000000000E+00 0.  1.
<mgrwt>
<rscale>  0 0.27913780E+04</rscale>
<asrwt>0</asrwt>
<pdfrwt beam="1">  1        2 0.37397335E+00 0.27913780E+04</pdfrwt>
<pdfrwt beam="2">  1       -2 0.12328491E+00 0.27913780E+04</pdfrwt>
<totfact> 0.16493901E+00</totfact>
</mgrwt>
</event>
<event>
 6    1  0.1934315E-005  0.2750533E+04  0.7818608E-02  0.8318792E-01
         -2   -1    0    0    0  501 -0.00000000000E+00  0.00000000000E+00  0.10155256220E+04  0.10155256220E+04  0.00000000000E+00 0. -1.
          2   -1    0    0  501    0  0.00000000000E+00 -0.00000000000E+00 -0.18624425966E+04  0.18624425966E+04  0.00000000000E+00 0.  1.
         23    2    1    2    0    0  0.79703522382E+03  0.24622262926E+03 -0.15659324630E+04  0.17766626280E+04  0.92167695136E+02 0.  0.
         11    1    3    3    0    0  0.91633145895E+02  0.56827986519E+02 -0.23295300741E+03  0.25669662471E+03  0.00000000000E+00 0. -1.
        -11    1    3    3    0    0  0.70540207792E+03  0.18939464274E+03 -0.13329794556E+04  0.15199660033E+04  0.00000000000E+00 0.  1.
         22    1    1    2    0    0 -0.79703522382E+03 -0.24622262926E+03  0.71901548846E+03  0.11013055906E+04  0.00000000000E+00 0. -1.
<mgrwt>
<rscale>  0 0.27505332E+04</rscale>
<asrwt>0</asrwt>
<pdfrwt beam="1">  1        2 0.28652963E+00 0.27505332E+04</pdfrwt>
<pdfrwt beam="2">  1       -2 0.15623471E+00 0.27505332E+04</pdfrwt>
<totfact> 0.18706084E+00</totfact>
</mgrwt>
</event>
<event>
 6    1  0.1934315E-005  0.2561659E+04  0.7818608E-02  0.8381343E-01
          2   -1    0    0  501    0  0.00000000000E+00  0.00000000000E+00  0.13340496409E+04  0.13340496409E+04  0.00000000000E+00 0.  1.
         -2   -1    0    0    0  501 -0.00000000000E+00 -0.00000000000E+00 -0.12297326708E+04  0.12297326708E+04  0.00000000000E+00 0. -1.
         23    2    1    2    0    0  0.11093907272E+04 -0.51414317277E+03  0.42849712998E+03  0.12987986106E+04  0.90427057577E+02 0.  0.
         13    1    3    3    0    0  0.99265622982E+02 -0.45432230648E+02  0.66676611256E+02  0.12791998271E+03  0.00000000000E+00 0. -1.
        -13    1    3    3    0    0  0.10101251042E+04 -0.46871094213E+03  0.36182051872E+03  0.11708786279E+04  0.00000000000E+00 0.  1.
         22    1    1    2    0    0 -0.11093907272E+04  0.51414317277E+03 -0.32418015990E+03  0.12649837010E+04  0.00000000000E+00 0. -1.
<mgrwt>
<rscale>  0 0.25616592E+04</rscale>
<asrwt>0</asrwt>
<pdfrwt beam="1">  1        2 0.20523841E+00 0.25616592E+04</pdfrwt>
<pdfrwt beam="2">  1       -2 0.18918964E+00 0.25616592E+04</pdfrwt>
<totfact> 0.21999449E+00</totfact>
</mgrwt>
</event>
<event>
 6    1  0.1934315E-005  0.1090380E+04  0.7818608E-02  0.9214619E-01
          2   -1    0    0  501    0  0.00000000000E+00  0.00000000000E+00  0.27409872219E+03  0.27409872219E+03  0.00000000000E+00 0.  1.
         -2   -1    0    0    0  501 -0.00000000000E+00 -0.00000000000E+00 -0.10843982364E+04  0.10843982364E+04  0.00000000000E+00 0. -1.
         23    2    1    2    0    0  0.19259227012E+03 -0.17796046983E+03  0.18206317846E+03  0.33207334957E+03  0.91454891670E+02 0.  0.
         13    1    3    3    0    0  0.20049286751E+02  0.53910755353E+01  0.34442505439E+02  0.40215964187E+02  0.00000000000E+00 0. -1.
        -13    1    3    3    0    0  0.17254298337E+03 -0.18335154537E+03  0.14762067303E+03  0.29185738539E+03  0.00000000000E+00 0.  1.
         22    1    1    2    0    0 -0.19259227012E+03  0.17796046983E+03 -0.99236269265E+03  0.10264236090E+04  0.00000000000E+00 0. -1.
<mgrwt>
<rscale>  0 0.10903801E+04</rscale>
<asrwt>0</asrwt>
<pdfrwt beam="1">  1        2 0.42169034E-01 0.10903801E+04</pdfrwt>
<pdfrwt beam="2">  1       -2 0.16683050E+00 0.10903801E+04</pdfrwt>
<totfact> 0.27062076E+01</totfact>
</mgrwt>
</event>
<event>
 6    1  0.1934315E-005  0.2900682E+04  0.7818608E-02  0.8272675E-01
         -2   -1    0    0    0  501 -0.00000000000E+00  0.00000000000E+00  0.11069379970E+04  0.11069379970E+04  0.00000000000E+00 0.  1.
          2   -1    0    0  501    0  0.00000000000E+00 -0.00000000000E+00 -0.19002770806E+04  0.19002770806E+04  0.00000000000E+00 0. -1.
         23    2    1    2    0    0 -0.98334151920E+02  0.13215456063E+04 -0.10043483140E+04  0.16653219037E+04  0.91810196291E+02 0.  0.
         13    1    3    3    0    0  0.12048561053E+02  0.36655551974E+03 -0.26232488845E+03  0.45091292283E+03  0.00000000000E+00 0. -1.
        -13    1    3    3    0    0 -0.11038271297E+03  0.95499008654E+03 -0.74202342553E+03  0.12144089808E+04  0.00000000000E+00 0.  1.
         22    1    1    2    0    0  0.98334151920E+02 -0.13215456063E+04  0.21100923035E+03  0.13418931739E+04  0.00000000000E+00 0.  1.
<mgrwt>
<rscale>  0 0.29006819E+04</rscale>
<asrwt>0</asrwt>
<pdfrwt beam="1">  1        2 0.29235032E+00 0.29006819E+04</pdfrwt>
<pdfrwt beam="2">  1       -2 0.17029816E+00 0.29006819E+04</pdfrwt>
<totfact> 0.13895798E+00</totfact>
</mgrwt>
</event>
<event>
 6    1  0.1934315E-005  0.9830435E+03  0.7818608E-02  0.9327340E-01
         -2   -1    0    0    0  501 -0.00000000000E+00  0.00000000000E+00  0.14108017831E+03  0.14108017831E+03  0.00000000000E+00 0. -1.
          2   -1    0    0  501    0  0.00000000000E+00 -0.00000000000E+00 -0.17124563100E+04  0.17124563100E+04  0.00000000000E+00 0.  1.
         23    2    1    2    0    0 -0.71412193041E+02  0.13806390212E+03 -0.16631792631E+04  0.16730118161E+04  0.92961999133E+02 0.  0.
         11    1    3    3    0    0 -0.87403445377E+02  0.91086450123E+02 -0.99191126627E+03  0.99991202804E+03  0.00000000000E+00 0.  1.
        -11    1    3    3    0    0  0.15991252336E+02  0.46977451998E+02 -0.67126799679E+03  0.67309978804E+03  0.00000000000E+00 0. -1.
         22    1    1    2    0    0  0.71412193041E+02 -0.13806390212E+03  0.91803131319E+02  0.18052467229E+03  0.00000000000E+00 0. -1.
<mgrwt>
<rscale>  0 0.98304352E+03</rscale>
<asrwt>0</asrwt>
<pdfrwt beam="1">  1        2 0.26345482E+00 0.98304352E+03</pdfrwt>
<pdfrwt beam="2">  1       -2 0.21704643E-01 0.98304352E+03</pdfrwt>
<totfact> 0.17850075E+02</totfact>
</mgrwt>
</event>
<event>
 6    1  0.1934315E-005  0.4760050E+04  0.7818608E-02  0.7866627E-01
          2   -1    0    0  501    0  0.00000000000E+00  0.00000000000E+00  0.22416813854E+04  0.22416813854E+04  0.00000000000E+00 0.  1.
         -2   -1    0    0    0  501 -0.00000000000E+00 -0.00000000000E+00 -0.25269066817E+04  0.25269066817E+04  0.00000000000E+00 0. -1.
         23    2    1    2    0    0 -0.22999479012E+04 -0.87402319975E+02 -0.74631010699E+03  0.24212494216E+04  0.89835807994E+02 0.  0.
         13    1    3    3    0    0 -0.56417540278E+03 -0.43957074245E+02 -0.15055918165E+03  0.58557166655E+03  0.00000000000E+00 0.  1.
        -13    1    3    3    0    0 -0.17357724984E+04 -0.43445245730E+02 -0.59575092534E+03  0.18356777551E+04  0.00000000000E+00 0. -1.
         22    1    1    2    0    0  0.22999479012E+04  0.87402319975E+02  0.46108481073E+03  0.23473386454E+04  0.00000000000E+00 0.  1.
<mgrwt>
<rscale>  0 0.47600503E+04</rscale>
<asrwt>0</asrwt>
<pdfrwt beam="1">  1        2 0.34487406E+00 0.47600503E+04</pdfrwt>
<pdfrwt beam="2">  1       -2 0.38875487E+00 0.47600503E+04</pdfrwt>
<totfact> 0.31904747E-02</totfact>
</mgrwt>
</event>
<event>
 6    1  0.1934315E-005  0.1098927E+04  0.7818608E-02  0.9206238E-01
         -2   -1    0    0    0  501 -0.00000000000E+00  0.00000000000E+00  0.87902293753E+03  0.87902293753E+03  0.00000000000E+00 0.  1.
          2   -1    0    0  501    0  0.00000000000E+00 -0.00000000000E+00 -0.34346127783E+03  0.34346127783E+03  0.00000000000E+00 0. -1.
         23    2    1    2    0    0 -0.53721066277E+03 -0.44437804891E+02  0.36484594636E+03  0.65705175301E+03  0.89634964503E+02 0.  0.
         11    1    3    3    0    0 -0.29172793506E+03 -0.67542925299E+02  0.18702333314E+03  0.35305093399E+03  0.00000000000E+00 0. -1.
        -11    1    3    3    0    0 -0.24548272771E+03  0.23105120408E+02  0.17782261321E+03  0.30400081901E+03  0.00000000000E+00 0.  1.
         22    1    1    2    0    0  0.53721066277E+03  0.44437804891E+02  0.17071571335E+03  0.56543246235E+03  0.00000000000E+00 0. -1.
<mgrwt>
<rscale>  0 0.10989274E+04</rscale>
<asrwt>0</asrwt>
<pdfrwt beam="1">  1        2 0.52840197E-01 0.10989274E+04</pdfrwt>
<pdfrwt beam="2">  1       -2 0.13523430E+00 0.10989274E+04</pdfrwt>
<totfact> 0.36778042E+01</totfact>
</mgrwt>
</event>
<event>
 6    1  0.1934315E-005  0.5145567E+04  0.7818608E-02  0.7806436E-01
          2   -1    0    0  501    0  0.00000000000E+00  0.00000000000E+00  0.32718927594E+04  0.32718927594E+04  0.00000000000E+00 0.  1.
         -2   -1    0    0    0  501 -0.00000000000E+00 -0.00000000000E+00 -0.20230539179E+04  0.20230539179E+04  0.00000000000E+00 0. -1.
         23    2    1    2    0    0  0.16619538180E+04  0.18919198166E+04  0.11628744955E+04  0.27752560307E+04  0.91202293390E+02 0.  0.
         13    1    3    3    0    0  0.96917702291E+03  0.11323666407E+04  0.64347203280E+03  0.16234575965E+04  0.00000000000E+00 0.  1.
        -13    1    3    3    0    0  0.69277679512E+03  0.75955317589E+03  0.51940246267E+03  0.11517984342E+04  0.00000000000E+00 0. -1.
         22    1    1    2    0    0 -0.16619538180E+04 -0.18919198166E+04  0.85964346008E+02  0.25196906466E+04  0.00000000000E+00 0. -1.
<mgrwt>
<rscale>  0 0.51455672E+04</rscale>
<asrwt>0</asrwt>
<pdfrwt beam="1">  1        2 0.50336812E+00 0.51455672E+04</pdfrwt>
<pdfrwt beam="2">  1       -2 0.31123906E+00 0.51455672E+04</pdfrwt>
<totfact> 0.22666221E-02</totfact>
</mgrwt>
</event>
<event>
 6    1  0.1934315E-005  0.3154903E+04  0.7818608E-02  0.8200830E-01
          2   -1    0    0  501    0  0.00000000000E+00  0.00000000000E+00  0.14229551498E+04  0.14229551498E+04  0.00000000000E+00 0.  1.
         -2   -1    0    0    0  501 -0.00000000000E+00 -0.00000000000E+00 -0.17487218585E+04  0.17487218585E+04  0.00000000000E+00 0. -1.
         23    2    1    2    0    0 -0.26030243293E+03  0.95439081578E+02 -0.17231962066E+04  0.17470103188E+04  0.75986266378E+02 0.  0.
         13    1    3    3    0    0 -0.58921766225E+02  0.55006651093E+02 -0.41014056846E+03  0.41798659320E+03  0.00000000000E+00 0.  1.
        -13    1    3    3    0    0 -0.20138066671E+03  0.40432430485E+02 -0.13130556381E+04  0.13290237256E+04  0.00000000000E+00 0. -1.
         22    1    1    2    0    0  0.26030243293E+03 -0.95439081578E+02  0.13974294979E+04  0.14246666896E+04  0.00000000000E+00 0.  1.
<mgrwt>
<rscale>  0 0.31549027E+04</rscale>
<asrwt>0</asrwt>
<pdfrwt beam="1">  1        2 0.21891618E+00 0.31549027E+04</pdfrwt>
<pdfrwt beam="2">  1       -2 0.26903413E+00 0.31549027E+04</pdfrwt>
<totfact> 0.58297682E-01</totfact>
</mgrwt>
</event>
<event>
 6    1  0.1934315E-005  0.8578821E+03  0.7818608E-02  0.9479819E-01
         -2   -1    0    0    0  501 -0.00000000000E+00  0.00000000000E+00  0.36662587632E+03  0.36662587632E+03  0.00000000000E+00 0. -1.
          2   -1    0    0  501    0  0.00000000000E+00 -0.00000000000E+00 -0.50184787780E+03  0.50184787780E+03  0.00000000000E+00 0.  1.
         23    2    1    2    0    0 -0.69767110967E+02 -0.18186363493E+03 -0.44978848267E+03  0.49848199398E+03  0.90734710574E+02 0.  0.
         13    1    3    3    0    0 -0.49558486980E+02 -0.35837354402E+02 -0.82367388536E+02  0.10259018616E+03  0.00000000000E+00 0.  1.
        -13    1    3    3    0    0 -0.20208623987E+02 -0.14602628053E+03 -0.36742109413E+03  0.39589180782E+03  0.00000000000E+00 0. -1.
         22    1    1    2    0    0  0.69767110967E+02  0.18186363493E+03  0.31456648119E+03  0.36999176014E+03  0.00000000000E+00 0. -1.
<mgrwt>
<rscale>  0 0.85788209E+03</rscale>
<asrwt>0</asrwt>
<pdfrwt beam="1">  1        2 0.77207366E-01 0.85788209E+03</pdfrwt>
<pdfrwt beam="2">  1       -2 0.56403981E-01 0.85788209E+03</pdfrwt>
<totfact> 0.18185256E+02</totfact>
</mgrwt>
</event>
<event>
 6    1  0.1934315E-005  0.3318264E+04  0.7818608E-02  0.8158264E-01
          2   -1    0    0  501    0  0.00000000000E+00  0.00000000000E+00  0.11823574876E+04  0.11823574876E+04  0.00000000000E+00 0.  1.
         -2   -1    0    0    0  501 -0.00000000000E+00 -0.00000000000E+00 -0.23281606956E+04  0.23281606956E+04  0.00000000000E+00 0. -1.
         23    2    1    2    0    0 -0.82318158425E+03  0.39263784923E+03 -0.20380539220E+04  0.22346248734E+04  0.89956292665E+02 0.  0.
         11    1    3    3    0    0 -0.30366081247E+03  0.18788657441E+03 -0.84507381877E+03  0.91742084838E+03  0.00000000000E+00 0. -1.
        -11    1    3    3    0    0 -0.51952077178E+03  0.20475127482E+03 -0.11929801032E+04  0.13172040250E+04  0.00000000000E+00 0.  1.
         22    1    1    2    0    0  0.82318158425E+03 -0.39263784923E+03  0.89225071395E+03  0.12758933097E+04  0.00000000000E+00 0.  1.
<mgrwt>
<rscale>  0 0.33182635E+04</rscale>
<asrwt>0</asrwt>
<pdfrwt beam="1">  1        2 0.18190115E+00 0.33182635E+04</pdfrwt>
<pdfrwt beam="2">  1       -2 0.35817857E+00 0.33182635E+04</pdfrwt>
<totfact> 0.22342635E-01</totfact>
</mgrwt>
</event>
<event>
 6    1  0.1934315E-005  0.2836916E+04  0.7818608E-02  0.8291898E-01
          2   -1    0    0  501    0  0.00000000000E+00  0.00000000000E+00  0.23036752458E+04  0.23036752458E+04  0.00000000000E+00 0.  1.
         -2   -1    0    0    0  501 -0.00000000000E+00 -0.00000000000E+00 -0.87339671384E+03  0.87339671384E+03  0.00000000000E+00 0. -1.
         23    2    1    2    0    0 -0.30955961626E+03 -0.96089386327E+03 -0.39783365465E+03  0.10887380928E+04  0.89077749679E+02 0.  0.
         13    1    3    3    0    0 -0.17345904514E+03 -0.40108377891E+03 -0.15751348158E+03  0.46450698049E+03  0.00000000000E+00 0. -1.
        -13    1    3    3    0    0 -0.13610057112E+03 -0.55981008436E+03 -0.24032017307E+03  0.62423111232E+03  0.00000000000E+00 0.  1.
         22    1    1    2    0    0  0.30955961626E+03  0.96089386327E+03  0.18281121866E+04  0.20883338668E+04  0.00000000000E+00 0.  1.
<mgrwt>
<rscale>  0 0.28369155E+04</rscale>
<asrwt>0</asrwt>
<pdfrwt beam="1">  1        2 0.35441157E+00 0.28369155E+04</pdfrwt>
<pdfrwt beam="2">  1       -2 0.13436873E+00 0.28369155E+04</pdfrwt>
<totfact> 0.15626522E+00</totfact>
</mgrwt>
</event>
<event>
 6    1  0.1934315E-005  0.3904740E+04  0.7818608E-02  0.8024044E-01
         -2   -1    0    0    0  501 -0.00000000000E+00  0.00000000000E+00  0.25242658734E+04  0.25242658734E+04  0.00000000000E+00 0. -1.
          2   -1    0    0  501    0  0.00000000000E+00 -0.00000000000E+00 -0.15100426752E+04  0.15100426752E+04  0.00000000000E+00 0.  1.
         23    2    1    2    0    0 -0.95324608179E+03  0.15611952076E+04  0.12092228646E+04  0.21947342939E+04  0.92898417210E+02 0.  0.
         13    1    3    3    0    0 -0.27505517245E+03  0.37325087172E+03  0.30219332027E+03  0.55343686537E+03  0.00000000000E+00 0. -1.
        -13    1    3    3    0    0 -0.67819090933E+03  0.11879443359E+04  0.90702954435E+03  0.16412974285E+04  0.00000000000E+00 0.  1.
         22    1    1    2    0    0  0.95324608179E+03 -0.15611952076E+04 -0.19499966643E+03  0.18395742547E+04  0.00000000000E+00 0.  1.
<mgrwt>
<rscale>  0 0.39047403E+04</rscale>
<asrwt>0</asrwt>
<pdfrwt beam="1">  1        2 0.23231426E+00 0.39047403E+04</pdfrwt>
<pdfrwt beam="2">  1       -2 0.38834860E+00 0.39047403E+04</pdfrwt>
<totfact> 0.88006662E-02</totfact>
</mgrwt>
</event>
<event>
 6    1  0.2198868E-005  0.4432582E+04  0.7818608E-02  0.7922547E-01
          1   -1    0    0  501    0  0.00000000000E+00  0.00000000000E+00  0.16664852487E+04  0.16664852487E+04  0.00000000000E+00 0. -1.
         -1   -1    0    0    0  501 -0.00000000000E+00 -0.00000000000E+00 -0.29474886328E+04  0.29474886328E+04  0.00000000000E+00 0.  1.
         23    2    1    2    0    0 -0.14097945644E+04  0.91860813018E+03  0.85915306845E+03  0.18915427524E+04  0.91806200746E+02 0.  0.
         11    1    3    3    0    0 -0.75019074164E+03  0.43756110691E+03  0.42472169914E+03  0.96676491084E+03  0.00000000000E+00 0. -1.
        -11    1    3    3    0    0 -0.65960382280E+03  0.48104702327E+03  0.43443136931E+03  0.92477784159E+03  0.00000000000E+00 0.  1.
         22    1    1    2    0    0  0.14097945644E+04 -0.91860813018E+03 -0.21401564526E+04  0.27224311291E+04  0.00000000000E+00 0.  1.
<mgrwt>
<rscale>  0 0.44325822E+04</rscale>
<asrwt>0</asrwt>
<pdfrwt beam="1">  1        1 0.25638235E+00 0.44325822E+04</pdfrwt>
<pdfrwt beam="2">  1       -1 0.45345978E+00 0.44325822E+04</pdfrwt>
<totfact> 0.11637915E-02</totfact>
</mgrwt>
</event>
<event>
 6    1  0.1934315E-005  0.4828272E+04  0.7818608E-02  0.7855558E-01
         -2   -1    0    0    0  501 -0.00000000000E+00  0.00000000000E+00  0.15669331125E+04  0.15669331125E+04  0.00000000000E+00 0. -1.
          2   -1    0    0  501    0  0.00000000000E+00 -0.00000000000E+00 -0.37194011465E+04  0.37194011465E+04  0.00000000000E+00 0.  1.
         23    2    1    2    0    0  0.99186240190E+03 -0.21988240520E+04 -0.99692254685E+03  0.26116560337E+04  0.90963937484E+02 0.  0.
         13    1    3    3    0    0  0.53651976342E+03 -0.10888048082E+04 -0.48089099866E+03  0.13056054226E+04  0.00000000000E+00 0.  1.
        -13    1    3    3    0    0  0.45534263848E+03 -0.11100192438E+04 -0.51603154818E+03  0.13060506111E+04  0.00000000000E+00 0. -1.
         22    1    1    2    0    0 -0.99186240190E+03  0.21988240520E+04 -0.11555454871E+04  0.26746782253E+04  0.00000000000E+00 0. -1.
<mgrwt>
<rscale>  0 0.48282721E+04</rscale>
<asrwt>0</asrwt>
<pdfrwt beam="1">  1        2 0.57221555E+00 0.48282721E+04</pdfrwt>
<pdfrwt beam="2">  1       -2 0.24106664E+00 0.48282721E+04</pdfrwt>
<totfact> 0.30315642E-02</totfact>
</mgrwt>
</event>
<event>
 6    1  0.1934315E-005  0.3877695E+04  0.7818608E-02  0.8029684E-01
          2   -1    0    0  501    0  0.00000000000E+00  0.00000000000E+00  0.29888263749E+04  0.29888263749E+04  0.00000000000E+00 0.  1.
         -2   -1    0    0    0  501 -0.00000000000E+00 -0.00000000000E+00 -0.12577273741E+04  0.12577273741E+04  0.00000000000E+00 0. -1.
         23    2    1    2    0    0  0.18315463366E+04 -0.11894016280E+03  0.18548780658E+03  0.18470490690E+04  0.92064061334E+02 0.  0.
         11    1    3    3    0    0  0.95934482532E+03 -0.45849610012E+02  0.14020889773E+03  0.97062001608E+03  0.00000000000E+00 0. -1.
        -11    1    3    3    0    0  0.87220151131E+03 -0.73090552786E+02  0.45278908855E+02  0.87642905294E+03  0.00000000000E+00 0.  1.
         22    1    1    2    0    0 -0.18315463366E+04  0.11894016280E+03  0.15456111942E+04  0.23995046800E+04  0.00000000000E+00 0.  1.
<mgrwt>
<rscale>  0 0.38776945E+04</rscale>
<asrwt>0</asrwt>
<pdfrwt beam="1">  1        2 0.45981944E+00 0.38776945E+04</pdfrwt>
<pdfrwt beam="2">  1       -2 0.19349652E+00 0.38776945E+04</pdfrwt>
<totfact> 0.20692410E-01</totfact>
</mgrwt>
</event>
<event>
 6    1  0.1934315E-005  0.4589457E+04  0.7818608E-02  0.7895160E-01
          2   -1    0    0  501    0  0.00000000000E+00  0.00000000000E+00  0.17239249646E+04  0.17239249646E+04  0.00000000000E+00 0.  1.
         -2   -1    0    0    0  501 -0.00000000000E+00 -0.00000000000E+00 -0.30545287707E+04  0.30545287707E+04  0.00000000000E+00 0. -1.
         23    2    1    2    0    0 -0.83060118183E+03 -0.18571464614E+04  0.43783735757E+03  0.20828507505E+04  0.87603624457E+02 0.  0.
         13    1    3    3    0    0 -0.74412530552E+03 -0.15899758439E+04  0.37593172867E+03  0.17952911516E+04  0.00000000000E+00 0.  1.
        -13    1    3    3    0    0 -0.86475876319E+02 -0.26717061753E+03  0.61905628899E+02  0.28755959895E+03  0.00000000000E+00 0. -1.
         22    1    1    2    0    0  0.83060118183E+03  0.18571464614E+04 -0.17684411637E+04  0.26956029848E+04  0.00000000000E+00 0. -1.
<mgrwt>
<rscale>  0 0.45894568E+04</rscale>
<asrwt>0</asrwt>
<pdfrwt beam="1">  1        2 0.26521923E+00 0.45894568E+04</pdfrwt>
<pdfrwt beam="2">  1       -2 0.46992750E+00 0.45894568E+04</pdfrwt>
<totfact> 0.18412244E-02</totfact>
</mgrwt>
</event>
<event>
 6    1  0.1934315E-005  0.2225354E+04  0.7818608E-02  0.8507949E-01
          1   -1    0    0  501    0  0.00000000000E+00  0.00000000000E+00  0.91321600436E+03  0.91321600436E+03  0.00000000000E+00 0.  1.
         -1   -1    0    0    0  501 -0.00000000000E+00 -0.00000000000E+00 -0.13557034430E+04  0.13557034430E+04  0.00000000000E+00 0. -1.
         23    2    1    2    0    0  0.62949501881E+02  0.23827286276E+03  0.88284126141E+03  0.92087168852E+03  0.88653127141E+02 0.  0.
         11    1    3    3    0    0  0.77678276340E+02  0.12160569090E+03  0.48116159232E+03  0.50233289421E+03  0.00000000000E+00 0.  1.
        -11    1    3    3    0    0 -0.14728774459E+02  0.11666717186E+03  0.40167966909E+03  0.41853879431E+03  0.00000000000E+00 0. -1.
         22    1    1    2    0    0 -0.62949501881E+02 -0.23827286276E+03 -0.13253287001E+04  0.13480477589E+04  0.00000000000E+00 0. -1.
<mgrwt>
<rscale>  0 0.22253540E+04</rscale>
<asrwt>0</asrwt>
<pdfrwt beam="1">  1        1 0.14049477E+00 0.22253540E+04</pdfrwt>
<pdfrwt beam="2">  1       -1 0.20856976E+00 0.22253540E+04</pdfrwt>
<totfact> 0.21226240E+00</totfact>
</mgrwt>
</event>
<event>
 6    1  0.1934315E-005  0.7363107E+03  0.7818608E-02  0.9657075E-01
         -2   -1    0    0    0  501 -0.00000000000E+00  0.00000000000E+00  0.36813473161E+03  0.36813473161E+03  0.00000000000E+00 0. -1.
          2   -1    0    0  501    0  0.00000000000E+00 -0.00000000000E+00 -0.36817598324E+03  0.36817598324E+03  0.00000000000E+00 0.  1.
         23    2    1    2    0    0  0.28200806590E+03 -0.22744004514E+03  0.85035419465E+01  0.37391516180E+03  0.92101653797E+02 0.  0.
         13    1    3    3    0    0  0.19669892140E+03 -0.10278271004E+03  0.17289508387E+02  0.22260655485E+03  0.00000000000E+00 0. -1.
        -13    1    3    3    0    0  0.85309144503E+02 -0.12465733511E+03 -0.87859664401E+01  0.15130860695E+03  0.00000000000E+00 0.  1.
         22    1    1    2    0    0 -0.28200806590E+03  0.22744004514E+03 -0.85447935710E+01  0.36239555304E+03  0.00000000000E+00 0.  1.
<mgrwt>
<rscale>  0 0.73631071E+03</rscale>
<asrwt>0</asrwt>
<pdfrwt beam="1">  1        2 0.56642459E-01 0.73631071E+03</pdfrwt>
<pdfrwt beam="2">  1       -2 0.56636112E-01 0.73631071E+03</pdfrwt>
<totfact> 0.25762947E+02</totfact>
</mgrwt>
</event>
<event>
 6    1  0.1934315E-005  0.1594327E+04  0.7818608E-02  0.8824041E-01
         -2   -1    0    0    0  501 -0.00000000000E+00  0.00000000000E+00  0.23464052531E+03  0.23464052531E+03  0.00000000000E+00 0. -1.
          2   -1    0    0  501    0  0.00000000000E+00 -0.00000000000E+00 -0.27082679299E+04  0.27082679299E+04  0.00000000000E+00 0.  1.
         23    2    1    2    0    0 -0.38870701277E+03  0.41763463421E+03 -0.21991292510E+03  0.61809861685E+03  0.90401194962E+02 0.  0.
         13    1    3    3    0    0 -0.26463393700E+03  0.32124102048E+03 -0.19266640645E+03  0.45863630256E+03  0.00000000000E+00 0.  1.
        -13    1    3    3    0    0 -0.12407307577E+03  0.96393613729E+02 -0.27246518656E+02  0.15946231429E+03  0.00000000000E+00 0. -1.
         22    1    1    2    0    0  0.38870701277E+03 -0.41763463421E+03 -0.22537144795E+04  0.23248098383E+04  0.00000000000E+00 0.  1.
<mgrwt>
<rscale>  0 0.15943267E+04</rscale>
<asrwt>0</asrwt>
<pdfrwt beam="1">  1        2 0.41665662E+00 0.15943267E+04</pdfrwt>
<pdfrwt beam="2">  1       -2 0.36098541E-01 0.15943267E+04</pdfrwt>
<totfact> 0.18248640E+01</totfact>
</mgrwt>
</event>
<event>
 6    1  0.1934315E-005  0.3195393E+04  0.7818608E-02  0.8190035E-01
         -2   -1    0    0    0  501 -0.00000000000E+00  0.00000000000E+00  0.12200176805E+04  0.12200176805E+04  0.00000000000E+00 0. -1.
          2   -1    0    0  501    0  0.00000000000E+00 -0.00000000000E+00 -0.20922929360E+04  0.20922929360E+04  0.00000000000E+00 0.  1.
         23    2    1    2    0    0 -0.73627054947E+02  0.13850254460E+04  0.38286228420E+03  0.14417260360E+04  0.90961557250E+02 0.  0.
         13    1    3    3    0    0  0.12590251129E+02  0.33766648200E+03  0.68063572345E+02  0.34468800004E+03  0.00000000000E+00 0. -1.
        -13    1    3    3    0    0 -0.86217306076E+02  0.10473589640E+04  0.31479871185E+03  0.10970380360E+04  0.00000000000E+00 0.  1.
         22    1    1    2    0    0  0.73627054947E+02 -0.13850254460E+04 -0.12551375396E+04  0.18705845805E+04  0.00000000000E+00 0. -1.
<mgrwt>
<rscale>  0 0.31953932E+04</rscale>
<asrwt>0</asrwt>
<pdfrwt beam="1">  1        2 0.32189122E+00 0.31953932E+04</pdfrwt>
<pdfrwt beam="2">  1       -2 0.18769503E+00 0.31953932E+04</pdfrwt>
<totfact> 0.80310922E-01</totfact>
</mgrwt>
</event>
<event>
 6    1  0.1934315E-005  0.1001218E+04  0.7818608E-02  0.9307209E-01
         -2   -1    0    0    0  501 -0.00000000000E+00  0.00000000000E+00  0.60591306506E+02  0.60591306506E+02  0.00000000000E+00 0. -1.
          2   -1    0    0  501    0  0.00000000000E+00 -0.00000000000E+00 -0.41360651231E+04  0.41360651231E+04  0.00000000000E+00 0.  1.
         23    2    1    2    0    0 -0.35856740978E+03 -0.34303077402E+03 -0.19989027496E+04  0.20616182343E+04  0.91743349774E+02 0.  0.
         11    1    3    3    0    0 -0.23043529808E+03 -0.27749307691E+03 -0.14208816827E+04  0.14659493820E+04  0.00000000000E+00 0. -1.
        -11    1    3    3    0    0 -0.12813211169E+03 -0.65537697114E+02 -0.57802106689E+03  0.59566885226E+03  0.00000000000E+00 0.  1.
         22    1    1    2    0    0  0.35856740978E+03  0.34303077402E+03 -0.20765710670E+04  0.21350381954E+04  0.00000000000E+00 0. -1.
<mgrwt>
<rscale>  0 0.10012184E+04</rscale>
<asrwt>0</asrwt>
<pdfrwt beam="1">  1        2 0.63631771E+00 0.10012184E+04</pdfrwt>
<pdfrwt beam="2">  1       -2 0.93217395E-02 0.10012184E+04</pdfrwt>
<totfact> 0.21625505E+01</totfact>
</mgrwt>
</event>
<event>
 6    1  0.1934315E-005  0.2945691E+04  0.7818608E-02  0.8259411E-01
          2   -1    0    0  501    0  0.00000000000E+00  0.00000000000E+00  0.21785726337E+04  0.21785726337E+04  0.00000000000E+00 0.  1.
         -2   -1    0    0    0  501 -0.00000000000E+00 -0.00000000000E+00 -0.99573172097E+03  0.99573172097E+03  0.00000000000E+00 0. -1.
         23    2    1    2    0    0  0.85701769083E+03  0.70793928006E+03  0.16306629604E+04  0.19758879275E+04  0.97026103862E+02 0.  0.
         13    1    3    3    0    0  0.38899560292E+03  0.31889459671E+03  0.82391537804E+03  0.96532268858E+03  0.00000000000E+00 0.  1.
        -13    1    3    3    0    0  0.46802208791E+03  0.38904468334E+03  0.80674758239E+03  0.10105652389E+04  0.00000000000E+00 0. -1.
         22    1    1    2    0    0 -0.85701769083E+03 -0.70793928006E+03 -0.44782204767E+03  0.11984164272E+04  0.00000000000E+00 0. -1.
<mgrwt>
<rscale>  0 0.29456910E+04</rscale>
<asrwt>0</asrwt>
<pdfrwt beam="1">  1        2 0.33516502E+00 0.29456910E+04</pdfrwt>
<pdfrwt beam="2">  1       -2 0.15318950E+00 0.29456910E+04</pdfrwt>
<totfact> 0.12932268E+00</totfact>
</mgrwt>
</event>
<event>
 6    1  0.1934315E-005  0.2941960E+04  0.7818608E-02  0.8260502E-01
          2   -1    0    0  501    0  0.00000000000E+00  0.00000000000E+00  0.13066069164E+04  0.13066069164E+04  0.00000000000E+00 0.  1.
         -2   -1    0    0    0  501 -0.00000000000E+00 -0.00000000000E+00 -0.16560309762E+04  0.16560309762E+04  0.00000000000E+00 0. -1.
         23    2    1    2    0    0  0.44221993272E+03  0.65905618831E+03  0.10709205261E+04  0.13355877179E+04  0.83727239348E+02 0.  0.
         13    1    3    3    0    0  0.22168014621E+03  0.26037254249E+03  0.48263290940E+03  0.59149849817E+03  0.00000000000E+00 0.  1.
        -13    1    3    3    0    0  0.22053978651E+03  0.39868364582E+03  0.58828761671E+03  0.74408921969E+03  0.00000000000E+00 0. -1.
         22    1    1    2    0    0 -0.44221993272E+03 -0.65905618831E+03 -0.14203445860E+04  0.16270501747E+04  0.00000000000E+00 0. -1.
<mgrwt>
<rscale>  0 0.29419596E+04</rscale>
<asrwt>0</asrwt>
<pdfrwt beam="1">  1        2 0.20101645E+00 0.29419596E+04</pdfrwt>
<pdfrwt beam="2">  1       -2 0.25477400E+00 0.29419596E+04</pdfrwt>
<totfact> 0.84647309E-01</totfact>
</mgrwt>
</event>
<event>
 6    1  0.1934315E-005  0.9495445E+03  0.7818608E-02  0.9365683E-01
         -2   -1    0    0    0  501 -0.00000000000E+00  0.00000000000E+00  0.13340495779E+04  0.13340495779E+04  0.00000000000E+00 0. -1.
          2   -1    0    0  501    0  0.00000000000E+00 -0.00000000000E+00 -0.16896574108E+03  0.16896574108E+03  0.00000000000E+00 0.  1.
         23    2    1    2    0    0 -0.89905561442E+02 -0.44431955981E+03  0.38917547612E+03  0.60438488024E+03  0.91217602720E+02 0.  0.
         13    1    3    3    0    0 -0.88274263361E+02 -0.26931292114E+03  0.20132293944E+03  0.34763877950E+03  0.00000000000E+00 0.  1.
        -13    1    3    3    0    0 -0.16312980810E+01 -0.17500663867E+03  0.18785253668E+03  0.25674610074E+03  0.00000000000E+00 0. -1.
         22    1    1    2    0    0  0.89905561442E+02  0.44431955981E+03  0.77590836067E+03  0.89863043870E+03  0.00000000000E+00 0. -1.
<mgrwt>
<rscale>  0 0.94954447E+03</rscale>
<asrwt>0</asrwt>
<pdfrwt beam="1">  1        2 0.25994730E-01 0.94954447E+03</pdfrwt>
<pdfrwt beam="2">  1       -2 0.20523839E+00 0.94954447E+03</pdfrwt>
<totfact> 0.25863993E+01</totfact>
</mgrwt>
</event>
<event>
 6    1  0.2073433E-005  0.4677529E+04  0.7818608E-02  0.7880273E-01
          2   -1    0    0  501    0  0.00000000000E+00  0.00000000000E+00  0.20551457877E+04  0.20551457877E+04  0.00000000000E+00 0.  1.
         -2   -1    0    0    0  501 -0.00000000000E+00 -0.00000000000E+00 -0.26615237449E+04  0.26615237449E+04  0.00000000000E+00 0. -1.
         23    2    1    2    0    0 -0.12862066718E+04 -0.27261282678E+02  0.16650230961E+04  0.21062416893E+04  0.94240983211E+02 0.  0.
         11    1    3    3    0    0 -0.71912280135E+03 -0.13452426225E+02  0.85399903622E+03  0.11165271717E+04  0.00000000000E+00 0. -1.
        -11    1    3    3    0    0 -0.56708387043E+03 -0.13808856453E+02  0.81102405989E+03  0.98971451759E+03  0.00000000000E+00 0.  1.
         22    1    1    2    0    0  0.12862066718E+04  0.27261282678E+02 -0.22714010533E+04  0.26104278433E+04  0.00000000000E+00 0. -1.
<mgrwt>
<rscale>  0 0.46775290E+04</rscale>
<asrwt>0</asrwt>
<pdfrwt beam="1">  1        2 0.31617628E+00 0.46775290E+04</pdfrwt>
<pdfrwt beam="2">  1       -2 0.40946519E+00 0.46775290E+04</pdfrwt>
<totfact> 0.29928572E-02</totfact>
</mgrwt>
</event>
<event>
 6    1  0.1934315E-005  0.4733251E+04  0.7818608E-02  0.7871027E-01
         -1   -1    0    0    0  501 -0.00000000000E+00  0.00000000000E+00  0.21663485901E+04  0.21663485901E+04  0.00000000000E+00 0. -1.
          1   -1    0    0  501    0  0.00000000000E+00 -0.00000000000E+00 -0.25854182729E+04  0.25854182729E+04  0.00000000000E+00 0.  1.
         23    2    1    2    0    0 -0.69168005594E+03  0.50787069376E+02  0.20610671145E+04  0.21764845174E+04  0.89925401597E+02 0.  0.
         13    1    3    3    0    0 -0.61285341540E+03  0.15678864400E+02  0.18049360192E+04  0.19062080602E+04  0.00000000000E+00 0. -1.
        -13    1    3    3    0    0 -0.78826640536E+02  0.35108204976E+02  0.25613109532E+03  0.27027645718E+03  0.00000000000E+00 0.  1.
         22    1    1    2    0    0  0.69168005594E+03 -0.50787069376E+02 -0.24801367973E+04  0.25752823456E+04  0.00000000000E+00 0.  1.
<mgrwt>
<rscale>  0 0.47332514E+04</rscale>
<asrwt>0</asrwt>
<pdfrwt beam="1">  1        1 0.39775666E+00 0.47332514E+04</pdfrwt>
<pdfrwt beam="2">  1       -1 0.33328440E+00 0.47332514E+04</pdfrwt>
<totfact> 0.17449915E-02</totfact>
</mgrwt>
</event>
<event>
 6    1  0.1934315E-005  0.1477732E+04  0.7818608E-02  0.8899397E-01
         -2   -1    0    0    0  501 -0.00000000000E+00  0.00000000000E+00  0.38081200646E+03  0.38081200646E+03  0.00000000000E+00 0.  1.
          2   -1    0    0  501    0  0.00000000000E+00 -0.00000000000E+00 -0.14335767414E+04  0.14335767414E+04  0.00000000000E+00 0. -1.
         23    2    1    2    0    0 -0.10634414051E+03  0.72543663893E+03 -0.60939003742E+03  0.95756407753E+03  0.89472630197E+02 0.  0.
         13    1    3    3    0    0 -0.58927421851E+02  0.23703729044E+03 -0.24854500392E+03  0.34847343813E+03  0.00000000000E+00 0. -1.
        -13    1    3    3    0    0 -0.47416718655E+02  0.48839934849E+03 -0.36084503349E+03  0.60909063940E+03  0.00000000000E+00 0.  1.
         22    1    1    2    0    0  0.10634414051E+03 -0.72543663893E+03 -0.44337469755E+03  0.85682467037E+03  0.00000000000E+00 0. -1.
<mgrwt>
<rscale>  0 0.14777324E+04</rscale>
<asrwt>0</asrwt>
<pdfrwt beam="1">  1        2 0.22055027E+00 0.14777324E+04</pdfrwt>
<pdfrwt beam="2">  1       -2 0.58586462E-01 0.14777324E+04</pdfrwt>
<totfact> 0.36490650E+01</totfact>
</mgrwt>
</event>
<event>
 6    1  0.1934315E-005  0.1567159E+04  0.7818608E-02  0.8840982E-01
          2   -1    0    0  501    0  0.00000000000E+00  0.00000000000E+00  0.11522612234E+04  0.11522612234E+04  0.00000000000E+00 0.  1.
         -2   -1    0    0    0  501 -0.00000000000E+00 -0.00000000000E+00 -0.53286237115E+03  0.53286237115E+03  0.00000000000E+00 0. -1.
         23    2    1    2    0    0  0.57691994118E+03 -0.47400552634E+02  0.87430999367E+03  0.10526181631E+04  0.92214973129E+02 0.  0.
         13    1    3    3    0    0  0.14436221103E+03 -0.22905353814E+02  0.29492151379E+03  0.32915619773E+03  0.00000000000E+00 0.  1.
        -13    1    3    3    0    0  0.43255773014E+03 -0.24495198820E+02  0.57938847989E+03  0.72346196534E+03  0.00000000000E+00 0. -1.
         22    1    1    2    0    0 -0.57691994118E+03  0.47400552634E+02 -0.25491114138E+03  0.63250543153E+03  0.00000000000E+00 0. -1.
<mgrwt>
<rscale>  0 0.15671588E+04</rscale>
<asrwt>0</asrwt>
<pdfrwt beam="1">  1        2 0.17727096E+00 0.15671588E+04</pdfrwt>
<pdfrwt beam="2">  1       -2 0.81978826E-01 0.15671588E+04</pdfrwt>
<totfact> 0.25454566E+01</totfact>
</mgrwt>
</event>
<event>
 6    1  0.1934315E-005  0.3439763E+04  0.7818608E-02  0.8128216E-01
         -2   -1    0    0    0  501 -0.00000000000E+00  0.00000000000E+00  0.15151368059E+04  0.15151368059E+04  0.00000000000E+00 0. -1.
          2   -1    0    0  501    0  0.00000000000E+00 -0.00000000000E+00 -0.19522940441E+04  0.19522940441E+04  0.00000000000E+00 0.  1.
         23    2    1    2    0    0 -0.52511175985E+02 -0.91960893963E+03 -0.16814016093E+04  0.19193410333E+04  0.91217350072E+02 0.  0.
         11    1    3    3    0    0 -0.58726647881E+01 -0.73553378007E+03 -0.13216407881E+04  0.15125405127E+04  0.00000000000E+00 0. -1.
        -11    1    3    3    0    0 -0.46638511197E+02 -0.18407515956E+03 -0.35976082123E+03  0.40680052063E+03  0.00000000000E+00 0.  1.
         22    1    1    2    0    0  0.52511175985E+02  0.91960893963E+03  0.12442443711E+04  0.15480898167E+04  0.00000000000E+00 0. -1.
<mgrwt>
<rscale>  0 0.34397631E+04</rscale>
<asrwt>0</asrwt>
<pdfrwt beam="1">  1        2 0.30035293E+00 0.34397631E+04</pdfrwt>
<pdfrwt beam="2">  1       -2 0.23309797E+00 0.34397631E+04</pdfrwt>
<totfact> 0.47958122E-01</totfact>
</mgrwt>
</event>
<event>
 6    1  0.1934315E-005  0.1873052E+04  0.7818608E-02  0.8668388E-01
          1   -1    0    0  501    0  0.00000000000E+00  0.00000000000E+00  0.84137387752E+03  0.84137387752E+03  0.00000000000E+00 0.  1.
         -1   -1    0    0    0  501 -0.00000000000E+00 -0.00000000000E+00 -0.10424387563E+04  0.10424387563E+04  0.00000000000E+00 0. -1.
         23    2    1    2    0    0 -0.36420729706E+03 -0.85301747271E+03 -0.21433420485E+03  0.95620181083E+03  0.89983263364E+02 0.  0.
         11    1    3    3    0    0 -0.67785908395E+02 -0.86091815284E+02 -0.29216067955E+02  0.11340330093E+03  0.00000000000E+00 0. -1.
        -11    1    3    3    0    0 -0.29642138866E+03 -0.76692565743E+03 -0.18511813690E+03  0.84279850990E+03  0.00000000000E+00 0.  1.
         22    1    1    2    0    0  0.36420729706E+03  0.85301747271E+03  0.13269326020E+02  0.92761082303E+03  0.00000000000E+00 0.  1.
<mgrwt>
<rscale>  0 0.18730518E+04</rscale>
<asrwt>0</asrwt>
<pdfrwt beam="1">  1        1 0.12944213E+00 0.18730518E+04</pdfrwt>
<pdfrwt beam="2">  1       -1 0.16037519E+00 0.18730518E+04</pdfrwt>
<totfact> 0.55455565E+00</totfact>
</mgrwt>
</event>
<event>
 6    1  0.1934315E-005  0.2248395E+04  0.7818608E-02  0.8498551E-01
          2   -1    0    0  501    0  0.00000000000E+00  0.00000000000E+00  0.68644089877E+03  0.68644089877E+03  0.00000000000E+00 0.  1.
         -2   -1    0    0    0  501 -0.00000000000E+00 -0.00000000000E+00 -0.18411196860E+04  0.18411196860E+04  0.00000000000E+00 0. -1.
         23    2    1    2    0    0  0.52083334867E+03  0.28610445049E+01 -0.16958540441E+04  0.17764639057E+04  0.92884374021E+02 0.  0.
         13    1    3    3    0    0  0.39203608119E+03  0.39820647244E+02 -0.13117035658E+04  0.13696146237E+04  0.00000000000E+00 0.  1.
        -13    1    3    3    0    0  0.12879726749E+03 -0.36959602739E+02 -0.38415047828E+03  0.40684928205E+03  0.00000000000E+00 0. -1.
         22    1    1    2    0    0 -0.52083334867E+03 -0.28610445049E+01  0.54117525682E+03  0.75109667904E+03  0.00000000000E+00 0.  1.
<mgrwt>
<rscale>  0 0.22483949E+04</rscale>
<asrwt>0</asrwt>
<pdfrwt beam="1">  1        2 0.10560629E+00 0.22483949E+04</pdfrwt>
<pdfrwt beam="2">  1       -2 0.28324918E+00 0.22483949E+04</pdfrwt>
<totfact> 0.15387519E+00</totfact>
</mgrwt>
</event>
<event>
 6    1  0.1934315E-005  0.1490663E+04  0.7818608E-02  0.8890686E-01
         -2   -1    0    0    0  501 -0.00000000000E+00  0.00000000000E+00  0.20623856842E+03  0.20623856842E+03  0.00000000000E+00 0. -1.
          2   -1    0    0  501    0  0.00000000000E+00 -0.00000000000E+00 -0.26935745662E+04  0.26935745662E+04  0.00000000000E+00 0.  1.
         23    2    1    2    0    0  0.22410506604E+03  0.57877627531E+03 -0.20412957878E+04  0.21355115408E+04  0.91192049477E+02 0.  0.
         11    1    3    3    0    0  0.16650111986E+02  0.97825052724E+02 -0.24279633804E+03  0.26229187737E+03  0.00000000000E+00 0.  1.
        -11    1    3    3    0    0  0.20745495406E+03  0.48095122258E+03 -0.17984994498E+04  0.18732196634E+04  0.00000000000E+00 0. -1.
         22    1    1    2    0    0 -0.22410506604E+03 -0.57877627531E+03 -0.44604020997E+03  0.76430159387E+03  0.00000000000E+00 0. -1.
<mgrwt>
<rscale>  0 0.14906629E+04</rscale>
<asrwt>0</asrwt>
<pdfrwt beam="1">  1        2 0.41439609E+00 0.14906629E+04</pdfrwt>
<pdfrwt beam="2">  1       -2 0.31729010E-01 0.14906629E+04</pdfrwt>
<totfact> 0.24016040E+01</totfact>
</mgrwt>
</event>
<event>
 6    1  0.1934315E-005  0.1971586E+04  0.7818608E-02  0.8620022E-01
          2   -1    0    0  501    0  0.00000000000E+00  0.00000000000E+00  0.28999829892E+04  0.28999829892E+04  0.00000000000E+00 0.  1.
         -2   -1    0    0    0  501 -0.00000000000E+00 -0.00000000000E+00 -0.33510118190E+03  0.33510118190E+03  0.00000000000E+00 0. -1.
         23    2    1    2    0    0 -0.15051541387E+03  0.41250419181E+03  0.27295391180E+04  0.27661208164E+04  0.90697165822E+02 0.  0.
         13    1    3    3    0    0 -0.49451130010E+02  0.18223095433E+03  0.91869988786E+03  0.93790352325E+03  0.00000000000E+00 0. -1.
        -13    1    3    3    0    0 -0.10106428386E+03  0.23027323748E+03  0.18108392302E+04  0.18282172931E+04  0.00000000000E+00 0.  1.
         22    1    1    2    0    0  0.15051541387E+03 -0.41250419181E+03 -0.16465731075E+03  0.46896335471E+03  0.00000000000E+00 0. -1.
<mgrwt>
<rscale>  0 0.19715859E+04</rscale>
<asrwt>0</asrwt>
<pdfrwt beam="1">  1        2 0.44615121E+00 0.19715859E+04</pdfrwt>
<pdfrwt beam="2">  1       -2 0.51554030E-01 0.19715859E+04</pdfrwt>
<totfact> 0.66633021E+00</totfact>
</mgrwt>
</event>
<event>
 6    1  0.1934315E-005  0.3366216E+04  0.7818608E-02  0.8146248E-01
          2   -1    0    0  501    0  0.00000000000E+00  0.00000000000E+00  0.29556337771E+04  0.29556337771E+04  0.00000000000E+00 0.  1.
         -2   -1    0    0    0  501 -0.00000000000E+00 -0.00000000000E+00 -0.95845880192E+03  0.95845880192E+03  0.00000000000E+00 0. -1.
         23    2    1    2    0    0  0.12487189149E+04  0.57138947180E+03  0.21283831817E+04  0.25345997554E+04  0.91630208338E+02 0.  0.
         11    1    3    3    0    0  0.81015767803E+03  0.41503107278E+03  0.13785203454E+04  0.16519457005E+04  0.00000000000E+00 0. -1.
        -11    1    3    3    0    0  0.43856123687E+03  0.15635839902E+03  0.74986283631E+03  0.88265405494E+03  0.00000000000E+00 0.  1.
         22    1    1    2    0    0 -0.12487189149E+04 -0.57138947180E+03 -0.13120820652E+03  0.13794928236E+04  0.00000000000E+00 0. -1.
<mgrwt>
<rscale>  0 0.33662164E+04</rscale>
<asrwt>0</asrwt>
<pdfrwt beam="1">  1        2 0.45471289E+00 0.33662164E+04</pdfrwt>
<pdfrwt beam="2">  1       -2 0.14745520E+00 0.33662164E+04</pdfrwt>
<totfact> 0.48301193E-01</totfact>
</mgrwt>
</event>
<event>
 6    1  0.1934315E-005  0.1853922E+04  0.7818608E-02  0.8678138E-01
         -2   -1    0    0    0  501 -0.00000000000E+00  0.00000000000E+00  0.76744641856E+03  0.76744641856E+03  0.00000000000E+00 0. -1.
          2   -1    0    0  501    0  0.00000000000E+00 -0.00000000000E+00 -0.11196314188E+04  0.11196314188E+04  0.00000000000E+00 0.  1.
         23    2    1    2    0    0  0.81895927369E+02 -0.84727987387E+03 -0.54428753397E+03  0.10144418817E+04  0.90847587415E+02 0.  0.
         11    1    3    3    0    0 -0.78807453261E+01 -0.32536987152E+03 -0.23139989655E+03  0.39934142230E+03  0.00000000000E+00 0.  1.
        -11    1    3    3    0    0  0.89776672695E+02 -0.52191000235E+03 -0.31288763742E+03  0.61510045940E+03  0.00000000000E+00 0. -1.
         22    1    1    2    0    0 -0.81895927369E+02  0.84727987387E+03  0.19210253376E+03  0.87263595563E+03  0.00000000000E+00 0. -1.
<mgrwt>
<rscale>  0 0.18539225E+04</rscale>
<asrwt>0</asrwt>
<pdfrwt beam="1">  1        2 0.17225099E+00 0.18539225E+04</pdfrwt>
<pdfrwt beam="2">  1       -2 0.11806868E+00 0.18539225E+04</pdfrwt>
<totfact> 0.11011682E+01</totfact>
</mgrwt>
</event>
<event>
 6    1  0.1934315E-005  0.2614552E+04  0.7818608E-02  0.8363275E-01
          2   -1    0    0  501    0  0.00000000000E+00  0.00000000000E+00  0.15851152782E+04  0.15851152782E+04  0.00000000000E+00 0.  1.
         -2   -1    0    0    0  501 -0.00000000000E+00 -0.00000000000E+00 -0.10781365077E+04  0.10781365077E+04  0.00000000000E+00 0. -1.
         23    2    1    2    0    0  0.11947761494E+02 -0.11724353148E+04  0.83896547081E+03  0.14446614177E+04  0.91848974303E+02 0.  0.
         13    1    3    3    0    0  0.47855421706E+02 -0.58389743592E+03  0.44122076829E+03  0.73341810956E+03  0.00000000000E+00 0. -1.
        -13    1    3    3    0    0 -0.35907660213E+02 -0.58853787893E+03  0.39774470253E+03  0.71124330815E+03  0.00000000000E+00 0.  1.
         22    1    1    2    0    0 -0.11947761494E+02  0.11724353148E+04 -0.33198670031E+03  0.12185903683E+04  0.00000000000E+00 0. -1.
<mgrwt>
<rscale>  0 0.26145521E+04</rscale>
<asrwt>0</asrwt>
<pdfrwt beam="1">  1        2 0.24386389E+00 0.26145521E+04</pdfrwt>
<pdfrwt beam="2">  1       -2 0.16586715E+00 0.26145521E+04</pdfrwt>
<totfact> 0.22922982E+00</totfact>
</mgrwt>
</event>
<event>
 6    1  0.1934315E-005  0.2841255E+04  0.7818608E-02  0.8290574E-01
          2   -1    0    0  501    0  0.00000000000E+00  0.00000000000E+00  0.33032100137E+04  0.33032100137E+04  0.00000000000E+00 0.  1.
         -2   -1    0    0    0  501 -0.00000000000E+00 -0.00000000000E+00 -0.61097615943E+03  0.61097615943E+03  0.00000000000E+00 0. -1.
         23    2    1    2    0    0  0.45998031475E+02  0.10763750458E+03  0.32959195667E+04  0.32992568351E+04  0.91149450981E+02 0.  0.
         13    1    3    3    0    0  0.36738593580E+02  0.95448794029E+02  0.15986422248E+04  0.16019104717E+04  0.00000000000E+00 0.  1.
        -13    1    3    3    0    0  0.92594378950E+01  0.12188710555E+02  0.16972773419E+04  0.16973463634E+04  0.00000000000E+00 0. -1.
         22    1    1    2    0    0 -0.45998031475E+02 -0.10763750458E+03 -0.60368571247E+03  0.61492933800E+03  0.00000000000E+00 0. -1.
<mgrwt>
<rscale>  0 0.28412551E+04</rscale>
<asrwt>0</asrwt>
<pdfrwt beam="1">  1        2 0.50818615E+00 0.28412551E+04</pdfrwt>
<pdfrwt beam="2">  1       -2 0.93996334E-01 0.28412551E+04</pdfrwt>
<totfact> 0.91796377E-01</totfact>
</mgrwt>
</event>
<event>
 6    1  0.1934315E-005  0.1591529E+04  0.7818608E-02  0.8825769E-01
         -2   -1    0    0    0  501 -0.00000000000E+00  0.00000000000E+00  0.27523405750E+03  0.27523405750E+03  0.00000000000E+00 0. -1.
          2   -1    0    0  501    0  0.00000000000E+00 -0.00000000000E+00 -0.23007374459E+04  0.23007374459E+04  0.00000000000E+00 0.  1.
         23    2    1    2    0    0 -0.42018890617E+03 -0.87635054495E+02  0.63954698168E+02  0.44288132359E+03  0.88402735972E+02 0.  0.
         11    1    3    3    0    0 -0.18326538700E+03 -0.50826965377E+02  0.71021733215E+02  0.20301149985E+03  0.00000000000E+00 0.  1.
        -11    1    3    3    0    0 -0.23692351916E+03 -0.36808089117E+02 -0.70670350471E+01  0.23986982374E+03  0.00000000000E+00 0. -1.
         22    1    1    2    0    0  0.42018890617E+03  0.87635054495E+02 -0.20894580865E+04  0.21330901798E+04  0.00000000000E+00 0.  1.
<mgrwt>
<rscale>  0 0.15915292E+04</rscale>
<asrwt>0</asrwt>
<pdfrwt beam="1">  1        2 0.35395961E+00 0.15915292E+04</pdfrwt>
<pdfrwt beam="2">  1       -2 0.42343701E-01 0.15915292E+04</pdfrwt>
<totfact> 0.23002749E+01</totfact>
</mgrwt>
</event>
<event>
 6    1  0.1934315E-005  0.2764423E+04  0.7818608E-02  0.8314400E-01
          2   -1    0    0  501    0  0.00000000000E+00  0.00000000000E+00  0.22287797653E+04  0.22287797653E+04  0.00000000000E+00 0.  1.
         -2   -1    0    0    0  501 -0.00000000000E+00 -0.00000000000E+00 -0.85719917576E+03  0.85719917576E+03  0.00000000000E+00 0. -1.
         23    2    1    2    0    0 -0.94548739351E+03 -0.96819927158E+03  0.38097295986E+03  0.14088803403E+04  0.91908521058E+02 0.  0.
         11    1    3    3    0    0 -0.27567488232E+03 -0.22639848072E+03  0.11114803680E+03  0.37363993215E+03  0.00000000000E+00 0.  1.
        -11    1    3    3    0    0 -0.66981251119E+03 -0.74180079086E+03  0.26982492306E+03  0.10352404081E+04  0.00000000000E+00 0. -1.
         22    1    1    2    0    0  0.94548739351E+03  0.96819927158E+03  0.99060762965E+03  0.16770986008E+04  0.00000000000E+00 0. -1.
<mgrwt>
<rscale>  0 0.27644227E+04</rscale>
<asrwt>0</asrwt>
<pdfrwt beam="1">  1        2 0.34288919E+00 0.27644227E+04</pdfrwt>
<pdfrwt beam="2">  1       -2 0.13187680E+00 0.27644227E+04</pdfrwt>
<totfact> 0.18178816E+00</totfact>
</mgrwt>
</event>
<event>
 6    1  0.1934315E-005  0.1460867E+04  0.7818608E-02  0.8910901E-01
         -2   -1    0    0    0  501 -0.00000000000E+00  0.00000000000E+00  0.22093006834E+03  0.22093006834E+03  0.00000000000E+00 0. -1.
          2   -1    0    0  501    0  0.00000000000E+00 -0.00000000000E+00 -0.24149399467E+04  0.24149399467E+04  0.00000000000E+00 0.  1.
         23    2    1    2    0    0 -0.38644421337E+03  0.22206212259E+03 -0.21388032183E+04  0.21867614628E+04  0.93785779739E+02 0.  0.
         11    1    3    3    0    0 -0.15347653129E+03  0.47796858251E+02 -0.63151746690E+03  0.65165473705E+03  0.00000000000E+00 0. -1.
        -11    1    3    3    0    0 -0.23296768208E+03  0.17426526434E+03 -0.15072857514E+04  0.15351067258E+04  0.00000000000E+00 0.  1.
         22    1    1    2    0    0  0.38644421337E+03 -0.22206212259E+03 -0.55206660071E+02  0.44910855219E+03  0.00000000000E+00 0. -1.
<mgrwt>
<rscale>  0 0.14608667E+04</rscale>
<asrwt>0</asrwt>
<pdfrwt beam="1">  1        2 0.37152922E+00 0.14608667E+04</pdfrwt>
<pdfrwt beam="2">  1       -2 0.33989241E-01 0.14608667E+04</pdfrwt>
<totfact> 0.30677977E+01</totfact>
</mgrwt>
</event>
<event>
 6    1  0.1934315E-005  0.4152892E+04  0.7818608E-02  0.7974394E-01
          2   -1    0    0  501    0  0.00000000000E+00  0.00000000000E+00  0.49076218190E+04  0.49076218190E+04  0.00000000000E+00 0.  1.
         -2   -1    0    0    0  501 -0.00000000000E+00 -0.00000000000E+00 -0.87855760680E+03  0.87855760680E+03  0.00000000000E+00 0. -1.
         23    2    1    2    0    0  0.81272518908E+03 -0.86162361174E+03  0.43900960582E+04  0.45479300668E+04  0.88357291403E+02 0.  0.
         13    1    3    3    0    0  0.54983357775E+03 -0.52730130303E+03  0.28870444338E+04  0.29858648982E+04  0.00000000000E+00 0.  1.
        -13    1    3    3    0    0  0.26289161133E+03 -0.33432230871E+03  0.15030516244E+04  0.15620651686E+04  0.00000000000E+00 0. -1.
         22    1    1    2    0    0 -0.81272518908E+03  0.86162361174E+03 -0.36103184600E+03  0.12382493590E+04  0.00000000000E+00 0. -1.
<mgrwt>
<rscale>  0 0.41528922E+04</rscale>
<asrwt>0</asrwt>
<pdfrwt beam="1">  1        2 0.75501873E+00 0.41528922E+04</pdfrwt>
<pdfrwt beam="2">  1       -2 0.13516271E+00 0.41528922E+04</pdfrwt>
<totfact> 0.13510733E-02</totfact>
</mgrwt>
</event>
<event>
 6    1  0.1934315E-005  0.1456465E+04  0.7818608E-02  0.8913930E-01
         -2   -1    0    0    0  501 -0.00000000000E+00  0.00000000000E+00  0.52488792691E+03  0.52488792691E+03  0.00000000000E+00 0. -1.
          2   -1    0    0  501    0  0.00000000000E+00 -0.00000000000E+00 -0.10103545900E+04  0.10103545900E+04  0.00000000000E+00 0.  1.
         23    2    1    2    0    0 -0.65929312679E+03  0.24538930115E+03 -0.50654381270E+02  0.70823280927E+03  0.64377865990E+02 0.  0.
         11    1    3    3    0    0 -0.36603721717E+03  0.11629673469E+03 -0.14906313620E+01  0.38407082268E+03  0.00000000000E+00 0. -1.
        -11    1    3    3    0    0 -0.29325590962E+03  0.12909256646E+03 -0.49163749908E+02  0.32416198659E+03  0.00000000000E+00 0.  1.
         22    1    1    2    0    0  0.65929312679E+03 -0.24538930115E+03 -0.43481228187E+03  0.82700970769E+03  0.00000000000E+00 0.  1.
<mgrwt>
<rscale>  0 0.14564655E+04</rscale>
<asrwt>0</asrwt>
<pdfrwt beam="1">  1        2 0.15543917E+00 0.14564655E+04</pdfrwt>
<pdfrwt beam="2">  1       -2 0.80751990E-01 0.14564655E+04</pdfrwt>
<totfact> 0.32551525E+01</totfact>
</mgrwt>
</event>
<event>
 6    1  0.1934315E-005  0.4399608E+04  0.7818608E-02  0.7928452E-01
          2   -1    0    0  501    0  0.00000000000E+00  0.00000000000E+00  0.33207376751E+04  0.33207376751E+04  0.00000000000E+00 0.  1.
         -2   -1    0    0    0  501 -0.00000000000E+00 -0.00000000000E+00 -0.14572480606E+04  0.14572480606E+04  0.00000000000E+00 0. -1.
         23    2    1    2    0    0  0.18567343454E+04  0.11383390389E+04  0.60333726100E+03  0.22617857931E+04  0.91547399401E+02 0.  0.
         11    1    3    3    0    0  0.15856436890E+04  0.94517818295E+03  0.53545337477E+03  0.19220660818E+04  0.00000000000E+00 0. -1.
        -11    1    3    3    0    0  0.27109065639E+03  0.19316085597E+03  0.67883886221E+02  0.33971971133E+03  0.00000000000E+00 0.  1.
         22    1    1    2    0    0 -0.18567343454E+04 -0.11383390389E+04  0.12601523535E+04  0.25161999426E+04  0.00000000000E+00 0. -1.
<mgrwt>
<rscale>  0 0.43996084E+04</rscale>
<asrwt>0</asrwt>
<pdfrwt beam="1">  1        2 0.51088272E+00 0.43996084E+04</pdfrwt>
<pdfrwt beam="2">  1       -2 0.22419201E+00 0.43996084E+04</pdfrwt>
<totfact> 0.76527772E-02</totfact>
</mgrwt>
</event>
<event>
 6    1  0.1934315E-005  0.3710497E+04  0.7818608E-02  0.8065640E-01
          1   -1    0    0  501    0  0.00000000000E+00  0.00000000000E+00  0.20235191986E+04  0.20235191986E+04  0.00000000000E+00 0. -1.
         -1   -1    0    0    0  501 -0.00000000000E+00 -0.00000000000E+00 -0.17009706757E+04  0.17009706757E+04  0.00000000000E+00 0.  1.
         23    2    1    2    0    0  0.46203351879E+03 -0.58580683549E+03  0.18651358907E+04  0.20109495601E+04  0.92420892037E+02 0.  0.
         11    1    3    3    0    0  0.21147068329E+03 -0.22115376579E+03  0.85743751193E+03  0.91039987087E+03  0.00000000000E+00 0. -1.
        -11    1    3    3    0    0  0.25056283551E+03 -0.36465306970E+03  0.10076983788E+04  0.11005496892E+04  0.00000000000E+00 0.  1.
         22    1    1    2    0    0 -0.46203351879E+03  0.58580683549E+03 -0.15425873679E+04  0.17135403142E+04  0.00000000000E+00 0.  1.
<mgrwt>
<rscale>  0 0.37104969E+04</rscale>
<asrwt>0</asrwt>
<pdfrwt beam="1">  1        1 0.31131065E+00 0.37104969E+04</pdfrwt>
<pdfrwt beam="2">  1       -1 0.26168780E+00 0.37104969E+04</pdfrwt>
<totfact> 0.13472253E-01</totfact>
</mgrwt>
</event>
<event>
 6    1  0.1934315E-005  0.2326065E+04  0.7818608E-02  0.8467714E-01
          2   -1    0    0  501    0  0.00000000000E+00  0.00000000000E+00  0.74962161207E+03  0.74962161207E+03  0.00000000000E+00 0.  1.
         -2   -1    0    0    0  501 -0.00000000000E+00 -0.00000000000E+00 -0.18044367424E+04  0.18044367424E+04  0.00000000000E+00 0. -1.
         23    2    1    2    0    0  0.19864523567E+03  0.10146409475E+04 -0.11089419353E+04  0.15187391317E+04  0.88657498971E+02 0.  0.
         11    1    3    3    0    0  0.97126482151E+02  0.55130651570E+03 -0.53721675716E+03  0.77587000970E+03  0.00000000000E+00 0.  1.
        -11    1    3    3    0    0  0.10151875352E+03  0.46333443180E+03 -0.57172517818E+03  0.74286912197E+03  0.00000000000E+00 0. -1.
         22    1    1    2    0    0 -0.19864523567E+03 -0.10146409475E+04  0.54126805048E+02  0.10353192228E+04  0.00000000000E+00 0. -1.
<mgrwt>
<rscale>  0 0.23260652E+04</rscale>
<asrwt>0</asrwt>
<pdfrwt beam="1">  1        2 0.11532640E+00 0.23260652E+04</pdfrwt>
<pdfrwt beam="2">  1       -2 0.27760565E+00 0.23260652E+04</pdfrwt>
<totfact> 0.14786521E+00</totfact>
</mgrwt>
</event>
<event>
 6    1  0.1934315E-005  0.3245632E+04  0.7818608E-02  0.8176869E-01
          2   -1    0    0  501    0  0.00000000000E+00  0.00000000000E+00  0.26788434997E+04  0.26788434997E+04  0.00000000000E+00 0.  1.
         -2   -1    0    0    0  501 -0.00000000000E+00 -0.00000000000E+00 -0.98308548424E+03  0.98308548424E+03  0.00000000000E+00 0. -1.
         23    2    1    2    0    0 -0.19708081371E+03  0.13455704008E+04 -0.14777877231E+03  0.13710714068E+04  0.92723710114E+02 0.  0.
         13    1    3    3    0    0 -0.70615015894E+02  0.35241574138E+03 -0.26319118864E+01  0.35943046922E+03  0.00000000000E+00 0.  1.
        -13    1    3    3    0    0 -0.12646579782E+03  0.99315465943E+03 -0.14514686043E+03  0.10116409376E+04  0.00000000000E+00 0. -1.
         22    1    1    2    0    0  0.19708081371E+03 -0.13455704008E+04  0.18435367877E+04  0.22908575771E+04  0.00000000000E+00 0.  1.
<mgrwt>
<rscale>  0 0.32456322E+04</rscale>
<asrwt>0</asrwt>
<pdfrwt beam="1">  1        2 0.41212977E+00 0.32456322E+04</pdfrwt>
<pdfrwt beam="2">  1       -2 0.15124392E+00 0.32456322E+04</pdfrwt>
<totfact> 0.67195485E-01</totfact>
</mgrwt>
</event>
<event>
 6    1  0.1934315E-005  0.4611860E+04  0.7818608E-02  0.7891341E-01
          2   -1    0    0  501    0  0.00000000000E+00  0.00000000000E+00  0.18801426521E+04  0.18801426521E+04  0.00000000000E+00 0.  1.
         -2   -1    0    0    0  501 -0.00000000000E+00 -0.00000000000E+00 -0.28281439982E+04  0.28281439982E+04  0.00000000000E+00 0. -1.
         23    2    1    2    0    0 -0.14903260389E+04  0.29586884891E+03 -0.22438027697E+04  0.27113611616E+04  0.90655396523E+02 0.  0.
         13    1    3    3    0    0 -0.38803992377E+03  0.56909529601E+02 -0.64167049718E+03  0.75203371198E+03  0.00000000000E+00 0.  1.
        -13    1    3    3    0    0 -0.11022861151E+04  0.23895931931E+03 -0.16021322726E+04  0.19593274496E+04  0.00000000000E+00 0. -1.
         22    1    1    2    0    0  0.14903260389E+04 -0.29586884891E+03  0.12958014237E+04  0.19969254888E+04  0.00000000000E+00 0.  1.
<mgrwt>
<rscale>  0 0.46118604E+04</rscale>
<asrwt>0</asrwt>
<pdfrwt beam="1">  1        2 0.28925272E+00 0.46118604E+04</pdfrwt>
<pdfrwt beam="2">  1       -2 0.43509907E+00 0.46118604E+04</pdfrwt>
<totfact> 0.25503917E-02</totfact>
</mgrwt>
</event>
<event>
 6    1  0.1934315E-005  0.1831522E+04  0.7818608E-02  0.8689714E-01
         -2   -1    0    0    0  501 -0.00000000000E+00  0.00000000000E+00  0.10428250783E+04  0.10428250783E+04  0.00000000000E+00 0. -1.
          2   -1    0    0  501    0  0.00000000000E+00 -0.00000000000E+00 -0.80417933988E+03  0.80417933988E+03  0.00000000000E+00 0.  1.
         23    2    1    2    0    0 -0.83569696798E+03  0.33937151697E+03  0.26505208198E+03  0.94464099708E+03  0.92366435336E+02 0.  0.
         11    1    3    3    0    0 -0.53040347319E+03  0.22370435968E+03  0.12320123623E+03  0.58868500025E+03  0.00000000000E+00 0.  1.
        -11    1    3    3    0    0 -0.30529349479E+03  0.11566715730E+03  0.14185084576E+03  0.35595599683E+03  0.00000000000E+00 0. -1.
         22    1    1    2    0    0  0.83569696798E+03 -0.33937151697E+03 -0.26406343523E+02  0.90236342113E+03  0.00000000000E+00 0.  1.
<mgrwt>
<rscale>  0 0.18315222E+04</rscale>
<asrwt>0</asrwt>
<pdfrwt beam="1">  1        2 0.12371990E+00 0.18315222E+04</pdfrwt>
<pdfrwt beam="2">  1       -2 0.16043463E+00 0.18315222E+04</pdfrwt>
<totfact> 0.80507676E+00</totfact>
</mgrwt>
</event>
<event>
 6    1  0.1934315E-005  0.1373104E+04  0.7818608E-02  0.8973521E-01
          2   -1    0    0  501    0  0.00000000000E+00  0.00000000000E+00  0.61603063233E+03  0.61603063233E+03  0.00000000000E+00 0.  1.
         -2   -1    0    0    0  501 -0.00000000000E+00 -0.00000000000E+00 -0.76514657774E+03  0.76514657774E+03  0.00000000000E+00 0. -1.
         23    2    1    2    0    0  0.13359505224E+03 -0.49832710228E+03 -0.52591918950E+03  0.74230459083E+03  0.90816148512E+02 0.  0.
         13    1    3    3    0    0  0.79920748106E+02 -0.33699272997E+03 -0.29131814641E+03  0.45256788271E+03  0.00000000000E+00 0. -1.
        -13    1    3    3    0    0  0.53674304134E+02 -0.16133437231E+03 -0.23460104310E+03  0.28973670812E+03  0.00000000000E+00 0.  1.
         22    1    1    2    0    0 -0.13359505224E+03  0.49832710228E+03  0.37680324409E+03  0.63887261923E+03  0.00000000000E+00 0.  1.
<mgrwt>
<rscale>  0 0.13731041E+04</rscale>
<asrwt>0</asrwt>
<pdfrwt beam="1">  1        2 0.94773944E-01 0.13731041E+04</pdfrwt>
<pdfrwt beam="2">  1       -2 0.11771486E+00 0.13731041E+04</pdfrwt>
<totfact> 0.26080233E+01</totfact>
</mgrwt>
</event>
<event>
 6    1  0.1934315E-005  0.1215265E+04  0.7818608E-02  0.9099599E-01
          2   -1    0    0  501    0  0.00000000000E+00  0.00000000000E+00  0.85779627379E+03  0.85779627379E+03  0.00000000000E+00 0.  1.
         -2   -1    0    0    0  501 -0.00000000000E+00 -0.00000000000E+00 -0.43042552889E+03  0.43042552889E+03  0.00000000000E+00 0. -1.
         23    2    1    2    0    0  0.14517950459E+03 -0.54013302984E+03 -0.27529660663E+02  0.56728133534E+03  0.90716331106E+02 0.  0.
         11    1    3    3    0    0  0.73827227021E+02 -0.31646367023E+03  0.27567167262E+02  0.32612829184E+03  0.00000000000E+00 0.  1.
        -11    1    3    3    0    0  0.71352277571E+02 -0.22366935961E+03 -0.55096827925E+02  0.24115304350E+03  0.00000000000E+00 0. -1.
         22    1    1    2    0    0 -0.14517950459E+03  0.54013302984E+03  0.45490040556E+03  0.72094046735E+03  0.00000000000E+00 0.  1.
<mgrwt>
<rscale>  0 0.12152653E+04</rscale>
<asrwt>0</asrwt>
<pdfrwt beam="1">  1        2 0.13196866E+00 0.12152653E+04</pdfrwt>
<pdfrwt beam="2">  1       -2 0.66219312E-01 0.12152653E+04</pdfrwt>
<totfact> 0.64827099E+01</totfact>
</mgrwt>
</event>
<event>
 6    1  0.1934315E-005  0.5188601E+03  0.7818608E-02  0.1008970E+00
         -2   -1    0    0    0  501 -0.00000000000E+00  0.00000000000E+00  0.16638646857E+03  0.16638646857E+03  0.00000000000E+00 0. -1.
          2   -1    0    0  501    0  0.00000000000E+00 -0.00000000000E+00 -0.40450378235E+03  0.40450378235E+03  0.00000000000E+00 0.  1.
         23    2    1    2    0    0  0.65719394576E+02 -0.14164230503E+03 -0.34108219786E+03  0.38385188921E+03  0.81385660643E+02 0.  0.
         11    1    3    3    0    0  0.33494683064E+02 -0.75123091962E+02 -0.89135486315E+02  0.12128688165E+03  0.00000000000E+00 0. -1.
        -11    1    3    3    0    0  0.32224711512E+02 -0.66519213065E+02 -0.25194671154E+03  0.26256500756E+03  0.00000000000E+00 0.  1.
         22    1    1    2    0    0 -0.65719394576E+02  0.14164230503E+03  0.10296488408E+03  0.18703836171E+03  0.00000000000E+00 0. -1.
<mgrwt>
<rscale>  0 0.51886012E+03</rscale>
<asrwt>0</asrwt>
<pdfrwt beam="1">  1        2 0.62231350E-01 0.51886012E+03</pdfrwt>
<pdfrwt beam="2">  1       -2 0.25597919E-01 0.51886012E+03</pdfrwt>
<totfact> 0.10797488E+03</totfact>
</mgrwt>
</event>
<event>
 6    1  0.1934315E-005  0.1605909E+04  0.7818608E-02  0.8816926E-01
          2   -1    0    0  501    0  0.00000000000E+00  0.00000000000E+00  0.17234993485E+04  0.17234993485E+04  0.00000000000E+00 0.  1.
         -2   -1    0    0    0  501 -0.00000000000E+00 -0.00000000000E+00 -0.37408524563E+03  0.37408524563E+03  0.00000000000E+00 0. -1.
         23    2    1    2    0    0  0.46078651728E+02 -0.56936432624E+03 -0.55222291452E+02  0.58123952179E+03  0.92146090949E+02 0.  0.
         13    1    3    3    0    0  0.28339505125E+02 -0.71428034568E+02 -0.29537026773E+02  0.82325740954E+02  0.00000000000E+00 0.  1.
        -13    1    3    3    0    0  0.17739146603E+02 -0.49793629168E+03 -0.25685264679E+02  0.49891378084E+03  0.00000000000E+00 0. -1.
         22    1    1    2    0    0 -0.46078651728E+02  0.56936432624E+03  0.14046363943E+04  0.15163450723E+04  0.00000000000E+00 0.  1.
<mgrwt>
<rscale>  0 0.16059087E+04</rscale>
<asrwt>0</asrwt>
<pdfrwt beam="1">  1        2 0.26515374E+00 0.16059087E+04</pdfrwt>
<pdfrwt beam="2">  1       -2 0.57551577E-01 0.16059087E+04</pdfrwt>
<totfact> 0.25789167E+01</totfact>
</mgrwt>
</event>
<event>
 6    1  0.1934315E-005  0.5754271E+03  0.7818608E-02  0.9957741E-01
          2   -1    0    0  501    0  0.00000000000E+00  0.00000000000E+00  0.80351621926E+03  0.80351621926E+03  0.00000000000E+00 0.  1.
         -2   -1    0    0    0  501 -0.00000000000E+00 -0.00000000000E+00 -0.10302103895E+03  0.10302103895E+03  0.00000000000E+00 0. -1.
         23    2    1    2    0    0  0.36495913618E+02 -0.80854473587E+02  0.77817050799E+03  0.78862689335E+03  0.92269387148E+02 0.  0.
         13    1    3    3    0    0  0.44280527289E+01 -0.45570844484E+02  0.65425578114E+03  0.65585588103E+03  0.00000000000E+00 0.  1.
        -13    1    3    3    0    0  0.32067860889E+02 -0.35283629103E+02  0.12391472685E+03  0.13277101233E+03  0.00000000000E+00 0. -1.
         22    1    1    2    0    0 -0.36495913618E+02  0.80854473587E+02 -0.77675327686E+02  0.11791036486E+03  0.00000000000E+00 0. -1.
<mgrwt>
<rscale>  0 0.57542706E+03</rscale>
<asrwt>0</asrwt>
<pdfrwt beam="1">  1        2 0.12361788E+00 0.57542706E+03</pdfrwt>
<pdfrwt beam="2">  1       -2 0.15849391E-01 0.57542706E+03</pdfrwt>
<totfact> 0.10980974E+03</totfact>
</mgrwt>
</event>
<event>
 6    1  0.1934315E-005  0.5943288E+04  0.7818608E-02  0.7697473E-01
          2   -1    0    0  501    0  0.00000000000E+00  0.00000000000E+00  0.27918510069E+04  0.27918510069E+04  0.00000000000E+00 0.  1.
         -2   -1    0    0    0  501 -0.00000000000E+00 -0.00000000000E+00 -0.31630159130E+04  0.31630159130E+04  0.00000000000E+00 0. -1.
         23    2    1    2    0    0  0.24253626110E+04  0.73513427236E+03 -0.17391473652E+04  0.30749047323E+04  0.87174318536E+02 0.  0.
         13    1    3    3    0    0  0.14714588818E+04  0.40337609758E+03 -0.10616317727E+04  0.18587537593E+04  0.00000000000E+00 0.  1.
        -13    1    3    3    0    0  0.95390372919E+03  0.33175817479E+03 -0.67751559247E+03  0.12161509730E+04  0.00000000000E+00 0. -1.
         22    1    1    2    0    0 -0.24253626110E+04 -0.73513427236E+03  0.13679824591E+04  0.28799621875E+04  0.00000000000E+00 0.  1.
<mgrwt>
<rscale>  0 0.59432884E+04</rscale>
<asrwt>0</asrwt>
<pdfrwt beam="1">  1        2 0.42951554E+00 0.59432884E+04</pdfrwt>
<pdfrwt beam="2">  1       -2 0.48661783E+00 0.59432884E+04</pdfrwt>
<totfact> 0.31956772E-03</totfact>
</mgrwt>
</event>
<event>
 6    1  0.4045805E-005  0.2240848E+04  0.7818608E-02  0.8501616E-01
          2   -1    0    0  501    0  0.00000000000E+00  0.00000000000E+00  0.18158141027E+04  0.18158141027E+04  0.00000000000E+00 0.  1.
         -2   -1    0    0    0  501 -0.00000000000E+00 -0.00000000000E+00 -0.69134256006E+03  0.69134256006E+03  0.00000000000E+00 0. -1.
         23    2    1    2    0    0 -0.26813766258E+03  0.17946006229E+03  0.17615427876E+04  0.17930393816E+04  0.88620040269E+02 0.  0.
         11    1    3    3    0    0 -0.19645889265E+03  0.10088165011E+03  0.99936308011E+03  0.10234743620E+04  0.00000000000E+00 0.  1.
        -11    1    3    3    0    0 -0.71678769927E+02  0.78578412177E+02  0.76217970744E+03  0.76956501957E+03  0.00000000000E+00 0. -1.
         22    1    1    2    0    0  0.26813766258E+03 -0.17946006229E+03 -0.63707124496E+03  0.71411728112E+03  0.00000000000E+00 0. -1.
<mgrwt>
<rscale>  0 0.22408477E+04</rscale>
<asrwt>0</asrwt>
<pdfrwt beam="1">  1        2 0.27935601E+00 0.22408477E+04</pdfrwt>
<pdfrwt beam="2">  1       -2 0.10636039E+00 0.22408477E+04</pdfrwt>
<totfact> 0.54901227E+00</totfact>
</mgrwt>
</event>
<event>
 6    1  0.1934315E-005  0.3112492E+04  0.7818608E-02  0.8212318E-01
          2   -1    0    0  501    0  0.00000000000E+00  0.00000000000E+00  0.26530479582E+04  0.26530479582E+04  0.00000000000E+00 0.  1.
         -2   -1    0    0    0  501 -0.00000000000E+00 -0.00000000000E+00 -0.91287537963E+03  0.91287537963E+03  0.00000000000E+00 0. -1.
         23    2    1    2    0    0  0.32026767351E+03 -0.11192646617E+04  0.20517336951E+04  0.23607697812E+04  0.91093570913E+02 0.  0.
         11    1    3    3    0    0  0.21119190165E+03 -0.87493998851E+03  0.15679825102E+04  0.18079521993E+04  0.00000000000E+00 0. -1.
        -11    1    3    3    0    0  0.10907577185E+03 -0.24432467324E+03  0.48375118490E+03  0.55281758189E+03  0.00000000000E+00 0.  1.
         22    1    1    2    0    0 -0.32026767351E+03  0.11192646617E+04 -0.31156111649E+03  0.12051535566E+04  0.00000000000E+00 0. -1.
<mgrwt>
<rscale>  0 0.31124924E+04</rscale>
<asrwt>0</asrwt>
<pdfrwt beam="1">  1        2 0.40816122E+00 0.31124924E+04</pdfrwt>
<pdfrwt beam="2">  1       -2 0.14044237E+00 0.31124924E+04</pdfrwt>
<totfact> 0.85524922E-01</totfact>
</mgrwt>
</event>
<event>
 6    1  0.1934315E-005  0.3977734E+04  0.7818608E-02  0.8009053E-01
          2   -1    0    0  501    0  0.00000000000E+00  0.00000000000E+00  0.17442144746E+04  0.17442144746E+04  0.00000000000E+00 0.  1.
         -2   -1    0    0    0  501 -0.00000000000E+00 -0.00000000000E+00 -0.22678363024E+04  0.22678363024E+04  0.00000000000E+00 0. -1.
         23    2    1    2    0    0 -0.14981657995E+04 -0.66867034748E+03  0.87011882350E+03  0.18593469424E+04  0.91888457877E+02 0.  0.
         11    1    3    3    0    0 -0.11607198485E+04 -0.52262056268E+03  0.63123876954E+03  0.14208677642E+04  0.00000000000E+00 0. -1.
        -11    1    3    3    0    0 -0.33744595103E+03 -0.14604978479E+03  0.23888005397E+03  0.43847917817E+03  0.00000000000E+00 0.  1.
         22    1    1    2    0    0  0.14981657995E+04  0.66867034748E+03 -0.13937406513E+04  0.21527038346E+04  0.00000000000E+00 0. -1.
<mgrwt>
<rscale>  0 0.39777345E+04</rscale>
<asrwt>0</asrwt>
<pdfrwt beam="1">  1        2 0.26834069E+00 0.39777345E+04</pdfrwt>
<pdfrwt beam="2">  1       -2 0.34889789E+00 0.39777345E+04</pdfrwt>
<totfact> 0.11575122E-01</totfact>
</mgrwt>
</event>
<event>
 6    1  0.1934315E-005  0.3209834E+04  0.7818608E-02  0.8186225E-01
         -2   -1    0    0    0  501 -0.00000000000E+00  0.00000000000E+00  0.16149712202E+04  0.16149712202E+04  0.00000000000E+00 0. -1.
          2   -1    0    0  501    0  0.00000000000E+00 -0.00000000000E+00 -0.15949258632E+04  0.15949258632E+04  0.00000000000E+00 0.  1.
         23    2    1    2    0    0 -0.36065606410E+03  0.12377854246E+04  0.96383130728E+03  0.16121119057E+04  0.88025301428E+02 0.  0.
         13    1    3    3    0    0 -0.34064112039E+03  0.11597542657E+04  0.87510943531E+03  0.14922743895E+04  0.00000000000E+00 0.  1.
        -13    1    3    3    0    0 -0.20014943716E+02  0.78031158921E+02  0.88721871966E+02  0.11983751624E+03  0.00000000000E+00 0. -1.
         22    1    1    2    0    0  0.36065606410E+03 -0.12377854246E+04 -0.94378595028E+03  0.15977851777E+04  0.00000000000E+00 0.  1.
<mgrwt>
<rscale>  0 0.32098345E+04</rscale>
<asrwt>0</asrwt>
<pdfrwt beam="1">  1        2 0.24537321E+00 0.32098345E+04</pdfrwt>
<pdfrwt beam="2">  1       -2 0.24845711E+00 0.32098345E+04</pdfrwt>
<totfact> 0.62037406E-01</totfact>
</mgrwt>
</event>
<event>
 6    1  0.1934315E-005  0.1705466E+04  0.7818608E-02  0.8758253E-01
         -2   -1    0    0    0  501 -0.00000000000E+00  0.00000000000E+00  0.35871565481E+03  0.35871565481E+03  0.00000000000E+00 0.  1.
          2   -1    0    0  501    0  0.00000000000E+00 -0.00000000000E+00 -0.20271031697E+04  0.20271031697E+04  0.00000000000E+00 0. -1.
         23    2    1    2    0    0  0.50112908465E+03 -0.54168690609E+03 -0.14273044466E+04  0.16094966559E+04  0.93415407703E+02 0.  0.
         13    1    3    3    0    0  0.14570105466E+03 -0.16726671647E+03 -0.52504095218E+03  0.56997802873E+03  0.00000000000E+00 0. -1.
        -13    1    3    3    0    0  0.35542802999E+03 -0.37442018962E+03 -0.90226349440E+03  0.10395186272E+04  0.00000000000E+00 0.  1.
         22    1    1    2    0    0 -0.50112908465E+03  0.54168690609E+03 -0.24108306834E+03  0.77632216866E+03  0.00000000000E+00 0.  1.
<mgrwt>
<rscale>  0 0.17054661E+04</rscale>
<asrwt>0</asrwt>
<pdfrwt beam="1">  1        2 0.31186203E+00 0.17054661E+04</pdfrwt>
<pdfrwt beam="2">  1       -2 0.55187023E-01 0.17054661E+04</pdfrwt>
<totfact> 0.18950266E+01</totfact>
</mgrwt>
</event>
<event>
 6    1  0.1934315E-005  0.2626113E+03  0.7818608E-02  0.1105584E+00
         -1   -1    0    0    0  501 -0.00000000000E+00  0.00000000000E+00  0.17863171013E+03  0.17863171013E+03  0.00000000000E+00 0. -1.
          1   -1    0    0  501    0  0.00000000000E+00 -0.00000000000E+00 -0.96517990093E+02  0.96517990093E+02  0.00000000000E+00 0.  1.
         23    2    1    2    0    0  0.10906632400E+03  0.10013893677E+01  0.16350735336E+01  0.13960163364E+03  0.87117603494E+02 0.  0.
         11    1    3    3    0    0  0.28427710529E+02  0.40595473697E+02 -0.29764105537E+01  0.49648627679E+02  0.00000000000E+00 0.  1.
        -11    1    3    3    0    0  0.80638613469E+02 -0.39594084329E+02  0.46114840873E+01  0.89953005961E+02  0.00000000000E+00 0. -1.
         22    1    1    2    0    0 -0.10906632400E+03 -0.10013893677E+01  0.80478646501E+02  0.13554806658E+03  0.00000000000E+00 0. -1.
<mgrwt>
<rscale>  0 0.26261130E+03</rscale>
<asrwt>0</asrwt>
<pdfrwt beam="1">  1        1 0.14848922E-01 0.26261130E+03</pdfrwt>
<pdfrwt beam="2">  1       -1 0.27481801E-01 0.26261130E+03</pdfrwt>
<totfact> 0.44444886E+03</totfact>
</mgrwt>
</event>
<event>
 6    1  0.1934315E-005  0.1636128E+04  0.7818608E-02  0.8798656E-01
          4   -1    0    0  501    0  0.00000000000E+00  0.00000000000E+00  0.76336089969E+03  0.76336089969E+03  0.00000000000E+00 0.  1.
         -4   -1    0    0    0  501 -0.00000000000E+00 -0.00000000000E+00 -0.87668693263E+03  0.87668693263E+03  0.00000000000E+00 0. -1.
         23    2    1    2    0    0  0.15785953904E+03  0.67651342441E+02 -0.85594217375E+03  0.87783062523E+03  0.91941631403E+02 0.  0.
         13    1    3    3    0    0  0.12389070927E+03  0.76648910587E+02 -0.51894791002E+03  0.53900918049E+03  0.00000000000E+00 0. -1.
        -13    1    3    3    0    0  0.33968829776E+02 -0.89975681460E+01 -0.33699426373E+03  0.33882144474E+03  0.00000000000E+00 0.  1.
         22    1    1    2    0    0 -0.15785953904E+03 -0.67651342441E+02  0.74261614081E+03  0.76221720710E+03  0.00000000000E+00 0.  1.
<mgrwt>
<rscale>  0 0.16361278E+04</rscale>
<asrwt>0</asrwt>
<pdfrwt beam="1">  1        4 0.11744014E+00 0.16361278E+04</pdfrwt>
<pdfrwt beam="2">  1       -4 0.13487491E+00 0.16361278E+04</pdfrwt>
<totfact> 0.42069885E-01</totfact>
</mgrwt>
</event>
<event>
 6    1  0.1934315E-005  0.1333482E+04  0.7818608E-02  0.9003427E-01
          2   -1    0    0  501    0  0.00000000000E+00  0.00000000000E+00  0.11294919076E+04  0.11294919076E+04  0.00000000000E+00 0.  1.
         -2   -1    0    0    0  501 -0.00000000000E+00 -0.00000000000E+00 -0.39357853078E+03  0.39357853078E+03  0.00000000000E+00 0. -1.
         23    2    1    2    0    0  0.39890687848E+03 -0.41801928797E+02 -0.23450225704E+03  0.47303205747E+03  0.88847734276E+02 0.  0.
         13    1    3    3    0    0  0.17938051871E+03 -0.60646954253E+02 -0.90993194228E+02  0.21008375698E+03  0.00000000000E+00 0. -1.
        -13    1    3    3    0    0  0.21952635978E+03  0.18845025455E+02 -0.14350906281E+03  0.26294830049E+03  0.00000000000E+00 0.  1.
         22    1    1    2    0    0 -0.39890687848E+03  0.41801928797E+02  0.97041563390E+03  0.10500383809E+04  0.00000000000E+00 0.  1.
<mgrwt>
<rscale>  0 0.13334823E+04</rscale>
<asrwt>0</asrwt>
<pdfrwt beam="1">  1        2 0.17376798E+00 0.13334823E+04</pdfrwt>
<pdfrwt beam="2">  1       -2 0.60550544E-01 0.13334823E+04</pdfrwt>
<totfact> 0.51909457E+01</totfact>
</mgrwt>
</event>
<event>
 6    1  0.1934315E-005  0.4517256E+04  0.7818608E-02  0.7907623E-01
          2   -1    0    0  501    0  0.00000000000E+00  0.00000000000E+00  0.40131453349E+04  0.40131453349E+04  0.00000000000E+00 0. -1.
         -2   -1    0    0    0  501 -0.00000000000E+00 -0.00000000000E+00 -0.12711723781E+04  0.12711723781E+04  0.00000000000E+00 0.  1.
         23    2    1    2    0    0 -0.14635926114E+04  0.72926390659E+03  0.31925944338E+04  0.35881488260E+04  0.90684074007E+02 0.  0.
         13    1    3    3    0    0 -0.98672301219E+03  0.53861530309E+03  0.21879497691E+04  0.24598481537E+04  0.00000000000E+00 0. -1.
        -13    1    3    3    0    0 -0.47686959922E+03  0.19064860350E+03  0.10046446648E+04  0.11283006723E+04  0.00000000000E+00 0.  1.
         22    1    1    2    0    0  0.14635926114E+04 -0.72926390659E+03 -0.45062147699E+03  0.16961688870E+04  0.00000000000E+00 0.  1.
<mgrwt>
<rscale>  0 0.45172556E+04</rscale>
<asrwt>0</asrwt>
<pdfrwt beam="1">  1        2 0.61740697E+00 0.45172556E+04</pdfrwt>
<pdfrwt beam="2">  1       -2 0.19556498E+00 0.45172556E+04</pdfrwt>
<totfact> 0.35783047E-02</totfact>
</mgrwt>
</event>
<event>
 6    1  0.1934315E-005  0.1135749E+04  0.7818608E-02  0.9171032E-01
          2   -1    0    0  501    0  0.00000000000E+00  0.00000000000E+00  0.25138373399E+03  0.25138373399E+03  0.00000000000E+00 0.  1.
         -2   -1    0    0    0  501 -0.00000000000E+00 -0.00000000000E+00 -0.12828258977E+04  0.12828258977E+04  0.00000000000E+00 0. -1.
         23    2    1    2    0    0  0.12393262650E+03 -0.18255423399E+03  0.18271640007E+03  0.30016491521E+03  0.89601055872E+02 0.  0.
         13    1    3    3    0    0  0.26350833697E+02 -0.46607589590E+02  0.10014512983E+03  0.11355915143E+03  0.00000000000E+00 0. -1.
        -13    1    3    3    0    0  0.97581792802E+02 -0.13594664440E+03  0.82571270235E+02  0.18660576379E+03  0.00000000000E+00 0.  1.
         22    1    1    2    0    0 -0.12393262650E+03  0.18255423399E+03 -0.12141585637E+04  0.12340447164E+04  0.00000000000E+00 0. -1.
<mgrwt>
<rscale>  0 0.11357492E+04</rscale>
<asrwt>0</asrwt>
<pdfrwt beam="1">  1        2 0.38674421E-01 0.11357492E+04</pdfrwt>
<pdfrwt beam="2">  1       -2 0.19735783E+00 0.11357492E+04</pdfrwt>
<totfact> 0.18339891E+01</totfact>
</mgrwt>
</event>
<event>
 6    1  0.1934315E-005  0.7007660E+03  0.7818608E-02  0.9715923E-01
         -4   -1    0    0    0  501 -0.00000000000E+00  0.00000000000E+00  0.19373258786E+04  0.19373258786E+04  0.00000000000E+00 0. -1.
          4   -1    0    0  501    0  0.00000000000E+00 -0.00000000000E+00 -0.63369950133E+02  0.63369950133E+02  0.00000000000E+00 0.  1.
         23    2    1    2    0    0  0.23778032371E+03 -0.24690123931E+03  0.87620535023E+03  0.94570487110E+03  0.95510120597E+02 0.  0.
         11    1    3    3    0    0  0.18752502110E+03 -0.23661743457E+03  0.70367179627E+03  0.76570715077E+03  0.00000000000E+00 0.  1.
        -11    1    3    3    0    0  0.50255302615E+02 -0.10283804735E+02  0.17253355396E+03  0.17999772033E+03  0.00000000000E+00 0. -1.
         22    1    1    2    0    0 -0.23778032371E+03  0.24690123931E+03  0.99775057825E+03  0.10549909576E+04  0.00000000000E+00 0. -1.
<mgrwt>
<rscale>  0 0.70076599E+03</rscale>
<asrwt>0</asrwt>
<pdfrwt beam="1">  1        4 0.97492246E-02 0.70076599E+03</pdfrwt>
<pdfrwt beam="2">  1       -4 0.29805009E+00 0.70076599E+03</pdfrwt>
<totfact> 0.54294421E+00</totfact>
</mgrwt>
</event>
<event>
 6    1  0.1934315E-005  0.3293396E+04  0.7818608E-02  0.8164578E-01
         -2   -1    0    0    0  501 -0.00000000000E+00  0.00000000000E+00  0.25436316252E+04  0.25436316252E+04  0.00000000000E+00 0. -1.
          2   -1    0    0  501    0  0.00000000000E+00 -0.00000000000E+00 -0.10660404623E+04  0.10660404623E+04  0.00000000000E+00 0.  1.
         23    2    1    2    0    0  0.61156490459E+03  0.12555246796E+04 -0.21417396757E+03  0.14159485155E+04  0.93197943156E+02 0.  0.
         13    1    3    3    0    0  0.21972622531E+03  0.52682161738E+03 -0.55510492149E+02  0.57349982159E+03  0.00000000000E+00 0. -1.
        -13    1    3    3    0    0  0.39183867928E+03  0.72870306223E+03 -0.15866347542E+03  0.84244869393E+03  0.00000000000E+00 0.  1.
         22    1    1    2    0    0 -0.61156490459E+03 -0.12555246796E+04  0.16917651305E+04  0.21937235720E+04  0.00000000000E+00 0. -1.
<mgrwt>
<rscale>  0 0.32933960E+04</rscale>
<asrwt>0</asrwt>
<pdfrwt beam="1">  1        2 0.16400623E+00 0.32933960E+04</pdfrwt>
<pdfrwt beam="2">  1       -2 0.39132794E+00 0.32933960E+04</pdfrwt>
<totfact> 0.16147151E-01</totfact>
</mgrwt>
</event>
<event>
 6    1  0.1934315E-005  0.1555629E+04  0.7818608E-02  0.8848280E-01
         -2   -1    0    0    0  501 -0.00000000000E+00  0.00000000000E+00  0.26131943083E+03  0.26131943083E+03  0.00000000000E+00 0.  1.
          2   -1    0    0  501    0  0.00000000000E+00 -0.00000000000E+00 -0.23151568093E+04  0.23151568093E+04  0.00000000000E+00 0. -1.
         23    2    1    2    0    0 -0.29533961328E+03 -0.70515543128E+03 -0.81885604883E+03  0.11240133132E+04  0.91711668870E+02 0.  0.
         13    1    3    3    0    0 -0.30015875557E+03 -0.67554656201E+03 -0.79590068608E+03  0.10862395399E+04  0.00000000000E+00 0. -1.
        -13    1    3    3    0    0  0.48191422909E+01 -0.29608869271E+02 -0.22955362750E+02  0.37773773321E+02  0.00000000000E+00 0.  1.
         22    1    1    2    0    0  0.29533961328E+03  0.70515543128E+03 -0.12349813297E+04  0.14524629269E+04  0.00000000000E+00 0. -1.
<mgrwt>
<rscale>  0 0.15556291E+04</rscale>
<asrwt>0</asrwt>
<pdfrwt beam="1">  1        2 0.35617796E+00 0.15556291E+04</pdfrwt>
<pdfrwt beam="2">  1       -2 0.40202990E-01 0.15556291E+04</pdfrwt>
<totfact> 0.25076957E+01</totfact>
</mgrwt>
</event>
<event>
 6    1  0.1934315E-005  0.2274780E+04  0.7818608E-02  0.8487932E-01
          2   -1    0    0  501    0  0.00000000000E+00  0.00000000000E+00  0.14428979761E+04  0.14428979761E+04  0.00000000000E+00 0.  1.
         -2   -1    0    0    0  501 -0.00000000000E+00 -0.00000000000E+00 -0.89656796408E+03  0.89656796408E+03  0.00000000000E+00 0. -1.
         23    2    1    2    0    0 -0.11290298673E+04  0.10516343980E+03  0.32254987057E+03  0.11836781820E+04  0.10624419583E+03 0.  0.
         13    1    3    3    0    0 -0.11146364932E+04  0.11626480599E+03  0.31646073467E+03  0.11645082283E+04  0.00000000000E+00 0. -1.
        -13    1    3    3    0    0 -0.14393374083E+02 -0.11101366195E+02  0.60891359027E+01  0.19169953702E+02  0.00000000000E+00 0.  1.
         22    1    1    2    0    0  0.11290298673E+04 -0.10516343980E+03  0.22378014147E+03  0.11557877582E+04  0.00000000000E+00 0.  1.
<mgrwt>
<rscale>  0 0.22747801E+04</rscale>
<asrwt>0</asrwt>
<pdfrwt beam="1">  1        2 0.22198430E+00 0.22747801E+04</pdfrwt>
<pdfrwt beam="2">  1       -2 0.13793353E+00 0.22747801E+04</pdfrwt>
<totfact> 0.46390387E+00</totfact>
</mgrwt>
</event>
<event>
 6    1  0.1934315E-005  0.3576656E+04  0.7818608E-02  0.8095860E-01
          2   -1    0    0  501    0  0.00000000000E+00  0.00000000000E+00  0.19941095401E+04  0.19941095401E+04  0.00000000000E+00 0.  1.
         -2   -1    0    0    0  501 -0.00000000000E+00 -0.00000000000E+00 -0.16037824509E+04  0.16037824509E+04  0.00000000000E+00 0. -1.
         23    2    1    2    0    0  0.10848147675E+04 -0.23860306372E+03 -0.12130708026E+04  0.16473435293E+04  0.91899018833E+02 0.  0.
         13    1    3    3    0    0  0.80726124144E+03 -0.21636234319E+03 -0.89201372561E+03  0.12223632284E+04  0.00000000000E+00 0. -1.
        -13    1    3    3    0    0  0.27755352605E+03 -0.22240720532E+02 -0.32105707700E+03  0.42498030091E+03  0.00000000000E+00 0.  1.
         22    1    1    2    0    0 -0.10848147675E+04  0.23860306372E+03  0.16033978918E+04  0.19505484617E+04  0.00000000000E+00 0.  1.
<mgrwt>
<rscale>  0 0.35766565E+04</rscale>
<asrwt>0</asrwt>
<pdfrwt beam="1">  1        2 0.30678608E+00 0.35766565E+04</pdfrwt>
<pdfrwt beam="2">  1       -2 0.24673576E+00 0.35766565E+04</pdfrwt>
<totfact> 0.37002596E-01</totfact>
</mgrwt>
</event>
<event>
 6    1  0.1934315E-005  0.2737751E+04  0.7818608E-02  0.8322859E-01
          2   -1    0    0  501    0  0.00000000000E+00  0.00000000000E+00  0.63582327707E+03  0.63582327707E+03  0.00000000000E+00 0.  1.
         -2   -1    0    0    0  501 -0.00000000000E+00 -0.00000000000E+00 -0.29470762500E+04  0.29470762500E+04  0.00000000000E+00 0. -1.
         23    2    1    2    0    0  0.95831062445E+03  0.31646800874E+03  0.50376018297E+02  0.10146700308E+04  0.92229467295E+02 0.  0.
         13    1    3    3    0    0  0.42054122530E+03  0.18143134871E+03  0.98489609109E+00  0.45801007248E+03  0.00000000000E+00 0. -1.
        -13    1    3    3    0    0  0.53776939915E+03  0.13503666003E+03  0.49391122206E+02  0.55665995830E+03  0.00000000000E+00 0.  1.
         22    1    1    2    0    0 -0.95831062445E+03 -0.31646800874E+03 -0.23616289913E+04  0.25682294963E+04  0.00000000000E+00 0. -1.
<mgrwt>
<rscale>  0 0.27377507E+04</rscale>
<asrwt>0</asrwt>
<pdfrwt beam="1">  1        2 0.97818964E-01 0.27377507E+04</pdfrwt>
<pdfrwt beam="2">  1       -2 0.45339636E+00 0.27377507E+04</pdfrwt>
<totfact> 0.13299783E-01</totfact>
</mgrwt>
</event>
<event>
 6    1  0.1934315E-005  0.2997403E+04  0.7818608E-02  0.8244473E-01
         -2   -1    0    0    0  501 -0.00000000000E+00  0.00000000000E+00  0.69565139834E+03  0.69565139834E+03  0.00000000000E+00 0. -1.
          2   -1    0    0  501    0  0.00000000000E+00 -0.00000000000E+00 -0.32287820439E+04  0.32287820439E+04  0.00000000000E+00 0.  1.
         23    2    1    2    0    0  0.12008574067E+02  0.57953496344E+03 -0.30752550851E+04  0.31307685963E+04  0.92266926586E+02 0.  0.
         11    1    3    3    0    0 -0.21077344957E+02  0.17619972785E+03 -0.76281760334E+03  0.78318662817E+03  0.00000000000E+00 0. -1.
        -11    1    3    3    0    0  0.33085919024E+02  0.40333523559E+03 -0.23124374817E+04  0.23475819682E+04  0.00000000000E+00 0.  1.
         22    1    1    2    0    0 -0.12008574067E+02 -0.57953496344E+03  0.54212443953E+03  0.79366484591E+03  0.00000000000E+00 0. -1.
<mgrwt>
<rscale>  0 0.29974034E+04</rscale>
<asrwt>0</asrwt>
<pdfrwt beam="1">  1        2 0.49673571E+00 0.29974034E+04</pdfrwt>
<pdfrwt beam="2">  1       -2 0.10702329E+00 0.29974034E+04</pdfrwt>
<totfact> 0.74583856E-01</totfact>
</mgrwt>
</event>
<event>
 6    1  0.1934315E-005  0.1375906E+04  0.7818608E-02  0.8971446E-01
          2   -1    0    0  501    0  0.00000000000E+00  0.00000000000E+00  0.11787476624E+04  0.11787476624E+04  0.00000000000E+00 0.  1.
         -2   -1    0    0    0  501 -0.00000000000E+00 -0.00000000000E+00 -0.40151013501E+03  0.40151013501E+03  0.00000000000E+00 0. -1.
         23    2    1    2    0    0 -0.32332753416E+03  0.54056789757E+03  0.81032763150E+02  0.64139922449E+03  0.89846036318E+02 0.  0.
         11    1    3    3    0    0 -0.14087206499E+03  0.20619914403E+03  0.73868061994E+02  0.26042180453E+03  0.00000000000E+00 0. -1.
        -11    1    3    3    0    0 -0.18245546917E+03  0.33436875354E+03  0.71647011558E+01  0.38097741996E+03  0.00000000000E+00 0.  1.
         22    1    1    2    0    0  0.32332753416E+03 -0.54056789757E+03  0.69620476428E+03  0.93885857297E+03  0.00000000000E+00 0.  1.
<mgrwt>
<rscale>  0 0.13759057E+04</rscale>
<asrwt>0</asrwt>
<pdfrwt beam="1">  1        2 0.18134579E+00 0.13759057E+04</pdfrwt>
<pdfrwt beam="2">  1       -2 0.61770790E-01 0.13759057E+04</pdfrwt>
<totfact> 0.46305716E+01</totfact>
</mgrwt>
</event>
<event>
 6    1  0.1934315E-005  0.3956892E+04  0.7818608E-02  0.8013300E-01
         -2   -1    0    0    0  501 -0.00000000000E+00  0.00000000000E+00  0.13391351146E+04  0.13391351146E+04  0.00000000000E+00 0. -1.
          2   -1    0    0  501    0  0.00000000000E+00 -0.00000000000E+00 -0.29229674203E+04  0.29229674203E+04  0.00000000000E+00 0.  1.
         23    2    1    2    0    0 -0.42259341819E+03  0.25783557616E+03 -0.28543955157E+04  0.28985060946E+04  0.93270784833E+02 0.  0.
         11    1    3    3    0    0 -0.34502876653E+03  0.23668027746E+03 -0.25256478872E+04  0.25600702439E+04  0.00000000000E+00 0. -1.
        -11    1    3    3    0    0 -0.77564651660E+02  0.21155298695E+02 -0.32874762850E+03  0.33843585078E+03  0.00000000000E+00 0.  1.
         22    1    1    2    0    0  0.42259341819E+03 -0.25783557616E+03  0.12705632099E+04  0.13635964402E+04  0.00000000000E+00 0. -1.
<mgrwt>
<rscale>  0 0.39568919E+04</rscale>
<asrwt>0</asrwt>
<pdfrwt beam="1">  1        2 0.44968729E+00 0.39568919E+04</pdfrwt>
<pdfrwt beam="2">  1       -2 0.20602079E+00 0.39568919E+04</pdfrwt>
<totfact> 0.18692994E-01</totfact>
</mgrwt>
</event>
<event>
 6    1  0.1934315E-005  0.2075960E+04  0.7818608E-02  0.8571908E-01
          2   -1    0    0  501    0  0.00000000000E+00  0.00000000000E+00  0.13686214353E+04  0.13686214353E+04  0.00000000000E+00 0.  1.
         -2   -1    0    0    0  501 -0.00000000000E+00 -0.00000000000E+00 -0.78721752098E+03  0.78721752098E+03  0.00000000000E+00 0. -1.
         23    2    1    2    0    0 -0.40061424898E+03  0.11597961990E+03 -0.69349954972E+03  0.81445090976E+03  0.91900001240E+02 0.  0.
         11    1    3    3    0    0 -0.19295926829E+03  0.73636389237E+02 -0.26110808964E+03  0.33291595263E+03  0.00000000000E+00 0.  1.
        -11    1    3    3    0    0 -0.20765498069E+03  0.42343230660E+02 -0.43239146008E+03  0.48153495713E+03  0.00000000000E+00 0. -1.
         22    1    1    2    0    0  0.40061424898E+03 -0.11597961990E+03  0.12749034641E+04  0.13413880466E+04  0.00000000000E+00 0.  1.
<mgrwt>
<rscale>  0 0.20759603E+04</rscale>
<asrwt>0</asrwt>
<pdfrwt beam="1">  1        2 0.21055714E+00 0.20759603E+04</pdfrwt>
<pdfrwt beam="2">  1       -2 0.12111039E+00 0.20759603E+04</pdfrwt>
<totfact> 0.72292986E+00</totfact>
</mgrwt>
</event>
<event>
 6    1  0.1934315E-005  0.3087945E+04  0.7818608E-02  0.8219054E-01
          2   -1    0    0  501    0  0.00000000000E+00  0.00000000000E+00  0.10825091300E+04  0.10825091300E+04  0.00000000000E+00 0.  1.
         -2   -1    0    0    0  501 -0.00000000000E+00 -0.00000000000E+00 -0.22021533694E+04  0.22021533694E+04  0.00000000000E+00 0. -1.
         23    2    1    2    0    0 -0.33272964609E+02  0.58886349503E+03  0.95602874323E+03  0.11268196791E+04  0.88681032123E+02 0.  0.
         13    1    3    3    0    0 -0.50862619253E+02  0.37480315249E+03  0.66614319837E+03  0.76603601083E+03  0.00000000000E+00 0. -1.
        -13    1    3    3    0    0  0.17589654644E+02  0.21406034255E+03  0.28988554486E+03  0.36078366831E+03  0.00000000000E+00 0.  1.
         22    1    1    2    0    0  0.33272964609E+02 -0.58886349503E+03 -0.20756729827E+04  0.21578428202E+04  0.00000000000E+00 0. -1.
<mgrwt>
<rscale>  0 0.30879450E+04</rscale>
<asrwt>0</asrwt>
<pdfrwt beam="1">  1        2 0.16653987E+00 0.30879450E+04</pdfrwt>
<pdfrwt beam="2">  1       -2 0.33879282E+00 0.30879450E+04</pdfrwt>
<totfact> 0.34723786E-01</totfact>
</mgrwt>
</event>
<event>
 6    1  0.1934315E-005  0.3092208E+04  0.7818608E-02  0.8217879E-01
         -2   -1    0    0    0  501 -0.00000000000E+00  0.00000000000E+00  0.20322167723E+04  0.20322167723E+04  0.00000000000E+00 0. -1.
          2   -1    0    0  501    0  0.00000000000E+00 -0.00000000000E+00 -0.11762713242E+04  0.11762713242E+04  0.00000000000E+00 0.  1.
         23    2    1    2    0    0  0.11162122807E+04 -0.47399108372E+03  0.14211939769E+04  0.18705406751E+04  0.92372582986E+02 0.  0.
         11    1    3    3    0    0  0.87576801955E+03 -0.38276106180E+03  0.10616044165E+04  0.14284535665E+04  0.00000000000E+00 0.  1.
        -11    1    3    3    0    0  0.24044426115E+03 -0.91230021917E+02  0.35958956044E+03  0.44208710861E+03  0.00000000000E+00 0. -1.
         22    1    1    2    0    0 -0.11162122807E+04  0.47399108372E+03 -0.56524852885E+03  0.13379474214E+04  0.00000000000E+00 0.  1.
<mgrwt>
<rscale>  0 0.30922085E+04</rscale>
<asrwt>0</asrwt>
<pdfrwt beam="1">  1        2 0.18096482E+00 0.30922085E+04</pdfrwt>
<pdfrwt beam="2">  1       -2 0.31264873E+00 0.30922085E+04</pdfrwt>
<totfact> 0.44189814E-01</totfact>
</mgrwt>
</event>
<event>
 6    1  0.1934315E-005  0.1593035E+04  0.7818608E-02  0.8824838E-01
          2   -1    0    0  501    0  0.00000000000E+00  0.00000000000E+00  0.25670194402E+04  0.25670194402E+04  0.00000000000E+00 0.  1.
         -2   -1    0    0    0  501 -0.00000000000E+00 -0.00000000000E+00 -0.24715049306E+03  0.24715049306E+03  0.00000000000E+00 0. -1.
         23    2    1    2    0    0  0.51057152178E+01  0.55731888247E+03  0.16499016026E+03  0.58838176022E+03  0.91328734198E+02 0.  0.
         11    1    3    3    0    0  0.50776718049E+01  0.41529731622E+03  0.80280910396E+02  0.42301615594E+03  0.00000000000E+00 0. -1.
        -11    1    3    3    0    0  0.28043412905E-01  0.14202156624E+03  0.84709249863E+02  0.16536560427E+03  0.00000000000E+00 0.  1.
         22    1    1    2    0    0 -0.51057152178E+01 -0.55731888247E+03  0.21548787869E+04  0.22257881730E+04  0.00000000000E+00 0.  1.
<mgrwt>
<rscale>  0 0.15930350E+04</rscale>
<asrwt>0</asrwt>
<pdfrwt beam="1">  1        2 0.39492605E+00 0.15930350E+04</pdfrwt>
<pdfrwt beam="2">  1       -2 0.38023155E-01 0.15930350E+04</pdfrwt>
<totfact> 0.19983959E+01</totfact>
</mgrwt>
</event>
<event>
 6    1  0.1934315E-005  0.2592549E+04  0.7818608E-02  0.8370737E-01
          2   -1    0    0  501    0  0.00000000000E+00  0.00000000000E+00  0.21711739683E+04  0.21711739683E+04  0.00000000000E+00 0.  1.
         -2   -1    0    0    0  501 -0.00000000000E+00 -0.00000000000E+00 -0.77392578761E+03  0.77392578761E+03  0.00000000000E+00 0. -1.
         23    2    1    2    0    0  0.29574465534E+03  0.48774209840E+03 -0.62102079016E+03  0.84777601019E+03  0.87750133473E+02 0.  0.
         13    1    3    3    0    0  0.16635524430E+03  0.34760298941E+03 -0.43869611954E+03  0.58391454071E+03  0.00000000000E+00 0. -1.
        -13    1    3    3    0    0  0.12938941104E+03  0.14013910899E+03 -0.18232467061E+03  0.26386146947E+03  0.00000000000E+00 0.  1.
         22    1    1    2    0    0 -0.29574465534E+03 -0.48774209840E+03  0.20182689709E+04  0.20973237458E+04  0.00000000000E+00 0.  1.
<mgrwt>
<rscale>  0 0.25925490E+04</rscale>
<asrwt>0</asrwt>
<pdfrwt beam="1">  1        2 0.33402676E+00 0.25925490E+04</pdfrwt>
<pdfrwt beam="2">  1       -2 0.11906551E+00 0.25925490E+04</pdfrwt>
<totfact> 0.25684931E+00</totfact>
</mgrwt>
</event>
<event>
 6    1  0.1934315E-005  0.8311694E+03  0.7818608E-02  0.9515965E-01
          2   -1    0    0  501    0  0.00000000000E+00  0.00000000000E+00  0.13736582396E+03  0.13736582396E+03  0.00000000000E+00 0.  1.
         -2   -1    0    0    0  501 -0.00000000000E+00 -0.00000000000E+00 -0.12573044494E+04  0.12573044494E+04  0.00000000000E+00 0. -1.
         23    2    1    2    0    0  0.29470079713E+03  0.27721407314E+03 -0.69325524312E+03  0.80666099543E+03  0.80018293308E+02 0.  0.
         13    1    3    3    0    0  0.18576660618E+02  0.50326448551E+02 -0.11470028342E+03  0.12662542699E+03  0.00000000000E+00 0.  1.
        -13    1    3    3    0    0  0.27612413651E+03  0.22688762459E+03 -0.57855495970E+03  0.68003556845E+03  0.00000000000E+00 0. -1.
         22    1    1    2    0    0 -0.29470079713E+03 -0.27721407314E+03 -0.42668338235E+03  0.58800927795E+03  0.00000000000E+00 0. -1.
<mgrwt>
<rscale>  0 0.83116945E+03</rscale>
<asrwt>0</asrwt>
<pdfrwt beam="1">  1        2 0.21133203E-01 0.83116945E+03</pdfrwt>
<pdfrwt beam="2">  1       -2 0.19343146E+00 0.83116945E+03</pdfrwt>
<totfact> 0.39582464E+01</totfact>
</mgrwt>
</event>
<event>
 6    1  0.1934315E-005  0.2128727E+04  0.7818608E-02  0.8548693E-01
         -1   -1    0    0    0  501 -0.00000000000E+00  0.00000000000E+00  0.93777814512E+03  0.93777814512E+03  0.00000000000E+00 0. -1.
          1   -1    0    0  501    0  0.00000000000E+00 -0.00000000000E+00 -0.12080362354E+04  0.12080362354E+04  0.00000000000E+00 0.  1.
         23    2    1    2    0    0  0.97454665016E+03  0.22764457997E+03  0.22437963526E+03  0.10294677911E+04  0.88850909288E+02 0.  0.
         11    1    3    3    0    0  0.47631120959E+03  0.15244997355E+03  0.13134250117E+03  0.51707273707E+03  0.00000000000E+00 0.  1.
        -11    1    3    3    0    0  0.49823544058E+03  0.75194606425E+02  0.93037134098E+02  0.51239505404E+03  0.00000000000E+00 0. -1.
         22    1    1    2    0    0 -0.97454665016E+03 -0.22764457997E+03 -0.49463772553E+03  0.11163465894E+04  0.00000000000E+00 0.  1.
<mgrwt>
<rscale>  0 0.21287273E+04</rscale>
<asrwt>0</asrwt>
<pdfrwt beam="1">  1        1 0.18585173E+00 0.21287273E+04</pdfrwt>
<pdfrwt beam="2">  1       -1 0.14427356E+00 0.21287273E+04</pdfrwt>
<totfact> 0.37451044E+00</totfact>
</mgrwt>
</event>
<event>
 6    1  0.1934315E-005  0.8982563E+03  0.7818608E-02  0.9427764E-01
          2   -1    0    0  501    0  0.00000000000E+00  0.00000000000E+00  0.11197974926E+04  0.11197974926E+04  0.00000000000E+00 0.  1.
         -2   -1    0    0    0  501 -0.00000000000E+00 -0.00000000000E+00 -0.18013623980E+03  0.18013623980E+03  0.00000000000E+00 0. -1.
         23    2    1    2    0    0 -0.13367472819E+03 -0.37779736742E+03  0.75307527472E+03  0.85787704936E+03  0.90724189956E+02 0.  0.
         11    1    3    3    0    0 -0.24617916312E+02 -0.15836500773E+03  0.36887106544E+03  0.40218326718E+03  0.00000000000E+00 0.  1.
        -11    1    3    3    0    0 -0.10905681188E+03 -0.21943235969E+03  0.38420420928E+03  0.45569378218E+03  0.00000000000E+00 0. -1.
         22    1    1    2    0    0  0.13367472819E+03  0.37779736742E+03  0.18658597806E+03  0.44205668301E+03  0.00000000000E+00 0.  1.
<mgrwt>
<rscale>  0 0.89825633E+03</rscale>
<asrwt>0</asrwt>
<pdfrwt beam="1">  1        2 0.17227653E+00 0.89825633E+03</pdfrwt>
<pdfrwt beam="2">  1       -2 0.27713268E-01 0.89825633E+03</pdfrwt>
<totfact> 0.25194327E+02</totfact>
</mgrwt>
</event>
<event>
 6    1  0.1934315E-005  0.1443992E+04  0.7818608E-02  0.8922577E-01
          1   -1    0    0  501    0  0.00000000000E+00  0.00000000000E+00  0.72288181842E+03  0.72288181842E+03  0.00000000000E+00 0.  1.
         -1   -1    0    0    0  501 -0.00000000000E+00 -0.00000000000E+00 -0.72111077748E+03  0.72111077748E+03  0.00000000000E+00 0. -1.
         23    2    1    2    0    0  0.92397329333E+02  0.24503281823E+03 -0.66992980490E+03  0.72304851013E+03  0.73585705336E+02 0.  0.
         11    1    3    3    0    0  0.51918747552E+01  0.66115880086E+02 -0.24493654466E+03  0.25375613505E+03  0.00000000000E+00 0. -1.
        -11    1    3    3    0    0  0.87205454578E+02  0.17891693815E+03 -0.42499326024E+03  0.46929237509E+03  0.00000000000E+00 0.  1.
         22    1    1    2    0    0 -0.92397329333E+02 -0.24503281823E+03  0.67170084585E+03  0.72094408576E+03  0.00000000000E+00 0.  1.
<mgrwt>
<rscale>  0 0.14439915E+04</rscale>
<asrwt>0</asrwt>
<pdfrwt beam="1">  1        1 0.11121259E+00 0.14439915E+04</pdfrwt>
<pdfrwt beam="2">  1       -1 0.11094012E+00 0.14439915E+04</pdfrwt>
<totfact> 0.18855054E+01</totfact>
</mgrwt>
</event>
<event>
 6    1  0.1934315E-005  0.1061351E+04  0.7818608E-02  0.9243702E-01
         -2   -1    0    0    0  501 -0.00000000000E+00  0.00000000000E+00  0.21346511259E+03  0.21346511259E+03  0.00000000000E+00 0. -1.
          2   -1    0    0  501    0  0.00000000000E+00 -0.00000000000E+00 -0.13192632193E+04  0.13192632193E+04  0.00000000000E+00 0.  1.
         23    2    1    2    0    0  0.38490950807E+03  0.34400925058E+03 -0.41333343468E+03  0.66901251294E+03  0.10117074852E+03 0.  0.
         13    1    3    3    0    0  0.15716772055E+03  0.14935848272E+03 -0.11177558310E+03  0.24393324849E+03  0.00000000000E+00 0. -1.
        -13    1    3    3    0    0  0.22774178752E+03  0.19465076786E+03 -0.30155785158E+03  0.42507926445E+03  0.00000000000E+00 0.  1.
         22    1    1    2    0    0 -0.38490950807E+03 -0.34400925058E+03 -0.69246467202E+03  0.86371581893E+03  0.00000000000E+00 0.  1.
<mgrwt>
<rscale>  0 0.10613513E+04</rscale>
<asrwt>0</asrwt>
<pdfrwt beam="1">  1        2 0.20296357E+00 0.10613513E+04</pdfrwt>
<pdfrwt beam="2">  1       -2 0.32840787E-01 0.10613513E+04</pdfrwt>
<totfact> 0.13849318E+02</totfact>
</mgrwt>
</event>
<event>
 6    1  0.1934315E-005  0.3559233E+04  0.7818608E-02  0.8099894E-01
          2   -1    0    0  501    0  0.00000000000E+00  0.00000000000E+00  0.42422625299E+04  0.42422625299E+04  0.00000000000E+00 0.  1.
         -2   -1    0    0    0  501 -0.00000000000E+00 -0.00000000000E+00 -0.74654398873E+03  0.74654398873E+03  0.00000000000E+00 0. -1.
         23    2    1    2    0    0  0.12611671660E+04  0.12514041698E+04  0.16381572381E+04  0.24183806762E+04  0.91929002139E+02 0.  0.
         13    1    3    3    0    0  0.75343966555E+03  0.80115954455E+03  0.98106770925E+03  0.14737780686E+04  0.00000000000E+00 0.  1.
        -13    1    3    3    0    0  0.50772750044E+03  0.45024462528E+03  0.65708952888E+03  0.94460260758E+03  0.00000000000E+00 0. -1.
         22    1    1    2    0    0 -0.12611671660E+04 -0.12514041698E+04  0.18575613030E+04  0.25704258424E+04  0.00000000000E+00 0. -1.
<mgrwt>
<rscale>  0 0.35592334E+04</rscale>
<asrwt>0</asrwt>
<pdfrwt beam="1">  1        2 0.65265576E+00 0.35592334E+04</pdfrwt>
<pdfrwt beam="2">  1       -2 0.11485292E+00 0.35592334E+04</pdfrwt>
<totfact> 0.10290318E-01</totfact>
</mgrwt>
</event>
<event>
 6    1  0.1934315E-005  0.3671107E+04  0.7818608E-02  0.8074395E-01
         -2   -1    0    0    0  501 -0.00000000000E+00  0.00000000000E+00  0.10777572383E+04  0.10777572383E+04  0.00000000000E+00 0. -1.
          2   -1    0    0  501    0  0.00000000000E+00 -0.00000000000E+00 -0.31261742826E+04  0.31261742826E+04  0.00000000000E+00 0.  1.
         23    2    1    2    0    0  0.10700201443E+04  0.85691113013E+03 -0.24207574848E+04  0.27834114761E+04  0.89849045722E+02 0.  0.
         13    1    3    3    0    0  0.97686669669E+03  0.80645289806E+03 -0.22622093335E+04  0.25927255714E+04  0.00000000000E+00 0. -1.
        -13    1    3    3    0    0  0.93153447629E+02  0.50458232069E+02 -0.15854815128E+03  0.19068590473E+03  0.00000000000E+00 0.  1.
         22    1    1    2    0    0 -0.10700201443E+04 -0.85691113013E+03  0.37234044049E+03  0.14205200448E+04  0.00000000000E+00 0. -1.
<mgrwt>
<rscale>  0 0.36711072E+04</rscale>
<asrwt>0</asrwt>
<pdfrwt beam="1">  1        2 0.48094988E+00 0.36711072E+04</pdfrwt>
<pdfrwt beam="2">  1       -2 0.16580881E+00 0.36711072E+04</pdfrwt>
<totfact> 0.26772599E-01</totfact>
</mgrwt>
</event>
<event>
 6    1  0.1934315E-005  0.1036405E+04  0.7818608E-02  0.9269494E-01
          2   -1    0    0  501    0  0.00000000000E+00  0.00000000000E+00  0.70309715899E+03  0.70309715899E+03  0.00000000000E+00 0.  1.
         -2   -1    0    0    0  501 -0.00000000000E+00 -0.00000000000E+00 -0.38192956737E+03  0.38192956737E+03  0.00000000000E+00 0. -1.
         23    2    1    2    0    0 -0.32158733217E+03  0.16359266109E+02  0.58134970303E+03  0.67104512182E+03  0.92994841263E+02 0.  0.
         13    1    3    3    0    0 -0.96074239708E+02  0.16730860799E+02  0.26635467273E+03  0.28364589354E+03  0.00000000000E+00 0.  1.
        -13    1    3    3    0    0 -0.22551309246E+03 -0.37159468983E+00  0.31499503031E+03  0.38739922828E+03  0.00000000000E+00 0. -1.
         22    1    1    2    0    0  0.32158733217E+03 -0.16359266109E+02 -0.26018211142E+03  0.41398160454E+03  0.00000000000E+00 0. -1.
<mgrwt>
<rscale>  0 0.10364045E+04</rscale>
<asrwt>0</asrwt>
<pdfrwt beam="1">  1        2 0.10816879E+00 0.10364045E+04</pdfrwt>
<pdfrwt beam="2">  1       -2 0.58758395E-01 0.10364045E+04</pdfrwt>
<totfact> 0.10995046E+02</totfact>
</mgrwt>
</event>
<event>
 6    1  0.1934315E-005  0.6913463E+04  0.7818608E-02  0.7586426E-01
         -2   -1    0    0    0  501 -0.00000000000E+00  0.00000000000E+00  0.30401161239E+04  0.30401161239E+04  0.00000000000E+00 0. -1.
          2   -1    0    0  501    0  0.00000000000E+00 -0.00000000000E+00 -0.39304395191E+04  0.39304395191E+04  0.00000000000E+00 0.  1.
         23    2    1    2    0    0  0.17092064532E+04  0.71323876771E+03  0.24968547055E+04  0.31101059639E+04  0.91539322451E+02 0.  0.
         11    1    3    3    0    0  0.37209406791E+03  0.12329965171E+03  0.56720243483E+03  0.68947472873E+03  0.00000000000E+00 0.  1.
        -11    1    3    3    0    0  0.13371123852E+04  0.58993911599E+03  0.19296522706E+04  0.24206312352E+04  0.00000000000E+00 0. -1.
         22    1    1    2    0    0 -0.17092064532E+04 -0.71323876771E+03 -0.33871781007E+04  0.38604496791E+04  0.00000000000E+00 0.  1.
<mgrwt>
<rscale>  0 0.69134630E+04</rscale>
<asrwt>0</asrwt>
<pdfrwt beam="1">  1        2 0.60468300E+00 0.69134630E+04</pdfrwt>
<pdfrwt beam="2">  1       -2 0.46771018E+00 0.69134630E+04</pdfrwt>
<totfact> 0.65018290E-04</totfact>
</mgrwt>
</event>
<event>
 6    1  0.1934315E-005  0.2604369E+03  0.7818608E-02  0.1106881E+00
         -2   -1    0    0    0  501 -0.00000000000E+00  0.00000000000E+00  0.12859394562E+02  0.12859394562E+02  0.00000000000E+00 0.  1.
          2   -1    0    0  501    0  0.00000000000E+00 -0.00000000000E+00 -0.13186349608E+04  0.13186349608E+04  0.00000000000E+00 0. -1.
         23    2    1    2    0    0 -0.64464835108E+02  0.64366095221E+00 -0.12148929025E+04  0.12200682012E+04  0.91899519713E+02 0.  0.
         13    1    3    3    0    0  0.21758647085E+02 -0.18760980725E+01 -0.40646240516E+03  0.40704870136E+03  0.00000000000E+00 0.  1.
        -13    1    3    3    0    0 -0.86223482192E+02  0.25197590247E+01 -0.80843049737E+03  0.81301949985E+03  0.00000000000E+00 0. -1.
         22    1    1    2    0    0  0.64464835108E+02 -0.64366095221E+00 -0.90882663673E+02  0.11142615412E+03  0.00000000000E+00 0.  1.
<mgrwt>
<rscale>  0 0.26043692E+03</rscale>
<asrwt>0</asrwt>
<pdfrwt beam="1">  1        2 0.20286690E+00 0.26043692E+03</pdfrwt>
<pdfrwt beam="2">  1       -2 0.19783685E-02 0.26043692E+03</pdfrwt>
<totfact> 0.13423099E+04</totfact>
</mgrwt>
</event>
<event>
 6    1  0.1934315E-005  0.1804131E+04  0.7818608E-02  0.8704106E-01
          2   -1    0    0  501    0  0.00000000000E+00  0.00000000000E+00  0.21511732839E+04  0.21511732839E+04  0.00000000000E+00 0.  1.
         -2   -1    0    0    0  501 -0.00000000000E+00 -0.00000000000E+00 -0.37826891818E+03  0.37826891818E+03  0.00000000000E+00 0. -1.
         23    2    1    2    0    0 -0.45449243995E+03  0.10242397544E+03 -0.18923772384E+03  0.51274796935E+03  0.10022731778E+03 0.  0.
         11    1    3    3    0    0 -0.34954433382E+03  0.11018166421E+03 -0.11556129149E+03  0.38428589946E+03  0.00000000000E+00 0. -1.
        -11    1    3    3    0    0 -0.10494810613E+03 -0.77576887739E+01 -0.73676432356E+02  0.12846206989E+03  0.00000000000E+00 0.  1.
         22    1    1    2    0    0  0.45449243995E+03 -0.10242397544E+03  0.19621420895E+04  0.20166942327E+04  0.00000000000E+00 0.  1.
<mgrwt>
<rscale>  0 0.18041308E+04</rscale>
<asrwt>0</asrwt>
<pdfrwt beam="1">  1        2 0.33094973E+00 0.18041308E+04</pdfrwt>
<pdfrwt beam="2">  1       -2 0.58195220E-01 0.18041308E+04</pdfrwt>
<totfact> 0.14343013E+01</totfact>
</mgrwt>
</event>
<event>
 6    1  0.1934315E-005  0.1571349E+04  0.7818608E-02  0.8838345E-01
         -2   -1    0    0    0  501 -0.00000000000E+00  0.00000000000E+00  0.28305558054E+03  0.28305558054E+03  0.00000000000E+00 0. -1.
          2   -1    0    0  501    0  0.00000000000E+00 -0.00000000000E+00 -0.21807899020E+04  0.21807899020E+04  0.00000000000E+00 0.  1.
         23    2    1    2    0    0 -0.53701816987E+03 -0.34214313734E+03 -0.16668325536E+04  0.17865227621E+04  0.88782749732E+02 0.  0.
         11    1    3    3    0    0 -0.29516398789E+03 -0.18873589026E+03 -0.79277974745E+03  0.86674260538E+03  0.00000000000E+00 0.  1.
        -11    1    3    3    0    0 -0.24185418198E+03 -0.15340724708E+03 -0.87405280613E+03  0.91978015673E+03  0.00000000000E+00 0. -1.
         22    1    1    2    0    0  0.53701816987E+03  0.34214313734E+03 -0.23090176789E+03  0.67732272044E+03  0.00000000000E+00 0. -1.
<mgrwt>
<rscale>  0 0.15713494E+04</rscale>
<asrwt>0</asrwt>
<pdfrwt beam="1">  1        2 0.33550615E+00 0.15713494E+04</pdfrwt>
<pdfrwt beam="2">  1       -2 0.43547011E-01 0.15713494E+04</pdfrwt>
<totfact> 0.25459812E+01</totfact>
</mgrwt>
</event>
<event>
 6    1  0.1934315E-005  0.2464626E+04  0.7818608E-02  0.8415697E-01
          2   -1    0    0  501    0  0.00000000000E+00  0.00000000000E+00  0.18196720271E+04  0.18196720271E+04  0.00000000000E+00 0.  1.
         -2   -1    0    0    0  501 -0.00000000000E+00 -0.00000000000E+00 -0.83454368656E+03  0.83454368656E+03  0.00000000000E+00 0. -1.
         23    2    1    2    0    0 -0.10723497301E+04  0.35684609469E+03 -0.31296180657E+02  0.11342183827E+04  0.90547279910E+02 0.  0.
         11    1    3    3    0    0 -0.50657140486E+03  0.21577123480E+03 -0.86909252005E+01  0.55067898649E+03  0.00000000000E+00 0. -1.
        -11    1    3    3    0    0 -0.56577832519E+03  0.14107485989E+03 -0.22605255456E+02  0.58353939621E+03  0.00000000000E+00 0.  1.
         22    1    1    2    0    0  0.10723497301E+04 -0.35684609469E+03  0.10164245212E+04  0.15199973310E+04  0.00000000000E+00 0.  1.
<mgrwt>
<rscale>  0 0.24646264E+04</rscale>
<asrwt>0</asrwt>
<pdfrwt beam="1">  1        2 0.27994954E+00 0.24646264E+04</pdfrwt>
<pdfrwt beam="2">  1       -2 0.12839134E+00 0.24646264E+04</pdfrwt>
<totfact> 0.33737819E+00</totfact>
</mgrwt>
</event>
<event>
 6    1  0.1934315E-005  0.9886093E+03  0.7818608E-02  0.9321127E-01
         -2   -1    0    0    0  501 -0.00000000000E+00  0.00000000000E+00  0.18990092969E+03  0.18990092969E+03  0.00000000000E+00 0. -1.
          2   -1    0    0  501    0  0.00000000000E+00 -0.00000000000E+00 -0.12866556815E+04  0.12866556815E+04  0.00000000000E+00 0.  1.
         23    2    1    2    0    0 -0.36353523676E+03  0.14579014873E+03 -0.11335382714E+03  0.41802460200E+03  0.92102344814E+02 0.  0.
         11    1    3    3    0    0 -0.87130254010E+02  0.79307452072E+02 -0.26466484556E+02  0.12075523973E+03  0.00000000000E+00 0.  1.
        -11    1    3    3    0    0 -0.27640498275E+03  0.66482696656E+02 -0.86887342584E+02  0.29726936227E+03  0.00000000000E+00 0. -1.
         22    1    1    2    0    0  0.36353523676E+03 -0.14579014873E+03 -0.98340092463E+03  0.10585320091E+04  0.00000000000E+00 0.  1.
<mgrwt>
<rscale>  0 0.98860935E+03</rscale>
<asrwt>0</asrwt>
<pdfrwt beam="1">  1        2 0.19794702E+00 0.98860935E+03</pdfrwt>
<pdfrwt beam="2">  1       -2 0.29215529E-01 0.98860935E+03</pdfrwt>
<totfact> 0.18088318E+02</totfact>
</mgrwt>
</event>
<event>
 6    1  0.1934315E-005  0.2147043E+04  0.7818608E-02  0.8540799E-01
          2   -1    0    0  501    0  0.00000000000E+00  0.00000000000E+00  0.14782692026E+04  0.14782692026E+04  0.00000000000E+00 0.  1.
         -2   -1    0    0    0  501 -0.00000000000E+00 -0.00000000000E+00 -0.77959335196E+03  0.77959335196E+03  0.00000000000E+00 0. -1.
         23    2    1    2    0    0  0.82862187379E+03  0.32775244928E+03 -0.27556521548E+03  0.93756655265E+03  0.95178647489E+02 0.  0.
         11    1    3    3    0    0  0.15673088794E+03  0.85049768416E+02 -0.88628672365E+02  0.19913080100E+03  0.00000000000E+00 0. -1.
        -11    1    3    3    0    0  0.67189098585E+03  0.24270268087E+03 -0.18693654312E+03  0.73843575165E+03  0.00000000000E+00 0.  1.
         22    1    1    2    0    0 -0.82862187379E+03 -0.32775244928E+03  0.97424106610E+03  0.13202960019E+04  0.00000000000E+00 0.  1.
<mgrwt>
<rscale>  0 0.21470434E+04</rscale>
<asrwt>0</asrwt>
<pdfrwt beam="1">  1        2 0.22742603E+00 0.21470434E+04</pdfrwt>
<pdfrwt beam="2">  1       -2 0.11993744E+00 0.21470434E+04</pdfrwt>
<totfact> 0.63749296E+00</totfact>
</mgrwt>
</event>
<event>
 6    1  0.1934315E-005  0.4820450E+04  0.7818608E-02  0.7856818E-01
          2   -1    0    0  501    0  0.00000000000E+00  0.00000000000E+00  0.23655379948E+04  0.23655379948E+04  0.00000000000E+00 0.  1.
         -2   -1    0    0    0  501 -0.00000000000E+00 -0.00000000000E+00 -0.24557556976E+04  0.24557556976E+04  0.00000000000E+00 0. -1.
         23    2    1    2    0    0  0.17117901087E+03  0.21478751563E+04  0.10331786804E+04  0.23913370313E+04  0.91458575909E+02 0.  0.
         13    1    3    3    0    0  0.55901919071E+02  0.33251927880E+03  0.14440472937E+03  0.36680624476E+03  0.00000000000E+00 0. -1.
        -13    1    3    3    0    0  0.11527709180E+03  0.18153558775E+04  0.88877395104E+03  0.20245307866E+04  0.00000000000E+00 0.  1.
         22    1    1    2    0    0 -0.17117901087E+03 -0.21478751563E+04 -0.11233963832E+04  0.24299566610E+04  0.00000000000E+00 0. -1.
<mgrwt>
<rscale>  0 0.48204495E+04</rscale>
<asrwt>0</asrwt>
<pdfrwt beam="1">  1        2 0.36392892E+00 0.48204495E+04</pdfrwt>
<pdfrwt beam="2">  1       -2 0.37780857E+00 0.48204495E+04</pdfrwt>
<totfact> 0.31784590E-02</totfact>
</mgrwt>
</event>
<event>
 6    1  0.1934315E-005  0.2860824E+04  0.7818608E-02  0.8284630E-01
         -2   -1    0    0    0  501 -0.00000000000E+00  0.00000000000E+00  0.10262461067E+04  0.10262461067E+04  0.00000000000E+00 0. -1.
          2   -1    0    0  501    0  0.00000000000E+00 -0.00000000000E+00 -0.19937502501E+04  0.19937502501E+04  0.00000000000E+00 0.  1.
         23    2    1    2    0    0 -0.49249914518E+02  0.75139962588E+03 -0.17661796478E+04  0.19223126532E+04  0.94172377303E+02 0.  0.
         13    1    3    3    0    0 -0.39715067387E+02  0.12701501525E+03 -0.26876933833E+03  0.29991175019E+03  0.00000000000E+00 0.  1.
        -13    1    3    3    0    0 -0.95348471308E+01  0.62438461062E+03 -0.14974103095E+04  0.16224009031E+04  0.00000000000E+00 0. -1.
         22    1    1    2    0    0  0.49249914518E+02 -0.75139962588E+03  0.79867550441E+03  0.10976837036E+04  0.00000000000E+00 0. -1.
<mgrwt>
<rscale>  0 0.28608240E+04</rscale>
<asrwt>0</asrwt>
<pdfrwt beam="1">  1        2 0.30673080E+00 0.28608240E+04</pdfrwt>
<pdfrwt beam="2">  1       -2 0.15788402E+00 0.28608240E+04</pdfrwt>
<totfact> 0.15231461E+00</totfact>
</mgrwt>
</event>
<event>
 6    1  0.1934315E-005  0.1638159E+04  0.7818608E-02  0.8797443E-01
          2   -1    0    0  501    0  0.00000000000E+00  0.00000000000E+00  0.51225005092E+03  0.51225005092E+03  0.00000000000E+00 0. -1.
         -2   -1    0    0    0  501 -0.00000000000E+00 -0.00000000000E+00 -0.13096941076E+04  0.13096941076E+04  0.00000000000E+00 0.  1.
         23    2    1    2    0    0 -0.69312464346E+03  0.10942022953E+03  0.62982149790E+02  0.71166139509E+03  0.10050190080E+03 0.  0.
         11    1    3    3    0    0 -0.39470943741E+03  0.69171383083E+02  0.85354888881E+02  0.40971414093E+03  0.00000000000E+00 0. -1.
        -11    1    3    3    0    0 -0.29841520605E+03  0.40248846447E+02 -0.22372739091E+02  0.30194725417E+03  0.00000000000E+00 0.  1.
         22    1    1    2    0    0  0.69312464346E+03 -0.10942022953E+03 -0.86042620651E+03  0.11102827635E+04  0.00000000000E+00 0.  1.
<mgrwt>
<rscale>  0 0.16381586E+04</rscale>
<asrwt>0</asrwt>
<pdfrwt beam="1">  1        2 0.78807700E-01 0.16381586E+04</pdfrwt>
<pdfrwt beam="2">  1       -2 0.20149140E+00 0.16381586E+04</pdfrwt>
<totfact> 0.74358972E+00</totfact>
</mgrwt>
</event>
<event>
 6    1  0.1934315E-005  0.2515038E+04  0.7818608E-02  0.8397648E-01
          2   -1    0    0  501    0  0.00000000000E+00  0.00000000000E+00  0.23796439178E+04  0.23796439178E+04  0.00000000000E+00 0.  1.
         -2   -1    0    0    0  501 -0.00000000000E+00 -0.00000000000E+00 -0.66453383876E+03  0.66453383876E+03  0.00000000000E+00 0. -1.
         23    2    1    2    0    0 -0.29858836348E+03 -0.45344985359E+03 -0.51310636540E+03  0.75076974581E+03  0.74868474491E+02 0.  0.
         11    1    3    3    0    0 -0.29977453652E+03 -0.43179150099E+03 -0.48456052293E+03  0.71491787882E+03  0.00000000000E+00 0. -1.
        -11    1    3    3    0    0  0.11861730429E+01 -0.21658352605E+02 -0.28545842469E+02  0.35851866985E+02  0.00000000000E+00 0.  1.
         22    1    1    2    0    0  0.29858836348E+03  0.45344985359E+03  0.22282164444E+04  0.22934080108E+04  0.00000000000E+00 0.  1.
<mgrwt>
<rscale>  0 0.25150379E+04</rscale>
<asrwt>0</asrwt>
<pdfrwt beam="1">  1        2 0.36609906E+00 0.25150379E+04</pdfrwt>
<pdfrwt beam="2">  1       -2 0.10223598E+00 0.25150379E+04</pdfrwt>
<totfact> 0.28499879E+00</totfact>
</mgrwt>
</event>
<event>
 6    1  0.1934315E-005  0.2003871E+04  0.7818608E-02  0.8604813E-01
         -2   -1    0    0    0  501 -0.00000000000E+00  0.00000000000E+00  0.52029586022E+03  0.52029586022E+03  0.00000000000E+00 0. -1.
          2   -1    0    0  501    0  0.00000000000E+00 -0.00000000000E+00 -0.19294305609E+04  0.19294305609E+04  0.00000000000E+00 0.  1.
         23    2    1    2    0    0  0.21019050664E+03 -0.62817715233E+03 -0.16216450620E+04  0.17540632573E+04  0.90656602945E+02 0.  0.
         13    1    3    3    0    0  0.60163442772E+02 -0.98757171431E+02 -0.34542568221E+03  0.36426847336E+03  0.00000000000E+00 0. -1.
        -13    1    3    3    0    0  0.15002706386E+03 -0.52941998090E+03 -0.12762193798E+04  0.13897947839E+04  0.00000000000E+00 0.  1.
         22    1    1    2    0    0 -0.21019050664E+03  0.62817715233E+03  0.21251036136E+03  0.69566316380E+03  0.00000000000E+00 0. -1.
<mgrwt>
<rscale>  0 0.20038710E+04</rscale>
<asrwt>0</asrwt>
<pdfrwt beam="1">  1        2 0.29683547E+00 0.20038710E+04</pdfrwt>
<pdfrwt beam="2">  1       -2 0.80045517E-01 0.20038710E+04</pdfrwt>
<totfact> 0.93758419E+00</totfact>
</mgrwt>
</event>
<event>
 6    1  0.1934315E-005  0.3205642E+04  0.7818608E-02  0.8187329E-01
         -2   -1    0    0    0  501 -0.00000000000E+00  0.00000000000E+00  0.50347167228E+03  0.50347167228E+03  0.00000000000E+00 0. -1.
          2   -1    0    0  501    0  0.00000000000E+00 -0.00000000000E+00 -0.51026416452E+04  0.51026416452E+04  0.00000000000E+00 0.  1.
         23    2    1    2    0    0  0.82599275346E+02  0.15658755101E+04 -0.28709992627E+04  0.32725832112E+04  0.91516958866E+02 0.  0.
         11    1    3    3    0    0  0.15609266056E+02  0.42019976944E+03 -0.85545194037E+03  0.95321011204E+03  0.00000000000E+00 0.  1.
        -11    1    3    3    0    0  0.66990009290E+02  0.11456757407E+04 -0.20155473224E+04  0.23193730991E+04  0.00000000000E+00 0. -1.
         22    1    1    2    0    0 -0.82599275346E+02 -0.15658755101E+04 -0.17281707102E+04  0.23335301064E+04  0.00000000000E+00 0.  1.
<mgrwt>
<rscale>  0 0.32056422E+04</rscale>
<asrwt>0</asrwt>
<pdfrwt beam="1">  1        2 0.78502178E+00 0.32056422E+04</pdfrwt>
<pdfrwt beam="2">  1       -2 0.77457181E-01 0.32056422E+04</pdfrwt>
<totfact> 0.31408187E-02</totfact>
</mgrwt>
</event>
<event>
 6    1  0.1934315E-005  0.2344379E+04  0.7818608E-02  0.8460626E-01
         -2   -1    0    0    0  501 -0.00000000000E+00  0.00000000000E+00  0.74574309329E+03  0.74574309329E+03  0.00000000000E+00 0. -1.
          2   -1    0    0  501    0  0.00000000000E+00 -0.00000000000E+00 -0.18424954739E+04  0.18424954739E+04  0.00000000000E+00 0.  1.
         23    2    1    2    0    0  0.87263390928E+03 -0.27838091403E+01  0.31184671549E+03  0.93123853619E+03  0.91973627291E+02 0.  0.
         13    1    3    3    0    0  0.13084281427E+03  0.29506204105E+02  0.33160341200E+02  0.13816680627E+03  0.00000000000E+00 0.  1.
        -13    1    3    3    0    0  0.74179109501E+03 -0.32290013245E+02  0.27868637429E+03  0.79307172992E+03  0.00000000000E+00 0. -1.
         22    1    1    2    0    0 -0.87263390928E+03  0.27838091403E+01 -0.14085990961E+04  0.16570000310E+04  0.00000000000E+00 0.  1.
<mgrwt>
<rscale>  0 0.23443790E+04</rscale>
<asrwt>0</asrwt>
<pdfrwt beam="1">  1        2 0.28346084E+00 0.23443790E+04</pdfrwt>
<pdfrwt beam="2">  1       -2 0.11472971E+00 0.23443790E+04</pdfrwt>
<totfact> 0.43784291E+00</totfact>
</mgrwt>
</event>
<event>
 6    1  0.1934315E-005  0.2355776E+04  0.7818608E-02  0.8456248E-01
         -2   -1    0    0    0  501 -0.00000000000E+00  0.00000000000E+00  0.17257662118E+04  0.17257662118E+04  0.00000000000E+00 0. -1.
          2   -1    0    0  501    0  0.00000000000E+00 -0.00000000000E+00 -0.80394469077E+03  0.80394469077E+03  0.00000000000E+00 0.  1.
         23    2    1    2    0    0  0.87425098637E+02  0.96166994400E+03 -0.25944541252E+03  0.10039836015E+04  0.90658264065E+02 0.  0.
         11    1    3    3    0    0  0.19677829821E+02  0.27991254313E+03 -0.11808057380E+03  0.30443598785E+03  0.00000000000E+00 0. -1.
        -11    1    3    3    0    0  0.67747268816E+02  0.68175740086E+03 -0.14136483872E+03  0.69954761360E+03  0.00000000000E+00 0.  1.
         22    1    1    2    0    0 -0.87425098637E+02 -0.96166994400E+03  0.11812669335E+04  0.15257273011E+04  0.00000000000E+00 0. -1.
<mgrwt>
<rscale>  0 0.23557764E+04</rscale>
<asrwt>0</asrwt>
<pdfrwt beam="1">  1        2 0.12368380E+00 0.23557764E+04</pdfrwt>
<pdfrwt beam="2">  1       -2 0.26550249E+00 0.23557764E+04</pdfrwt>
<totfact> 0.15945729E+00</totfact>
</mgrwt>
</event>
<event>
 6    1  0.1934315E-005  0.1422761E+04  0.7818608E-02  0.8937506E-01
         -2   -1    0    0    0  501 -0.00000000000E+00  0.00000000000E+00  0.16466844660E+03  0.16466844660E+03  0.00000000000E+00 0. -1.
          2   -1    0    0  501    0  0.00000000000E+00 -0.00000000000E+00 -0.30732205527E+04  0.30732205527E+04  0.00000000000E+00 0.  1.
         23    2    1    2    0    0 -0.59408648235E+03  0.21057784835E+03 -0.21970577042E+04  0.22873596401E+04  0.87577331119E+02 0.  0.
         11    1    3    3    0    0 -0.24124343909E+03  0.44700553648E+02 -0.91547997478E+03  0.94778695952E+03  0.00000000000E+00 0. -1.
        -11    1    3    3    0    0 -0.35284304327E+03  0.16587729470E+03 -0.12815777294E+04  0.13395726806E+04  0.00000000000E+00 0.  1.
         22    1    1    2    0    0  0.59408648235E+03 -0.21057784835E+03 -0.71149440192E+03  0.95052935919E+03  0.00000000000E+00 0. -1.
<mgrwt>
<rscale>  0 0.14227613E+04</rscale>
<asrwt>0</asrwt>
<pdfrwt beam="1">  1        2 0.47280318E+00 0.14227613E+04</pdfrwt>
<pdfrwt beam="2">  1       -2 0.25333606E-01 0.14227613E+04</pdfrwt>
<totfact> 0.21507538E+01</totfact>
</mgrwt>
</event>
<event>
 6    1  0.1934315E-005  0.2599222E+04  0.7818608E-02  0.8368466E-01
         -2   -1    0    0    0  501 -0.00000000000E+00  0.00000000000E+00  0.95864363091E+03  0.95864363091E+03  0.00000000000E+00 0. -1.
          2   -1    0    0  501    0  0.00000000000E+00 -0.00000000000E+00 -0.17618522723E+04  0.17618522723E+04  0.00000000000E+00 0.  1.
         23    2    1    2    0    0 -0.17547966474E+03  0.12806090310E+04 -0.27882390052E+03  0.13256009396E+04  0.93394220793E+02 0.  0.
         13    1    3    3    0    0 -0.84008986384E+02  0.52771628876E+03 -0.69838231524E+02  0.53890571513E+03  0.00000000000E+00 0. -1.
        -13    1    3    3    0    0 -0.91470678357E+02  0.75289274225E+03 -0.20898566900E+03  0.78669522445E+03  0.00000000000E+00 0.  1.
         22    1    1    2    0    0  0.17547966474E+03 -0.12806090310E+04 -0.52438474084E+03  0.13948949636E+04  0.00000000000E+00 0.  1.
<mgrwt>
<rscale>  0 0.25992218E+04</rscale>
<asrwt>0</asrwt>
<pdfrwt beam="1">  1        2 0.27105419E+00 0.25992218E+04</pdfrwt>
<pdfrwt beam="2">  1       -2 0.14748364E+00 0.25992218E+04</pdfrwt>
<totfact> 0.25117323E+00</totfact>
</mgrwt>
</event>
<event>
 6    1  0.1934315E-005  0.2293276E+04  0.7818608E-02  0.8480577E-01
          2   -1    0    0  501    0  0.00000000000E+00  0.00000000000E+00  0.67689056235E+03  0.67689056235E+03  0.00000000000E+00 0. -1.
         -2   -1    0    0    0  501 -0.00000000000E+00 -0.00000000000E+00 -0.19423805203E+04  0.19423805203E+04  0.00000000000E+00 0.  1.
         23    2    1    2    0    0  0.25776105162E+03 -0.42520871672E+03  0.54408438238E+03  0.74262447082E+03  0.90664640328E+02 0.  0.
         11    1    3    3    0    0  0.14555104806E+03 -0.28922277874E+03  0.29905643401E+03  0.44076033630E+03  0.00000000000E+00 0.  1.
        -11    1    3    3    0    0  0.11221000356E+03 -0.13598593798E+03  0.24502794837E+03  0.30186413452E+03  0.00000000000E+00 0. -1.
         22    1    1    2    0    0 -0.25776105162E+03  0.42520871672E+03 -0.18095743403E+04  0.18766466118E+04  0.00000000000E+00 0.  1.
<mgrwt>
<rscale>  0 0.22932763E+04</rscale>
<asrwt>0</asrwt>
<pdfrwt beam="1">  1        2 0.10413701E+00 0.22932763E+04</pdfrwt>
<pdfrwt beam="2">  1       -2 0.29882777E+00 0.22932763E+04</pdfrwt>
<totfact> 0.12534394E+00</totfact>
</mgrwt>
</event>
<event>
 6    1  0.1934315E-005  0.2479143E+04  0.7818608E-02  0.8410454E-01
         -2   -1    0    0    0  501 -0.00000000000E+00  0.00000000000E+00  0.49368172596E+03  0.49368172596E+03  0.00000000000E+00 0. -1.
          2   -1    0    0  501    0  0.00000000000E+00 -0.00000000000E+00 -0.31124043969E+04  0.31124043969E+04  0.00000000000E+00 0.  1.
         23    2    1    2    0    0 -0.20346647158E+03  0.23534806212E+03 -0.30538836271E+04  0.30711540027E+04  0.94838730389E+02 0.  0.
         13    1    3    3    0    0 -0.85159066745E+02  0.12987642621E+03 -0.11088397223E+04  0.11196631112E+04  0.00000000000E+00 0. -1.
        -13    1    3    3    0    0 -0.11830740484E+03  0.10547163590E+03 -0.19450439048E+04  0.19514908915E+04  0.00000000000E+00 0.  1.
         22    1    1    2    0    0  0.20346647158E+03 -0.23534806212E+03  0.43516095619E+03  0.53493212017E+03  0.00000000000E+00 0. -1.
<mgrwt>
<rscale>  0 0.24791427E+04</rscale>
<asrwt>0</asrwt>
<pdfrwt beam="1">  1        2 0.47883143E+00 0.24791427E+04</pdfrwt>
<pdfrwt beam="2">  1       -2 0.75951037E-01 0.24791427E+04</pdfrwt>
<totfact> 0.20505511E+00</totfact>
</mgrwt>
</event>
<event>
 6    1  0.1934315E-005  0.3929433E+04  0.7818608E-02  0.8018935E-01
         -2   -1    0    0    0  501 -0.00000000000E+00  0.00000000000E+00  0.15212030646E+04  0.15212030646E+04  0.00000000000E+00 0. -1.
          2   -1    0    0  501    0  0.00000000000E+00 -0.00000000000E+00 -0.25375384098E+04  0.25375384098E+04  0.00000000000E+00 0.  1.
         23    2    1    2    0    0  0.57280568887E+03 -0.85527762114E+03  0.12188315415E+04  0.15979332377E+04  0.90742156950E+02 0.  0.
         11    1    3    3    0    0  0.39915265162E+03 -0.51806982205E+03  0.76267706767E+03  0.10046867618E+04  0.00000000000E+00 0.  1.
        -11    1    3    3    0    0  0.17365303726E+03 -0.33720779909E+03  0.45615447382E+03  0.59324647584E+03  0.00000000000E+00 0. -1.
         22    1    1    2    0    0 -0.57280568887E+03  0.85527762114E+03 -0.22351668868E+04  0.24608082368E+04  0.00000000000E+00 0.  1.
<mgrwt>
<rscale>  0 0.39294331E+04</rscale>
<asrwt>0</asrwt>
<pdfrwt beam="1">  1        2 0.39039052E+00 0.39294331E+04</pdfrwt>
<pdfrwt beam="2">  1       -2 0.23403124E+00 0.39294331E+04</pdfrwt>
<totfact> 0.21189909E-01</totfact>
</mgrwt>
</event>
<event>
 6    1  0.1934315E-005  0.2024722E+04  0.7818608E-02  0.8595149E-01
          2   -1    0    0  501    0  0.00000000000E+00  0.00000000000E+00  0.25414675447E+04  0.25414675447E+04  0.00000000000E+00 0.  1.
         -2   -1    0    0    0  501 -0.00000000000E+00 -0.00000000000E+00 -0.40326089872E+03  0.40326089872E+03  0.00000000000E+00 0. -1.
         23    2    1    2    0    0 -0.82977945156E+03  0.65468395741E+02  0.23823392355E+03  0.87042943048E+03  0.89843987277E+02 0.  0.
         13    1    3    3    0    0 -0.11500751570E+03 -0.18828318170E+02  0.47602697944E+02  0.12588586530E+03  0.00000000000E+00 0. -1.
        -13    1    3    3    0    0 -0.71477193586E+03  0.84296713911E+02  0.19063122561E+03  0.74454356518E+03  0.00000000000E+00 0.  1.
         22    1    1    2    0    0  0.82977945156E+03 -0.65468395741E+02  0.18999727224E+04  0.20742990129E+04  0.00000000000E+00 0. -1.
<mgrwt>
<rscale>  0 0.20247217E+04</rscale>
<asrwt>0</asrwt>
<pdfrwt beam="1">  1        2 0.39099500E+00 0.20247217E+04</pdfrwt>
<pdfrwt beam="2">  1       -2 0.62040140E-01 0.20247217E+04</pdfrwt>
<totfact> 0.73700463E+00</totfact>
</mgrwt>
</event>
<event>
 6    1  0.1934315E-005  0.2375482E+04  0.7818608E-02  0.8448740E-01
         -1   -1    0    0    0  501 -0.00000000000E+00  0.00000000000E+00  0.84475854361E+03  0.84475854361E+03  0.00000000000E+00 0. -1.
          1   -1    0    0  501    0  0.00000000000E+00 -0.00000000000E+00 -0.16699792408E+04  0.16699792408E+04  0.00000000000E+00 0.  1.
         23    2    1    2    0    0 -0.68953572016E+03  0.79199054052E+03 -0.99665188958E+03  0.14507372302E+04  0.92817005459E+02 0.  0.
         13    1    3    3    0    0 -0.38629541675E+03  0.39632608897E+03 -0.57152314586E+03  0.79557351895E+03  0.00000000000E+00 0. -1.
        -13    1    3    3    0    0 -0.30324030340E+03  0.39566445155E+03 -0.42512874372E+03  0.65516371127E+03  0.00000000000E+00 0.  1.
         22    1    1    2    0    0  0.68953572016E+03 -0.79199054052E+03  0.17143119236E+03  0.10640005542E+04  0.00000000000E+00 0. -1.
<mgrwt>
<rscale>  0 0.23754825E+04</rscale>
<asrwt>0</asrwt>
<pdfrwt beam="1">  1        1 0.25691988E+00 0.23754825E+04</pdfrwt>
<pdfrwt beam="2">  1       -1 0.12996285E+00 0.23754825E+04</pdfrwt>
<totfact> 0.22771033E+00</totfact>
</mgrwt>
</event>
<event>
 6    1  0.1934315E-005  0.1413222E+04  0.7818608E-02  0.8944303E-01
          2   -1    0    0  501    0  0.00000000000E+00  0.00000000000E+00  0.40333880479E+04  0.40333880479E+04  0.00000000000E+00 0.  1.
         -2   -1    0    0    0  501 -0.00000000000E+00 -0.00000000000E+00 -0.12379151009E+03  0.12379151009E+03  0.00000000000E+00 0. -1.
         23    2    1    2    0    0 -0.22715476164E+03  0.56384563954E+03  0.30063355584E+04  0.30684180654E+04  0.87262494617E+02 0.  0.
         11    1    3    3    0    0 -0.46566567076E+02  0.16923962889E+03  0.10457317111E+04  0.10603609332E+04  0.00000000000E+00 0. -1.
        -11    1    3    3    0    0 -0.18058819457E+03  0.39460601065E+03  0.19606038474E+04  0.20080571322E+04  0.00000000000E+00 0.  1.
         22    1    1    2    0    0  0.22715476164E+03 -0.56384563954E+03  0.90326097939E+03  0.10887614926E+04  0.00000000000E+00 0. -1.
<mgrwt>
<rscale>  0 0.14132221E+04</rscale>
<asrwt>0</asrwt>
<pdfrwt beam="1">  1        2 0.62052114E+00 0.14132221E+04</pdfrwt>
<pdfrwt beam="2">  1       -2 0.19044851E-01 0.14132221E+04</pdfrwt>
<totfact> 0.74871588E+00</totfact>
</mgrwt>
</event>
<event>
 6    1  0.1934315E-005  0.4249860E+04  0.7818608E-02  0.7955955E-01
          1   -1    0    0  501    0  0.00000000000E+00  0.00000000000E+00  0.21197101131E+04  0.21197101131E+04  0.00000000000E+00 0.  1.
         -1   -1    0    0    0  501 -0.00000000000E+00 -0.00000000000E+00 -0.21301627162E+04  0.21301627162E+04  0.00000000000E+00 0. -1.
         23    2    1    2    0    0 -0.53672144929E+03 -0.19745472192E+04 -0.57432391941E+03  0.21274078716E+04  0.95444502215E+02 0.  0.
         11    1    3    3    0    0 -0.11073681982E+03 -0.29836655990E+03 -0.69228231603E+02  0.32569586331E+03  0.00000000000E+00 0. -1.
        -11    1    3    3    0    0 -0.42598462946E+03 -0.16761806593E+04 -0.50509568781E+03  0.18017120083E+04  0.00000000000E+00 0.  1.
         22    1    1    2    0    0  0.53672144929E+03  0.19745472192E+04  0.56387131630E+03  0.21224649576E+04  0.00000000000E+00 0.  1.
<mgrwt>
<rscale>  0 0.42498600E+04</rscale>
<asrwt>0</asrwt>
<pdfrwt beam="1">  1        1 0.32610925E+00 0.42498600E+04</pdfrwt>
<pdfrwt beam="2">  1       -1 0.32771734E+00 0.42498600E+04</pdfrwt>
<totfact> 0.41285698E-02</totfact>
</mgrwt>
</event>
<event>
 6    1  0.1934315E-005  0.1688641E+04  0.7818608E-02  0.8767869E-01
          4   -1    0    0  501    0  0.00000000000E+00  0.00000000000E+00  0.65021220873E+03  0.65021220873E+03  0.00000000000E+00 0.  1.
         -4   -1    0    0    0  501 -0.00000000000E+00 -0.00000000000E+00 -0.10963761751E+04  0.10963761751E+04  0.00000000000E+00 0. -1.
         23    2    1    2    0    0 -0.40895853062E+03  0.41386559666E+03 -0.85337382713E+03  0.10364111648E+04  0.85845219708E+02 0.  0.
         13    1    3    3    0    0 -0.21497152582E+03  0.27221398134E+03 -0.47318010539E+03  0.58669636158E+03  0.00000000000E+00 0.  1.
        -13    1    3    3    0    0 -0.19398700479E+03  0.14165161532E+03 -0.38019372173E+03  0.44971480318E+03  0.00000000000E+00 0. -1.
         22    1    1    2    0    0  0.40895853062E+03 -0.41386559666E+03  0.40720986072E+03  0.71017721910E+03  0.00000000000E+00 0.  1.
<mgrwt>
<rscale>  0 0.16886411E+04</rscale>
<asrwt>0</asrwt>
<pdfrwt beam="1">  1        4 0.10003265E+00 0.16886411E+04</pdfrwt>
<pdfrwt beam="2">  1       -4 0.16867326E+00 0.16886411E+04</pdfrwt>
<totfact> 0.33984415E-01</totfact>
</mgrwt>
</event>
<event>
 6    1  0.1934315E-005  0.2818588E+04  0.7818608E-02  0.8297521E-01
         -2   -1    0    0    0  501 -0.00000000000E+00  0.00000000000E+00  0.60198529398E+03  0.60198529398E+03  0.00000000000E+00 0. -1.
          2   -1    0    0  501    0  0.00000000000E+00 -0.00000000000E+00 -0.32992660192E+04  0.32992660192E+04  0.00000000000E+00 0.  1.
         23    2    1    2    0    0 -0.76294500904E+03  0.95827309075E+02  0.28215109970E+03  0.82419395926E+03  0.91752272073E+02 0.  0.
         13    1    3    3    0    0 -0.28044846935E+03  0.59506668079E+02  0.65694527270E+02  0.29412269280E+03  0.00000000000E+00 0.  1.
        -13    1    3    3    0    0 -0.48249653969E+03  0.36320640995E+02  0.21645657243E+03  0.53007126646E+03  0.00000000000E+00 0. -1.
         22    1    1    2    0    0  0.76294500904E+03 -0.95827309075E+02 -0.29794318249E+04  0.30770573539E+04  0.00000000000E+00 0.  1.
<mgrwt>
<rscale>  0 0.28185880E+04</rscale>
<asrwt>0</asrwt>
<pdfrwt beam="1">  1        2 0.50757939E+00 0.28185880E+04</pdfrwt>
<pdfrwt beam="2">  1       -2 0.92613122E-01 0.28185880E+04</pdfrwt>
<totfact> 0.95781975E-01</totfact>
</mgrwt>
</event>
<event>
 6    1  0.1934315E-005  0.1278270E+04  0.7818608E-02  0.9046977E-01
          2   -1    0    0  501    0  0.00000000000E+00  0.00000000000E+00  0.36415737688E+03  0.36415737688E+03  0.00000000000E+00 0.  1.
         -2   -1    0    0    0  501 -0.00000000000E+00 -0.00000000000E+00 -0.11217491990E+04  0.11217491990E+04  0.00000000000E+00 0. -1.
         23    2    1    2    0    0 -0.17065551685E+03  0.40321658936E+03 -0.91667755200E+03  0.10200576810E+04  0.92266000473E+02 0.  0.
         13    1    3    3    0    0 -0.13505829865E+03  0.20415379545E+03 -0.47902246891E+03  0.53794241509E+03  0.00000000000E+00 0. -1.
        -13    1    3    3    0    0 -0.35597218204E+02  0.19906279391E+03 -0.43765508309E+03  0.48211526591E+03  0.00000000000E+00 0.  1.
         22    1    1    2    0    0  0.17065551685E+03 -0.40321658936E+03  0.15908572992E+03  0.46584889485E+03  0.00000000000E+00 0.  1.
<mgrwt>
<rscale>  0 0.12782695E+04</rscale>
<asrwt>0</asrwt>
<pdfrwt beam="1">  1        2 0.56024213E-01 0.12782695E+04</pdfrwt>
<pdfrwt beam="2">  1       -2 0.17257680E+00 0.12782695E+04</pdfrwt>
<totfact> 0.17709104E+01</totfact>
</mgrwt>
</event>
<event>
 6    1  0.2378664E-005  0.3922496E+04  0.7818608E-02  0.8020367E-01
          2   -1    0    0  501    0  0.00000000000E+00  0.00000000000E+00  0.18309300350E+04  0.18309300350E+04  0.00000000000E+00 0. -1.
         -2   -1    0    0    0  501 -0.00000000000E+00 -0.00000000000E+00 -0.21008415556E+04  0.21008415556E+04  0.00000000000E+00 0.  1.
         23    2    1    2    0    0 -0.48499471847E+03 -0.18984018282E+04 -0.78918826035E+02  0.19631102211E+04  0.91783337836E+02 0.  0.
         13    1    3    3    0    0 -0.23542511932E+03 -0.10568138140E+04 -0.12545927995E+02  0.10827916810E+04  0.00000000000E+00 0.  1.
        -13    1    3    3    0    0 -0.24956959914E+03 -0.84158801418E+03 -0.66372898040E+02  0.88031854009E+03  0.00000000000E+00 0. -1.
         22    1    1    2    0    0  0.48499471847E+03  0.18984018282E+04 -0.19099269461E+03  0.19686613694E+04  0.00000000000E+00 0. -1.
<mgrwt>
<rscale>  0 0.39224961E+04</rscale>
<asrwt>0</asrwt>
<pdfrwt beam="1">  1        2 0.28168154E+00 0.39224961E+04</pdfrwt>
<pdfrwt beam="2">  1       -2 0.32320639E+00 0.39224961E+04</pdfrwt>
<totfact> 0.15059787E-01</totfact>
</mgrwt>
</event>
<event>
 6    1  0.1934315E-005  0.9936264E+03  0.7818608E-02  0.9315563E-01
         -1   -1    0    0    0  501 -0.00000000000E+00  0.00000000000E+00  0.21938330497E+04  0.21938330497E+04  0.00000000000E+00 0. -1.
          1   -1    0    0  501    0  0.00000000000E+00 -0.00000000000E+00 -0.11250781421E+03  0.11250781421E+03  0.00000000000E+00 0.  1.
         23    2    1    2    0    0  0.37100884637E+03 -0.21559080221E+03  0.16114471450E+04  0.16700136069E+04  0.89758498726E+02 0.  0.
         11    1    3    3    0    0  0.60382590227E+02 -0.54954671361E+02  0.20304752975E+03  0.21884782943E+03  0.00000000000E+00 0. -1.
        -11    1    3    3    0    0  0.31062625614E+03 -0.16063613085E+03  0.14083996152E+04  0.14511657775E+04  0.00000000000E+00 0.  1.
         22    1    1    2    0    0 -0.37100884637E+03  0.21559080221E+03  0.46987809052E+03  0.63632725703E+03  0.00000000000E+00 0.  1.
<mgrwt>
<rscale>  0 0.99362641E+03</rscale>
<asrwt>0</asrwt>
<pdfrwt beam="1">  1        1 0.17308896E-01 0.99362641E+03</pdfrwt>
<pdfrwt beam="2">  1       -1 0.33751275E+00 0.99362641E+03</pdfrwt>
<totfact> 0.61084716E+00</totfact>
</mgrwt>
</event>
<event>
 6    1  0.1934315E-005  0.7290034E+03  0.7818608E-02  0.9668879E-01
          2   -1    0    0  501    0  0.00000000000E+00  0.00000000000E+00  0.84636534491E+03  0.84636534491E+03  0.00000000000E+00 0.  1.
         -2   -1    0    0    0  501 -0.00000000000E+00 -0.00000000000E+00 -0.15697888313E+03  0.15697888313E+03  0.00000000000E+00 0. -1.
         23    2    1    2    0    0  0.13354895320E+03  0.23245258317E+03  0.67827483537E+03  0.73502912492E+03  0.91332008958E+02 0.  0.
         13    1    3    3    0    0  0.71473216771E+02  0.97958662164E+02  0.42144998627E+03  0.43854807164E+03  0.00000000000E+00 0.  1.
        -13    1    3    3    0    0  0.62075736427E+02  0.13449392101E+03  0.25682484910E+03  0.29648105328E+03  0.00000000000E+00 0. -1.
         22    1    1    2    0    0 -0.13354895320E+03 -0.23245258317E+03  0.11111626410E+02  0.26831510312E+03  0.00000000000E+00 0. -1.
<mgrwt>
<rscale>  0 0.72900339E+03</rscale>
<asrwt>0</asrwt>
<pdfrwt beam="1">  1        2 0.13021005E+00 0.72900339E+03</pdfrwt>
<pdfrwt beam="2">  1       -2 0.24150598E-01 0.72900339E+03</pdfrwt>
<totfact> 0.48990556E+02</totfact>
</mgrwt>
</event>
<event>
 6    1  0.1934315E-005  0.3325846E+04  0.7818608E-02  0.8156350E-01
          2   -1    0    0  501    0  0.00000000000E+00  0.00000000000E+00  0.21180988080E+04  0.21180988080E+04  0.00000000000E+00 0.  1.
         -2   -1    0    0    0  501 -0.00000000000E+00 -0.00000000000E+00 -0.13055636174E+04  0.13055636174E+04  0.00000000000E+00 0. -1.
         23    2    1    2    0    0 -0.79713185812E+03  0.13223853870E+04  0.10386161268E+04  0.18631385067E+04  0.91865801099E+02 0.  0.
         11    1    3    3    0    0 -0.21582153553E+03  0.28537289114E+03  0.22879694969E+03  0.42469361473E+03  0.00000000000E+00 0.  1.
        -11    1    3    3    0    0 -0.58131032258E+03  0.10370124959E+04  0.80981917711E+03  0.14384448920E+04  0.00000000000E+00 0. -1.
         22    1    1    2    0    0  0.79713185812E+03 -0.13223853870E+04 -0.22608093622E+03  0.15605239187E+04  0.00000000000E+00 0.  1.
<mgrwt>
<rscale>  0 0.33258459E+04</rscale>
<asrwt>0</asrwt>
<pdfrwt beam="1">  1        2 0.32586135E+00 0.33258459E+04</pdfrwt>
<pdfrwt beam="2">  1       -2 0.20085594E+00 0.33258459E+04</pdfrwt>
<totfact> 0.62817013E-01</totfact>
</mgrwt>
</event>
<event>
 6    1  0.2117944E-005  0.3209068E+04  0.7818608E-02  0.8186427E-01
         -2   -1    0    0    0  501 -0.00000000000E+00  0.00000000000E+00  0.89998934406E+03  0.89998934406E+03  0.00000000000E+00 0. -1.
          2   -1    0    0  501    0  0.00000000000E+00 -0.00000000000E+00 -0.28606212753E+04  0.28606212753E+04  0.00000000000E+00 0.  1.
         23    2    1    2    0    0  0.62242879306E+02  0.54427157181E+03 -0.27469255887E+04  0.28022978126E+04  0.84658847542E+02 0.  0.
         11    1    3    3    0    0 -0.70129952675E+01  0.24944543576E+03 -0.11256581456E+04  0.11529867598E+04  0.00000000000E+00 0. -1.
        -11    1    3    3    0    0  0.69255874574E+02  0.29482613605E+03 -0.16212674431E+04  0.16493110528E+04  0.00000000000E+00 0.  1.
         22    1    1    2    0    0 -0.62242879306E+02 -0.54427157181E+03  0.78629365747E+03  0.95831280680E+03  0.00000000000E+00 0. -1.
<mgrwt>
<rscale>  0 0.32090676E+04</rscale>
<asrwt>0</asrwt>
<pdfrwt beam="1">  1        2 0.44009558E+00 0.32090676E+04</pdfrwt>
<pdfrwt beam="2">  1       -2 0.13845990E+00 0.32090676E+04</pdfrwt>
<totfact> 0.66025551E-01</totfact>
</mgrwt>
</event>
<event>
 6    1  0.1934315E-005  0.7031971E+03  0.7818608E-02  0.9711780E-01
          2   -1    0    0  501    0  0.00000000000E+00  0.00000000000E+00  0.99617670224E+02  0.99617670224E+02  0.00000000000E+00 0.  1.
         -2   -1    0    0    0  501 -0.00000000000E+00 -0.00000000000E+00 -0.12409597921E+04  0.12409597921E+04  0.00000000000E+00 0. -1.
         23    2    1    2    0    0 -0.22764258569E+03 -0.24455913941E+03 -0.75104448376E+03  0.82680458857E+03  0.88925202314E+02 0.  0.
         11    1    3    3    0    0 -0.10282020108E+03 -0.58788920604E+02 -0.31804810054E+03  0.33938580582E+03  0.00000000000E+00 0. -1.
        -11    1    3    3    0    0 -0.12482238461E+03 -0.18577021881E+03 -0.43299638322E+03  0.48741878275E+03  0.00000000000E+00 0.  1.
         22    1    1    2    0    0  0.22764258569E+03  0.24455913941E+03 -0.39029763813E+03  0.51377287377E+03  0.00000000000E+00 0. -1.
<mgrwt>
<rscale>  0 0.70319705E+03</rscale>
<asrwt>0</asrwt>
<pdfrwt beam="1">  1        2 0.15325795E-01 0.70319705E+03</pdfrwt>
<pdfrwt beam="2">  1       -2 0.19091690E+00 0.70319705E+03</pdfrwt>
<totfact> 0.60805842E+01</totfact>
</mgrwt>
</event>
<event>
 6    1  0.1934315E-005  0.2718354E+04  0.7818608E-02  0.8329074E-01
          2   -1    0    0  501    0  0.00000000000E+00  0.00000000000E+00  0.10779774440E+04  0.10779774440E+04  0.00000000000E+00 0.  1.
         -2   -1    0    0    0  501 -0.00000000000E+00 -0.00000000000E+00 -0.17137302436E+04  0.17137302436E+04  0.00000000000E+00 0. -1.
         23    2    1    2    0    0  0.48117199473E+03  0.97618151842E+03  0.51561832851E+03  0.12073742883E+04  0.86218129351E+02 0.  0.
         11    1    3    3    0    0  0.42371315968E+03  0.89237996998E+03  0.44396199985E+03  0.10830406778E+04  0.00000000000E+00 0.  1.
        -11    1    3    3    0    0  0.57458835054E+02  0.83801548440E+02  0.71656328661E+02  0.12433361044E+03  0.00000000000E+00 0. -1.
         22    1    1    2    0    0 -0.48117199473E+03 -0.97618151842E+03 -0.11513711282E+04  0.15843333993E+04  0.00000000000E+00 0. -1.
<mgrwt>
<rscale>  0 0.27183543E+04</rscale>
<asrwt>0</asrwt>
<pdfrwt beam="1">  1        2 0.16584268E+00 0.27183543E+04</pdfrwt>
<pdfrwt beam="2">  1       -2 0.26365081E+00 0.27183543E+04</pdfrwt>
<totfact> 0.10436900E+00</totfact>
</mgrwt>
</event>
<event>
 6    1  0.1934315E-005  0.4299515E+04  0.7818608E-02  0.7946708E-01
          2   -1    0    0  501    0  0.00000000000E+00  0.00000000000E+00  0.31460929120E+04  0.31460929120E+04  0.00000000000E+00 0.  1.
         -2   -1    0    0    0  501 -0.00000000000E+00 -0.00000000000E+00 -0.14689513446E+04  0.14689513446E+04  0.00000000000E+00 0. -1.
         23    2    1    2    0    0 -0.79700498968E+03 -0.13741483392E+04  0.23921500098E+04  0.28729944053E+04  0.90634276153E+02 0.  0.
         11    1    3    3    0    0 -0.63651196574E+03 -0.11433773728E+04  0.19212227791E+04  0.23245550685E+04  0.00000000000E+00 0. -1.
        -11    1    3    3    0    0 -0.16049302394E+03 -0.23077096635E+03  0.47092723067E+03  0.54843933687E+03  0.00000000000E+00 0.  1.
         22    1    1    2    0    0  0.79700498968E+03  0.13741483392E+04 -0.71500844236E+03  0.17420498513E+04  0.00000000000E+00 0. -1.
<mgrwt>
<rscale>  0 0.42995150E+04</rscale>
<asrwt>0</asrwt>
<pdfrwt beam="1">  1        2 0.48401429E+00 0.42995150E+04</pdfrwt>
<pdfrwt beam="2">  1       -2 0.22599252E+00 0.42995150E+04</pdfrwt>
<totfact> 0.97974803E-02</totfact>
</mgrwt>
</event>
<event>
 6    1  0.1934315E-005  0.3066762E+04  0.7818608E-02  0.8224919E-01
         -2   -1    0    0    0  501 -0.00000000000E+00  0.00000000000E+00  0.19687910936E+04  0.19687910936E+04  0.00000000000E+00 0. -1.
          2   -1    0    0  501    0  0.00000000000E+00 -0.00000000000E+00 -0.11942643622E+04  0.11942643622E+04  0.00000000000E+00 0.  1.
         23    2    1    2    0    0  0.51525694596E+03 -0.14231085339E+02 -0.11003173165E+04  0.12186448900E+04  0.93300197118E+02 0.  0.
         11    1    3    3    0    0  0.31834770240E+03 -0.30435701783E+02 -0.76967493949E+03  0.83346931800E+03  0.00000000000E+00 0.  1.
        -11    1    3    3    0    0  0.19690924355E+03  0.16204616443E+02 -0.33064237706E+03  0.38517557204E+03  0.00000000000E+00 0. -1.
         22    1    1    2    0    0 -0.51525694596E+03  0.14231085339E+02  0.18748440479E+04  0.19444105658E+04  0.00000000000E+00 0. -1.
<mgrwt>
<rscale>  0 0.30667618E+04</rscale>
<asrwt>0</asrwt>
<pdfrwt beam="1">  1        2 0.18373298E+00 0.30667618E+04</pdfrwt>
<pdfrwt beam="2">  1       -2 0.30289094E+00 0.30667618E+04</pdfrwt>
<totfact> 0.49589333E-01</totfact>
</mgrwt>
</event>
<event>
 6    1  0.2699923E-005  0.3393471E+04  0.7818608E-02  0.8139511E-01
         -2   -1    0    0    0  501 -0.00000000000E+00  0.00000000000E+00  0.90798307608E+03  0.90798307608E+03  0.00000000000E+00 0. -1.
          2   -1    0    0  501    0  0.00000000000E+00 -0.00000000000E+00 -0.31706665544E+04  0.31706665544E+04  0.00000000000E+00 0.  1.
         23    2    1    2    0    0  0.16580685953E+04 -0.35359264336E+03 -0.11194867868E+04  0.20338714275E+04  0.95724048295E+02 0.  0.
         11    1    3    3    0    0  0.45546755665E+03 -0.56147754805E+02 -0.28577480543E+03  0.54062048144E+03  0.00000000000E+00 0. -1.
        -11    1    3    3    0    0  0.12026010386E+04 -0.29744488856E+03 -0.83371198140E+03  0.14932509460E+04  0.00000000000E+00 0.  1.
         22    1    1    2    0    0 -0.16580685953E+04  0.35359264336E+03 -0.11431966915E+04  0.20447782030E+04  0.00000000000E+00 0.  1.
<mgrwt>
<rscale>  0 0.33934711E+04</rscale>
<asrwt>0</asrwt>
<pdfrwt beam="1">  1        2 0.48779484E+00 0.33934711E+04</pdfrwt>
<pdfrwt beam="2">  1       -2 0.13968971E+00 0.33934711E+04</pdfrwt>
<totfact> 0.40534067E-01</totfact>
</mgrwt>
</event>
<event>
 6    1  0.1934315E-005  0.1602810E+04  0.7818608E-02  0.8818823E-01
         -2   -1    0    0    0  501 -0.00000000000E+00  0.00000000000E+00  0.42856163258E+03  0.42856163258E+03  0.00000000000E+00 0. -1.
          2   -1    0    0  501    0  0.00000000000E+00 -0.00000000000E+00 -0.14986181339E+04  0.14986181339E+04  0.00000000000E+00 0.  1.
         23    2    1    2    0    0 -0.40813236431E+03 -0.69725178386E+02 -0.13579257683E+04  0.14228957770E+04  0.96106049147E+02 0.  0.
         11    1    3    3    0    0 -0.22598719003E+03  0.66287929547E+01 -0.66553517386E+03  0.70288777098E+03  0.00000000000E+00 0. -1.
        -11    1    3    3    0    0 -0.18214517427E+03 -0.76353971341E+02 -0.69239059440E+03  0.72000800598E+03  0.00000000000E+00 0.  1.
         22    1    1    2    0    0  0.40813236431E+03  0.69725178386E+02  0.28786926691E+03  0.50428398956E+03  0.00000000000E+00 0. -1.
<mgrwt>
<rscale>  0 0.16028103E+04</rscale>
<asrwt>0</asrwt>
<pdfrwt beam="1">  1        2 0.23055663E+00 0.16028103E+04</pdfrwt>
<pdfrwt beam="2">  1       -2 0.65932560E-01 0.16028103E+04</pdfrwt>
<totfact> 0.25809284E+01</totfact>
</mgrwt>
</event>
<event>
 6    1  0.1934315E-005  0.3856529E+03  0.7818608E-02  0.1048864E+00
         -2   -1    0    0    0  501 -0.00000000000E+00  0.00000000000E+00  0.32676520785E+02  0.32676520785E+02  0.00000000000E+00 0. -1.
          2   -1    0    0  501    0  0.00000000000E+00 -0.00000000000E+00 -0.11378825393E+04  0.11378825393E+04  0.00000000000E+00 0.  1.
         23    2    1    2    0    0 -0.66126055450E+02 -0.78641725391E+02 -0.10395774761E+04  0.10486398993E+04  0.91472036399E+02 0.  0.
         11    1    3    3    0    0 -0.44767276623E+02 -0.98398899204E+02 -0.84882902739E+03  0.85568520506E+03  0.00000000000E+00 0.  1.
        -11    1    3    3    0    0 -0.21358778827E+02  0.19757173813E+02 -0.19074844874E+03  0.19295469428E+03  0.00000000000E+00 0. -1.
         22    1    1    2    0    0  0.66126055450E+02  0.78641725391E+02 -0.65628542405E+02  0.12191916076E+03  0.00000000000E+00 0. -1.
<mgrwt>
<rscale>  0 0.38565291E+03</rscale>
<asrwt>0</asrwt>
<pdfrwt beam="1">  1        2 0.17505886E+00 0.38565291E+03</pdfrwt>
<pdfrwt beam="2">  1       -2 0.50271569E-02 0.38565291E+03</pdfrwt>
<totfact> 0.42310732E+03</totfact>
</mgrwt>
</event>
<event>
 6    1  0.1934315E-005  0.2544671E+04  0.7818608E-02  0.8387242E-01
         -2   -1    0    0    0  501 -0.00000000000E+00  0.00000000000E+00  0.99904105725E+03  0.99904105725E+03  0.00000000000E+00 0.  1.
          2   -1    0    0  501    0  0.00000000000E+00 -0.00000000000E+00 -0.16203916759E+04  0.16203916759E+04  0.00000000000E+00 0. -1.
         23    2    1    2    0    0 -0.33711500648E+02 -0.11254590877E+04 -0.91738157187E+03  0.14552038258E+04  0.90744713225E+02 0.  0.
         13    1    3    3    0    0  0.26497411778E+02 -0.28918231556E+03 -0.25993648046E+03  0.38973773019E+03  0.00000000000E+00 0.  1.
        -13    1    3    3    0    0 -0.60208912426E+02 -0.83627677213E+03 -0.65744509141E+03  0.10654660956E+04  0.00000000000E+00 0. -1.
         22    1    1    2    0    0  0.33711500648E+02  0.11254590877E+04  0.29603095323E+03  0.11642289073E+04  0.00000000000E+00 0.  1.
<mgrwt>
<rscale>  0 0.25446711E+04</rscale>
<asrwt>0</asrwt>
<pdfrwt beam="1">  1        2 0.24929103E+00 0.25446711E+04</pdfrwt>
<pdfrwt beam="2">  1       -2 0.15369862E+00 0.25446711E+04</pdfrwt>
<totfact> 0.27108683E+00</totfact>
</mgrwt>
</event>
<event>
 6    1  0.1934315E-005  0.3480488E+04  0.7818608E-02  0.8118430E-01
         -2   -1    0    0    0  501 -0.00000000000E+00  0.00000000000E+00  0.15454250268E+04  0.15454250268E+04  0.00000000000E+00 0. -1.
          2   -1    0    0  501    0  0.00000000000E+00 -0.00000000000E+00 -0.19596226579E+04  0.19596226579E+04  0.00000000000E+00 0.  1.
         23    2    1    2    0    0  0.10443312038E+03  0.16627404456E+04  0.29303297053E+03  0.16951340983E+04  0.10954096725E+03 0.  0.
         13    1    3    3    0    0  0.55275883082E+02  0.12083331919E+04  0.16741484272E+03  0.12211274526E+04  0.00000000000E+00 0. -1.
        -13    1    3    3    0    0  0.49157237293E+02  0.45440725370E+03  0.12561812781E+03  0.47400664576E+03  0.00000000000E+00 0.  1.
         22    1    1    2    0    0 -0.10443312038E+03 -0.16627404456E+04 -0.70723060166E+03  0.18099135863E+04  0.00000000000E+00 0.  1.
<mgrwt>
<rscale>  0 0.34804884E+04</rscale>
<asrwt>0</asrwt>
<pdfrwt beam="1">  1        2 0.30148041E+00 0.34804884E+04</pdfrwt>
<pdfrwt beam="2">  1       -2 0.23775770E+00 0.34804884E+04</pdfrwt>
<totfact> 0.44293277E-01</totfact>
</mgrwt>
</event>
<event>
 6    1  0.1934315E-005  0.5654485E+04  0.7818608E-02  0.7734783E-01
          2   -1    0    0  501    0  0.00000000000E+00  0.00000000000E+00  0.36596614151E+04  0.36596614151E+04  0.00000000000E+00 0.  1.
         -2   -1    0    0    0  501 -0.00000000000E+00 -0.00000000000E+00 -0.21841635197E+04  0.21841635197E+04  0.00000000000E+00 0. -1.
         23    2    1    2    0    0 -0.27420916397E+04 -0.66474264368E+03  0.56421091845E+03  0.28787965543E+04  0.90478160757E+02 0.  0.
         13    1    3    3    0    0 -0.19388146983E+04 -0.45614712793E+03  0.35842015643E+03  0.20237434732E+04  0.00000000000E+00 0. -1.
        -13    1    3    3    0    0 -0.80327694143E+03 -0.20859551575E+03  0.20579076203E+03  0.85505308113E+03  0.00000000000E+00 0.  1.
         22    1    1    2    0    0  0.27420916397E+04  0.66474264368E+03  0.91128697687E+03  0.29650283805E+04  0.00000000000E+00 0.  1.
<mgrwt>
<rscale>  0 0.56544846E+04</rscale>
<asrwt>0</asrwt>
<pdfrwt beam="1">  1        2 0.56302484E+00 0.56544846E+04</pdfrwt>
<pdfrwt beam="2">  1       -2 0.33602516E+00 0.56544846E+04</pdfrwt>
<totfact> 0.82025759E-03</totfact>
</mgrwt>
</event>
<event>
 6    1  0.1934315E-005  0.2677308E+04  0.7818608E-02  0.8342405E-01
          2   -1    0    0  501    0  0.00000000000E+00  0.00000000000E+00  0.26535004380E+04  0.26535004380E+04  0.00000000000E+00 0.  1.
         -2   -1    0    0    0  501 -0.00000000000E+00 -0.00000000000E+00 -0.67533241965E+03  0.67533241965E+03  0.00000000000E+00 0. -1.
         23    2    1    2    0    0  0.90801985367E+03  0.23378822532E+03 -0.19504009431E+03  0.96198041401E+03  0.90601818916E+02 0.  0.
         13    1    3    3    0    0  0.45819623093E+03  0.13423017814E+03 -0.14261626415E+03  0.49829802885E+03  0.00000000000E+00 0.  1.
        -13    1    3    3    0    0  0.44982362274E+03  0.99558047186E+02 -0.52423830168E+02  0.46368238516E+03  0.00000000000E+00 0. -1.
         22    1    1    2    0    0 -0.90801985367E+03 -0.23378822532E+03  0.21732081127E+04  0.23668524436E+04  0.00000000000E+00 0.  1.
<mgrwt>
<rscale>  0 0.26773083E+04</rscale>
<asrwt>0</asrwt>
<pdfrwt beam="1">  1        2 0.40823083E+00 0.26773083E+04</pdfrwt>
<pdfrwt beam="2">  1       -2 0.10389730E+00 0.26773083E+04</pdfrwt>
<totfact> 0.18747633E+00</totfact>
</mgrwt>
</event>
<event>
 6    1  0.1934315E-005  0.2152206E+04  0.7818608E-02  0.8538589E-01
          2   -1    0    0  501    0  0.00000000000E+00  0.00000000000E+00  0.13442931174E+04  0.13442931174E+04  0.00000000000E+00 0.  1.
         -2   -1    0    0    0  501 -0.00000000000E+00 -0.00000000000E+00 -0.86141716036E+03  0.86141716036E+03  0.00000000000E+00 0. -1.
         23    2    1    2    0    0  0.16765907990E+03  0.90141821627E+03  0.81549883196E+03  0.12303629834E+04  0.89946418569E+02 0.  0.
         11    1    3    3    0    0  0.38676700018E+02  0.25692046211E+03  0.28548058749E+03  0.38600929627E+03  0.00000000000E+00 0.  1.
        -11    1    3    3    0    0  0.12898237988E+03  0.64449775417E+03  0.53001824447E+03  0.84435368710E+03  0.00000000000E+00 0. -1.
         22    1    1    2    0    0 -0.16765907990E+03 -0.90141821627E+03 -0.33262287495E+03  0.97534729437E+03  0.00000000000E+00 0. -1.
<mgrwt>
<rscale>  0 0.21522055E+04</rscale>
<asrwt>0</asrwt>
<pdfrwt beam="1">  1        2 0.20681433E+00 0.21522055E+04</pdfrwt>
<pdfrwt beam="2">  1       -2 0.13252572E+00 0.21522055E+04</pdfrwt>
<totfact> 0.59138435E+00</totfact>
</mgrwt>
</event>
<event>
 6    1  0.1934315E-005  0.1082828E+04  0.7818608E-02  0.9222092E-01
         -1   -1    0    0    0  501 -0.00000000000E+00  0.00000000000E+00  0.22209049266E+03  0.22209049266E+03  0.00000000000E+00 0. -1.
          1   -1    0    0  501    0  0.00000000000E+00 -0.00000000000E+00 -0.13198634769E+04  0.13198634769E+04  0.00000000000E+00 0.  1.
         23    2    1    2    0    0 -0.26392991606E+03 -0.16980769773E+03  0.67636372284E+02  0.33502703594E+03  0.95785077945E+02 0.  0.
         11    1    3    3    0    0 -0.55895117302E+02  0.90433879086E+00  0.29555052414E+02  0.63234350554E+02  0.00000000000E+00 0.  1.
        -11    1    3    3    0    0 -0.20803479876E+03 -0.17071203652E+03  0.38081319870E+02  0.27179268539E+03  0.00000000000E+00 0. -1.
         22    1    1    2    0    0  0.26392991606E+03  0.16980769773E+03 -0.11654093566E+04  0.12069269336E+04  0.00000000000E+00 0.  1.
<mgrwt>
<rscale>  0 0.10828280E+04</rscale>
<asrwt>0</asrwt>
<pdfrwt beam="1">  1        1 0.20305592E+00 0.10828280E+04</pdfrwt>
<pdfrwt beam="2">  1       -1 0.34167768E-01 0.10828280E+04</pdfrwt>
<totfact> 0.70709501E+01</totfact>
</mgrwt>
</event>
<event>
 6    1  0.1934315E-005  0.5190842E+04  0.7818608E-02  0.7799724E-01
         -2   -1    0    0    0  501 -0.00000000000E+00  0.00000000000E+00  0.27728708834E+04  0.27728708834E+04  0.00000000000E+00 0. -1.
          2   -1    0    0  501    0  0.00000000000E+00 -0.00000000000E+00 -0.24293270268E+04  0.24293270268E+04  0.00000000000E+00 0.  1.
         23    2    1    2    0    0  0.19759102954E+04 -0.13362925283E+04  0.11948658644E+04  0.26694822970E+04  0.92369278549E+02 0.  0.
         11    1    3    3    0    0  0.26641626978E+03 -0.21879286268E+03  0.17864630670E+03  0.38828140370E+03  0.00000000000E+00 0. -1.
        -11    1    3    3    0    0  0.17094940256E+04 -0.11174996656E+04  0.10162195577E+04  0.22812008933E+04  0.00000000000E+00 0.  1.
         22    1    1    2    0    0 -0.19759102954E+04  0.13362925283E+04 -0.85132200776E+03  0.25327156132E+04  0.00000000000E+00 0.  1.
<mgrwt>
<rscale>  0 0.51908420E+04</rscale>
<asrwt>0</asrwt>
<pdfrwt beam="1">  1        2 0.37374262E+00 0.51908420E+04</pdfrwt>
<pdfrwt beam="2">  1       -2 0.42659552E+00 0.51908420E+04</pdfrwt>
<totfact> 0.13625490E-02</totfact>
</mgrwt>
</event>
<event>
 6    1  0.1934315E-005  0.3476650E+04  0.7818608E-02  0.8119346E-01
          2   -1    0    0  501    0  0.00000000000E+00  0.00000000000E+00  0.11302656725E+04  0.11302656725E+04  0.00000000000E+00 0.  1.
         -2   -1    0    0    0  501 -0.00000000000E+00 -0.00000000000E+00 -0.26735069075E+04  0.26735069075E+04  0.00000000000E+00 0. -1.
         23    2    1    2    0    0 -0.77146779930E+03  0.34937522961E+03 -0.24315575879E+04  0.25764455823E+04  0.91509116697E+02 0.  0.
         13    1    3    3    0    0 -0.25509160328E+03  0.16348589723E+03 -0.85625666299E+03  0.90828125467E+03  0.00000000000E+00 0.  1.
        -13    1    3    3    0    0 -0.51637619602E+03  0.18588933238E+03 -0.15753009249E+04  0.16681643276E+04  0.00000000000E+00 0. -1.
         22    1    1    2    0    0  0.77146779930E+03 -0.34937522961E+03  0.88831635299E+03  0.12273269977E+04  0.00000000000E+00 0.  1.
<mgrwt>
<rscale>  0 0.34766496E+04</rscale>
<asrwt>0</asrwt>
<pdfrwt beam="1">  1        2 0.17388703E+00 0.34766496E+04</pdfrwt>
<pdfrwt beam="2">  1       -2 0.41130875E+00 0.34766496E+04</pdfrwt>
<totfact> 0.10740965E-01</totfact>
</mgrwt>
</event>
<event>
 6    1  0.1934315E-005  0.1649743E+04  0.7818608E-02  0.8790558E-01
         -2   -1    0    0    0  501 -0.00000000000E+00  0.00000000000E+00  0.36889869647E+03  0.36889869647E+03  0.00000000000E+00 0. -1.
          2   -1    0    0  501    0  0.00000000000E+00 -0.00000000000E+00 -0.18444447266E+04  0.18444447266E+04  0.00000000000E+00 0.  1.
         23    2    1    2    0    0  0.35842495481E+02  0.75423371371E+03 -0.11769895333E+04  0.14013771915E+04  0.91654197474E+02 0.  0.
         11    1    3    3    0    0 -0.25573417296E+02  0.27075689482E+03 -0.38280540822E+03  0.46957776388E+03  0.00000000000E+00 0.  1.
        -11    1    3    3    0    0  0.61415912778E+02  0.48347681889E+03 -0.79418412510E+03  0.93179942762E+03  0.00000000000E+00 0. -1.
         22    1    1    2    0    0 -0.35842495481E+02 -0.75423371371E+03 -0.29855649676E+03  0.81196623153E+03  0.00000000000E+00 0.  1.
<mgrwt>
<rscale>  0 0.16497433E+04</rscale>
<asrwt>0</asrwt>
<pdfrwt beam="1">  1        2 0.28376073E+00 0.16497433E+04</pdfrwt>
<pdfrwt beam="2">  1       -2 0.56753645E-01 0.16497433E+04</pdfrwt>
<totfact> 0.22674738E+01</totfact>
</mgrwt>
</event>
<event>
 6    1  0.1934315E-005  0.3259050E+04  0.7818608E-02  0.8173394E-01
          2   -1    0    0  501    0  0.00000000000E+00  0.00000000000E+00  0.21213680753E+04  0.21213680753E+04  0.00000000000E+00 0.  1.
         -2   -1    0    0    0  501 -0.00000000000E+00 -0.00000000000E+00 -0.12517164214E+04  0.12517164214E+04  0.00000000000E+00 0. -1.
         23    2    1    2    0    0 -0.14764183928E+04 -0.44743722001E+03 -0.10376690309E+03  0.15489257801E+04  0.91608763224E+02 0.  0.
         13    1    3    3    0    0 -0.32910759919E+03 -0.10812543241E+03 -0.60879672341E+02  0.35172326549E+03  0.00000000000E+00 0. -1.
        -13    1    3    3    0    0 -0.11473107936E+04 -0.33931178760E+03 -0.42887230754E+02  0.11972025146E+04  0.00000000000E+00 0.  1.
         22    1    1    2    0    0  0.14764183928E+04  0.44743722001E+03  0.97341855701E+03  0.18241587167E+04  0.00000000000E+00 0.  1.
<mgrwt>
<rscale>  0 0.32590497E+04</rscale>
<asrwt>0</asrwt>
<pdfrwt beam="1">  1        2 0.32636432E+00 0.32590497E+04</pdfrwt>
<pdfrwt beam="2">  1       -2 0.19257176E+00 0.32590497E+04</pdfrwt>
<totfact> 0.71364061E-01</totfact>
</mgrwt>
</event>
<event>
 6    1  0.1934315E-005  0.1232513E+04  0.7818608E-02  0.9084865E-01
         -2   -1    0    0    0  501 -0.00000000000E+00  0.00000000000E+00  0.11312209464E+04  0.11312209464E+04  0.00000000000E+00 0. -1.
          2   -1    0    0  501    0  0.00000000000E+00 -0.00000000000E+00 -0.33571849933E+03  0.33571849933E+03  0.00000000000E+00 0.  1.
         23    2    1    2    0    0 -0.10882647217E+03  0.24317327115E+03  0.10568804669E+04  0.10937171124E+04  0.90798456442E+02 0.  0.
         13    1    3    3    0    0 -0.28203609684E+02  0.16186393045E+03  0.54730341542E+03  0.57143363929E+03  0.00000000000E+00 0.  1.
        -13    1    3    3    0    0 -0.80622862488E+02  0.81309340696E+02  0.50957705153E+03  0.52228347311E+03  0.00000000000E+00 0. -1.
         22    1    1    2    0    0  0.10882647217E+03 -0.24317327115E+03 -0.26137801986E+03  0.37322233335E+03  0.00000000000E+00 0.  1.
<mgrwt>
<rscale>  0 0.12325126E+04</rscale>
<asrwt>0</asrwt>
<pdfrwt beam="1">  1        2 0.51649001E-01 0.12325126E+04</pdfrwt>
<pdfrwt beam="2">  1       -2 0.17403399E+00 0.12325126E+04</pdfrwt>
<totfact> 0.19004513E+01</totfact>
</mgrwt>
</event>
<event>
 6    1  0.1934315E-005  0.1370888E+04  0.7818608E-02  0.8975165E-01
         -2   -1    0    0    0  501 -0.00000000000E+00  0.00000000000E+00  0.52377164214E+03  0.52377164214E+03  0.00000000000E+00 0. -1.
          2   -1    0    0  501    0  0.00000000000E+00 -0.00000000000E+00 -0.89701913380E+03  0.89701913380E+03  0.00000000000E+00 0.  1.
         23    2    1    2    0    0 -0.39110715067E+03 -0.48674489051E+03  0.98491907690E+02  0.63821588965E+03  0.87940173882E+02 0.  0.
         13    1    3    3    0    0 -0.29031682351E+03 -0.38418660061E+03  0.40759258510E+02  0.48326444030E+03  0.00000000000E+00 0.  1.
        -13    1    3    3    0    0 -0.10079032716E+03 -0.10255828990E+03  0.57732649179E+02  0.15495144935E+03  0.00000000000E+00 0. -1.
         22    1    1    2    0    0  0.39110715067E+03  0.48674489051E+03 -0.47173939935E+03  0.78257488628E+03  0.00000000000E+00 0.  1.
<mgrwt>
<rscale>  0 0.13708876E+04</rscale>
<asrwt>0</asrwt>
<pdfrwt beam="1">  1        2 0.13800294E+00 0.13708876E+04</pdfrwt>
<pdfrwt beam="2">  1       -2 0.80580253E-01 0.13708876E+04</pdfrwt>
<totfact> 0.39087525E+01</totfact>
</mgrwt>
</event>
<event>
 6    1  0.1934315E-005  0.4156721E+04  0.7818608E-02  0.7973656E-01
          2   -1    0    0  501    0  0.00000000000E+00  0.00000000000E+00  0.19104898444E+04  0.19104898444E+04  0.00000000000E+00 0.  1.
         -2   -1    0    0    0  501 -0.00000000000E+00 -0.00000000000E+00 -0.22609819175E+04  0.22609819175E+04  0.00000000000E+00 0. -1.
         23    2    1    2    0    0  0.98693466345E+03  0.45045235459E+03 -0.19528290990E+04  0.22364184555E+04  0.10525523463E+03 0.  0.
         11    1    3    3    0    0  0.29964359748E+03  0.10686655982E+03 -0.65527496599E+03  0.72841748207E+03  0.00000000000E+00 0. -1.
        -11    1    3    3    0    0  0.68729106597E+03  0.34358579477E+03 -0.12975541330E+04  0.15080009734E+04  0.00000000000E+00 0.  1.
         22    1    1    2    0    0 -0.98693466345E+03 -0.45045235459E+03  0.16023370259E+04  0.19350533063E+04  0.00000000000E+00 0.  1.
<mgrwt>
<rscale>  0 0.41567213E+04</rscale>
<asrwt>0</asrwt>
<pdfrwt beam="1">  1        2 0.29392151E+00 0.41567213E+04</pdfrwt>
<pdfrwt beam="2">  1       -2 0.34784337E+00 0.41567213E+04</pdfrwt>
<totfact> 0.93674216E-02</totfact>
</mgrwt>
</event>
<event>
 6    1  0.1934315E-005  0.1630409E+04  0.7818608E-02  0.8802081E-01
         -2   -1    0    0    0  501 -0.00000000000E+00  0.00000000000E+00  0.52935520505E+03  0.52935520505E+03  0.00000000000E+00 0. -1.
          2   -1    0    0  501    0  0.00000000000E+00 -0.00000000000E+00 -0.12554117147E+04  0.12554117147E+04  0.00000000000E+00 0.  1.
         23    2    1    2    0    0 -0.34919016734E+03 -0.68874756760E+03 -0.86871981920E+02  0.78233794706E+03  0.90547983611E+02 0.  0.
         13    1    3    3    0    0 -0.19554453212E+03 -0.47872862258E+03 -0.65118335986E+02  0.52120932052E+03  0.00000000000E+00 0. -1.
        -13    1    3    3    0    0 -0.15364563521E+03 -0.21001894502E+03 -0.21753645934E+02  0.26112862654E+03  0.00000000000E+00 0.  1.
         22    1    1    2    0    0  0.34919016734E+03  0.68874756760E+03 -0.63918452778E+03  0.10024289727E+04  0.00000000000E+00 0.  1.
<mgrwt>
<rscale>  0 0.16304094E+04</rscale>
<asrwt>0</asrwt>
<pdfrwt beam="1">  1        2 0.19314026E+00 0.16304094E+04</pdfrwt>
<pdfrwt beam="2">  1       -2 0.81439263E-01 0.16304094E+04</pdfrwt>
<totfact> 0.22306627E+01</totfact>
</mgrwt>
</event>
<event>
 6    1  0.1934315E-005  0.4758531E+04  0.7818608E-02  0.7866875E-01
         -2   -1    0    0    0  501 -0.00000000000E+00  0.00000000000E+00  0.31310458587E+04  0.31310458587E+04  0.00000000000E+00 0. -1.
          2   -1    0    0  501    0  0.00000000000E+00 -0.00000000000E+00 -0.18079914510E+04  0.18079914510E+04  0.00000000000E+00 0.  1.
         23    2    1    2    0    0 -0.66854875828E+03  0.21391866020E+04  0.14878613121E+04  0.26917638337E+04  0.93725623407E+02 0.  0.
         13    1    3    3    0    0 -0.82542524488E+02  0.33165769314E+03  0.19498697004E+03  0.39348444983E+03  0.00000000000E+00 0. -1.
        -13    1    3    3    0    0 -0.58600623379E+03  0.18075289088E+04  0.12928743420E+04  0.22982793839E+04  0.00000000000E+00 0.  1.
         22    1    1    2    0    0  0.66854875828E+03 -0.21391866020E+04 -0.16480690429E+03  0.22472734760E+04  0.00000000000E+00 0.  1.
<mgrwt>
<rscale>  0 0.47585309E+04</rscale>
<asrwt>0</asrwt>
<pdfrwt beam="1">  1        2 0.27815253E+00 0.47585309E+04</pdfrwt>
<pdfrwt beam="2">  1       -2 0.48169936E+00 0.47585309E+04</pdfrwt>
<totfact> 0.13704059E-02</totfact>
</mgrwt>
</event>
<event>
 6    1  0.1934315E-005  0.5147379E+04  0.7818608E-02  0.7806166E-01
          2   -1    0    0  501    0  0.00000000000E+00  0.00000000000E+00  0.21935756723E+04  0.21935756723E+04  0.00000000000E+00 0.  1.
         -2   -1    0    0    0  501 -0.00000000000E+00 -0.00000000000E+00 -0.30196713564E+04  0.30196713564E+04  0.00000000000E+00 0. -1.
         23    2    1    2    0    0 -0.23985419330E+04  0.18439406775E+03 -0.13373868136E+04  0.27538928054E+04  0.91200426317E+02 0.  0.
         11    1    3    3    0    0 -0.78307447325E+03  0.26452056370E+02 -0.46566026230E+03  0.91145204034E+03  0.00000000000E+00 0.  1.
        -11    1    3    3    0    0 -0.16154674597E+04  0.15794201138E+03 -0.87172655127E+03  0.18424407650E+04  0.00000000000E+00 0. -1.
         22    1    1    2    0    0  0.23985419330E+04 -0.18439406775E+03  0.51129112948E+03  0.24593542233E+04  0.00000000000E+00 0.  1.
<mgrwt>
<rscale>  0 0.51473790E+04</rscale>
<asrwt>0</asrwt>
<pdfrwt beam="1">  1        2 0.33747318E+00 0.51473790E+04</pdfrwt>
<pdfrwt beam="2">  1       -2 0.46456482E+00 0.51473790E+04</pdfrwt>
<totfact> 0.10470774E-02</totfact>
</mgrwt>
</event>
<event>
 6    1  0.1934315E-005  0.2605086E+04  0.7818608E-02  0.8366476E-01
          2   -1    0    0  501    0  0.00000000000E+00  0.00000000000E+00  0.16275117745E+04  0.16275117745E+04  0.00000000000E+00 0.  1.
         -2   -1    0    0    0  501 -0.00000000000E+00 -0.00000000000E+00 -0.10424613271E+04  0.10424613271E+04  0.00000000000E+00 0. -1.
         23    2    1    2    0    0  0.66777032851E+03 -0.11065179676E+04  0.44508889033E+03  0.13700160016E+04  0.92414825345E+02 0.  0.
         13    1    3    3    0    0  0.29052170020E+03 -0.42204078659E+03  0.21147335970E+03  0.55429438540E+03  0.00000000000E+00 0. -1.
        -13    1    3    3    0    0  0.37724862831E+03 -0.68447718104E+03  0.23361553063E+03  0.81572161616E+03  0.00000000000E+00 0.  1.
         22    1    1    2    0    0 -0.66777032851E+03  0.11065179676E+04  0.13996155706E+03  0.12999571000E+04  0.00000000000E+00 0.  1.
<mgrwt>
<rscale>  0 0.26050859E+04</rscale>
<asrwt>0</asrwt>
<pdfrwt beam="1">  1        2 0.25038643E+00 0.26050859E+04</pdfrwt>
<pdfrwt beam="2">  1       -2 0.16037867E+00 0.26050859E+04</pdfrwt>
<totfact> 0.23822769E+00</totfact>
</mgrwt>
</event>
<event>
 6    1  0.1953572E-005  0.4073309E+04  0.7818608E-02  0.7989919E-01
         -1   -1    0    0    0  501 -0.00000000000E+00  0.00000000000E+00  0.20628476581E+04  0.20628476581E+04  0.00000000000E+00 0. -1.
          1   -1    0    0  501    0  0.00000000000E+00 -0.00000000000E+00 -0.20107934883E+04  0.20107934883E+04  0.00000000000E+00 0.  1.
         23    2    1    2    0    0  0.82900226339E+03 -0.51946762503E+03 -0.17591991266E+04  0.20150664283E+04  0.92842756115E+02 0.  0.
         11    1    3    3    0    0  0.56167532016E+03 -0.31268409617E+03 -0.10925671353E+04  0.12676566784E+04  0.00000000000E+00 0. -1.
        -11    1    3    3    0    0  0.26732694323E+03 -0.20678352886E+03 -0.66663199128E+03  0.74740974986E+03  0.00000000000E+00 0.  1.
         22    1    1    2    0    0 -0.82900226339E+03  0.51946762503E+03  0.18112532964E+04  0.20585747180E+04  0.00000000000E+00 0. -1.
<mgrwt>
<rscale>  0 0.40733086E+04</rscale>
<asrwt>0</asrwt>
<pdfrwt beam="1">  1        1 0.30935284E+00 0.40733086E+04</pdfrwt>
<pdfrwt beam="2">  1       -1 0.31736118E+00 0.40733086E+04</pdfrwt>
<totfact> 0.58044311E-02</totfact>
</mgrwt>
</event>
<event>
 6    1  0.1934315E-005  0.1580369E+04  0.7818608E-02  0.8832700E-01
         -2   -1    0    0    0  501 -0.00000000000E+00  0.00000000000E+00  0.92913394174E+03  0.92913394174E+03  0.00000000000E+00 0. -1.
          2   -1    0    0  501    0  0.00000000000E+00 -0.00000000000E+00 -0.67201424093E+03  0.67201424093E+03  0.00000000000E+00 0.  1.
         23    2    1    2    0    0  0.53254638190E+01 -0.73771528222E+03  0.40811771682E+03  0.84811923300E+03  0.92162706171E+02 0.  0.
         11    1    3    3    0    0  0.37907504735E+02 -0.39962427276E+03  0.18707339094E+03  0.44286904598E+03  0.00000000000E+00 0.  1.
        -11    1    3    3    0    0 -0.32582040916E+02 -0.33809100947E+03  0.22104432588E+03  0.40525018702E+03  0.00000000000E+00 0. -1.
         22    1    1    2    0    0 -0.53254638190E+01  0.73771528222E+03 -0.15099801601E+03  0.75302894966E+03  0.00000000000E+00 0.  1.
<mgrwt>
<rscale>  0 0.15803686E+04</rscale>
<asrwt>0</asrwt>
<pdfrwt beam="1">  1        2 0.10338681E+00 0.15803686E+04</pdfrwt>
<pdfrwt beam="2">  1       -2 0.14294368E+00 0.15803686E+04</pdfrwt>
<totfact> 0.14084844E+01</totfact>
</mgrwt>
</event>
<event>
 6    1  0.1934315E-005  0.1695973E+04  0.7818608E-02  0.8763665E-01
         -2   -1    0    0    0  501 -0.00000000000E+00  0.00000000000E+00  0.62300337033E+03  0.62300337033E+03  0.00000000000E+00 0. -1.
          2   -1    0    0  501    0  0.00000000000E+00 -0.00000000000E+00 -0.11542164499E+04  0.11542164499E+04  0.00000000000E+00 0.  1.
         23    2    1    2    0    0 -0.78613859052E+03  0.21385897805E+03 -0.29008212776E+02  0.82016220744E+03  0.89861137939E+02 0.  0.
         13    1    3    3    0    0 -0.15866414753E+03  0.65131097714E+01 -0.68604868088E+01  0.15894589831E+03  0.00000000000E+00 0. -1.
        -13    1    3    3    0    0 -0.62747444299E+03  0.20734586828E+03 -0.22147725967E+02  0.66121630913E+03  0.00000000000E+00 0.  1.
         22    1    1    2    0    0  0.78613859052E+03 -0.21385897805E+03 -0.50220486683E+03  0.95705761282E+03  0.00000000000E+00 0.  1.
<mgrwt>
<rscale>  0 0.16959726E+04</rscale>
<asrwt>0</asrwt>
<pdfrwt beam="1">  1        2 0.17757176E+00 0.16959726E+04</pdfrwt>
<pdfrwt beam="2">  1       -2 0.95846672E-01 0.16959726E+04</pdfrwt>
<totfact> 0.17539998E+01</totfact>
</mgrwt>
</event>
<event>
 6    1  0.1934315E-005  0.2328462E+04  0.7818608E-02  0.8466783E-01
          2   -1    0    0  501    0  0.00000000000E+00  0.00000000000E+00  0.31084950313E+04  0.31084950313E+04  0.00000000000E+00 0.  1.
         -2   -1    0    0    0  501 -0.00000000000E+00 -0.00000000000E+00 -0.43604200118E+03  0.43604200118E+03  0.00000000000E+00 0. -1.
         23    2    1    2    0    0  0.48304511124E+03  0.37074519467E+03 -0.16973002709E+03  0.63785694868E+03  0.85256237443E+02 0.  0.
         11    1    3    3    0    0  0.23328106892E+03  0.20781381478E+03 -0.12415119062E+03  0.33618470646E+03  0.00000000000E+00 0. -1.
        -11    1    3    3    0    0  0.24976404232E+03  0.16293137990E+03 -0.45578836463E+02  0.30167224222E+03  0.00000000000E+00 0.  1.
         22    1    1    2    0    0 -0.48304511124E+03 -0.37074519467E+03  0.28421830572E+04  0.29066800838E+04  0.00000000000E+00 0.  1.
<mgrwt>
<rscale>  0 0.23284625E+04</rscale>
<asrwt>0</asrwt>
<pdfrwt beam="1">  1        2 0.47822999E+00 0.23284625E+04</pdfrwt>
<pdfrwt beam="2">  1       -2 0.67083387E-01 0.23284625E+04</pdfrwt>
<totfact> 0.27440625E+00</totfact>
</mgrwt>
</event>
<event>
 6    1  0.1934315E-005  0.2013441E+04  0.7818608E-02  0.8600362E-01
          2   -1    0    0  501    0  0.00000000000E+00  0.00000000000E+00  0.96694865686E+03  0.96694865686E+03  0.00000000000E+00 0.  1.
         -2   -1    0    0    0  501 -0.00000000000E+00 -0.00000000000E+00 -0.10481278992E+04  0.10481278992E+04  0.00000000000E+00 0. -1.
         23    2    1    2    0    0 -0.24758478717E+03  0.20773953618E+03 -0.99273750895E+03  0.10479196840E+04  0.90299284262E+02 0.  0.
         13    1    3    3    0    0 -0.84584192092E+02  0.28061557519E+02 -0.20151840651E+03  0.22034428680E+03  0.00000000000E+00 0. -1.
        -13    1    3    3    0    0 -0.16300059508E+03  0.17967797866E+03 -0.79121910244E+03  0.82757539722E+03  0.00000000000E+00 0.  1.
         22    1    1    2    0    0  0.24758478717E+03 -0.20773953618E+03  0.91155826661E+03  0.96715687205E+03  0.00000000000E+00 0.  1.
<mgrwt>
<rscale>  0 0.20134407E+04</rscale>
<asrwt>0</asrwt>
<pdfrwt beam="1">  1        2 0.14876133E+00 0.20134407E+04</pdfrwt>
<pdfrwt beam="2">  1       -2 0.16125045E+00 0.20134407E+04</pdfrwt>
<totfact> 0.60549530E+00</totfact>
</mgrwt>
</event>
<event>
 6    1  0.1934315E-005  0.2989360E+04  0.7818608E-02  0.8246776E-01
          2   -1    0    0  501    0  0.00000000000E+00  0.00000000000E+00  0.20005712401E+04  0.20005712401E+04  0.00000000000E+00 0.  1.
         -2   -1    0    0    0  501 -0.00000000000E+00 -0.00000000000E+00 -0.11167152244E+04  0.11167152244E+04  0.00000000000E+00 0. -1.
         23    2    1    2    0    0  0.12963058013E+04 -0.69764030016E+03  0.70377979377E+03  0.16342024599E+04  0.90559167012E+02 0.  0.
         11    1    3    3    0    0  0.69575781845E+03 -0.34322916900E+03  0.33081127373E+03  0.84339866209E+03  0.00000000000E+00 0. -1.
        -11    1    3    3    0    0  0.60054798289E+03 -0.35441113116E+03  0.37296852004E+03  0.79080379778E+03  0.00000000000E+00 0.  1.
         22    1    1    2    0    0 -0.12963058013E+04  0.69764030016E+03  0.18007622191E+03  0.14830840046E+04  0.00000000000E+00 0.  1.
<mgrwt>
<rscale>  0 0.29893600E+04</rscale>
<asrwt>0</asrwt>
<pdfrwt beam="1">  1        2 0.30778019E+00 0.29893600E+04</pdfrwt>
<pdfrwt beam="2">  1       -2 0.17180234E+00 0.29893600E+04</pdfrwt>
<totfact> 0.11838417E+00</totfact>
</mgrwt>
</event>
<event>
 6    1  0.1934315E-005  0.9314425E+03  0.7818608E-02  0.9387108E-01
         -2   -1    0    0    0  501 -0.00000000000E+00  0.00000000000E+00  0.35827151962E+03  0.35827151962E+03  0.00000000000E+00 0. -1.
          2   -1    0    0  501    0  0.00000000000E+00 -0.00000000000E+00 -0.60539639739E+03  0.60539639739E+03  0.00000000000E+00 0.  1.
         23    2    1    2    0    0 -0.36886792601E+02  0.15771086689E+03  0.32218122823E+03  0.37177029468E+03  0.90438129003E+02 0.  0.
         11    1    3    3    0    0 -0.60411352762E+02  0.96425289411E+02  0.24708735530E+03  0.27202854470E+03  0.00000000000E+00 0. -1.
        -11    1    3    3    0    0  0.23524560161E+02  0.61285577479E+02  0.75093872929E+02  0.99741749981E+02  0.00000000000E+00 0.  1.
         22    1    1    2    0    0  0.36886792601E+02 -0.15771086689E+03 -0.56930610600E+03  0.59189762234E+03  0.00000000000E+00 0.  1.
<mgrwt>
<rscale>  0 0.93144251E+03</rscale>
<asrwt>0</asrwt>
<pdfrwt beam="1">  1        2 0.93137907E-01 0.93144251E+03</pdfrwt>
<pdfrwt beam="2">  1       -2 0.55118695E-01 0.93144251E+03</pdfrwt>
<totfact> 0.15218122E+02</totfact>
</mgrwt>
</event>
<event>
 6    1  0.1934315E-005  0.2518969E+04  0.7818608E-02  0.8396259E-01
          2   -1    0    0  501    0  0.00000000000E+00  0.00000000000E+00  0.22101659421E+04  0.22101659421E+04  0.00000000000E+00 0.  1.
         -2   -1    0    0    0  501 -0.00000000000E+00 -0.00000000000E+00 -0.71772937009E+03  0.71772937009E+03  0.00000000000E+00 0. -1.
         23    2    1    2    0    0  0.31111692649E+03 -0.71425742187E+03  0.18950472795E+04  0.20509387634E+04  0.90488744547E+02 0.  0.
         11    1    3    3    0    0  0.95242405441E+02 -0.31599277975E+03  0.74159409305E+03  0.81171691586E+03  0.00000000000E+00 0. -1.
        -11    1    3    3    0    0  0.21587452105E+03 -0.39826464212E+03  0.11534531865E+04  0.12392218475E+04  0.00000000000E+00 0.  1.
         22    1    1    2    0    0 -0.31111692649E+03  0.71425742187E+03 -0.40261070752E+03  0.87695654878E+03  0.00000000000E+00 0. -1.
<mgrwt>
<rscale>  0 0.25189688E+04</rscale>
<asrwt>0</asrwt>
<pdfrwt beam="1">  1        2 0.34002553E+00 0.25189688E+04</pdfrwt>
<pdfrwt beam="2">  1       -2 0.11041990E+00 0.25189688E+04</pdfrwt>
<totfact> 0.29538351E+00</totfact>
</mgrwt>
</event>
<event>
 6    1  0.1934315E-005  0.3819931E+04  0.7818608E-02  0.8041891E-01
          2   -1    0    0  501    0  0.00000000000E+00  0.00000000000E+00  0.44063453909E+04  0.44063453909E+04  0.00000000000E+00 0.  1.
         -2   -1    0    0    0  501 -0.00000000000E+00 -0.00000000000E+00 -0.82788978272E+03  0.82788978272E+03  0.00000000000E+00 0. -1.
         23    2    1    2    0    0 -0.41709735952E+03  0.59418875998E+02  0.43413918148E+04  0.43627006273E+04  0.89292013195E+02 0.  0.
         13    1    3    3    0    0 -0.28155772546E+03  0.81967943579E+02  0.29376883509E+04  0.29522883232E+04  0.00000000000E+00 0.  1.
        -13    1    3    3    0    0 -0.13553963406E+03 -0.22549067581E+02  0.14037034639E+04  0.14104123040E+04  0.00000000000E+00 0. -1.
         22    1    1    2    0    0  0.41709735952E+03 -0.59418875998E+02 -0.76293620660E+03  0.87153454635E+03  0.00000000000E+00 0. -1.
<mgrwt>
<rscale>  0 0.38199311E+04</rscale>
<asrwt>0</asrwt>
<pdfrwt beam="1">  1        2 0.67789927E+00 0.38199311E+04</pdfrwt>
<pdfrwt beam="2">  1       -2 0.12736766E+00 0.38199311E+04</pdfrwt>
<totfact> 0.55105699E-02</totfact>
</mgrwt>
</event>
<event>
 6    1  0.1934315E-005  0.2552709E+04  0.7818608E-02  0.8384445E-01
         -2   -1    0    0    0  501 -0.00000000000E+00  0.00000000000E+00  0.10913053493E+04  0.10913053493E+04  0.00000000000E+00 0. -1.
          2   -1    0    0  501    0  0.00000000000E+00 -0.00000000000E+00 -0.14927813596E+04  0.14927813596E+04  0.00000000000E+00 0.  1.
         23    2    1    2    0    0  0.59942602274E+03 -0.11117087345E+04 -0.26298702243E+02  0.12665261298E+04  0.90492809120E+02 0.  0.
         11    1    3    3    0    0  0.45344772796E+03 -0.88949990663E+03 -0.49565867249E+02  0.99964078603E+03  0.00000000000E+00 0. -1.
        -11    1    3    3    0    0  0.14597829478E+03 -0.22220882792E+03  0.23267165006E+02  0.26688534377E+03  0.00000000000E+00 0.  1.
         22    1    1    2    0    0 -0.59942602274E+03  0.11117087345E+04 -0.37517730805E+03  0.13175605791E+04  0.00000000000E+00 0.  1.
<mgrwt>
<rscale>  0 0.25527086E+04</rscale>
<asrwt>0</asrwt>
<pdfrwt beam="1">  1        2 0.22965867E+00 0.25527086E+04</pdfrwt>
<pdfrwt beam="2">  1       -2 0.16789313E+00 0.25527086E+04</pdfrwt>
<totfact> 0.25111531E+00</totfact>
</mgrwt>
</event>
<event>
 6    1  0.1934315E-005  0.5401307E+03  0.7818608E-02  0.1003804E+00
          4   -1    0    0  501    0  0.00000000000E+00  0.00000000000E+00  0.26215162867E+03  0.26215162867E+03  0.00000000000E+00 0.  1.
         -4   -1    0    0    0  501 -0.00000000000E+00 -0.00000000000E+00 -0.27821794474E+03  0.27821794474E+03  0.00000000000E+00 0. -1.
         23    2    1    2    0    0 -0.80089592202E+02  0.24497587942E+03 -0.58244128938E+02  0.27920584666E+03  0.90199789223E+02 0.  0.
         13    1    3    3    0    0 -0.17178261824E+02  0.74005276176E+02  0.23506434521E+02  0.79526260097E+02  0.00000000000E+00 0. -1.
        -13    1    3    3    0    0 -0.62911330379E+02  0.17097060324E+03 -0.81750563458E+02  0.19967958656E+03  0.00000000000E+00 0.  1.
         22    1    1    2    0    0  0.80089592202E+02 -0.24497587942E+03  0.42177812867E+02  0.26116372676E+03  0.00000000000E+00 0.  1.
<mgrwt>
<rscale>  0 0.54013068E+03</rscale>
<asrwt>0</asrwt>
<pdfrwt beam="1">  1        4 0.40331020E-01 0.54013068E+03</pdfrwt>
<pdfrwt beam="2">  1       -4 0.42802761E-01 0.54013068E+03</pdfrwt>
<totfact> 0.62396266E+01</totfact>
</mgrwt>
</event>
<event>
 6    1  0.1934315E-005  0.1592029E+04  0.7818608E-02  0.8825460E-01
         -2   -1    0    0    0  501 -0.00000000000E+00  0.00000000000E+00  0.52819687822E+03  0.52819687822E+03  0.00000000000E+00 0. -1.
          2   -1    0    0  501    0  0.00000000000E+00 -0.00000000000E+00 -0.11996264963E+04  0.11996264963E+04  0.00000000000E+00 0.  1.
         23    2    1    2    0    0 -0.39798240086E+03  0.40139376633E+03  0.26730929096E+03  0.63204160501E+03  0.92278851240E+02 0.  0.
         11    1    3    3    0    0 -0.36114233748E+03  0.38569800844E+03  0.22654633530E+03  0.57489997710E+03  0.00000000000E+00 0. -1.
        -11    1    3    3    0    0 -0.36840063385E+02  0.15695757892E+02  0.40762955664E+02  0.57141627913E+02  0.00000000000E+00 0.  1.
         22    1    1    2    0    0  0.39798240086E+03 -0.40139376633E+03 -0.93873890900E+03  0.10957817695E+04  0.00000000000E+00 0.  1.
<mgrwt>
<rscale>  0 0.15920289E+04</rscale>
<asrwt>0</asrwt>
<pdfrwt beam="1">  1        2 0.18455792E+00 0.15920289E+04</pdfrwt>
<pdfrwt beam="2">  1       -2 0.81261058E-01 0.15920289E+04</pdfrwt>
<totfact> 0.24267110E+01</totfact>
</mgrwt>
</event>
<event>
 6    1  0.1934315E-005  0.5164063E+04  0.7818608E-02  0.7803686E-01
          2   -1    0    0  501    0  0.00000000000E+00  0.00000000000E+00  0.37701415810E+04  0.37701415810E+04  0.00000000000E+00 0.  1.
         -2   -1    0    0    0  501 -0.00000000000E+00 -0.00000000000E+00 -0.17683382728E+04  0.17683382728E+04  0.00000000000E+00 0. -1.
         23    2    1    2    0    0  0.23356413264E+04  0.59465528628E+03  0.10108814241E+02  0.24118711043E+04  0.90469446116E+02 0.  0.
         13    1    3    3    0    0  0.88454378980E+03  0.26824381011E+03  0.17837875255E+02  0.92449480665E+03  0.00000000000E+00 0. -1.
        -13    1    3    3    0    0  0.14510975366E+04  0.32641147618E+03 -0.77290610136E+01  0.14873762976E+04  0.00000000000E+00 0.  1.
         22    1    1    2    0    0 -0.23356413264E+04 -0.59465528628E+03  0.19916944940E+04  0.31266087495E+04  0.00000000000E+00 0.  1.
<mgrwt>
<rscale>  0 0.51640626E+04</rscale>
<asrwt>0</asrwt>
<pdfrwt beam="1">  1        2 0.58002178E+00 0.51640626E+04</pdfrwt>
<pdfrwt beam="2">  1       -2 0.27205204E+00 0.51640626E+04</pdfrwt>
<totfact> 0.17449514E-02</totfact>
</mgrwt>
</event>
<event>
 6    1  0.1934315E-005  0.2238312E+04  0.7818608E-02  0.8502649E-01
          2   -1    0    0  501    0  0.00000000000E+00  0.00000000000E+00  0.20374438533E+04  0.20374438533E+04  0.00000000000E+00 0.  1.
         -2   -1    0    0    0  501 -0.00000000000E+00 -0.00000000000E+00 -0.61474599954E+03  0.61474599954E+03  0.00000000000E+00 0. -1.
         23    2    1    2    0    0 -0.64112007645E+03 -0.59925881047E+03 -0.10693296613E+03  0.88869431287E+03  0.90536446390E+02 0.  0.
         11    1    3    3    0    0 -0.24073473272E+03 -0.22337482289E+03  0.39747169500E+01  0.32842856364E+03  0.00000000000E+00 0.  1.
        -11    1    3    3    0    0 -0.40038534374E+03 -0.37588398758E+03 -0.11090768308E+03  0.56026574924E+03  0.00000000000E+00 0. -1.
         22    1    1    2    0    0  0.64112007645E+03  0.59925881047E+03  0.15296308199E+04  0.17634955400E+04  0.00000000000E+00 0.  1.
<mgrwt>
<rscale>  0 0.22383123E+04</rscale>
<asrwt>0</asrwt>
<pdfrwt beam="1">  1        2 0.31345290E+00 0.22383123E+04</pdfrwt>
<pdfrwt beam="2">  1       -2 0.94576308E-01 0.22383123E+04</pdfrwt>
<totfact> 0.54641117E+00</totfact>
</mgrwt>
</event>
<event>
 6    1  0.1934315E-005  0.7040541E+04  0.7818608E-02  0.7573269E-01
          2   -1    0    0  501    0  0.00000000000E+00  0.00000000000E+00  0.34927711067E+04  0.34927711067E+04  0.00000000000E+00 0.  1.
         -2   -1    0    0    0  501 -0.00000000000E+00 -0.00000000000E+00 -0.35479867893E+04  0.35479867893E+04  0.00000000000E+00 0. -1.
         23    2    1    2    0    0  0.31889948578E+04  0.10503084407E+04  0.10284689954E+04  0.35126977343E+04  0.91983010264E+02 0.  0.
         11    1    3    3    0    0  0.13241083827E+04  0.39332979443E+03  0.44387397202E+03  0.14508602411E+04  0.00000000000E+00 0. -1.
        -11    1    3    3    0    0  0.18648864751E+04  0.65697864630E+03  0.58459502341E+03  0.20618374931E+04  0.00000000000E+00 0.  1.
         22    1    1    2    0    0 -0.31889948578E+04 -0.10503084407E+04 -0.10836846780E+04  0.35280601618E+04  0.00000000000E+00 0. -1.
<mgrwt>
<rscale>  0 0.70405414E+04</rscale>
<asrwt>0</asrwt>
<pdfrwt beam="1">  1        2 0.53734940E+00 0.70405414E+04</pdfrwt>
<pdfrwt beam="2">  1       -2 0.54584412E+00 0.70405414E+04</pdfrwt>
<totfact> 0.46891986E-04</totfact>
</mgrwt>
</event>
<event>
 6    1  0.1934315E-005  0.3662548E+04  0.7818608E-02  0.8076313E-01
          2   -1    0    0  501    0  0.00000000000E+00  0.00000000000E+00  0.27757710069E+04  0.27757710069E+04  0.00000000000E+00 0.  1.
         -2   -1    0    0    0  501 -0.00000000000E+00 -0.00000000000E+00 -0.12081558047E+04  0.12081558047E+04  0.00000000000E+00 0. -1.
         23    2    1    2    0    0  0.16061677055E+04  0.87184678748E+03  0.67882585418E+03  0.19517265202E+04  0.92414015484E+02 0.  0.
         11    1    3    3    0    0  0.86006276128E+03  0.51126734337E+03  0.39724490262E+03  0.10765248545E+04  0.00000000000E+00 0. -1.
        -11    1    3    3    0    0  0.74610494423E+03  0.36057944412E+03  0.28158095156E+03  0.87520166568E+03  0.00000000000E+00 0.  1.
         22    1    1    2    0    0 -0.16061677055E+04 -0.87184678748E+03  0.88878934803E+03  0.20322002914E+04  0.00000000000E+00 0. -1.
<mgrwt>
<rscale>  0 0.36625477E+04</rscale>
<asrwt>0</asrwt>
<pdfrwt beam="1">  1        2 0.42704169E+00 0.36625477E+04</pdfrwt>
<pdfrwt beam="2">  1       -2 0.18587012E+00 0.36625477E+04</pdfrwt>
<totfact> 0.32043952E-01</totfact>
</mgrwt>
</event>
<event>
 6    1  0.1934315E-005  0.2839274E+04  0.7818608E-02  0.8291178E-01
         -2   -1    0    0    0  501 -0.00000000000E+00  0.00000000000E+00  0.11275137744E+04  0.11275137744E+04  0.00000000000E+00 0.  1.
          2   -1    0    0  501    0  0.00000000000E+00 -0.00000000000E+00 -0.17874448782E+04  0.17874448782E+04  0.00000000000E+00 0. -1.
         23    2    1    2    0    0 -0.48290530676E+03 -0.74036016325E+03  0.80789444608E+03  0.12015285981E+04  0.98218274135E+02 0.  0.
         13    1    3    3    0    0 -0.15803313579E+03 -0.29192307383E+03  0.25085331158E+03  0.41607804192E+03  0.00000000000E+00 0. -1.
        -13    1    3    3    0    0 -0.32487217097E+03 -0.44843708941E+03  0.55704113450E+03  0.78545055615E+03  0.00000000000E+00 0.  1.
         22    1    1    2    0    0  0.48290530676E+03  0.74036016325E+03 -0.14678255499E+04  0.17134300544E+04  0.00000000000E+00 0. -1.
<mgrwt>
<rscale>  0 0.28392737E+04</rscale>
<asrwt>0</asrwt>
<pdfrwt beam="1">  1        2 0.27499152E+00 0.28392737E+04</pdfrwt>
<pdfrwt beam="2">  1       -2 0.17346366E+00 0.28392737E+04</pdfrwt>
<totfact> 0.15322244E+00</totfact>
</mgrwt>
</event>
<event>
 6    1  0.1934315E-005  0.2529296E+04  0.7818608E-02  0.8392623E-01
         -2   -1    0    0    0  501 -0.00000000000E+00  0.00000000000E+00  0.80752403866E+03  0.80752403866E+03  0.00000000000E+00 0. -1.
          2   -1    0    0  501    0  0.00000000000E+00 -0.00000000000E+00 -0.19805406048E+04  0.19805406048E+04  0.00000000000E+00 0.  1.
         23    2    1    2    0    0 -0.11965378701E+04  0.40035696269E+03 -0.64687928071E+03  0.14210207468E+04  0.94120065399E+02 0.  0.
         13    1    3    3    0    0 -0.87451520028E+03  0.26320766058E+03 -0.43173522388E+03  0.10101734562E+04  0.00000000000E+00 0. -1.
        -13    1    3    3    0    0 -0.32202266987E+03  0.13714930211E+03 -0.21514405682E+03  0.41084729057E+03  0.00000000000E+00 0.  1.
         22    1    1    2    0    0  0.11965378701E+04 -0.40035696269E+03 -0.52613728541E+03  0.13670438967E+04  0.00000000000E+00 0. -1.
<mgrwt>
<rscale>  0 0.25292957E+04</rscale>
<asrwt>0</asrwt>
<pdfrwt beam="1">  1        2 0.30469855E+00 0.25292957E+04</pdfrwt>
<pdfrwt beam="2">  1       -2 0.12423447E+00 0.25292957E+04</pdfrwt>
<totfact> 0.29677070E+00</totfact>
</mgrwt>
</event>
<event>
 6    1  0.1934315E-005  0.3072556E+04  0.7818608E-02  0.8223310E-01
          2   -1    0    0  501    0  0.00000000000E+00  0.00000000000E+00  0.10889029317E+04  0.10889029317E+04  0.00000000000E+00 0.  1.
         -2   -1    0    0    0  501 -0.00000000000E+00 -0.00000000000E+00 -0.21674573207E+04  0.21674573207E+04  0.00000000000E+00 0. -1.
         23    2    1    2    0    0  0.99168292982E+03 -0.11092402323E+04 -0.93914799479E+03  0.17619429515E+04  0.92709664780E+02 0.  0.
         13    1    3    3    0    0  0.89188811436E+03 -0.10262605871E+04 -0.83551440368E+03  0.15958569861E+04  0.00000000000E+00 0. -1.
        -13    1    3    3    0    0  0.99794815457E+02 -0.82979645203E+02 -0.10363359111E+03  0.16608596544E+03  0.00000000000E+00 0.  1.
         22    1    1    2    0    0 -0.99168292982E+03  0.11092402323E+04 -0.13940639421E+03  0.14944173008E+04  0.00000000000E+00 0.  1.
<mgrwt>
<rscale>  0 0.30725563E+04</rscale>
<asrwt>0</asrwt>
<pdfrwt beam="1">  1        2 0.16752353E+00 0.30725563E+04</pdfrwt>
<pdfrwt beam="2">  1       -2 0.33345497E+00 0.30725563E+04</pdfrwt>
<totfact> 0.37200007E-01</totfact>
</mgrwt>
</event>
<event>
 6    1  0.1934315E-005  0.9175723E+03  0.7818608E-02  0.9403878E-01
         -2   -1    0    0    0  501 -0.00000000000E+00  0.00000000000E+00  0.11615089062E+03  0.11615089062E+03  0.00000000000E+00 0. -1.
          2   -1    0    0  501    0  0.00000000000E+00 -0.00000000000E+00 -0.18121661345E+04  0.18121661345E+04  0.00000000000E+00 0.  1.
         23    2    1    2    0    0 -0.78750911263E+02 -0.43434213892E+03 -0.63211940150E+03  0.77647972623E+03  0.92146773312E+02 0.  0.
         11    1    3    3    0    0 -0.17237431444E+02 -0.10199996121E+03 -0.22286231231E+03  0.24570049121E+03  0.00000000000E+00 0. -1.
        -11    1    3    3    0    0 -0.61513479819E+02 -0.33234217771E+03 -0.40925708919E+03  0.53077923503E+03  0.00000000000E+00 0.  1.
         22    1    1    2    0    0  0.78750911263E+02  0.43434213892E+03 -0.10638958424E+04  0.11518372989E+04  0.00000000000E+00 0.  1.
<mgrwt>
<rscale>  0 0.91757225E+03</rscale>
<asrwt>0</asrwt>
<pdfrwt beam="1">  1        2 0.27879480E+00 0.91757225E+03</pdfrwt>
<pdfrwt beam="2">  1       -2 0.17869367E-01 0.91757225E+03</pdfrwt>
<totfact> 0.22219367E+02</totfact>
</mgrwt>
</event>
<event>
 6    1  0.1934315E-005  0.1593754E+04  0.7818608E-02  0.8824394E-01
         -2   -1    0    0    0  501 -0.00000000000E+00  0.00000000000E+00  0.10847818277E+04  0.10847818277E+04  0.00000000000E+00 0. -1.
          2   -1    0    0  501    0  0.00000000000E+00 -0.00000000000E+00 -0.58538338135E+03  0.58538338135E+03  0.00000000000E+00 0.  1.
         23    2    1    2    0    0  0.45925459322E+03  0.40983425265E+03  0.77553337880E+03  0.99553242231E+03  0.10370094595E+03 0.  0.
         13    1    3    3    0    0  0.21612684774E+02  0.58175627432E+02  0.92291300390E+02  0.11121688675E+03  0.00000000000E+00 0.  1.
        -13    1    3    3    0    0  0.43764190845E+03  0.35165862522E+03  0.68324207841E+03  0.88431553556E+03  0.00000000000E+00 0. -1.
         22    1    1    2    0    0 -0.45925459322E+03 -0.40983425265E+03 -0.27613493245E+03  0.67463278675E+03  0.00000000000E+00 0.  1.
<mgrwt>
<rscale>  0 0.15937544E+04</rscale>
<asrwt>0</asrwt>
<pdfrwt beam="1">  1        2 0.90058982E-01 0.15937544E+04</pdfrwt>
<pdfrwt beam="2">  1       -2 0.16688951E+00 0.15937544E+04</pdfrwt>
<totfact> 0.10988053E+01</totfact>
</mgrwt>
</event>
<event>
 6    1  0.1934315E-005  0.5638493E+03  0.7818608E-02  0.9983382E-01
         -2   -1    0    0    0  501 -0.00000000000E+00  0.00000000000E+00  0.37151867186E+02  0.37151867186E+02  0.00000000000E+00 0. -1.
          2   -1    0    0  501    0  0.00000000000E+00 -0.00000000000E+00 -0.21393674300E+04  0.21393674300E+04  0.00000000000E+00 0.  1.
         23    2    1    2    0    0 -0.14575354021E+03 -0.63309381635E+02 -0.19412197571E+04  0.19503074015E+04  0.10056163656E+03 0.  0.
         13    1    3    3    0    0 -0.10215592338E+03 -0.54120189603E+02 -0.80975982333E+03  0.81797053681E+03  0.00000000000E+00 0.  1.
        -13    1    3    3    0    0 -0.43597616834E+02 -0.91891920316E+01 -0.11314599337E+04  0.11323368647E+04  0.00000000000E+00 0. -1.
         22    1    1    2    0    0  0.14575354021E+03  0.63309381635E+02 -0.16099580572E+03  0.22621189568E+03  0.00000000000E+00 0. -1.
<mgrwt>
<rscale>  0 0.56384925E+03</rscale>
<asrwt>0</asrwt>
<pdfrwt beam="1">  1        2 0.32913361E+00 0.56384925E+03</pdfrwt>
<pdfrwt beam="2">  1       -2 0.57156692E-02 0.56384925E+03</pdfrwt>
<totfact> 0.97303075E+02</totfact>
</mgrwt>
</event>
<event>
 6    1  0.1934315E-005  0.1702129E+04  0.7818608E-02  0.8760151E-01
          2   -1    0    0  501    0  0.00000000000E+00  0.00000000000E+00  0.63359861073E+03  0.63359861073E+03  0.00000000000E+00 0.  1.
         -2   -1    0    0    0  501 -0.00000000000E+00 -0.00000000000E+00 -0.11431695806E+04  0.11431695806E+04  0.00000000000E+00 0. -1.
         23    2    1    2    0    0  0.23342731940E+03 -0.14115413232E+03  0.58333777595E+03  0.65033029725E+03  0.90739914893E+02 0.  0.
         11    1    3    3    0    0  0.13001882890E+03 -0.62484052031E+02  0.20789882605E+03  0.25304362173E+03  0.00000000000E+00 0. -1.
        -11    1    3    3    0    0  0.10340849051E+03 -0.78670080294E+02  0.37543894991E+03  0.39728667552E+03  0.00000000000E+00 0.  1.
         22    1    1    2    0    0 -0.23342731940E+03  0.14115413232E+03 -0.10929087459E+04  0.11264378941E+04  0.00000000000E+00 0. -1.
<mgrwt>
<rscale>  0 0.17021289E+04</rscale>
<asrwt>0</asrwt>
<pdfrwt beam="1">  1        2 0.97476709E-01 0.17021289E+04</pdfrwt>
<pdfrwt beam="2">  1       -2 0.17587224E+00 0.17021289E+04</pdfrwt>
<totfact> 0.85455932E+00</totfact>
</mgrwt>
</event>
<event>
 6    1  0.1934315E-005  0.6441333E+04  0.7818608E-02  0.7637967E-01
          2   -1    0    0  501    0  0.00000000000E+00  0.00000000000E+00  0.29999969579E+04  0.29999969579E+04  0.00000000000E+00 0.  1.
         -2   -1    0    0    0  501 -0.00000000000E+00 -0.00000000000E+00 -0.34575675479E+04  0.34575675479E+04  0.00000000000E+00 0. -1.
         23    2    1    2    0    0 -0.17105995790E+04  0.27105465835E+04  0.80896653845E+02  0.32074628652E+04  0.89777850431E+02 0.  0.
         13    1    3    3    0    0 -0.11188982495E+04  0.18484285927E+04  0.42307034511E+02  0.21611134723E+04  0.00000000000E+00 0. -1.
        -13    1    3    3    0    0 -0.59170132956E+03  0.86211799074E+03  0.38589619334E+02  0.10463493929E+04  0.00000000000E+00 0.  1.
         22    1    1    2    0    0  0.17105995790E+04 -0.27105465835E+04 -0.53846724382E+03  0.32501016405E+04  0.00000000000E+00 0. -1.
<mgrwt>
<rscale>  0 0.64413328E+04</rscale>
<asrwt>0</asrwt>
<pdfrwt beam="1">  1        2 0.46153799E+00 0.64413328E+04</pdfrwt>
<pdfrwt beam="2">  1       -2 0.53193347E+00 0.64413328E+04</pdfrwt>
<totfact> 0.12314033E-03</totfact>
</mgrwt>
</event>
<event>
 6    1  0.3341139E-005  0.5420202E+04  0.7818608E-02  0.7766766E-01
         -2   -1    0    0    0  501 -0.00000000000E+00  0.00000000000E+00  0.27297428916E+04  0.27297428916E+04  0.00000000000E+00 0. -1.
          2   -1    0    0  501    0  0.00000000000E+00 -0.00000000000E+00 -0.26906001580E+04  0.26906001580E+04  0.00000000000E+00 0.  1.
         23    2    1    2    0    0 -0.14153288144E+04  0.13264045509E+04 -0.18719564357E+04  0.26973291458E+04  0.94121934003E+02 0.  0.
         13    1    3    3    0    0 -0.62854599061E+03  0.52609944193E+03 -0.78023852844E+03  0.11316460782E+04  0.00000000000E+00 0.  1.
        -13    1    3    3    0    0 -0.78678282382E+03  0.80030510893E+03 -0.10917179072E+04  0.15656830676E+04  0.00000000000E+00 0. -1.
         22    1    1    2    0    0  0.14153288144E+04 -0.13264045509E+04  0.19110991692E+04  0.27230139038E+04  0.00000000000E+00 0.  1.
<mgrwt>
<rscale>  0 0.54202017E+04</rscale>
<asrwt>0</asrwt>
<pdfrwt beam="1">  1        2 0.41393848E+00 0.54202017E+04</pdfrwt>
<pdfrwt beam="2">  1       -2 0.41996045E+00 0.54202017E+04</pdfrwt>
<totfact> 0.10411071E-02</totfact>
</mgrwt>
</event>
<event>
 6    1  0.1934315E-005  0.2048575E+04  0.7818608E-02  0.8584241E-01
         -2   -1    0    0    0  501 -0.00000000000E+00  0.00000000000E+00  0.83777703439E+03  0.83777703439E+03  0.00000000000E+00 0. -1.
          2   -1    0    0  501    0  0.00000000000E+00 -0.00000000000E+00 -0.12523199523E+04  0.12523199523E+04  0.00000000000E+00 0.  1.
         23    2    1    2    0    0  0.22751110142E+03 -0.69280898908E+03 -0.93873890890E+03  0.11920284851E+04  0.89194021778E+02 0.  0.
         13    1    3    3    0    0  0.77782949678E+02 -0.19109274658E+03 -0.20697534740E+03  0.29224205633E+03  0.00000000000E+00 0.  1.
        -13    1    3    3    0    0  0.14972815174E+03 -0.50171624251E+03 -0.73176356150E+03  0.89978642875E+03  0.00000000000E+00 0. -1.
         22    1    1    2    0    0 -0.22751110142E+03  0.69280898908E+03  0.52419599099E+03  0.89806850161E+03  0.00000000000E+00 0. -1.
<mgrwt>
<rscale>  0 0.20485750E+04</rscale>
<asrwt>0</asrwt>
<pdfrwt beam="1">  1        2 0.19266461E+00 0.20485750E+04</pdfrwt>
<pdfrwt beam="2">  1       -2 0.12888878E+00 0.20485750E+04</pdfrwt>
<totfact> 0.72433165E+00</totfact>
</mgrwt>
</event>
<event>
 6    1  0.1934315E-005  0.1065322E+04  0.7818608E-02  0.9239667E-01
         -2   -1    0    0    0  501 -0.00000000000E+00  0.00000000000E+00  0.86263161247E+03  0.86263161247E+03  0.00000000000E+00 0. -1.
          2   -1    0    0  501    0  0.00000000000E+00 -0.00000000000E+00 -0.32890926575E+03  0.32890926575E+03  0.00000000000E+00 0.  1.
         23    2    1    2    0    0 -0.13003295059E+03 -0.50061562836E+03  0.14596909080E+03  0.54510668739E+03  0.91157827810E+02 0.  0.
         11    1    3    3    0    0 -0.22014604923E+02 -0.21418441084E+03  0.28372515965E+02  0.21717413368E+03  0.00000000000E+00 0.  1.
        -11    1    3    3    0    0 -0.10801834567E+03 -0.28643121752E+03  0.11759657484E+03  0.32793255371E+03  0.00000000000E+00 0. -1.
         22    1    1    2    0    0  0.13003295059E+03  0.50061562836E+03  0.38775325591E+03  0.64643419083E+03  0.00000000000E+00 0. -1.
<mgrwt>
<rscale>  0 0.10653216E+04</rscale>
<asrwt>0</asrwt>
<pdfrwt beam="1">  1        2 0.50601426E-01 0.10653216E+04</pdfrwt>
<pdfrwt beam="2">  1       -2 0.13271255E+00 0.10653216E+04</pdfrwt>
<totfact> 0.40585397E+01</totfact>
</mgrwt>
</event>
<event>
 6    1  0.1934315E-005  0.7372458E+04  0.7818608E-02  0.7540198E-01
         -2   -1    0    0    0  501 -0.00000000000E+00  0.00000000000E+00  0.35071507593E+04  0.35071507593E+04  0.00000000000E+00 0. -1.
          2   -1    0    0  501    0  0.00000000000E+00 -0.00000000000E+00 -0.38744507283E+04  0.38744507283E+04  0.00000000000E+00 0.  1.
         23    2    1    2    0    0  0.32392649409E+04  0.14794158607E+04  0.76756786027E+03  0.36440309349E+04  0.91062551573E+02 0.  0.
         11    1    3    3    0    0  0.26598422627E+04  0.12511087736E+04  0.64379946408E+03  0.30090715804E+04  0.00000000000E+00 0.  1.
        -11    1    3    3    0    0  0.57942267826E+03  0.22830708704E+03  0.12376839619E+03  0.63495935458E+03  0.00000000000E+00 0. -1.
         22    1    1    2    0    0 -0.32392649409E+04 -0.14794158607E+04 -0.11348678292E+04  0.37375705527E+04  0.00000000000E+00 0.  1.
<mgrwt>
<rscale>  0 0.73724576E+04</rscale>
<asrwt>0</asrwt>
<pdfrwt beam="1">  1        2 0.59606935E+00 0.73724576E+04</pdfrwt>
<pdfrwt beam="2">  1       -2 0.53956165E+00 0.73724576E+04</pdfrwt>
<totfact> 0.25804036E-04</totfact>
</mgrwt>
</event>
<event>
 6    1  0.1934315E-005  0.2022742E+04  0.7818608E-02  0.8596061E-01
          2   -1    0    0  501    0  0.00000000000E+00  0.00000000000E+00  0.23509629705E+04  0.23509629705E+04  0.00000000000E+00 0.  1.
         -2   -1    0    0    0  501 -0.00000000000E+00 -0.00000000000E+00 -0.43508628624E+03  0.43508628624E+03  0.00000000000E+00 0. -1.
         23    2    1    2    0    0 -0.52420186992E+03  0.69944162676E+03  0.16547036354E+04  0.18737896714E+04  0.95065356141E+02 0.  0.
         11    1    3    3    0    0 -0.47814210556E+03  0.62980160608E+03  0.14298414064E+04  0.16339266763E+04  0.00000000000E+00 0. -1.
        -11    1    3    3    0    0 -0.46059764351E+02  0.69640020678E+02  0.22486222904E+03  0.23986299510E+03  0.00000000000E+00 0.  1.
         22    1    1    2    0    0  0.52420186992E+03 -0.69944162676E+03  0.26117304890E+03  0.91225958539E+03  0.00000000000E+00 0. -1.
<mgrwt>
<rscale>  0 0.20227424E+04</rscale>
<asrwt>0</asrwt>
<pdfrwt beam="1">  1        2 0.36168660E+00 0.20227424E+04</pdfrwt>
<pdfrwt beam="2">  1       -2 0.66936353E-01 0.20227424E+04</pdfrwt>
<totfact> 0.80598577E+00</totfact>
</mgrwt>
</event>
<event>
 6    1  0.1934315E-005  0.2564953E+04  0.7818608E-02  0.8380204E-01
          2   -1    0    0  501    0  0.00000000000E+00  0.00000000000E+00  0.23176122682E+04  0.23176122682E+04  0.00000000000E+00 0.  1.
         -2   -1    0    0    0  501 -0.00000000000E+00 -0.00000000000E+00 -0.70967242748E+03  0.70967242748E+03  0.00000000000E+00 0. -1.
         23    2    1    2    0    0  0.64770434289E+03 -0.23417071444E+03 -0.46954652460E+03  0.83860782657E+03  0.91827603282E+02 0.  0.
         13    1    3    3    0    0  0.17271635026E+03 -0.42864103863E+02 -0.16583989211E+03  0.24325118471E+03  0.00000000000E+00 0.  1.
        -13    1    3    3    0    0  0.47498799263E+03 -0.19130661058E+03 -0.30370663249E+03  0.59535664186E+03  0.00000000000E+00 0. -1.
         22    1    1    2    0    0 -0.64770434289E+03  0.23417071444E+03  0.20774863653E+04  0.21886768691E+04  0.00000000000E+00 0.  1.
<mgrwt>
<rscale>  0 0.25649527E+04</rscale>
<asrwt>0</asrwt>
<pdfrwt beam="1">  1        2 0.35655573E+00 0.25649527E+04</pdfrwt>
<pdfrwt beam="2">  1       -2 0.10918037E+00 0.25649527E+04</pdfrwt>
<totfact> 0.26290155E+00</totfact>
</mgrwt>
</event>
<event>
 6    1  0.1934315E-005  0.1252787E+04  0.7818608E-02  0.9067867E-01
          1   -1    0    0  501    0  0.00000000000E+00  0.00000000000E+00  0.26104041097E+04  0.26104041097E+04  0.00000000000E+00 0.  1.
         -1   -1    0    0    0  501 -0.00000000000E+00 -0.00000000000E+00 -0.15030966564E+03  0.15030966564E+03  0.00000000000E+00 0. -1.
         23    2    1    2    0    0  0.10495909001E+03  0.16009831418E+03  0.25433683197E+04  0.25519497479E+04  0.84126247666E+02 0.  0.
         13    1    3    3    0    0 -0.90896179803E+01  0.22465070770E+02  0.15297094447E+03  0.15487869580E+03  0.00000000000E+00 0.  1.
        -13    1    3    3    0    0  0.11404870799E+03  0.13763324341E+03  0.23903973752E+04  0.23970710521E+04  0.00000000000E+00 0. -1.
         22    1    1    2    0    0 -0.10495909001E+03 -0.16009831418E+03 -0.83273875631E+02  0.20876402741E+03  0.00000000000E+00 0. -1.
<mgrwt>
<rscale>  0 0.12527872E+04</rscale>
<asrwt>0</asrwt>
<pdfrwt beam="1">  1        1 0.40160060E+00 0.12527872E+04</pdfrwt>
<pdfrwt beam="2">  1       -1 0.23124566E-01 0.12527872E+04</pdfrwt>
<totfact> 0.18022526E+01</totfact>
</mgrwt>
</event>
<event>
 6    1  0.1934315E-005  0.2039643E+04  0.7818608E-02  0.8588307E-01
         -2   -1    0    0    0  501 -0.00000000000E+00  0.00000000000E+00  0.67557576719E+03  0.67557576719E+03  0.00000000000E+00 0.  1.
          2   -1    0    0  501    0  0.00000000000E+00 -0.00000000000E+00 -0.15394810472E+04  0.15394810472E+04  0.00000000000E+00 0. -1.
         23    2    1    2    0    0  0.65225772564E+03  0.77955106459E+03 -0.37558306812E+03  0.10874050128E+04  0.90813093054E+02 0.  0.
         11    1    3    3    0    0  0.42961238797E+03  0.50439509390E+03 -0.29006088518E+03  0.72326795294E+03  0.00000000000E+00 0. -1.
        -11    1    3    3    0    0  0.22264533767E+03  0.27515597069E+03 -0.85522182940E+02  0.36413705987E+03  0.00000000000E+00 0.  1.
         22    1    1    2    0    0 -0.65225772564E+03 -0.77955106459E+03 -0.48832221186E+03  0.11276518016E+04  0.00000000000E+00 0. -1.
<mgrwt>
<rscale>  0 0.20396432E+04</rscale>
<asrwt>0</asrwt>
<pdfrwt beam="1">  1        2 0.23684324E+00 0.20396432E+04</pdfrwt>
<pdfrwt beam="2">  1       -2 0.10393473E+00 0.20396432E+04</pdfrwt>
<totfact> 0.84137192E+00</totfact>
</mgrwt>
</event>
<event>
 6    1  0.1934315E-005  0.2895797E+04  0.7818608E-02  0.8274129E-01
         -2   -1    0    0    0  501 -0.00000000000E+00  0.00000000000E+00  0.95056590986E+03  0.95056590986E+03  0.00000000000E+00 0. -1.
          2   -1    0    0  501    0  0.00000000000E+00 -0.00000000000E+00 -0.22054333865E+04  0.22054333865E+04  0.00000000000E+00 0.  1.
         23    2    1    2    0    0  0.11426442671E+04  0.84035268139E+03 -0.93706561205E+03  0.17024427700E+04  0.91601711995E+02 0.  0.
         13    1    3    3    0    0  0.82507976674E+03  0.62338972685E+03 -0.72833056351E+03  0.12648465451E+04  0.00000000000E+00 0.  1.
        -13    1    3    3    0    0  0.31756450036E+03  0.21696295454E+03 -0.20873504854E+03  0.43759622487E+03  0.00000000000E+00 0. -1.
         22    1    1    2    0    0 -0.11426442671E+04 -0.84035268139E+03 -0.31780186462E+03  0.14535565264E+04  0.00000000000E+00 0.  1.
<mgrwt>
<rscale>  0 0.28957968E+04</rscale>
<asrwt>0</asrwt>
<pdfrwt beam="1">  1        2 0.33929744E+00 0.28957968E+04</pdfrwt>
<pdfrwt beam="2">  1       -2 0.14624091E+00 0.28957968E+04</pdfrwt>
<totfact> 0.14183958E+00</totfact>
</mgrwt>
</event>
<event>
 6    1  0.1934315E-005  0.3925788E+04  0.7818608E-02  0.8019687E-01
          2   -1    0    0  501    0  0.00000000000E+00  0.00000000000E+00  0.27781657773E+04  0.27781657773E+04  0.00000000000E+00 0.  1.
         -2   -1    0    0    0  501 -0.00000000000E+00 -0.00000000000E+00 -0.13868695297E+04  0.13868695297E+04  0.00000000000E+00 0. -1.
         23    2    1    2    0    0  0.48670805793E+03 -0.11536157430E+04  0.22983754319E+04  0.26189089659E+04  0.91872354255E+02 0.  0.
         13    1    3    3    0    0  0.21086323924E+03 -0.51596958118E+03  0.11181265375E+04  0.12493577823E+04  0.00000000000E+00 0. -1.
        -13    1    3    3    0    0  0.27584481869E+03 -0.63764616186E+03  0.11802488943E+04  0.13695511835E+04  0.00000000000E+00 0.  1.
         22    1    1    2    0    0 -0.48670805793E+03  0.11536157430E+04 -0.90707918429E+03  0.15461263412E+04  0.00000000000E+00 0. -1.
<mgrwt>
<rscale>  0 0.39257883E+04</rscale>
<asrwt>0</asrwt>
<pdfrwt beam="1">  1        2 0.42741012E+00 0.39257883E+04</pdfrwt>
<pdfrwt beam="2">  1       -2 0.21336454E+00 0.39257883E+04</pdfrwt>
<totfact> 0.20604831E-01</totfact>
</mgrwt>
</event>
<event>
 6    1  0.1934315E-005  0.1618956E+04  0.7818608E-02  0.8808987E-01
         -2   -1    0    0    0  501 -0.00000000000E+00  0.00000000000E+00  0.10757445059E+04  0.10757445059E+04  0.00000000000E+00 0. -1.
          2   -1    0    0  501    0  0.00000000000E+00 -0.00000000000E+00 -0.60911729879E+03  0.60911729879E+03  0.00000000000E+00 0.  1.
         23    2    1    2    0    0 -0.18063607130E+03  0.28108459717E+01 -0.58432189947E+03  0.61849821016E+03  0.92036203019E+02 0.  0.
         11    1    3    3    0    0 -0.11307066849E+03 -0.24040388898E+02 -0.23751283799E+03  0.26415007966E+03  0.00000000000E+00 0.  1.
        -11    1    3    3    0    0 -0.67565402804E+02  0.26851234870E+02 -0.34680906148E+03  0.35434813051E+03  0.00000000000E+00 0. -1.
         22    1    1    2    0    0  0.18063607130E+03 -0.28108459717E+01  0.10509491066E+04  0.10663635945E+04  0.00000000000E+00 0. -1.
<mgrwt>
<rscale>  0 0.16189559E+04</rscale>
<asrwt>0</asrwt>
<pdfrwt beam="1">  1        2 0.93710354E-01 0.16189559E+04</pdfrwt>
<pdfrwt beam="2">  1       -2 0.16549915E+00 0.16189559E+04</pdfrwt>
<totfact> 0.10696680E+01</totfact>
</mgrwt>
</event>
<event>
 6    1  0.1934315E-005  0.1760895E+04  0.7818608E-02  0.8727376E-01
          2   -1    0    0  501    0  0.00000000000E+00  0.00000000000E+00  0.27728593554E+04  0.27728593554E+04  0.00000000000E+00 0.  1.
         -2   -1    0    0    0  501 -0.00000000000E+00 -0.00000000000E+00 -0.27956273392E+03  0.27956273392E+03  0.00000000000E+00 0. -1.
         23    2    1    2    0    0  0.22334986135E+03 -0.70110876954E+03  0.41984614570E+03  0.85227765251E+03  0.93100717611E+02 0.  0.
         13    1    3    3    0    0  0.16795534037E+03 -0.38375153812E+03  0.21973745442E+03  0.47303148758E+03  0.00000000000E+00 0. -1.
        -13    1    3    3    0    0  0.55394520989E+02 -0.31735723142E+03  0.20010869128E+03  0.37924616494E+03  0.00000000000E+00 0.  1.
         22    1    1    2    0    0 -0.22334986135E+03  0.70110876954E+03  0.20734504758E+04  0.22001444368E+04  0.00000000000E+00 0.  1.
<mgrwt>
<rscale>  0 0.17608954E+04</rscale>
<asrwt>0</asrwt>
<pdfrwt beam="1">  1        2 0.42659373E+00 0.17608954E+04</pdfrwt>
<pdfrwt beam="2">  1       -2 0.43009653E-01 0.17608954E+04</pdfrwt>
<totfact> 0.11687653E+01</totfact>
</mgrwt>
</event>
<event>
 6    1  0.1934315E-005  0.2231231E+04  0.7818608E-02  0.8505541E-01
         -2   -1    0    0    0  501 -0.00000000000E+00  0.00000000000E+00  0.59804429777E+03  0.59804429777E+03  0.00000000000E+00 0.  1.
          2   -1    0    0  501    0  0.00000000000E+00 -0.00000000000E+00 -0.20811124259E+04  0.20811124259E+04  0.00000000000E+00 0. -1.
         23    2    1    2    0    0 -0.89092429848E+02  0.32350276431E+03 -0.20179913326E+04  0.20477025811E+04  0.90583347121E+02 0.  0.
         13    1    3    3    0    0  0.15330760872E+02  0.80459480663E+02 -0.41051812116E+03  0.41860946963E+03  0.00000000000E+00 0.  1.
        -13    1    3    3    0    0 -0.10442319072E+03  0.24304328364E+03 -0.16074732114E+04  0.16290931115E+04  0.00000000000E+00 0. -1.
         22    1    1    2    0    0  0.89092429848E+02 -0.32350276431E+03  0.53492320442E+03  0.63145414259E+03  0.00000000000E+00 0.  1.
<mgrwt>
<rscale>  0 0.22312305E+04</rscale>
<asrwt>0</asrwt>
<pdfrwt beam="1">  1        2 0.32017114E+00 0.22312305E+04</pdfrwt>
<pdfrwt beam="2">  1       -2 0.92006816E-01 0.22312305E+04</pdfrwt>
<totfact> 0.55113005E+00</totfact>
</mgrwt>
</event>
<event>
 6    1  0.1934315E-005  0.3460872E+04  0.7818608E-02  0.8123126E-01
          2   -1    0    0  501    0  0.00000000000E+00  0.00000000000E+00  0.25489570429E+04  0.25489570429E+04  0.00000000000E+00 0.  1.
         -2   -1    0    0    0  501 -0.00000000000E+00 -0.00000000000E+00 -0.11747585752E+04  0.11747585752E+04  0.00000000000E+00 0. -1.
         23    2    1    2    0    0 -0.40771776243E+03  0.16719492334E+04  0.50490204045E+03  0.17956792359E+04  0.88824743319E+02 0.  0.
         13    1    3    3    0    0 -0.23005321470E+03  0.97676986655E+03  0.33917928907E+03  0.10592669371E+04  0.00000000000E+00 0. -1.
        -13    1    3    3    0    0 -0.17766454773E+03  0.69517936681E+03  0.16572275138E+03  0.73641229884E+03  0.00000000000E+00 0.  1.
         22    1    1    2    0    0  0.40771776243E+03 -0.16719492334E+04  0.86929642722E+03  0.19280363822E+04  0.00000000000E+00 0.  1.
<mgrwt>
<rscale>  0 0.34608722E+04</rscale>
<asrwt>0</asrwt>
<pdfrwt beam="1">  1        2 0.39214724E+00 0.34608722E+04</pdfrwt>
<pdfrwt beam="2">  1       -2 0.18073209E+00 0.34608722E+04</pdfrwt>
<totfact> 0.48158172E-01</totfact>
</mgrwt>
</event>
<event>
 6    1  0.1934315E-005  0.2843565E+04  0.7818608E-02  0.8289869E-01
         -1   -1    0    0    0  501 -0.00000000000E+00  0.00000000000E+00  0.97553732045E+03  0.97553732045E+03  0.00000000000E+00 0. -1.
          1   -1    0    0  501    0  0.00000000000E+00 -0.00000000000E+00 -0.20721560388E+04  0.20721560388E+04  0.00000000000E+00 0.  1.
         23    2    1    2    0    0 -0.22656844476E+03 -0.73382969657E+03 -0.18292371889E+04  0.19862937610E+04  0.97030551932E+02 0.  0.
         13    1    3    3    0    0 -0.14429822677E+03 -0.30679357985E+03 -0.82334371480E+03  0.89041515687E+03  0.00000000000E+00 0.  1.
        -13    1    3    3    0    0 -0.82270217990E+02 -0.42703611672E+03 -0.10058934741E+04  0.10958786041E+04  0.00000000000E+00 0. -1.
         22    1    1    2    0    0  0.22656844476E+03  0.73382969657E+03  0.73261847057E+03  0.10613995982E+04  0.00000000000E+00 0. -1.
<mgrwt>
<rscale>  0 0.28435651E+04</rscale>
<asrwt>0</asrwt>
<pdfrwt beam="1">  1        1 0.31879324E+00 0.28435651E+04</pdfrwt>
<pdfrwt beam="2">  1       -1 0.15008266E+00 0.28435651E+04</pdfrwt>
<totfact> 0.79978193E-01</totfact>
</mgrwt>
</event>
<event>
 6    1  0.1934315E-005  0.1619975E+04  0.7818608E-02  0.8808370E-01
          2   -1    0    0  501    0  0.00000000000E+00  0.00000000000E+00  0.93340970983E+03  0.93340970983E+03  0.00000000000E+00 0.  1.
         -2   -1    0    0    0  501 -0.00000000000E+00 -0.00000000000E+00 -0.70288511169E+03  0.70288511169E+03  0.00000000000E+00 0. -1.
         23    2    1    2    0    0  0.59331657297E+02  0.16748521525E+03 -0.68000756852E+03  0.70858777217E+03  0.90082155569E+02 0.  0.
         11    1    3    3    0    0  0.55660297171E+02  0.17872533370E+03 -0.64649999126E+03  0.67305501431E+03  0.00000000000E+00 0. -1.
        -11    1    3    3    0    0  0.36713601254E+01 -0.11240118451E+02 -0.33507577252E+02  0.35532757862E+02  0.00000000000E+00 0.  1.
         22    1    1    2    0    0 -0.59331657297E+02 -0.16748521525E+03  0.91053216666E+03  0.92770704934E+03  0.00000000000E+00 0.  1.
<mgrwt>
<rscale>  0 0.16199750E+04</rscale>
<asrwt>0</asrwt>
<pdfrwt beam="1">  1        2 0.14360149E+00 0.16199750E+04</pdfrwt>
<pdfrwt beam="2">  1       -2 0.10813617E+00 0.16199750E+04</pdfrwt>
<totfact> 0.18259041E+01</totfact>
</mgrwt>
</event>
<event>
 6    1  0.1934315E-005  0.2244450E+04  0.7818608E-02  0.8500152E-01
         -2   -1    0    0    0  501 -0.00000000000E+00  0.00000000000E+00  0.91159834694E+03  0.91159834694E+03  0.00000000000E+00 0. -1.
          2   -1    0    0  501    0  0.00000000000E+00 -0.00000000000E+00 -0.13815171716E+04  0.13815171716E+04  0.00000000000E+00 0.  1.
         23    2    1    2    0    0 -0.56700543114E+03  0.35300983353E+03 -0.11544044163E+04  0.13367517664E+04  0.90247587592E+02 0.  0.
         11    1    3    3    0    0 -0.16562814918E+03  0.14831759126E+03 -0.34620765078E+03  0.41144930324E+03  0.00000000000E+00 0. -1.
        -11    1    3    3    0    0 -0.40137728196E+03  0.20469224228E+03 -0.80819676549E+03  0.92530246312E+03  0.00000000000E+00 0.  1.
         22    1    1    2    0    0  0.56700543114E+03 -0.35300983353E+03  0.68448559156E+03  0.95636375223E+03  0.00000000000E+00 0. -1.
<mgrwt>
<rscale>  0 0.22444498E+04</rscale>
<asrwt>0</asrwt>
<pdfrwt beam="1">  1        2 0.21254110E+00 0.22444498E+04</pdfrwt>
<pdfrwt beam="2">  1       -2 0.14024590E+00 0.22444498E+04</pdfrwt>
<totfact> 0.48290764E+00</totfact>
</mgrwt>
</event>
<event>
 6    1  0.1934315E-005  0.1928316E+04  0.7818608E-02  0.8640889E-01
          2   -1    0    0  501    0  0.00000000000E+00  0.00000000000E+00  0.20809574048E+04  0.20809574048E+04  0.00000000000E+00 0.  1.
         -2   -1    0    0    0  501 -0.00000000000E+00 -0.00000000000E+00 -0.44671762635E+03  0.44671762635E+03  0.00000000000E+00 0. -1.
         23    2    1    2    0    0  0.37302650099E+03 -0.76106209945E+03  0.22267214654E+03  0.88119774035E+03  0.92532605603E+02 0.  0.
         11    1    3    3    0    0  0.34777704304E+03 -0.72196935086E+03  0.23083247602E+03  0.83394978700E+03  0.00000000000E+00 0. -1.
        -11    1    3    3    0    0  0.25249457943E+02 -0.39092748582E+02 -0.81603294831E+01  0.47247953346E+02  0.00000000000E+00 0.  1.
         22    1    1    2    0    0 -0.37302650099E+03  0.76106209945E+03  0.14115676319E+04  0.16464772908E+04  0.00000000000E+00 0.  1.
<mgrwt>
<rscale>  0 0.19283157E+04</rscale>
<asrwt>0</asrwt>
<pdfrwt beam="1">  1        2 0.32014729E+00 0.19283157E+04</pdfrwt>
<pdfrwt beam="2">  1       -2 0.68725790E-01 0.19283157E+04</pdfrwt>
<totfact> 0.10887535E+01</totfact>
</mgrwt>
</event>
<event>
 6    1  0.1934315E-005  0.3453634E+04  0.7818608E-02  0.8124867E-01
          2   -1    0    0  501    0  0.00000000000E+00  0.00000000000E+00  0.18266310050E+04  0.18266310050E+04  0.00000000000E+00 0.  1.
         -2   -1    0    0    0  501 -0.00000000000E+00 -0.00000000000E+00 -0.16324568174E+04  0.16324568174E+04  0.00000000000E+00 0. -1.
         23    2    1    2    0    0  0.15822753156E+04 -0.68592708480E+03  0.15767742030E+03  0.17341463295E+04  0.91160205445E+02 0.  0.
         13    1    3    3    0    0  0.11254128975E+04 -0.45723604679E+03  0.14176280586E+03  0.12229945566E+04  0.00000000000E+00 0.  1.
        -13    1    3    3    0    0  0.45686241808E+03 -0.22869103801E+03  0.15914614449E+02  0.51115177283E+03  0.00000000000E+00 0. -1.
         22    1    1    2    0    0 -0.15822753156E+04  0.68592708480E+03  0.36496767346E+02  0.17249414929E+04  0.00000000000E+00 0. -1.
<mgrwt>
<rscale>  0 0.34536336E+04</rscale>
<asrwt>0</asrwt>
<pdfrwt beam="1">  1        2 0.28102016E+00 0.34536336E+04</pdfrwt>
<pdfrwt beam="2">  1       -2 0.25114720E+00 0.34536336E+04</pdfrwt>
<totfact> 0.43495372E-01</totfact>
</mgrwt>
</event>
<event>
 6    1  0.1934315E-005  0.5197656E+04  0.7818608E-02  0.7798720E-01
         -2   -1    0    0    0  501 -0.00000000000E+00  0.00000000000E+00  0.25582563884E+04  0.25582563884E+04  0.00000000000E+00 0. -1.
          2   -1    0    0  501    0  0.00000000000E+00 -0.00000000000E+00 -0.26400427516E+04  0.26400427516E+04  0.00000000000E+00 0.  1.
         23    2    1    2    0    0 -0.76051674251E+03  0.10872984616E+04  0.21929796564E+04  0.25648291659E+04  0.92656445720E+02 0.  0.
         13    1    3    3    0    0 -0.35359492776E+03  0.53491833751E+03  0.11427524136E+04  0.13103625756E+04  0.00000000000E+00 0.  1.
        -13    1    3    3    0    0 -0.40692181475E+03  0.55238012410E+03  0.10502272428E+04  0.12544665903E+04  0.00000000000E+00 0. -1.
         22    1    1    2    0    0  0.76051674251E+03 -0.10872984616E+04 -0.22747660195E+04  0.26334699740E+04  0.00000000000E+00 0.  1.
<mgrwt>
<rscale>  0 0.51976557E+04</rscale>
<asrwt>0</asrwt>
<pdfrwt beam="1">  1        2 0.40616042E+00 0.51976557E+04</pdfrwt>
<pdfrwt beam="2">  1       -2 0.39357791E+00 0.51976557E+04</pdfrwt>
<totfact> 0.16898601E-02</totfact>
</mgrwt>
</event>
<event>
 6    1  0.1934315E-005  0.1612326E+04  0.7818608E-02  0.8813011E-01
          2   -1    0    0  501    0  0.00000000000E+00  0.00000000000E+00  0.30617668182E+03  0.30617668182E+03  0.00000000000E+00 0.  1.
         -2   -1    0    0    0  501 -0.00000000000E+00 -0.00000000000E+00 -0.21226264770E+04  0.21226264770E+04  0.00000000000E+00 0. -1.
         23    2    1    2    0    0 -0.15895588196E+03 -0.41217593945E+03 -0.19223008551E+04  0.19745340487E+04  0.91586867519E+02 0.  0.
         13    1    3    3    0    0 -0.13341925702E+03 -0.22002086951E+03 -0.10939747441E+04  0.11238285554E+04  0.00000000000E+00 0.  1.
        -13    1    3    3    0    0 -0.25536624936E+02 -0.19215506994E+03 -0.82832611102E+03  0.85070549329E+03  0.00000000000E+00 0. -1.
         22    1    1    2    0    0  0.15895588196E+03  0.41217593945E+03  0.10585106001E+03  0.45426911008E+03  0.00000000000E+00 0.  1.
<mgrwt>
<rscale>  0 0.16123259E+04</rscale>
<asrwt>0</asrwt>
<pdfrwt beam="1">  1        2 0.47104107E-01 0.16123259E+04</pdfrwt>
<pdfrwt beam="2">  1       -2 0.32655790E+00 0.16123259E+04</pdfrwt>
<totfact> 0.22518076E+00</totfact>
</mgrwt>
</event>
<event>
 6    1  0.1934315E-005  0.1439374E+04  0.7818608E-02  0.8925801E-01
          1   -1    0    0  501    0  0.00000000000E+00  0.00000000000E+00  0.33297262957E+03  0.33297262957E+03  0.00000000000E+00 0.  1.
         -1   -1    0    0    0  501 -0.00000000000E+00 -0.00000000000E+00 -0.15555310747E+04  0.15555310747E+04  0.00000000000E+00 0. -1.
         23    2    1    2    0    0 -0.59275301567E+03 -0.35081446728E+03 -0.87402246832E+03  0.11165553542E+04  0.91398335916E+02 0.  0.
         11    1    3    3    0    0 -0.41031749928E+03 -0.20185915638E+03 -0.61639504285E+03  0.76749620069E+03  0.00000000000E+00 0. -1.
        -11    1    3    3    0    0 -0.18243551639E+03 -0.14895531091E+03 -0.25762742547E+03  0.34905915350E+03  0.00000000000E+00 0.  1.
         22    1    1    2    0    0  0.59275301567E+03  0.35081446728E+03 -0.34853597678E+03  0.77194835005E+03  0.00000000000E+00 0. -1.
<mgrwt>
<rscale>  0 0.14393739E+04</rscale>
<asrwt>0</asrwt>
<pdfrwt beam="1">  1        1 0.51226558E-01 0.14393739E+04</pdfrwt>
<pdfrwt beam="2">  1       -1 0.23931247E+00 0.14393739E+04</pdfrwt>
<totfact> 0.60934104E+00</totfact>
</mgrwt>
</event>
<event>
 6    1  0.1934315E-005  0.8754192E+03  0.7818608E-02  0.9456841E-01
         -2   -1    0    0    0  501 -0.00000000000E+00  0.00000000000E+00  0.21444800912E+03  0.21444800912E+03  0.00000000000E+00 0. -1.
          2   -1    0    0  501    0  0.00000000000E+00 -0.00000000000E+00 -0.89340856420E+03  0.89340856420E+03  0.00000000000E+00 0.  1.
         23    2    1    2    0    0 -0.22490322865E+03 -0.33785102854E+03 -0.53495030762E+03  0.67720157089E+03  0.87780158632E+02 0.  0.
         13    1    3    3    0    0 -0.14470015073E+03 -0.22548562863E+03 -0.28167194372E+03  0.38874282787E+03  0.00000000000E+00 0.  1.
        -13    1    3    3    0    0 -0.80203077914E+02 -0.11236539991E+03 -0.25327836390E+03  0.28845874302E+03  0.00000000000E+00 0. -1.
         22    1    1    2    0    0  0.22490322865E+03  0.33785102854E+03 -0.14401024746E+03  0.43065500242E+03  0.00000000000E+00 0. -1.
<mgrwt>
<rscale>  0 0.87541919E+03</rscale>
<asrwt>0</asrwt>
<pdfrwt beam="1">  1        2 0.13744747E+00 0.87541919E+03</pdfrwt>
<pdfrwt beam="2">  1       -2 0.32992001E-01 0.87541919E+03</pdfrwt>
<totfact> 0.25460505E+02</totfact>
</mgrwt>
</event>
<event>
 6    1  0.1934315E-005  0.5538904E+03  0.7818608E-02  0.1000597E+00
          2   -1    0    0  501    0  0.00000000000E+00  0.00000000000E+00  0.18125255694E+04  0.18125255694E+04  0.00000000000E+00 0.  1.
         -2   -1    0    0    0  501 -0.00000000000E+00 -0.00000000000E+00 -0.42315894572E+02  0.42315894572E+02  0.00000000000E+00 0. -1.
         23    2    1    2    0    0  0.16815576272E+01  0.60788086319E+02  0.17881498196E+04  0.17914390360E+04  0.89866698346E+02 0.  0.
         11    1    3    3    0    0  0.30146186837E+02 -0.55732431986E+01  0.83286694999E+03  0.83343098695E+03  0.00000000000E+00 0. -1.
        -11    1    3    3    0    0 -0.28464629210E+02  0.66361329518E+02  0.95528286960E+03  0.95800804909E+03  0.00000000000E+00 0.  1.
         22    1    1    2    0    0 -0.16815576272E+01 -0.60788086319E+02 -0.17940144757E+02  0.63402427937E+02  0.00000000000E+00 0. -1.
<mgrwt>
<rscale>  0 0.55389039E+03</rscale>
<asrwt>0</asrwt>
<pdfrwt beam="1">  1        2 0.27885003E+00 0.55389039E+03</pdfrwt>
<pdfrwt beam="2">  1       -2 0.65101390E-02 0.55389039E+03</pdfrwt>
<totfact> 0.11929587E+03</totfact>
</mgrwt>
</event>
<event>
 6    1  0.1934315E-005  0.1974942E+04  0.7818608E-02  0.8618427E-01
         -2   -1    0    0    0  501 -0.00000000000E+00  0.00000000000E+00  0.10001339786E+04  0.10001339786E+04  0.00000000000E+00 0. -1.
          2   -1    0    0  501    0  0.00000000000E+00 -0.00000000000E+00 -0.97496807111E+03  0.97496807111E+03  0.00000000000E+00 0.  1.
         23    2    1    2    0    0  0.42920151374E+03 -0.88556102971E+03 -0.37284360761E+02  0.98903292799E+03  0.91453443647E+02 0.  0.
         11    1    3    3    0    0  0.63964566529E+02 -0.11822404970E+03  0.25786583872E+02  0.13686979070E+03  0.00000000000E+00 0.  1.
        -11    1    3    3    0    0  0.36523694721E+03 -0.76733698001E+03 -0.63070944633E+02  0.85216313729E+03  0.00000000000E+00 0. -1.
         22    1    1    2    0    0 -0.42920151374E+03  0.88556102971E+03  0.62450268221E+02  0.98606912168E+03  0.00000000000E+00 0. -1.
<mgrwt>
<rscale>  0 0.19749417E+04</rscale>
<asrwt>0</asrwt>
<pdfrwt beam="1">  1        2 0.14999509E+00 0.19749417E+04</pdfrwt>
<pdfrwt beam="2">  1       -2 0.15386677E+00 0.19749417E+04</pdfrwt>
<totfact> 0.68136246E+00</totfact>
</mgrwt>
</event>
<event>
 6    1  0.1934315E-005  0.2127144E+04  0.7818608E-02  0.8549379E-01
          2   -1    0    0  501    0  0.00000000000E+00  0.00000000000E+00  0.21235796486E+04  0.21235796486E+04  0.00000000000E+00 0.  1.
         -2   -1    0    0    0  501 -0.00000000000E+00 -0.00000000000E+00 -0.53267878127E+03  0.53267878127E+03  0.00000000000E+00 0. -1.
         23    2    1    2    0    0  0.50452644403E+03 -0.12776862576E+03 -0.35829595173E+03  0.63877485029E+03  0.93731349485E+02 0.  0.
         11    1    3    3    0    0  0.43486218984E+03 -0.11817369562E+03 -0.34421408707E+03  0.56705686155E+03  0.00000000000E+00 0.  1.
        -11    1    3    3    0    0  0.69664254190E+02 -0.95949301346E+01 -0.14081864657E+02  0.71717988736E+02  0.00000000000E+00 0. -1.
         22    1    1    2    0    0 -0.50452644403E+03  0.12776862576E+03  0.19491968190E+04  0.20174835795E+04  0.00000000000E+00 0.  1.
<mgrwt>
<rscale>  0 0.21271444E+04</rscale>
<asrwt>0</asrwt>
<pdfrwt beam="1">  1        2 0.32670456E+00 0.21271444E+04</pdfrwt>
<pdfrwt beam="2">  1       -2 0.81950583E-01 0.21271444E+04</pdfrwt>
<totfact> 0.68608643E+00</totfact>
</mgrwt>
</event>
<event>
 6    1  0.1934315E-005  0.7245006E+03  0.7818608E-02  0.9676227E-01
         -2   -1    0    0    0  501 -0.00000000000E+00  0.00000000000E+00  0.92596248901E+02  0.92596248901E+02  0.00000000000E+00 0. -1.
          2   -1    0    0  501    0  0.00000000000E+00 -0.00000000000E+00 -0.14171770760E+04  0.14171770760E+04  0.00000000000E+00 0.  1.
         23    2    1    2    0    0 -0.14973053435E+03  0.14804060108E+02 -0.13470781178E+04  0.13576400898E+04  0.76998473097E+02 0.  0.
         13    1    3    3    0    0 -0.15338248869E+03  0.23620024109E+02 -0.13162949728E+04  0.13254118412E+04  0.00000000000E+00 0.  1.
        -13    1    3    3    0    0  0.36519543336E+01 -0.88159640006E+01 -0.30783145031E+02  0.32228248630E+02  0.00000000000E+00 0. -1.
         22    1    1    2    0    0  0.14973053435E+03 -0.14804060108E+02  0.22497290760E+02  0.15213323504E+03  0.00000000000E+00 0. -1.
<mgrwt>
<rscale>  0 0.72450060E+03</rscale>
<asrwt>0</asrwt>
<pdfrwt beam="1">  1        2 0.21802722E+00 0.72450060E+03</pdfrwt>
<pdfrwt beam="2">  1       -2 0.14245578E-01 0.72450060E+03</pdfrwt>
<totfact> 0.54733497E+02</totfact>
</mgrwt>
</event>
<event>
 6    1  0.1934315E-005  0.3256999E+04  0.7818608E-02  0.8173924E-01
          2   -1    0    0  501    0  0.00000000000E+00  0.00000000000E+00  0.11904323630E+04  0.11904323630E+04  0.00000000000E+00 0. -1.
         -2   -1    0    0    0  501 -0.00000000000E+00 -0.00000000000E+00 -0.22277716060E+04  0.22277716060E+04  0.00000000000E+00 0.  1.
         23    2    1    2    0    0 -0.32023716888E+03  0.15200573991E+04 -0.10274754842E+04  0.18647485835E+04  0.91951444180E+02 0.  0.
         13    1    3    3    0    0 -0.13487152280E+03  0.51469633662E+03 -0.30997527642E+03  0.61578187582E+03  0.00000000000E+00 0. -1.
        -13    1    3    3    0    0 -0.18536564608E+03  0.10053610625E+04 -0.71750020783E+03  0.12489667077E+04  0.00000000000E+00 0.  1.
         22    1    1    2    0    0  0.32023716888E+03 -0.15200573991E+04 -0.98637588370E+01  0.15534553855E+04  0.00000000000E+00 0. -1.
<mgrwt>
<rscale>  0 0.32569995E+04</rscale>
<asrwt>0</asrwt>
<pdfrwt beam="1">  1        2 0.18314344E+00 0.32569995E+04</pdfrwt>
<pdfrwt beam="2">  1       -2 0.34273409E+00 0.32569995E+04</pdfrwt>
<totfact> 0.27794596E-01</totfact>
</mgrwt>
</event>
<event>
 6    1  0.1934315E-005  0.1634231E+04  0.7818608E-02  0.8799790E-01
         -2   -1    0    0    0  501 -0.00000000000E+00  0.00000000000E+00  0.78978219061E+03  0.78978219061E+03  0.00000000000E+00 0. -1.
          2   -1    0    0  501    0  0.00000000000E+00 -0.00000000000E+00 -0.84539516376E+03  0.84539516376E+03  0.00000000000E+00 0.  1.
         23    2    1    2    0    0  0.12511688089E+03  0.10554352581E+03  0.77050049047E+03  0.79300330793E+03  0.91594600512E+02 0.  0.
         13    1    3    3    0    0  0.42543581792E+02  0.73821912265E+02  0.22923527983E+03  0.24455765087E+03  0.00000000000E+00 0.  1.
        -13    1    3    3    0    0  0.82573299099E+02  0.31721613542E+02  0.54126521065E+03  0.54844565706E+03  0.00000000000E+00 0. -1.
         22    1    1    2    0    0 -0.12511688089E+03 -0.10554352581E+03 -0.82611346362E+03  0.84217404645E+03  0.00000000000E+00 0.  1.
<mgrwt>
<rscale>  0 0.16342314E+04</rscale>
<asrwt>0</asrwt>
<pdfrwt beam="1">  1        2 0.13006079E+00 0.16342314E+04</pdfrwt>
<pdfrwt beam="2">  1       -2 0.12150495E+00 0.16342314E+04</pdfrwt>
<totfact> 0.15741605E+01</totfact>
</mgrwt>
</event>
<event>
 6    1  0.1934315E-005  0.2474152E+04  0.7818608E-02  0.8412252E-01
         -2   -1    0    0    0  501 -0.00000000000E+00  0.00000000000E+00  0.10638655861E+04  0.10638655861E+04  0.00000000000E+00 0. -1.
          2   -1    0    0  501    0  0.00000000000E+00 -0.00000000000E+00 -0.14384870302E+04  0.14384870302E+04  0.00000000000E+00 0.  1.
         23    2    1    2    0    0  0.19659681518E+03  0.43916627641E+03  0.96327957771E+03  0.10805592170E+04  0.90461872816E+02 0.  0.
         11    1    3    3    0    0  0.51899483296E+02  0.10557593698E+03  0.32957462717E+03  0.34994180904E+03  0.00000000000E+00 0.  1.
        -11    1    3    3    0    0  0.14469733188E+03  0.33359033943E+03  0.63370495054E+03  0.73061740792E+03  0.00000000000E+00 0. -1.
         22    1    1    2    0    0 -0.19659681518E+03 -0.43916627641E+03 -0.13379010218E+04  0.14217933993E+04  0.00000000000E+00 0.  1.
<mgrwt>
<rscale>  0 0.24741519E+04</rscale>
<asrwt>0</asrwt>
<pdfrwt beam="1">  1        2 0.22130570E+00 0.24741519E+04</pdfrwt>
<pdfrwt beam="2">  1       -2 0.16367163E+00 0.24741519E+04</pdfrwt>
<totfact> 0.29109555E+00</totfact>
</mgrwt>
</event>
<event>
 6    1  0.1934315E-005  0.1473258E+04  0.7818608E-02  0.8902434E-01
          2   -1    0    0  501    0  0.00000000000E+00  0.00000000000E+00  0.20373119802E+04  0.20373119802E+04  0.00000000000E+00 0.  1.
         -2   -1    0    0    0  501 -0.00000000000E+00 -0.00000000000E+00 -0.26634210861E+03  0.26634210861E+03  0.00000000000E+00 0. -1.
         23    2    1    2    0    0 -0.35747568404E+03 -0.35263243908E+03  0.17238141057E+04  0.17993107850E+04  0.11766787375E+03 0.  0.
         11    1    3    3    0    0 -0.22467872377E+03 -0.14222401554E+03  0.94683440015E+03  0.98346508877E+03  0.00000000000E+00 0. -1.
        -11    1    3    3    0    0 -0.13279696027E+03 -0.21040842354E+03  0.77697970551E+03  0.81584569628E+03  0.00000000000E+00 0.  1.
         22    1    1    2    0    0  0.35747568404E+03  0.35263243908E+03  0.47155765892E+02  0.50434330374E+03  0.00000000000E+00 0. -1.
<mgrwt>
<rscale>  0 0.14732576E+04</rscale>
<asrwt>0</asrwt>
<pdfrwt beam="1">  1        2 0.31343260E+00 0.14732576E+04</pdfrwt>
<pdfrwt beam="2">  1       -2 0.40975710E-01 0.14732576E+04</pdfrwt>
<totfact> 0.34799771E+01</totfact>
</mgrwt>
</event>
<event>
 6    1  0.1934315E-005  0.2788673E+04  0.7818608E-02  0.8306793E-01
         -2   -1    0    0    0  501 -0.00000000000E+00  0.00000000000E+00  0.10796912655E+04  0.10796912655E+04  0.00000000000E+00 0. -1.
          2   -1    0    0  501    0  0.00000000000E+00 -0.00000000000E+00 -0.18006766380E+04  0.18006766380E+04  0.00000000000E+00 0.  1.
         23    2    1    2    0    0 -0.71514164499E+03 -0.45768720437E+03  0.77961141988E+03  0.11562171321E+04  0.90216080212E+02 0.  0.
         11    1    3    3    0    0 -0.58860259536E+03 -0.41446349877E+03  0.66728132128E+03  0.98157901812E+03  0.00000000000E+00 0. -1.
        -11    1    3    3    0    0 -0.12653904963E+03 -0.43223705604E+02  0.11233009859E+03  0.17463811399E+03  0.00000000000E+00 0.  1.
         22    1    1    2    0    0  0.71514164499E+03  0.45768720437E+03 -0.15005967923E+04  0.17241507714E+04  0.00000000000E+00 0.  1.
<mgrwt>
<rscale>  0 0.27886734E+04</rscale>
<asrwt>0</asrwt>
<pdfrwt beam="1">  1        2 0.27702717E+00 0.27886734E+04</pdfrwt>
<pdfrwt beam="2">  1       -2 0.16610635E+00 0.27886734E+04</pdfrwt>
<totfact> 0.17069151E+00</totfact>
</mgrwt>
</event>
<event>
 6    1  0.1934315E-005  0.2653061E+04  0.7818608E-02  0.8350398E-01
         -2   -1    0    0    0  501 -0.00000000000E+00  0.00000000000E+00  0.17847745546E+04  0.17847745546E+04  0.00000000000E+00 0. -1.
          2   -1    0    0  501    0  0.00000000000E+00 -0.00000000000E+00 -0.98594134560E+03  0.98594134560E+03  0.00000000000E+00 0.  1.
         23    2    1    2    0    0  0.42255689749E+03  0.13289746917E+03  0.17040160254E+04  0.17629599773E+04  0.90228588179E+02 0.  0.
         13    1    3    3    0    0  0.75963571133E+02  0.45531794614E+02  0.46769126663E+03  0.47600286695E+03  0.00000000000E+00 0. -1.
        -13    1    3    3    0    0  0.34659332636E+03  0.87365674556E+02  0.12363247587E+04  0.12869571104E+04  0.00000000000E+00 0.  1.
         22    1    1    2    0    0 -0.42255689749E+03 -0.13289746917E+03 -0.90518281638E+03  0.10077559228E+04  0.00000000000E+00 0.  1.
<mgrwt>
<rscale>  0 0.26530609E+04</rscale>
<asrwt>0</asrwt>
<pdfrwt beam="1">  1        2 0.15168328E+00 0.26530609E+04</pdfrwt>
<pdfrwt beam="2">  1       -2 0.27458070E+00 0.26530609E+04</pdfrwt>
<totfact> 0.10293582E+00</totfact>
</mgrwt>
</event>
<event>
 6    1  0.1934315E-005  0.1084804E+04  0.7818608E-02  0.9220130E-01
         -1   -1    0    0    0  501 -0.00000000000E+00  0.00000000000E+00  0.64301041328E+03  0.64301041328E+03  0.00000000000E+00 0.  1.
          1   -1    0    0  501    0  0.00000000000E+00 -0.00000000000E+00 -0.45753549527E+03  0.45753549527E+03  0.00000000000E+00 0. -1.
         23    2    1    2    0    0  0.21161208837E+03 -0.13791252671E+03  0.57589903600E+03  0.63553995925E+03  0.91933667190E+02 0.  0.
         13    1    3    3    0    0  0.11231034425E+03 -0.22248884147E+02  0.21063172970E+03  0.23973809006E+03  0.00000000000E+00 0.  1.
        -13    1    3    3    0    0  0.99301744129E+02 -0.11566364256E+03  0.36526730630E+03  0.39580186918E+03  0.00000000000E+00 0. -1.
         22    1    1    2    0    0 -0.21161208837E+03  0.13791252671E+03 -0.39042411800E+03  0.46500594930E+03  0.00000000000E+00 0. -1.
<mgrwt>
<rscale>  0 0.10848043E+04</rscale>
<asrwt>0</asrwt>
<pdfrwt beam="1">  1        1 0.70390076E-01 0.10848043E+04</pdfrwt>
<pdfrwt beam="2">  1       -1 0.98924679E-01 0.10848043E+04</pdfrwt>
<totfact> 0.48812063E+01</totfact>
</mgrwt>
</event>
<event>
 6    1  0.1934315E-005  0.1274352E+04  0.7818608E-02  0.9050155E-01
          2   -1    0    0  501    0  0.00000000000E+00  0.00000000000E+00  0.70344535435E+03  0.70344535435E+03  0.00000000000E+00 0.  1.
         -2   -1    0    0    0  501 -0.00000000000E+00 -0.00000000000E+00 -0.57714969527E+03  0.57714969527E+03  0.00000000000E+00 0. -1.
         23    2    1    2    0    0 -0.35414660678E+03 -0.12797761984E+03 -0.44597418659E+03  0.59554697355E+03  0.11825875155E+03 0.  0.
         11    1    3    3    0    0 -0.22727513004E+03 -0.33809028506E+02 -0.20824730132E+03  0.31010316615E+03  0.00000000000E+00 0. -1.
        -11    1    3    3    0    0 -0.12687147673E+03 -0.94168591332E+02 -0.23772688527E+03  0.28544380740E+03  0.00000000000E+00 0.  1.
         22    1    1    2    0    0  0.35414660678E+03  0.12797761984E+03  0.57226984567E+03  0.68504807608E+03  0.00000000000E+00 0.  1.
<mgrwt>
<rscale>  0 0.12743520E+04</rscale>
<asrwt>0</asrwt>
<pdfrwt beam="1">  1        2 0.10822236E+00 0.12743520E+04</pdfrwt>
<pdfrwt beam="2">  1       -2 0.88792261E-01 0.12743520E+04</pdfrwt>
<totfact> 0.43607215E+01</totfact>
</mgrwt>
</event>
<event>
 6    1  0.1934315E-005  0.1095207E+04  0.7818608E-02  0.9209876E-01
         -2   -1    0    0    0  501 -0.00000000000E+00  0.00000000000E+00  0.33996578837E+03  0.33996578837E+03  0.00000000000E+00 0. -1.
          2   -1    0    0  501    0  0.00000000000E+00 -0.00000000000E+00 -0.88205771703E+03  0.88205771703E+03  0.00000000000E+00 0.  1.
         23    2    1    2    0    0  0.15903782352E+03 -0.41855482036E+03 -0.61730940693E+03  0.76799835632E+03  0.90936266029E+02 0.  0.
         11    1    3    3    0    0  0.11752771106E+03 -0.19351725005E+03 -0.33960706231E+03  0.40816007363E+03  0.00000000000E+00 0.  1.
        -11    1    3    3    0    0  0.41510112464E+02 -0.22503757031E+03 -0.27770234462E+03  0.35983828269E+03  0.00000000000E+00 0. -1.
         22    1    1    2    0    0 -0.15903782352E+03  0.41855482036E+03  0.75217478263E+02  0.45402514907E+03  0.00000000000E+00 0. -1.
<mgrwt>
<rscale>  0 0.10952067E+04</rscale>
<asrwt>0</asrwt>
<pdfrwt beam="1">  1        2 0.13570119E+00 0.10952067E+04</pdfrwt>
<pdfrwt beam="2">  1       -2 0.52302428E-01 0.10952067E+04</pdfrwt>
<totfact> 0.10334365E+02</totfact>
</mgrwt>
</event>
<event>
 6    1  0.1934315E-005  0.1799151E+04  0.7818608E-02  0.8706751E-01
         -2   -1    0    0    0  501 -0.00000000000E+00  0.00000000000E+00  0.91310988102E+03  0.91310988102E+03  0.00000000000E+00 0. -1.
          2   -1    0    0  501    0  0.00000000000E+00 -0.00000000000E+00 -0.88624166519E+03  0.88624166519E+03  0.00000000000E+00 0.  1.
         23    2    1    2    0    0 -0.22264424596E+03 -0.44776435748E+03 -0.73165922311E+03  0.89082127389E+03  0.90409862186E+02 0.  0.
         13    1    3    3    0    0 -0.16483673588E+03 -0.29234218829E+03 -0.41831820411E+03  0.53630702442E+03  0.00000000000E+00 0. -1.
        -13    1    3    3    0    0 -0.57807510081E+02 -0.15542216918E+03 -0.31334101900E+03  0.35451424948E+03  0.00000000000E+00 0.  1.
         22    1    1    2    0    0  0.22264424596E+03  0.44776435748E+03  0.75852743894E+03  0.90853027231E+03  0.00000000000E+00 0. -1.
<mgrwt>
<rscale>  0 0.17991509E+04</rscale>
<asrwt>0</asrwt>
<pdfrwt beam="1">  1        2 0.13634487E+00 0.17991509E+04</pdfrwt>
<pdfrwt beam="2">  1       -2 0.14047844E+00 0.17991509E+04</pdfrwt>
<totfact> 0.10067760E+01</totfact>
</mgrwt>
</event>
<event>
 6    1  0.1934315E-005  0.4012985E+04  0.7818608E-02  0.8001932E-01
         -2   -1    0    0    0  501 -0.00000000000E+00  0.00000000000E+00  0.16708723744E+04  0.16708723744E+04  0.00000000000E+00 0. -1.
          2   -1    0    0  501    0  0.00000000000E+00 -0.00000000000E+00 -0.24095265638E+04  0.24095265638E+04  0.00000000000E+00 0.  1.
         23    2    1    2    0    0  0.12002380705E+04 -0.10617018823E+04 -0.15956159062E+04  0.22632127350E+04  0.91430033482E+02 0.  0.
         11    1    3    3    0    0  0.35666157237E+03 -0.27719851938E+03 -0.49157746387E+03  0.66760384910E+03  0.00000000000E+00 0. -1.
        -11    1    3    3    0    0  0.84357649814E+03 -0.78450336296E+03 -0.11040384423E+04  0.15956088859E+04  0.00000000000E+00 0.  1.
         22    1    1    2    0    0 -0.12002380705E+04  0.10617018823E+04  0.85696171684E+03  0.18171862032E+04  0.00000000000E+00 0. -1.
<mgrwt>
<rscale>  0 0.40129846E+04</rscale>
<asrwt>0</asrwt>
<pdfrwt beam="1">  1        2 0.37069639E+00 0.40129846E+04</pdfrwt>
<pdfrwt beam="2">  1       -2 0.25705729E+00 0.40129846E+04</pdfrwt>
<totfact> 0.17993050E-01</totfact>
</mgrwt>
</event>
<event>
 6    1  0.1934315E-005  0.3062928E+04  0.7818608E-02  0.8225986E-01
          2   -1    0    0  501    0  0.00000000000E+00  0.00000000000E+00  0.18190854598E+04  0.18190854598E+04  0.00000000000E+00 0.  1.
         -2   -1    0    0    0  501 -0.00000000000E+00 -0.00000000000E+00 -0.12893195221E+04  0.12893195221E+04  0.00000000000E+00 0. -1.
         23    2    1    2    0    0 -0.15291913160E+04  0.14229797017E+02  0.21762994072E+03  0.15476175368E+04  0.95544132576E+02 0.  0.
         13    1    3    3    0    0 -0.48543207703E+03 -0.37328837756E+02  0.84413704145E+02  0.49412894773E+03  0.00000000000E+00 0.  1.
        -13    1    3    3    0    0 -0.10437592390E+04  0.51558634773E+02  0.13321623657E+03  0.10534885891E+04  0.00000000000E+00 0. -1.
         22    1    1    2    0    0  0.15291913160E+04 -0.14229797017E+02  0.31213599696E+03  0.15607874450E+04  0.00000000000E+00 0. -1.
<mgrwt>
<rscale>  0 0.30629283E+04</rscale>
<asrwt>0</asrwt>
<pdfrwt beam="1">  1        2 0.27985930E+00 0.30629283E+04</pdfrwt>
<pdfrwt beam="2">  1       -2 0.19835685E+00 0.30629283E+04</pdfrwt>
<totfact> 0.97793955E-01</totfact>
</mgrwt>
</event>
<event>
 6    1  0.1934315E-005  0.4019271E+04  0.7818608E-02  0.8000670E-01
          2   -1    0    0  501    0  0.00000000000E+00  0.00000000000E+00  0.21438003313E+04  0.21438003313E+04  0.00000000000E+00 0.  1.
         -2   -1    0    0    0  501 -0.00000000000E+00 -0.00000000000E+00 -0.18838672609E+04  0.18838672609E+04  0.00000000000E+00 0. -1.
         23    2    1    2    0    0  0.16317645867E+04 -0.11713892653E+04  0.10767578345E+03  0.20132220708E+04  0.81612220099E+02 0.  0.
         11    1    3    3    0    0  0.79818360099E+03 -0.62067941818E+03  0.66992350838E+02  0.10133252075E+04  0.00000000000E+00 0. -1.
        -11    1    3    3    0    0  0.83358098574E+03 -0.55070984714E+03  0.40683432611E+02  0.99989686329E+03  0.00000000000E+00 0.  1.
         22    1    1    2    0    0 -0.16317645867E+04  0.11713892653E+04  0.15225728692E+03  0.20144455214E+04  0.00000000000E+00 0.  1.
<mgrwt>
<rscale>  0 0.40192712E+04</rscale>
<asrwt>0</asrwt>
<pdfrwt beam="1">  1        2 0.32981543E+00 0.40192712E+04</pdfrwt>
<pdfrwt beam="2">  1       -2 0.28982573E+00 0.40192712E+04</pdfrwt>
<totfact> 0.16044652E-01</totfact>
</mgrwt>
</event>
<event>
 6    1  0.1934315E-005  0.2407259E+04  0.7818608E-02  0.8436791E-01
          2   -1    0    0  501    0  0.00000000000E+00  0.00000000000E+00  0.20468082168E+04  0.20468082168E+04  0.00000000000E+00 0.  1.
         -2   -1    0    0    0  501 -0.00000000000E+00 -0.00000000000E+00 -0.70779645817E+03  0.70779645817E+03  0.00000000000E+00 0. -1.
         23    2    1    2    0    0 -0.47421810461E+02 -0.52955888258E+03  0.19039056524E+04  0.19788556502E+04  0.91277120192E+02 0.  0.
         13    1    3    3    0    0 -0.68141773516E+02 -0.42287176288E+03  0.15893144313E+04  0.16460207139E+04  0.00000000000E+00 0.  1.
        -13    1    3    3    0    0  0.20719963056E+02 -0.10668711970E+03  0.31459122114E+03  0.33283493626E+03  0.00000000000E+00 0. -1.
         22    1    1    2    0    0  0.47421810461E+02  0.52955888258E+03 -0.56489389379E+03  0.77574902479E+03  0.00000000000E+00 0. -1.
<mgrwt>
<rscale>  0 0.24072587E+04</rscale>
<asrwt>0</asrwt>
<pdfrwt beam="1">  1        2 0.31489357E+00 0.24072587E+04</pdfrwt>
<pdfrwt beam="2">  1       -2 0.10889176E+00 0.24072587E+04</pdfrwt>
<totfact> 0.38070756E+00</totfact>
</mgrwt>
</event>
<event>
 6    1  0.1934315E-005  0.1543091E+04  0.7818608E-02  0.8856293E-01
          2   -1    0    0  501    0  0.00000000000E+00  0.00000000000E+00  0.22047111427E+04  0.22047111427E+04  0.00000000000E+00 0.  1.
         -2   -1    0    0    0  501 -0.00000000000E+00 -0.00000000000E+00 -0.27000484480E+03  0.27000484480E+03  0.00000000000E+00 0. -1.
         23    2    1    2    0    0  0.69913908883E+03  0.15278109715E+03  0.52021683919E+03  0.88949740384E+03  0.91883309038E+02 0.  0.
         11    1    3    3    0    0  0.43337393849E+03  0.51156158453E+02  0.29712117979E+03  0.52793078958E+03  0.00000000000E+00 0.  1.
        -11    1    3    3    0    0  0.26576515035E+03  0.10162493870E+03  0.22309565940E+03  0.36156661426E+03  0.00000000000E+00 0. -1.
         22    1    1    2    0    0 -0.69913908883E+03 -0.15278109715E+03  0.14144894588E+04  0.15852185837E+04  0.00000000000E+00 0.  1.
<mgrwt>
<rscale>  0 0.15430913E+04</rscale>
<asrwt>0</asrwt>
<pdfrwt beam="1">  1        2 0.33918632E+00 0.15430913E+04</pdfrwt>
<pdfrwt beam="2">  1       -2 0.41539208E-01 0.15430913E+04</pdfrwt>
<totfact> 0.27166425E+01</totfact>
</mgrwt>
</event>
<event>
 6    1  0.1934315E-005  0.2939963E+03  0.7818608E-02  0.1088281E+00
          2   -1    0    0  501    0  0.00000000000E+00  0.00000000000E+00  0.46402431749E+03  0.46402431749E+03  0.00000000000E+00 0.  1.
         -2   -1    0    0    0  501 -0.00000000000E+00 -0.00000000000E+00 -0.46567492172E+02  0.46567492172E+02  0.00000000000E+00 0. -1.
         23    2    1    2    0    0  0.17836373100E+02  0.12793628997E+03  0.30493112917E+03  0.33927963032E+03  0.73768851930E+02 0.  0.
         13    1    3    3    0    0  0.15766628277E+02  0.10939175170E+03  0.16807654447E+03  0.20115880967E+03  0.00000000000E+00 0. -1.
        -13    1    3    3    0    0  0.20697448234E+01  0.18544538277E+02  0.13685458470E+03  0.13812082065E+03  0.00000000000E+00 0.  1.
         22    1    1    2    0    0 -0.17836373100E+02 -0.12793628997E+03  0.11252569615E+03  0.17131217934E+03  0.00000000000E+00 0. -1.
<mgrwt>
<rscale>  0 0.29399625E+03</rscale>
<asrwt>0</asrwt>
<pdfrwt beam="1">  1        2 0.71388353E-01 0.29399625E+03</pdfrwt>
<pdfrwt beam="2">  1       -2 0.71642299E-02 0.29399625E+03</pdfrwt>
<totfact> 0.75899509E+03</totfact>
</mgrwt>
</event>
<event>
 6    1  0.1934315E-005  0.1787921E+04  0.7818608E-02  0.8712749E-01
          2   -1    0    0  501    0  0.00000000000E+00  0.00000000000E+00  0.27704188897E+03  0.27704188897E+03  0.00000000000E+00 0.  1.
         -2   -1    0    0    0  501 -0.00000000000E+00 -0.00000000000E+00 -0.28846376575E+04  0.28846376575E+04  0.00000000000E+00 0. -1.
         23    2    1    2    0    0  0.33782984256E+03  0.35660813539E+03  0.83880446231E+01  0.49997526624E+03  0.92771454698E+02 0.  0.
         11    1    3    3    0    0  0.15598983561E+03  0.16897453913E+03  0.50141704763E+02  0.23537080160E+03  0.00000000000E+00 0. -1.
        -11    1    3    3    0    0  0.18184000695E+03  0.18763359626E+03 -0.41753660140E+02  0.26460446464E+03  0.00000000000E+00 0.  1.
         22    1    1    2    0    0 -0.33782984256E+03 -0.35660813539E+03 -0.26159838132E+04  0.26617042803E+04  0.00000000000E+00 0. -1.
<mgrwt>
<rscale>  0 0.17879211E+04</rscale>
<asrwt>0</asrwt>
<pdfrwt beam="1">  1        2 0.42621830E-01 0.17879211E+04</pdfrwt>
<pdfrwt beam="2">  1       -2 0.44379040E+00 0.17879211E+04</pdfrwt>
<totfact> 0.43435704E-01</totfact>
</mgrwt>
</event>
<event>
 6    1  0.1934315E-005  0.3907612E+04  0.7818608E-02  0.8023448E-01
         -2   -1    0    0    0  501 -0.00000000000E+00  0.00000000000E+00  0.11348643053E+04  0.11348643053E+04  0.00000000000E+00 0. -1.
          2   -1    0    0  501    0  0.00000000000E+00 -0.00000000000E+00 -0.33637134784E+04  0.33637134784E+04  0.00000000000E+00 0.  1.
         23    2    1    2    0    0 -0.39448787866E+03 -0.18261766736E+04 -0.17688238764E+04  0.25744766420E+04  0.93006155713E+02 0.  0.
         11    1    3    3    0    0 -0.63271974228E+02 -0.48618900480E+03 -0.46701942548E+03  0.67711906995E+03  0.00000000000E+00 0. -1.
        -11    1    3    3    0    0 -0.33121590444E+03 -0.13399876688E+04 -0.13018044509E+04  0.18973575721E+04  0.00000000000E+00 0.  1.
         22    1    1    2    0    0  0.39448787866E+03  0.18261766736E+04 -0.46002529670E+03  0.19241011416E+04  0.00000000000E+00 0.  1.
<mgrwt>
<rscale>  0 0.39076122E+04</rscale>
<asrwt>0</asrwt>
<pdfrwt beam="1">  1        2 0.51749437E+00 0.39076122E+04</pdfrwt>
<pdfrwt beam="2">  1       -2 0.17459451E+00 0.39076122E+04</pdfrwt>
<totfact> 0.15840299E-01</totfact>
</mgrwt>
</event>
<event>
 6    1  0.1934315E-005  0.1685776E+04  0.7818608E-02  0.8769519E-01
          2   -1    0    0  501    0  0.00000000000E+00  0.00000000000E+00  0.47492523368E+04  0.47492523368E+04  0.00000000000E+00 0.  1.
         -2   -1    0    0    0  501 -0.00000000000E+00 -0.00000000000E+00 -0.14959404143E+03  0.14959404143E+03  0.00000000000E+00 0. -1.
         23    2    1    2    0    0 -0.69275807984E+02 -0.40770918836E+03  0.44327883552E+04  0.44528962726E+04  0.87445365861E+02 0.  0.
         13    1    3    3    0    0 -0.82492478151E+02 -0.38325754613E+03  0.39819642347E+04  0.40012161304E+04  0.00000000000E+00 0. -1.
        -13    1    3    3    0    0  0.13216670167E+02 -0.24451642231E+02  0.45082412057E+03  0.45168014221E+03  0.00000000000E+00 0.  1.
         22    1    1    2    0    0  0.69275807984E+02  0.40770918836E+03  0.16686994018E+03  0.44595010571E+03  0.00000000000E+00 0. -1.
<mgrwt>
<rscale>  0 0.16857756E+04</rscale>
<asrwt>0</asrwt>
<pdfrwt beam="1">  1        2 0.73065409E+00 0.16857756E+04</pdfrwt>
<pdfrwt beam="2">  1       -2 0.23014472E-01 0.16857756E+04</pdfrwt>
<totfact> 0.11121862E+00</totfact>
</mgrwt>
</event>
<event>
 6    1  0.1934315E-005  0.2545354E+04  0.7818608E-02  0.8387004E-01
          2   -1    0    0  501    0  0.00000000000E+00  0.00000000000E+00  0.15697125252E+04  0.15697125252E+04  0.00000000000E+00 0.  1.
         -2   -1    0    0    0  501 -0.00000000000E+00 -0.00000000000E+00 -0.10318490469E+04  0.10318490469E+04  0.00000000000E+00 0. -1.
         23    2    1    2    0    0 -0.66289910544E+03 -0.10402184093E+04  0.58291741928E+03  0.13672522831E+04  0.89980692032E+02 0.  0.
         11    1    3    3    0    0 -0.20090183962E+03 -0.30417122205E+03  0.21780676236E+03  0.42464275246E+03  0.00000000000E+00 0. -1.
        -11    1    3    3    0    0 -0.46199726582E+03 -0.73604718728E+03  0.36511065692E+03  0.94260953068E+03  0.00000000000E+00 0.  1.
         22    1    1    2    0    0  0.66289910544E+03  0.10402184093E+04 -0.45053940927E+02  0.12343092889E+04  0.00000000000E+00 0.  1.
<mgrwt>
<rscale>  0 0.25453537E+04</rscale>
<asrwt>0</asrwt>
<pdfrwt beam="1">  1        2 0.24149424E+00 0.25453537E+04</pdfrwt>
<pdfrwt beam="2">  1       -2 0.15874601E+00 0.25453537E+04</pdfrwt>
<totfact> 0.26521766E+00</totfact>
</mgrwt>
</event>
<event>
 6    1  0.1934315E-005  0.2194868E+04  0.7818608E-02  0.8520567E-01
         -2   -1    0    0    0  501 -0.00000000000E+00  0.00000000000E+00  0.11655799448E+04  0.11655799448E+04  0.00000000000E+00 0. -1.
          2   -1    0    0  501    0  0.00000000000E+00 -0.00000000000E+00 -0.10332723838E+04  0.10332723838E+04  0.00000000000E+00 0.  1.
         23    2    1    2    0    0 -0.19890706699E+03 -0.38812125748E+03  0.10730280294E+04  0.11619544881E+04  0.92449709080E+02 0.  0.
         11    1    3    3    0    0 -0.46350009408E+02 -0.18978132485E+03  0.48899032543E+03  0.52657080530E+03  0.00000000000E+00 0.  1.
        -11    1    3    3    0    0 -0.15255705758E+03 -0.19833993264E+03  0.58403770399E+03  0.63538368280E+03  0.00000000000E+00 0. -1.
         22    1    1    2    0    0  0.19890706699E+03  0.38812125748E+03 -0.94072046848E+03  0.10368978405E+04  0.00000000000E+00 0.  1.
<mgrwt>
<rscale>  0 0.21948682E+04</rscale>
<asrwt>0</asrwt>
<pdfrwt beam="1">  1        2 0.15896498E+00 0.21948682E+04</pdfrwt>
<pdfrwt beam="2">  1       -2 0.17931999E+00 0.21948682E+04</pdfrwt>
<totfact> 0.40197025E+00</totfact>
</mgrwt>
</event>
<event>
 6    1  0.1934315E-005  0.1741259E+04  0.7818608E-02  0.8738176E-01
          2   -1    0    0  501    0  0.00000000000E+00  0.00000000000E+00  0.18283941099E+04  0.18283941099E+04  0.00000000000E+00 0.  1.
         -2   -1    0    0    0  501 -0.00000000000E+00 -0.00000000000E+00 -0.41456929026E+03  0.41456929026E+03  0.00000000000E+00 0. -1.
         23    2    1    2    0    0 -0.43100185017E+03  0.69754241035E+03  0.10765189630E+04  0.13563387614E+04  0.91835444590E+02 0.  0.
         11    1    3    3    0    0 -0.12403296082E+03  0.20455956903E+03  0.24821110474E+03  0.34472821928E+03  0.00000000000E+00 0. -1.
        -11    1    3    3    0    0 -0.30696888935E+03  0.49298284132E+03  0.82830785830E+03  0.10116105421E+04  0.00000000000E+00 0.  1.
         22    1    1    2    0    0  0.43100185017E+03 -0.69754241035E+03  0.33730585657E+03  0.88662463870E+03  0.00000000000E+00 0. -1.
<mgrwt>
<rscale>  0 0.17412594E+04</rscale>
<asrwt>0</asrwt>
<pdfrwt beam="1">  1        2 0.28129140E+00 0.17412594E+04</pdfrwt>
<pdfrwt beam="2">  1       -2 0.63779892E-01 0.17412594E+04</pdfrwt>
<totfact> 0.17944758E+01</totfact>
</mgrwt>
</event>
<event>
 6    1  0.1934315E-005  0.1782646E+04  0.7818608E-02  0.8715583E-01
         -2   -1    0    0    0  501 -0.00000000000E+00  0.00000000000E+00  0.68019771345E+03  0.68019771345E+03  0.00000000000E+00 0. -1.
          2   -1    0    0  501    0  0.00000000000E+00 -0.00000000000E+00 -0.11679794215E+04  0.11679794215E+04  0.00000000000E+00 0.  1.
         23    2    1    2    0    0  0.59702601480E+02  0.84230146694E+03  0.43420788247E+02  0.85057388018E+03  0.92489993808E+02 0.  0.
         11    1    3    3    0    0  0.27219161049E+02  0.29174404670E+03  0.58764237866E+02  0.29884562430E+03  0.00000000000E+00 0.  1.
        -11    1    3    3    0    0  0.32483440431E+02  0.55055742024E+03 -0.15343449618E+02  0.55172825588E+03  0.00000000000E+00 0. -1.
         22    1    1    2    0    0 -0.59702601480E+02 -0.84230146694E+03 -0.53120249626E+03  0.99760325474E+03  0.00000000000E+00 0. -1.
<mgrwt>
<rscale>  0 0.17826463E+04</rscale>
<asrwt>0</asrwt>
<pdfrwt beam="1">  1        2 0.17968914E+00 0.17826463E+04</pdfrwt>
<pdfrwt beam="2">  1       -2 0.10464580E+00 0.17826463E+04</pdfrwt>
<totfact> 0.13873804E+01</totfact>
</mgrwt>
</event>
<event>
 6    1  0.1934315E-005  0.1294210E+04  0.7818608E-02  0.9034169E-01
          1   -1    0    0  501    0  0.00000000000E+00  0.00000000000E+00  0.16413561950E+04  0.16413561950E+04  0.00000000000E+00 0.  1.
         -1   -1    0    0    0  501 -0.00000000000E+00 -0.00000000000E+00 -0.25512119300E+03  0.25512119300E+03  0.00000000000E+00 0. -1.
         23    2    1    2    0    0 -0.55580528476E+03 -0.32358118751E+03  0.65381084161E+03  0.92176232697E+03  0.92481735107E+02 0.  0.
         13    1    3    3    0    0 -0.41962842925E+02 -0.56379308867E+02  0.62201043658E+02  0.93853484148E+02  0.00000000000E+00 0.  1.
        -13    1    3    3    0    0 -0.51384244184E+03 -0.26720187864E+03  0.59160979796E+03  0.82790884282E+03  0.00000000000E+00 0. -1.
         22    1    1    2    0    0  0.55580528476E+03  0.32358118751E+03  0.73242416035E+03  0.97471506100E+03  0.00000000000E+00 0. -1.
<mgrwt>
<rscale>  0 0.12942098E+04</rscale>
<asrwt>0</asrwt>
<pdfrwt beam="1">  1        1 0.25251633E+00 0.12942098E+04</pdfrwt>
<pdfrwt beam="2">  1       -1 0.39249415E-01 0.12942098E+04</pdfrwt>
<totfact> 0.32401487E+01</totfact>
</mgrwt>
</event>
<event>
 6    1  0.1934315E-005  0.1029177E+04  0.7818608E-02  0.9277110E-01
          2   -1    0    0  501    0  0.00000000000E+00  0.00000000000E+00  0.27041391921E+04  0.27041391921E+04  0.00000000000E+00 0.  1.
         -2   -1    0    0    0  501 -0.00000000000E+00 -0.00000000000E+00 -0.97924437515E+02  0.97924437515E+02  0.00000000000E+00 0. -1.
         23    2    1    2    0    0 -0.34048086397E+03 -0.36930278207E+03  0.10686734216E+04  0.11845516160E+04  0.93743721601E+02 0.  0.
         13    1    3    3    0    0 -0.17041308126E+03 -0.11765707756E+03  0.41828999283E+03  0.46674438857E+03  0.00000000000E+00 0. -1.
        -13    1    3    3    0    0 -0.17006778272E+03 -0.25164570450E+03  0.65038342874E+03  0.71780722739E+03  0.00000000000E+00 0.  1.
         22    1    1    2    0    0  0.34048086397E+03  0.36930278207E+03  0.15375413330E+04  0.16175120136E+04  0.00000000000E+00 0.  1.
<mgrwt>
<rscale>  0 0.10291770E+04</rscale>
<asrwt>0</asrwt>
<pdfrwt beam="1">  1        2 0.41602136E+00 0.10291770E+04</pdfrwt>
<pdfrwt beam="2">  1       -2 0.15065300E-01 0.10291770E+04</pdfrwt>
<totfact> 0.93176408E+01</totfact>
</mgrwt>
</event>
<event>
 6    1  0.1934315E-005  0.7655308E+04  0.7818608E-02  0.7513386E-01
          2   -1    0    0  501    0  0.00000000000E+00  0.00000000000E+00  0.32585368091E+04  0.32585368091E+04  0.00000000000E+00 0.  1.
         -2   -1    0    0    0  501 -0.00000000000E+00 -0.00000000000E+00 -0.44961703538E+04  0.44961703538E+04  0.00000000000E+00 0. -1.
         23    2    1    2    0    0  0.75239524756E+03 -0.30476674995E+04  0.15986967005E+04  0.35239690410E+04  0.90282144323E+02 0.  0.
         13    1    3    3    0    0  0.51404978813E+03 -0.22462986765E+04  0.11655158019E+04  0.25823500951E+04  0.00000000000E+00 0.  1.
        -13    1    3    3    0    0  0.23834545944E+03 -0.80136882296E+03  0.43318089859E+03  0.94161894594E+03  0.00000000000E+00 0. -1.
         22    1    1    2    0    0 -0.75239524756E+03  0.30476674995E+04 -0.28363302452E+04  0.42307381219E+04  0.00000000000E+00 0. -1.
<mgrwt>
<rscale>  0 0.76553084E+04</rscale>
<asrwt>0</asrwt>
<pdfrwt beam="1">  1        2 0.50131336E+00 0.76553084E+04</pdfrwt>
<pdfrwt beam="2">  1       -2 0.69171851E+00 0.76553084E+04</pdfrwt>
<totfact> 0.17666511E-04</totfact>
</mgrwt>
</event>
<event>
 6    1  0.1934315E-005  0.2278408E+04  0.7818608E-02  0.8486484E-01
         -2   -1    0    0    0  501 -0.00000000000E+00  0.00000000000E+00  0.69581614503E+03  0.69581614503E+03  0.00000000000E+00 0.  1.
          2   -1    0    0  501    0  0.00000000000E+00 -0.00000000000E+00 -0.18651269106E+04  0.18651269106E+04  0.00000000000E+00 0. -1.
         23    2    1    2    0    0  0.74416195637E+03  0.85873453083E+03 -0.53039535463E+03  0.12573269641E+04  0.91377517789E+02 0.  0.
         13    1    3    3    0    0  0.36598369093E+03  0.48142108106E+03 -0.25498310689E+03  0.65629772521E+03  0.00000000000E+00 0.  1.
        -13    1    3    3    0    0  0.37817826543E+03  0.37731344977E+03 -0.27541224774E+03  0.60102923891E+03  0.00000000000E+00 0. -1.
         22    1    1    2    0    0 -0.74416195637E+03 -0.85873453083E+03 -0.63891541097E+03  0.13036160915E+04  0.00000000000E+00 0.  1.
<mgrwt>
<rscale>  0 0.22784077E+04</rscale>
<asrwt>0</asrwt>
<pdfrwt beam="1">  1        2 0.28694260E+00 0.22784077E+04</pdfrwt>
<pdfrwt beam="2">  1       -2 0.10704864E+00 0.22784077E+04</pdfrwt>
<totfact> 0.50596853E+00</totfact>
</mgrwt>
</event>
<event>
 6    1  0.1934315E-005  0.2320394E+04  0.7818608E-02  0.8469923E-01
         -2   -1    0    0    0  501 -0.00000000000E+00  0.00000000000E+00  0.43091981659E+03  0.43091981659E+03  0.00000000000E+00 0. -1.
          2   -1    0    0  501    0  0.00000000000E+00 -0.00000000000E+00 -0.31236820663E+04  0.31236820663E+04  0.00000000000E+00 0.  1.
         23    2    1    2    0    0 -0.11029449623E+04  0.17051952728E+03 -0.18243466655E+04  0.21404908102E+04  0.88857490345E+02 0.  0.
         11    1    3    3    0    0 -0.61130102639E+03  0.13099069693E+03 -0.97094997502E+03  0.11548122625E+04  0.00000000000E+00 0.  1.
        -11    1    3    3    0    0 -0.49164393590E+03  0.39528830353E+02 -0.85339669051E+03  0.98567854776E+03  0.00000000000E+00 0. -1.
         22    1    1    2    0    0  0.11029449623E+04 -0.17051952728E+03 -0.86841558420E+03  0.14141110727E+04  0.00000000000E+00 0. -1.
<mgrwt>
<rscale>  0 0.23203935E+04</rscale>
<asrwt>0</asrwt>
<pdfrwt beam="1">  1        2 0.48056648E+00 0.23203935E+04</pdfrwt>
<pdfrwt beam="2">  1       -2 0.66295355E-01 0.23203935E+04</pdfrwt>
<totfact> 0.27547002E+00</totfact>
</mgrwt>
</event>
<event>
 6    1  0.1934315E-005  0.4191832E+04  0.7818608E-02  0.7966928E-01
          2   -1    0    0  501    0  0.00000000000E+00  0.00000000000E+00  0.28952211228E+04  0.28952211228E+04  0.00000000000E+00 0.  1.
         -2   -1    0    0    0  501 -0.00000000000E+00 -0.00000000000E+00 -0.15172811678E+04  0.15172811678E+04  0.00000000000E+00 0. -1.
         23    2    1    2    0    0 -0.18893314340E+03 -0.19859290614E+04  0.13626399563E+04  0.24175476396E+04  0.90216239560E+02 0.  0.
         13    1    3    3    0    0 -0.10992247581E+03 -0.73672741102E+03  0.53045955075E+03  0.91446025819E+03  0.00000000000E+00 0.  1.
        -13    1    3    3    0    0 -0.79010667586E+02 -0.12492016504E+04  0.83218040554E+03  0.15030873814E+04  0.00000000000E+00 0. -1.
         22    1    1    2    0    0  0.18893314340E+03  0.19859290614E+04  0.15299998745E+02  0.19949546510E+04  0.00000000000E+00 0.  1.
<mgrwt>
<rscale>  0 0.41918323E+04</rscale>
<asrwt>0</asrwt>
<pdfrwt beam="1">  1        2 0.44541863E+00 0.41918323E+04</pdfrwt>
<pdfrwt beam="2">  1       -2 0.23342787E+00 0.41918323E+04</pdfrwt>
<totfact> 0.12781912E-01</totfact>
</mgrwt>
</event>
<event>
 6    1  0.1934315E-005  0.1776835E+04  0.7818608E-02  0.8718716E-01
          2   -1    0    0  501    0  0.00000000000E+00  0.00000000000E+00  0.18674290487E+04  0.18674290487E+04  0.00000000000E+00 0.  1.
         -2   -1    0    0    0  501 -0.00000000000E+00 -0.00000000000E+00 -0.42265877036E+03  0.42265877036E+03  0.00000000000E+00 0. -1.
         23    2    1    2    0    0 -0.74875355952E+02 -0.86769642211E+02  0.18567328693E+04  0.18624799776E+04  0.90771302835E+02 0.  0.
         11    1    3    3    0    0 -0.65712870251E+01 -0.76353941831E+02  0.90150766697E+03  0.90475918335E+03  0.00000000000E+00 0. -1.
        -11    1    3    3    0    0 -0.68304068927E+02 -0.10415700381E+02  0.95522520230E+03  0.95772079426E+03  0.00000000000E+00 0.  1.
         22    1    1    2    0    0  0.74875355952E+02  0.86769642211E+02 -0.41196259093E+03  0.42760784145E+03  0.00000000000E+00 0. -1.
<mgrwt>
<rscale>  0 0.17768346E+04</rscale>
<asrwt>0</asrwt>
<pdfrwt beam="1">  1        2 0.28729677E+00 0.17768346E+04</pdfrwt>
<pdfrwt beam="2">  1       -2 0.65024427E-01 0.17768346E+04</pdfrwt>
<totfact> 0.16331304E+01</totfact>
</mgrwt>
</event>
<event>
 6    1  0.1934315E-005  0.4177089E+04  0.7818608E-02  0.7969745E-01
          2   -1    0    0  501    0  0.00000000000E+00  0.00000000000E+00  0.37474261402E+04  0.37474261402E+04  0.00000000000E+00 0.  1.
         -2   -1    0    0    0  501 -0.00000000000E+00 -0.00000000000E+00 -0.11640036346E+04  0.11640036346E+04  0.00000000000E+00 0. -1.
         23    2    1    2    0    0 -0.85252693500E+03 -0.13988228939E+04  0.28136911990E+04  0.32571833197E+04  0.94219696003E+02 0.  0.
         13    1    3    3    0    0 -0.35282719871E+03 -0.50663230737E+03  0.10082801729E+04  0.11822826372E+04  0.00000000000E+00 0. -1.
        -13    1    3    3    0    0 -0.49969973629E+03 -0.89219058650E+03  0.18054110261E+04  0.20749006825E+04  0.00000000000E+00 0.  1.
         22    1    1    2    0    0  0.85252693500E+03  0.13988228939E+04 -0.23026869345E+03  0.16542464552E+04  0.00000000000E+00 0. -1.
<mgrwt>
<rscale>  0 0.41770888E+04</rscale>
<asrwt>0</asrwt>
<pdfrwt beam="1">  1        2 0.57652709E+00 0.41770888E+04</pdfrwt>
<pdfrwt beam="2">  1       -2 0.17907748E+00 0.41770888E+04</pdfrwt>
<totfact> 0.76800733E-02</totfact>
</mgrwt>
</event>
<event>
 6    1  0.1934315E-005  0.2515777E+04  0.7818608E-02  0.8397386E-01
          2   -1    0    0  501    0  0.00000000000E+00  0.00000000000E+00  0.18208237986E+04  0.18208237986E+04  0.00000000000E+00 0.  1.
         -2   -1    0    0    0  501 -0.00000000000E+00 -0.00000000000E+00 -0.86899344897E+03  0.86899344897E+03  0.00000000000E+00 0. -1.
         23    2    1    2    0    0 -0.50469736122E+03  0.11496701359E+04  0.51628796121E+03  0.13608484670E+04  0.94310356861E+02 0.  0.
         13    1    3    3    0    0 -0.38360790936E+03  0.82696649932E+03  0.41480611552E+03  0.10015451725E+04  0.00000000000E+00 0.  1.
        -13    1    3    3    0    0 -0.12108945186E+03  0.32270363654E+03  0.10148184568E+03  0.35930329443E+03  0.00000000000E+00 0. -1.
         22    1    1    2    0    0  0.50469736122E+03 -0.11496701359E+04  0.43554238841E+03  0.13289687806E+04  0.00000000000E+00 0. -1.
<mgrwt>
<rscale>  0 0.25157774E+04</rscale>
<asrwt>0</asrwt>
<pdfrwt beam="1">  1        2 0.28012674E+00 0.25157774E+04</pdfrwt>
<pdfrwt beam="2">  1       -2 0.13369130E+00 0.25157774E+04</pdfrwt>
<totfact> 0.30272540E+00</totfact>
</mgrwt>
</event>
<event>
 6    1  0.1934315E-005  0.2232423E+04  0.7818608E-02  0.8505053E-01
          2   -1    0    0  501    0  0.00000000000E+00  0.00000000000E+00  0.11542587376E+04  0.11542587376E+04  0.00000000000E+00 0.  1.
         -2   -1    0    0    0  501 -0.00000000000E+00 -0.00000000000E+00 -0.10794184822E+04  0.10794184822E+04  0.00000000000E+00 0. -1.
         23    2    1    2    0    0 -0.71666833398E+03 -0.34812585879E+02 -0.81558320890E+03  0.10901391300E+04  0.91662069830E+02 0.  0.
         13    1    3    3    0    0 -0.31767174285E+03 -0.44490796607E+02 -0.41676108436E+03  0.52591308087E+03  0.00000000000E+00 0.  1.
        -13    1    3    3    0    0 -0.39899659113E+03  0.96782107285E+01 -0.39882212454E+03  0.56422604913E+03  0.00000000000E+00 0. -1.
         22    1    1    2    0    0  0.71666833398E+03  0.34812585879E+02  0.89042346427E+03  0.11435380898E+04  0.00000000000E+00 0.  1.
<mgrwt>
<rscale>  0 0.22324231E+04</rscale>
<asrwt>0</asrwt>
<pdfrwt beam="1">  1        2 0.17757827E+00 0.22324231E+04</pdfrwt>
<pdfrwt beam="2">  1       -2 0.16606438E+00 0.22324231E+04</pdfrwt>
<totfact> 0.41845991E+00</totfact>
</mgrwt>
</event>
<event>
 6    1  0.1934315E-005  0.3703458E+04  0.7818608E-02  0.8067196E-01
         -2   -1    0    0    0  501 -0.00000000000E+00  0.00000000000E+00  0.22066793690E+04  0.22066793690E+04  0.00000000000E+00 0. -1.
          2   -1    0    0  501    0  0.00000000000E+00 -0.00000000000E+00 -0.15538734711E+04  0.15538734711E+04  0.00000000000E+00 0.  1.
         23    2    1    2    0    0 -0.14460763844E+04 -0.81217444223E+03 -0.50709467490E+03  0.17366621382E+04  0.89922961288E+02 0.  0.
         13    1    3    3    0    0 -0.12314243010E+04 -0.65856425191E+03 -0.40986449694E+03  0.14553699147E+04  0.00000000000E+00 0. -1.
        -13    1    3    3    0    0 -0.21465208344E+03 -0.15361019033E+03 -0.97230177960E+02  0.28129222350E+03  0.00000000000E+00 0.  1.
         22    1    1    2    0    0  0.14460763844E+04  0.81217444223E+03  0.11599005729E+04  0.20238907019E+04  0.00000000000E+00 0. -1.
<mgrwt>
<rscale>  0 0.37034581E+04</rscale>
<asrwt>0</asrwt>
<pdfrwt beam="1">  1        2 0.23905746E+00 0.37034581E+04</pdfrwt>
<pdfrwt beam="2">  1       -2 0.33948914E+00 0.37034581E+04</pdfrwt>
<totfact> 0.17322451E-01</totfact>
</mgrwt>
</event>
<event>
 6    1  0.1934315E-005  0.4428472E+04  0.7818608E-02  0.7923280E-01
         -2   -1    0    0    0  501 -0.00000000000E+00  0.00000000000E+00  0.15259340354E+04  0.15259340354E+04  0.00000000000E+00 0. -1.
          2   -1    0    0  501    0  0.00000000000E+00 -0.00000000000E+00 -0.32130092109E+04  0.32130092109E+04  0.00000000000E+00 0.  1.
         23    2    1    2    0    0 -0.10127445328E+04 -0.16357747552E+04 -0.20147640223E+04  0.27873309594E+04  0.92354063881E+02 0.  0.
         13    1    3    3    0    0 -0.87097521914E+03 -0.13448086413E+04 -0.16597354883E+04  0.23069091888E+04  0.00000000000E+00 0. -1.
        -13    1    3    3    0    0 -0.14176931366E+03 -0.29096611389E+03 -0.35502853395E+03  0.48042177057E+03  0.00000000000E+00 0.  1.
         22    1    1    2    0    0  0.10127445328E+04  0.16357747552E+04  0.32768884679E+03  0.19516122870E+04  0.00000000000E+00 0. -1.
<mgrwt>
<rscale>  0 0.44284716E+04</rscale>
<asrwt>0</asrwt>
<pdfrwt beam="1">  1        2 0.49430911E+00 0.44284716E+04</pdfrwt>
<pdfrwt beam="2">  1       -2 0.23475908E+00 0.44284716E+04</pdfrwt>
<totfact> 0.77295163E-02</totfact>
</mgrwt>
</event>
<event>
 6    1  0.1934315E-005  0.1062377E+04  0.7818608E-02  0.9242659E-01
          2   -1    0    0  501    0  0.00000000000E+00  0.00000000000E+00  0.32140095043E+03  0.32140095043E+03  0.00000000000E+00 0.  1.
         -2   -1    0    0    0  501 -0.00000000000E+00 -0.00000000000E+00 -0.87790957292E+03  0.87790957292E+03  0.00000000000E+00 0. -1.
         23    2    1    2    0    0 -0.48317475275E+03 -0.37168383150E+02 -0.51514186433E+03  0.71294590798E+03  0.89896590199E+02 0.  0.
         13    1    3    3    0    0 -0.19431204244E+03 -0.20286628447E+00 -0.26777522378E+03  0.33084857785E+03  0.00000000000E+00 0.  1.
        -13    1    3    3    0    0 -0.28886271031E+03 -0.36965516865E+02 -0.24736664055E+03  0.38209733014E+03  0.00000000000E+00 0. -1.
         22    1    1    2    0    0  0.48317475275E+03  0.37168383150E+02 -0.41366758158E+02  0.48636461537E+03  0.00000000000E+00 0.  1.
<mgrwt>
<rscale>  0 0.10623765E+04</rscale>
<asrwt>0</asrwt>
<pdfrwt beam="1">  1        2 0.49446301E-01 0.10623765E+04</pdfrwt>
<pdfrwt beam="2">  1       -2 0.13506301E+00 0.10623765E+04</pdfrwt>
<totfact> 0.39825953E+01</totfact>
</mgrwt>
</event>
<event>
 6    1  0.1934315E-005  0.2364317E+04  0.7818608E-02  0.8452985E-01
          2   -1    0    0  501    0  0.00000000000E+00  0.00000000000E+00  0.24113650061E+04  0.24113650061E+04  0.00000000000E+00 0.  1.
         -2   -1    0    0    0  501 -0.00000000000E+00 -0.00000000000E+00 -0.57954692963E+03  0.57954692963E+03  0.00000000000E+00 0. -1.
         23    2    1    2    0    0  0.11674469880E+03  0.80436866150E+03 -0.16560798236E+03  0.83444511966E+03  0.90743515521E+02 0.  0.
         13    1    3    3    0    0  0.11587523526E+03  0.69214339387E+03 -0.11421771389E+03  0.71101000977E+03  0.00000000000E+00 0. -1.
        -13    1    3    3    0    0  0.86946354091E+00  0.11222526762E+03 -0.51390268473E+02  0.12343510989E+03  0.00000000000E+00 0.  1.
         22    1    1    2    0    0 -0.11674469880E+03 -0.80436866150E+03  0.19974260588E+04  0.21564668160E+04  0.00000000000E+00 0.  1.
<mgrwt>
<rscale>  0 0.23643174E+04</rscale>
<asrwt>0</asrwt>
<pdfrwt beam="1">  1        2 0.37097923E+00 0.23643174E+04</pdfrwt>
<pdfrwt beam="2">  1       -2 0.89161067E-01 0.23643174E+04</pdfrwt>
<totfact> 0.38136162E+00</totfact>
</mgrwt>
</event>
<event>
 6    1  0.1934315E-005  0.6407910E+03  0.7818608E-02  0.9824214E-01
          2   -1    0    0  501    0  0.00000000000E+00  0.00000000000E+00  0.78436900552E+03  0.78436900552E+03  0.00000000000E+00 0.  1.
         -2   -1    0    0    0  501 -0.00000000000E+00 -0.00000000000E+00 -0.13087369136E+03  0.13087369136E+03  0.00000000000E+00 0. -1.
         23    2    1    2    0    0 -0.51036894821E+02 -0.15864064689E+03 -0.46346274386E+02  0.19583330820E+03  0.91820956060E+02 0.  0.
         11    1    3    3    0    0  0.16257364665E+02 -0.15892252313E+02 -0.29321119732E+02  0.37102475009E+02  0.00000000000E+00 0.  1.
        -11    1    3    3    0    0 -0.67294259485E+02 -0.14274839458E+03 -0.17025154653E+02  0.15873083319E+03  0.00000000000E+00 0. -1.
         22    1    1    2    0    0  0.51036894821E+02  0.15864064689E+03  0.69984158854E+03  0.71940938869E+03  0.00000000000E+00 0.  1.
<mgrwt>
<rscale>  0 0.64079097E+03</rscale>
<asrwt>0</asrwt>
<pdfrwt beam="1">  1        2 0.12067215E+00 0.64079097E+03</pdfrwt>
<pdfrwt beam="2">  1       -2 0.20134415E-01 0.64079097E+03</pdfrwt>
<totfact> 0.75006491E+02</totfact>
</mgrwt>
</event>
<event>
 6    1  0.1934315E-005  0.1637408E+04  0.7818608E-02  0.8797891E-01
         -2   -1    0    0    0  501 -0.00000000000E+00  0.00000000000E+00  0.49034888557E+03  0.49034888557E+03  0.00000000000E+00 0. -1.
          2   -1    0    0  501    0  0.00000000000E+00 -0.00000000000E+00 -0.13669367886E+04  0.13669367886E+04  0.00000000000E+00 0.  1.
         23    2    1    2    0    0 -0.33552118236E+03  0.26678860554E+03 -0.12274671549E+04  0.13033300141E+04  0.90790336953E+02 0.  0.
         13    1    3    3    0    0 -0.11683745574E+02 -0.72635460410E+01 -0.45525017716E+02  0.47558345742E+02  0.00000000000E+00 0. -1.
        -13    1    3    3    0    0 -0.32383743679E+03  0.27405215158E+03 -0.11819421372E+04  0.12557716683E+04  0.00000000000E+00 0.  1.
         22    1    1    2    0    0  0.33552118236E+03 -0.26678860554E+03  0.35087925194E+03  0.55395566005E+03  0.00000000000E+00 0. -1.
<mgrwt>
<rscale>  0 0.16374076E+04</rscale>
<asrwt>0</asrwt>
<pdfrwt beam="1">  1        2 0.21029796E+00 0.16374076E+04</pdfrwt>
<pdfrwt beam="2">  1       -2 0.75438291E-01 0.16374076E+04</pdfrwt>
<totfact> 0.22786114E+01</totfact>
</mgrwt>
</event>
<event>
 6    1  0.1934315E-005  0.3202240E+04  0.7818608E-02  0.8188226E-01
          2   -1    0    0  501    0  0.00000000000E+00  0.00000000000E+00  0.26587553355E+04  0.26587553355E+04  0.00000000000E+00 0.  1.
         -2   -1    0    0    0  501 -0.00000000000E+00 -0.00000000000E+00 -0.96420483456E+03  0.96420483456E+03  0.00000000000E+00 0. -1.
         23    2    1    2    0    0  0.53648218403E+03  0.11568420229E+04 -0.24509363688E+03  0.13016855243E+04  0.90651604443E+02 0.  0.
         13    1    3    3    0    0  0.11817028603E+03  0.32216128589E+03 -0.36995206166E+02  0.34513874877E+03  0.00000000000E+00 0. -1.
        -13    1    3    3    0    0  0.41831189800E+03  0.83468073705E+03 -0.20809843072E+03  0.95654677548E+03  0.00000000000E+00 0.  1.
         22    1    1    2    0    0 -0.53648218403E+03 -0.11568420229E+04  0.19396441378E+04  0.23212746458E+04  0.00000000000E+00 0. -1.
<mgrwt>
<rscale>  0 0.32022397E+04</rscale>
<asrwt>0</asrwt>
<pdfrwt beam="1">  1        2 0.40903928E+00 0.32022397E+04</pdfrwt>
<pdfrwt beam="2">  1       -2 0.14833921E+00 0.32022397E+04</pdfrwt>
<totfact> 0.72972354E-01</totfact>
</mgrwt>
</event>
<event>
 6    1  0.1934315E-005  0.2965448E+04  0.7818608E-02  0.8253667E-01
          2   -1    0    0  501    0  0.00000000000E+00  0.00000000000E+00  0.28834934139E+04  0.28834934139E+04  0.00000000000E+00 0.  1.
         -2   -1    0    0    0  501 -0.00000000000E+00 -0.00000000000E+00 -0.76243320911E+03  0.76243320911E+03  0.00000000000E+00 0. -1.
         23    2    1    2    0    0  0.72817991576E+03 -0.68046859183E+03 -0.28284497492E+03  0.10436115754E+04  0.12585843716E+03 0.  0.
         13    1    3    3    0    0  0.40772655363E+03 -0.36629337284E+03 -0.91209746414E+02  0.55563566783E+03  0.00000000000E+00 0.  1.
        -13    1    3    3    0    0  0.32045336213E+03 -0.31417521899E+03 -0.19163522851E+03  0.48797590753E+03  0.00000000000E+00 0. -1.
         22    1    1    2    0    0 -0.72817991576E+03  0.68046859183E+03  0.24039051797E+04  0.26023150476E+04  0.00000000000E+00 0.  1.
<mgrwt>
<rscale>  0 0.29654485E+04</rscale>
<asrwt>0</asrwt>
<pdfrwt beam="1">  1        2 0.44361437E+00 0.29654485E+04</pdfrwt>
<pdfrwt beam="2">  1       -2 0.11729742E+00 0.29654485E+04</pdfrwt>
<totfact> 0.99129605E-01</totfact>
</mgrwt>
</event>
<event>
 6    1  0.1934315E-005  0.4032145E+04  0.7818608E-02  0.7998093E-01
         -2   -1    0    0    0  501 -0.00000000000E+00  0.00000000000E+00  0.12325703297E+04  0.12325703297E+04  0.00000000000E+00 0. -1.
          2   -1    0    0  501    0  0.00000000000E+00 -0.00000000000E+00 -0.32976190574E+04  0.32976190574E+04  0.00000000000E+00 0.  1.
         23    2    1    2    0    0  0.49879582453E+03  0.17637638602E+04 -0.19735168807E+04  0.26949677906E+04  0.91773008447E+02 0.  0.
         13    1    3    3    0    0  0.38566418504E+03  0.14616052976E+04 -0.16589083936E+04  0.22443270635E+04  0.00000000000E+00 0. -1.
        -13    1    3    3    0    0  0.11313163949E+03  0.30215856257E+03 -0.31460848708E+03  0.45064072711E+03  0.00000000000E+00 0.  1.
         22    1    1    2    0    0 -0.49879582453E+03 -0.17637638602E+04 -0.91531846964E+02  0.18352215965E+04  0.00000000000E+00 0. -1.
<mgrwt>
<rscale>  0 0.40321445E+04</rscale>
<asrwt>0</asrwt>
<pdfrwt beam="1">  1        2 0.50732601E+00 0.40321445E+04</pdfrwt>
<pdfrwt beam="2">  1       -2 0.18962621E+00 0.40321445E+04</pdfrwt>
<totfact> 0.13696421E-01</totfact>
</mgrwt>
</event>
<event>
 6    1  0.1934315E-005  0.2592768E+04  0.7818608E-02  0.8370662E-01
          2   -1    0    0  501    0  0.00000000000E+00  0.00000000000E+00  0.82789511737E+03  0.82789511737E+03  0.00000000000E+00 0.  1.
         -2   -1    0    0    0  501 -0.00000000000E+00 -0.00000000000E+00 -0.20299816995E+04  0.20299816995E+04  0.00000000000E+00 0. -1.
         23    2    1    2    0    0  0.11289156711E+04  0.12548967591E+03 -0.12868846085E+04  0.17188469857E+04  0.90358803165E+02 0.  0.
         13    1    3    3    0    0  0.19132612966E+03 -0.12455695704E+02 -0.21098148485E+03  0.28508598561E+03  0.00000000000E+00 0. -1.
        -13    1    3    3    0    0  0.93758954144E+03  0.13794537162E+03 -0.10759031236E+04  0.14337610000E+04  0.00000000000E+00 0.  1.
         22    1    1    2    0    0 -0.11289156711E+04 -0.12548967591E+03  0.84798026318E+02  0.11390298313E+04  0.00000000000E+00 0.  1.
<mgrwt>
<rscale>  0 0.25927684E+04</rscale>
<asrwt>0</asrwt>
<pdfrwt beam="1">  1        2 0.12736848E+00 0.25927684E+04</pdfrwt>
<pdfrwt beam="2">  1       -2 0.31230488E+00 0.25927684E+04</pdfrwt>
<totfact> 0.77779415E-01</totfact>
</mgrwt>
</event>
<event>
 6    1  0.1934315E-005  0.1566953E+04  0.7818608E-02  0.8841111E-01
         -2   -1    0    0    0  501 -0.00000000000E+00  0.00000000000E+00  0.44423303221E+03  0.44423303221E+03  0.00000000000E+00 0. -1.
          2   -1    0    0  501    0  0.00000000000E+00 -0.00000000000E+00 -0.13817866811E+04  0.13817866811E+04  0.00000000000E+00 0.  1.
         23    2    1    2    0    0 -0.61514639522E+03 -0.44231973624E+03 -0.24724819751E+03  0.80104485857E+03  0.80556549408E+02 0.  0.
         11    1    3    3    0    0 -0.22294993312E+03 -0.15836991806E+03 -0.48965134346E+02  0.27782240371E+03  0.00000000000E+00 0. -1.
        -11    1    3    3    0    0 -0.39219646210E+03 -0.28394981818E+03 -0.19828306317E+03  0.52322245486E+03  0.00000000000E+00 0.  1.
         22    1    1    2    0    0  0.61514639522E+03  0.44231973624E+03 -0.69030545133E+03  0.10249748547E+04  0.00000000000E+00 0.  1.
<mgrwt>
<rscale>  0 0.15669528E+04</rscale>
<asrwt>0</asrwt>
<pdfrwt beam="1">  1        2 0.21258256E+00 0.15669528E+04</pdfrwt>
<pdfrwt beam="2">  1       -2 0.68343545E-01 0.15669528E+04</pdfrwt>
<totfact> 0.27909360E+01</totfact>
</mgrwt>
</event>
<event>
 6    1  0.1934315E-005  0.2709269E+04  0.7818608E-02  0.8332004E-01
         -2   -1    0    0    0  501 -0.00000000000E+00  0.00000000000E+00  0.22585209832E+04  0.22585209832E+04  0.00000000000E+00 0. -1.
          2   -1    0    0  501    0  0.00000000000E+00 -0.00000000000E+00 -0.81249401162E+03  0.81249401162E+03  0.00000000000E+00 0.  1.
         23    2    1    2    0    0  0.12115985416E+03 -0.11735526875E+04 -0.27153375071E+02  0.11836448789E+04  0.91500125465E+02 0.  0.
         13    1    3    3    0    0  0.92835456373E+01 -0.13176665093E+03 -0.31764331749E+02  0.13585877700E+03  0.00000000000E+00 0.  1.
        -13    1    3    3    0    0  0.11187630852E+03 -0.10417860366E+04  0.46109566780E+01  0.10477861019E+04  0.00000000000E+00 0. -1.
         22    1    1    2    0    0 -0.12115985416E+03  0.11735526875E+04  0.14731803466E+04  0.18873701159E+04  0.00000000000E+00 0. -1.
<mgrwt>
<rscale>  0 0.27092691E+04</rscale>
<asrwt>0</asrwt>
<pdfrwt beam="1">  1        2 0.12499908E+00 0.27092691E+04</pdfrwt>
<pdfrwt beam="2">  1       -2 0.34746476E+00 0.27092691E+04</pdfrwt>
<totfact> 0.47744880E-01</totfact>
</mgrwt>
</event>
<event>
 6    1  0.1934315E-005  0.2962391E+04  0.7818608E-02  0.8254553E-01
          2   -1    0    0  501    0  0.00000000000E+00  0.00000000000E+00  0.20899166205E+04  0.20899166205E+04  0.00000000000E+00 0.  1.
         -2   -1    0    0    0  501 -0.00000000000E+00 -0.00000000000E+00 -0.10497740376E+04  0.10497740376E+04  0.00000000000E+00 0. -1.
         23    2    1    2    0    0 -0.34188977267E+03  0.18552232510E+03 -0.99209004377E+03  0.10705660609E+04  0.10277103672E+03 0.  0.
         11    1    3    3    0    0 -0.22948330871E+03  0.67205144000E+02 -0.58629939494E+03  0.63318725577E+03  0.00000000000E+00 0. -1.
        -11    1    3    3    0    0 -0.11240646396E+03  0.11831718110E+03 -0.40579064883E+03  0.43737880511E+03  0.00000000000E+00 0.  1.
         22    1    1    2    0    0  0.34188977267E+03 -0.18552232510E+03  0.20322326267E+04  0.20691245972E+04  0.00000000000E+00 0.  1.
<mgrwt>
<rscale>  0 0.29623911E+04</rscale>
<asrwt>0</asrwt>
<pdfrwt beam="1">  1        2 0.32152563E+00 0.29623911E+04</pdfrwt>
<pdfrwt beam="2">  1       -2 0.16150370E+00 0.29623911E+04</pdfrwt>
<totfact> 0.12550780E+00</totfact>
</mgrwt>
</event>
<event>
 6    1  0.1934315E-005  0.3828088E+04  0.7818608E-02  0.8040154E-01
         -2   -1    0    0    0  501 -0.00000000000E+00  0.00000000000E+00  0.10128537859E+04  0.10128537859E+04  0.00000000000E+00 0. -1.
          2   -1    0    0  501    0  0.00000000000E+00 -0.00000000000E+00 -0.36170709587E+04  0.36170709587E+04  0.00000000000E+00 0.  1.
         23    2    1    2    0    0  0.11489963899E+04  0.21505106025E+01  0.54680462932E+03  0.12759516191E+04  0.94127058469E+02 0.  0.
         11    1    3    3    0    0  0.75505173555E+03 -0.16906972586E+02  0.31361587198E+03  0.81776762240E+03  0.00000000000E+00 0. -1.
        -11    1    3    3    0    0  0.39394465431E+03  0.19057483189E+02  0.23318875734E+03  0.45818399675E+03  0.00000000000E+00 0.  1.
         22    1    1    2    0    0 -0.11489963899E+04 -0.21505106025E+01 -0.31510218022E+04  0.33539731255E+04  0.00000000000E+00 0.  1.
<mgrwt>
<rscale>  0 0.38280878E+04</rscale>
<asrwt>0</asrwt>
<pdfrwt beam="1">  1        2 0.55647245E+00 0.38280878E+04</pdfrwt>
<pdfrwt beam="2">  1       -2 0.15582366E+00 0.38280878E+04</pdfrwt>
<totfact> 0.14498503E-01</totfact>
</mgrwt>
</event>
<event>
 6    1  0.1934315E-005  0.2850051E+04  0.7818608E-02  0.8287896E-01
          2   -1    0    0  501    0  0.00000000000E+00  0.00000000000E+00  0.21528098230E+04  0.21528098230E+04  0.00000000000E+00 0.  1.
         -2   -1    0    0    0  501 -0.00000000000E+00 -0.00000000000E+00 -0.94327756289E+03  0.94327756289E+03  0.00000000000E+00 0. -1.
         23    2    1    2    0    0  0.13149468017E+04  0.15138599658E+03  0.11746666670E+04  0.17719958404E+04  0.90136942303E+02 0.  0.
         11    1    3    3    0    0  0.22294984700E+03  0.19658770366E+02  0.24484241421E+03  0.33172414643E+03  0.00000000000E+00 0. -1.
        -11    1    3    3    0    0  0.10919969547E+04  0.13172722621E+03  0.92982425276E+03  0.14402716939E+04  0.00000000000E+00 0.  1.
         22    1    1    2    0    0 -0.13149468017E+04 -0.15138599658E+03  0.34865593136E+02  0.13240915455E+04  0.00000000000E+00 0. -1.
<mgrwt>
<rscale>  0 0.28500507E+04</rscale>
<asrwt>0</asrwt>
<pdfrwt beam="1">  1        2 0.33120151E+00 0.28500507E+04</pdfrwt>
<pdfrwt beam="2">  1       -2 0.14511963E+00 0.28500507E+04</pdfrwt>
<totfact> 0.15552901E+00</totfact>
</mgrwt>
</event>
<event>
 6    1  0.1934315E-005  0.2962471E+04  0.7818608E-02  0.8254529E-01
          2   -1    0    0  501    0  0.00000000000E+00  0.00000000000E+00  0.29851029180E+04  0.29851029180E+04  0.00000000000E+00 0.  1.
         -2   -1    0    0    0  501 -0.00000000000E+00 -0.00000000000E+00 -0.73500272811E+03  0.73500272811E+03  0.00000000000E+00 0. -1.
         23    2    1    2    0    0  0.10482807609E+04  0.51154815965E+03  0.22695098925E+04  0.25535076821E+04  0.95667429153E+02 0.  0.
         13    1    3    3    0    0  0.76319418229E+03  0.36711500982E+03  0.17369255723E+04  0.19323946890E+04  0.00000000000E+00 0. -1.
        -13    1    3    3    0    0  0.28508657856E+03  0.14443314983E+03  0.53258432016E+03  0.62111299304E+03  0.00000000000E+00 0.  1.
         22    1    1    2    0    0 -0.10482807609E+04 -0.51154815965E+03 -0.19409702588E+02  0.11665979641E+04  0.00000000000E+00 0. -1.
<mgrwt>
<rscale>  0 0.29624711E+04</rscale>
<asrwt>0</asrwt>
<pdfrwt beam="1">  1        2 0.45924660E+00 0.29624711E+04</pdfrwt>
<pdfrwt beam="2">  1       -2 0.11307734E+00 0.29624711E+04</pdfrwt>
<totfact> 0.93799798E-01</totfact>
</mgrwt>
</event>
<event>
 6    1  0.1934315E-005  0.1323783E+04  0.7818608E-02  0.9010915E-01
          2   -1    0    0  501    0  0.00000000000E+00  0.00000000000E+00  0.27772522181E+04  0.27772522181E+04  0.00000000000E+00 0.  1.
         -2   -1    0    0    0  501 -0.00000000000E+00 -0.00000000000E+00 -0.15774604348E+03  0.15774604348E+03  0.00000000000E+00 0. -1.
         23    2    1    2    0    0 -0.19373200554E+03 -0.62626787295E+03  0.11666204121E+04  0.13410658359E+04  0.87811455128E+02 0.  0.
         13    1    3    3    0    0 -0.41473338412E+02 -0.28093876033E+03  0.50529677081E+03  0.57963044386E+03  0.00000000000E+00 0.  1.
        -13    1    3    3    0    0 -0.15225866713E+03 -0.34532911262E+03  0.66132364125E+03  0.76143539202E+03  0.00000000000E+00 0. -1.
         22    1    1    2    0    0  0.19373200554E+03  0.62626787295E+03  0.14528857625E+04  0.15939324257E+04  0.00000000000E+00 0.  1.
<mgrwt>
<rscale>  0 0.13237833E+04</rscale>
<asrwt>0</asrwt>
<pdfrwt beam="1">  1        2 0.42726954E+00 0.13237833E+04</pdfrwt>
<pdfrwt beam="2">  1       -2 0.24268624E-01 0.13237833E+04</pdfrwt>
<totfact> 0.35631820E+01</totfact>
</mgrwt>
</event>
<event>
 6    1  0.1934315E-005  0.1737713E+04  0.7818608E-02  0.8740143E-01
          2   -1    0    0  501    0  0.00000000000E+00  0.00000000000E+00  0.13697823462E+04  0.13697823462E+04  0.00000000000E+00 0.  1.
         -2   -1    0    0    0  501 -0.00000000000E+00 -0.00000000000E+00 -0.55111780867E+03  0.55111780867E+03  0.00000000000E+00 0. -1.
         23    2    1    2    0    0  0.85321477712E+03 -0.89227523933E+02  0.53969700115E+03  0.10188137436E+04  0.10378624311E+03 0.  0.
         13    1    3    3    0    0  0.50013984050E+03 -0.68802022935E+01  0.34122443340E+03  0.60549261861E+03  0.00000000000E+00 0.  1.
        -13    1    3    3    0    0  0.35307493661E+03 -0.82347321639E+02  0.19847256775E+03  0.41332112503E+03  0.00000000000E+00 0. -1.
         22    1    1    2    0    0 -0.85321477712E+03  0.89227523933E+02  0.27896753634E+03  0.90208641119E+03  0.00000000000E+00 0.  1.
<mgrwt>
<rscale>  0 0.17377128E+04</rscale>
<asrwt>0</asrwt>
<pdfrwt beam="1">  1        2 0.21073574E+00 0.17377128E+04</pdfrwt>
<pdfrwt beam="2">  1       -2 0.84787355E-01 0.17377128E+04</pdfrwt>
<totfact> 0.17316411E+01</totfact>
</mgrwt>
</event>
<event>
 6    1  0.1934315E-005  0.4001782E+04  0.7818608E-02  0.8004187E-01
         -2   -1    0    0    0  501 -0.00000000000E+00  0.00000000000E+00  0.21570534582E+04  0.21570534582E+04  0.00000000000E+00 0. -1.
          2   -1    0    0  501    0  0.00000000000E+00 -0.00000000000E+00 -0.18560342735E+04  0.18560342735E+04  0.00000000000E+00 0.  1.
         23    2    1    2    0    0  0.15756810724E+04  0.12142055188E+04  0.35656534006E+03  0.20230748525E+04  0.92882362845E+02 0.  0.
         11    1    3    3    0    0  0.14060721713E+04  0.11180182486E+04  0.31816352671E+03  0.18243442067E+04  0.00000000000E+00 0.  1.
        -11    1    3    3    0    0  0.16960890113E+03  0.96187270203E+02  0.38401813346E+02  0.19873064575E+03  0.00000000000E+00 0. -1.
         22    1    1    2    0    0 -0.15756810724E+04 -0.12142055188E+04 -0.55546155371E+02  0.19900128791E+04  0.00000000000E+00 0.  1.
<mgrwt>
<rscale>  0 0.40017822E+04</rscale>
<asrwt>0</asrwt>
<pdfrwt beam="1">  1        2 0.28554373E+00 0.40017822E+04</pdfrwt>
<pdfrwt beam="2">  1       -2 0.33185438E+00 0.40017822E+04</pdfrwt>
<totfact> 0.12805521E-01</totfact>
</mgrwt>
</event>
<event>
 6    1  0.1934315E-005  0.1997170E+04  0.7818608E-02  0.8607945E-01
         -2   -1    0    0    0  501 -0.00000000000E+00  0.00000000000E+00  0.38246301669E+03  0.38246301669E+03  0.00000000000E+00 0. -1.
          2   -1    0    0  501    0  0.00000000000E+00 -0.00000000000E+00 -0.26072377998E+04  0.26072377998E+04  0.00000000000E+00 0.  1.
         23    2    1    2    0    0  0.85182483747E+03  0.12321759305E+03 -0.18661005434E+04  0.20572656503E+04  0.96034310602E+02 0.  0.
         11    1    3    3    0    0  0.54434786305E+03  0.12512310972E+03 -0.12070832997E+04  0.13300452928E+04  0.00000000000E+00 0. -1.
        -11    1    3    3    0    0  0.30747697441E+03 -0.19055166782E+01 -0.65901724370E+03  0.72722035744E+03  0.00000000000E+00 0.  1.
         22    1    1    2    0    0 -0.85182483747E+03 -0.12321759305E+03 -0.35867423974E+03  0.93243516622E+03  0.00000000000E+00 0. -1.
<mgrwt>
<rscale>  0 0.19971700E+04</rscale>
<asrwt>0</asrwt>
<pdfrwt beam="1">  1        2 0.40111351E+00 0.19971700E+04</pdfrwt>
<pdfrwt beam="2">  1       -2 0.58840464E-01 0.19971700E+04</pdfrwt>
<totfact> 0.75646819E+00</totfact>
</mgrwt>
</event>
<event>
 6    1  0.1934315E-005  0.1480693E+04  0.7818608E-02  0.8897395E-01
         -2   -1    0    0    0  501 -0.00000000000E+00  0.00000000000E+00  0.32047404038E+03  0.32047404038E+03  0.00000000000E+00 0. -1.
          2   -1    0    0  501    0  0.00000000000E+00 -0.00000000000E+00 -0.17103186006E+04  0.17103186006E+04  0.00000000000E+00 0.  1.
         23    2    1    2    0    0  0.47093781092E+03  0.39490124948E+03 -0.13796385331E+03  0.63618347604E+03  0.89252292803E+02 0.  0.
         11    1    3    3    0    0  0.16882705386E+03  0.88179348830E+02 -0.46169204289E+02  0.19598409910E+03  0.00000000000E+00 0.  1.
        -11    1    3    3    0    0  0.30211075706E+03  0.30672190065E+03 -0.91794649016E+02  0.44019937694E+03  0.00000000000E+00 0. -1.
         22    1    1    2    0    0 -0.47093781092E+03 -0.39490124948E+03 -0.12518807069E+04  0.13946091649E+04  0.00000000000E+00 0.  1.
<mgrwt>
<rscale>  0 0.14806927E+04</rscale>
<asrwt>0</asrwt>
<pdfrwt beam="1">  1        2 0.26312594E+00 0.14806927E+04</pdfrwt>
<pdfrwt beam="2">  1       -2 0.49303699E-01 0.14806927E+04</pdfrwt>
<totfact> 0.36461488E+01</totfact>
</mgrwt>
</event>
<event>
 6    1  0.1934315E-005  0.1514472E+04  0.7818608E-02  0.8874886E-01
          2   -1    0    0  501    0  0.00000000000E+00  0.00000000000E+00  0.28920738667E+04  0.28920738667E+04  0.00000000000E+00 0.  1.
         -2   -1    0    0    0  501 -0.00000000000E+00 -0.00000000000E+00 -0.19826826752E+03  0.19826826752E+03  0.00000000000E+00 0. -1.
         23    2    1    2    0    0  0.52982618549E+02  0.30632818824E+02  0.28862514932E+04  0.28883991978E+04  0.93041478190E+02 0.  0.
         13    1    3    3    0    0  0.20082985663E+02 -0.29580259797E+02  0.56264530973E+03  0.56378015453E+03  0.00000000000E+00 0.  1.
        -13    1    3    3    0    0  0.32899632886E+02  0.60213078622E+02  0.23236061835E+04  0.23246190433E+04  0.00000000000E+00 0. -1.
         22    1    1    2    0    0 -0.52982618549E+02 -0.30632818824E+02 -0.19244589398E+03  0.20194293642E+03  0.00000000000E+00 0. -1.
<mgrwt>
<rscale>  0 0.15144722E+04</rscale>
<asrwt>0</asrwt>
<pdfrwt beam="1">  1        2 0.44493441E+00 0.15144722E+04</pdfrwt>
<pdfrwt beam="2">  1       -2 0.30502812E-01 0.15144722E+04</pdfrwt>
<totfact> 0.19609599E+01</totfact>
</mgrwt>
</event>
<event>
 6    1  0.1934315E-005  0.1941809E+04  0.7818608E-02  0.8634321E-01
          2   -1    0    0  501    0  0.00000000000E+00  0.00000000000E+00  0.14102466082E+04  0.14102466082E+04  0.00000000000E+00 0.  1.
         -2   -1    0    0    0  501 -0.00000000000E+00 -0.00000000000E+00 -0.66843328840E+03  0.66843328840E+03  0.00000000000E+00 0. -1.
         23    2    1    2    0    0 -0.45829721687E+02 -0.32780105839E+03  0.13460986890E+04  0.13896844651E+04  0.98424259803E+02 0.  0.
         13    1    3    3    0    0 -0.54821834628E+01 -0.18621686227E+03  0.92550752176E+03  0.94407147344E+03  0.00000000000E+00 0. -1.
        -13    1    3    3    0    0 -0.40347538224E+02 -0.14158419612E+03  0.42059116722E+03  0.44561299170E+03  0.00000000000E+00 0.  1.
         22    1    1    2    0    0  0.45829721687E+02  0.32780105839E+03 -0.60428536914E+03  0.68899543150E+03  0.00000000000E+00 0. -1.
<mgrwt>
<rscale>  0 0.19418092E+04</rscale>
<asrwt>0</asrwt>
<pdfrwt beam="1">  1        2 0.21696102E+00 0.19418092E+04</pdfrwt>
<pdfrwt beam="2">  1       -2 0.10283589E+00 0.19418092E+04</pdfrwt>
<totfact> 0.10298784E+01</totfact>
</mgrwt>
</event>
<event>
 6    1  0.1934315E-005  0.2087031E+04  0.7818608E-02  0.8566978E-01
          2   -1    0    0  501    0  0.00000000000E+00  0.00000000000E+00  0.15208379205E+04  0.15208379205E+04  0.00000000000E+00 0.  1.
         -2   -1    0    0    0  501 -0.00000000000E+00 -0.00000000000E+00 -0.71600304728E+03  0.71600304728E+03  0.00000000000E+00 0. -1.
         23    2    1    2    0    0 -0.72641788152E+03  0.39065132240E+03 -0.27826380621E+03  0.87544677663E+03  0.93192910587E+02 0.  0.
         13    1    3    3    0    0 -0.27989738639E+03  0.16427342782E+03 -0.15608598408E+03  0.36012656168E+03  0.00000000000E+00 0.  1.
        -13    1    3    3    0    0 -0.44652049513E+03  0.22637789458E+03 -0.12217782213E+03  0.51532021496E+03  0.00000000000E+00 0. -1.
         22    1    1    2    0    0  0.72641788152E+03 -0.39065132240E+03  0.10830986794E+04  0.13613941911E+04  0.00000000000E+00 0. -1.
<mgrwt>
<rscale>  0 0.20870310E+04</rscale>
<asrwt>0</asrwt>
<pdfrwt beam="1">  1        2 0.23397506E+00 0.20870310E+04</pdfrwt>
<pdfrwt beam="2">  1       -2 0.11015432E+00 0.20870310E+04</pdfrwt>
<totfact> 0.74639062E+00</totfact>
</mgrwt>
</event>
<event>
 6    1  0.1934315E-005  0.1520384E+04  0.7818608E-02  0.8871010E-01
          2   -1    0    0  501    0  0.00000000000E+00  0.00000000000E+00  0.13036778117E+04  0.13036778117E+04  0.00000000000E+00 0.  1.
         -2   -1    0    0    0  501 -0.00000000000E+00 -0.00000000000E+00 -0.44327810011E+03  0.44327810011E+03  0.00000000000E+00 0. -1.
         23    2    1    2    0    0 -0.32867559964E+03 -0.28068189539E+03 -0.28344681150E+03  0.52417431047E+03  0.87216034079E+02 0.  0.
         13    1    3    3    0    0 -0.22547717180E+03 -0.15261072358E+03 -0.14111726480E+03  0.30666605678E+03  0.00000000000E+00 0.  1.
        -13    1    3    3    0    0 -0.10319842784E+03 -0.12807117181E+03 -0.14232954670E+03  0.21750825369E+03  0.00000000000E+00 0. -1.
         22    1    1    2    0    0  0.32867559964E+03  0.28068189539E+03  0.11438465231E+04  0.12227816013E+04  0.00000000000E+00 0.  1.
<mgrwt>
<rscale>  0 0.15203839E+04</rscale>
<asrwt>0</asrwt>
<pdfrwt beam="1">  1        2 0.20056581E+00 0.15203839E+04</pdfrwt>
<pdfrwt beam="2">  1       -2 0.68196632E-01 0.15203839E+04</pdfrwt>
<totfact> 0.31227981E+01</totfact>
</mgrwt>
</event>
<event>
 6    1  0.1934315E-005  0.4848342E+04  0.7818608E-02  0.7852337E-01
         -2   -1    0    0    0  501 -0.00000000000E+00  0.00000000000E+00  0.20254189828E+04  0.20254189828E+04  0.00000000000E+00 0. -1.
          2   -1    0    0  501    0  0.00000000000E+00 -0.00000000000E+00 -0.29014270954E+04  0.29014270954E+04  0.00000000000E+00 0.  1.
         23    2    1    2    0    0 -0.33807721486E+03  0.56150762512E+03  0.19326381587E+04  0.20427377423E+04  0.90001194833E+02 0.  0.
         11    1    3    3    0    0 -0.27767841119E+03  0.48208730969E+03  0.17224667689E+04  0.18100843196E+04  0.00000000000E+00 0.  1.
        -11    1    3    3    0    0 -0.60398803671E+02  0.79420315434E+02  0.21017138976E+03  0.23265342263E+03  0.00000000000E+00 0. -1.
         22    1    1    2    0    0  0.33807721486E+03 -0.56150762512E+03 -0.28086462712E+04  0.28841083359E+04  0.00000000000E+00 0.  1.
<mgrwt>
<rscale>  0 0.48483422E+04</rscale>
<asrwt>0</asrwt>
<pdfrwt beam="1">  1        2 0.44637340E+00 0.48483422E+04</pdfrwt>
<pdfrwt beam="2">  1       -2 0.31160292E+00 0.48483422E+04</pdfrwt>
<totfact> 0.39839385E-02</totfact>
</mgrwt>
</event>
<event>
 6    1  0.1934315E-005  0.2779754E+04  0.7818608E-02  0.8309582E-01
          2   -1    0    0  501    0  0.00000000000E+00  0.00000000000E+00  0.14783915436E+04  0.14783915436E+04  0.00000000000E+00 0.  1.
         -2   -1    0    0    0  501 -0.00000000000E+00 -0.00000000000E+00 -0.13066615750E+04  0.13066615750E+04  0.00000000000E+00 0. -1.
         23    2    1    2    0    0  0.13753791750E+04  0.54835878467E+00  0.27596348093E+03  0.14057298059E+04  0.90841997619E+02 0.  0.
         13    1    3    3    0    0  0.52642850367E+03  0.25407972623E+02  0.68782830845E+02  0.53151068885E+03  0.00000000000E+00 0. -1.
        -13    1    3    3    0    0  0.84895067138E+03 -0.24859613838E+02  0.20718065008E+03  0.87421911704E+03  0.00000000000E+00 0.  1.
         22    1    1    2    0    0 -0.13753791750E+04 -0.54835878467E+00 -0.10423351241E+03  0.13793233127E+04  0.00000000000E+00 0. -1.
<mgrwt>
<rscale>  0 0.27797535E+04</rscale>
<asrwt>0</asrwt>
<pdfrwt beam="1">  1        2 0.22744485E+00 0.27797535E+04</pdfrwt>
<pdfrwt beam="2">  1       -2 0.20102486E+00 0.27797535E+04</pdfrwt>
<totfact> 0.14904105E+00</totfact>
</mgrwt>
</event>
<event>
 6    1  0.1934315E-005  0.5100644E+04  0.7818608E-02  0.7813167E-01
         -2   -1    0    0    0  501 -0.00000000000E+00  0.00000000000E+00  0.27923738325E+04  0.27923738325E+04  0.00000000000E+00 0. -1.
          2   -1    0    0  501    0  0.00000000000E+00 -0.00000000000E+00 -0.23292518779E+04  0.23292518779E+04  0.00000000000E+00 0.  1.
         23    2    1    2    0    0  0.37067916074E+03  0.11810170547E+04 -0.20064201596E+04  0.23592277345E+04  0.89606487802E+02 0.  0.
         13    1    3    3    0    0  0.15825006135E+03  0.55161108750E+03 -0.84974505780E+03  0.10253704389E+04  0.00000000000E+00 0. -1.
        -13    1    3    3    0    0  0.21242909939E+03  0.62940596723E+03 -0.11566751018E+04  0.13338572956E+04  0.00000000000E+00 0.  1.
         22    1    1    2    0    0 -0.37067916074E+03 -0.11810170547E+04  0.24695421142E+04  0.27623979760E+04  0.00000000000E+00 0. -1.
<mgrwt>
<rscale>  0 0.51006439E+04</rscale>
<asrwt>0</asrwt>
<pdfrwt beam="1">  1        2 0.35834644E+00 0.51006439E+04</pdfrwt>
<pdfrwt beam="2">  1       -2 0.42959597E+00 0.51006439E+04</pdfrwt>
<totfact> 0.14957669E-02</totfact>
</mgrwt>
</event>
<event>
 6    1  0.1934315E-005  0.2206351E+04  0.7818608E-02  0.8515789E-01
         -2   -1    0    0    0  501 -0.00000000000E+00  0.00000000000E+00  0.46903356131E+03  0.46903356131E+03  0.00000000000E+00 0. -1.
          2   -1    0    0  501    0  0.00000000000E+00 -0.00000000000E+00 -0.25946882110E+04  0.25946882110E+04  0.00000000000E+00 0.  1.
         23    2    1    2    0    0  0.37920491724E+03 -0.68774745548E+03 -0.21366858089E+04  0.22782826478E+04  0.91392808716E+02 0.  0.
         11    1    3    3    0    0  0.31080759846E+03 -0.61542120673E+03 -0.18145700841E+04  0.19411360630E+04  0.00000000000E+00 0. -1.
        -11    1    3    3    0    0  0.68397318784E+02 -0.72326248753E+02 -0.32211572479E+03  0.33714658478E+03  0.00000000000E+00 0.  1.
         22    1    1    2    0    0 -0.37920491724E+03  0.68774745548E+03  0.11031159257E+02  0.78543912448E+03  0.00000000000E+00 0. -1.
<mgrwt>
<rscale>  0 0.22063507E+04</rscale>
<asrwt>0</asrwt>
<pdfrwt beam="1">  1        2 0.39918280E+00 0.22063507E+04</pdfrwt>
<pdfrwt beam="2">  1       -2 0.72159011E-01 0.22063507E+04</pdfrwt>
<totfact> 0.48709158E+00</totfact>
</mgrwt>
</event>
<event>
 6    1  0.1934315E-005  0.3582564E+04  0.7818608E-02  0.8094497E-01
          2   -1    0    0  501    0  0.00000000000E+00  0.00000000000E+00  0.18715280742E+04  0.18715280742E+04  0.00000000000E+00 0.  1.
         -2   -1    0    0    0  501 -0.00000000000E+00 -0.00000000000E+00 -0.17144765050E+04  0.17144765050E+04  0.00000000000E+00 0. -1.
         23    2    1    2    0    0  0.25973431704E+03  0.17657202989E+04 -0.61349845033E+02  0.17879697444E+04  0.88554582034E+02 0.  0.
         13    1    3    3    0    0  0.18352201543E+03  0.12797443661E+04 -0.83733659375E+02  0.12955451742E+04  0.00000000000E+00 0. -1.
        -13    1    3    3    0    0  0.76212301614E+02  0.48597593278E+03  0.22383814342E+02  0.49242457017E+03  0.00000000000E+00 0.  1.
         22    1    1    2    0    0 -0.25973431704E+03 -0.17657202989E+04  0.21840141417E+03  0.17980348348E+04  0.00000000000E+00 0. -1.
<mgrwt>
<rscale>  0 0.35825638E+04</rscale>
<asrwt>0</asrwt>
<pdfrwt beam="1">  1        2 0.28792740E+00 0.35825638E+04</pdfrwt>
<pdfrwt beam="2">  1       -2 0.26376561E+00 0.35825638E+04</pdfrwt>
<totfact> 0.34009979E-01</totfact>
</mgrwt>
</event>
<event>
 6    1  0.1934315E-005  0.2339126E+04  0.7818608E-02  0.8462652E-01
         -1   -1    0    0    0  501 -0.00000000000E+00  0.00000000000E+00  0.61826270528E+03  0.61826270528E+03  0.00000000000E+00 0.  1.
          1   -1    0    0  501    0  0.00000000000E+00 -0.00000000000E+00 -0.22124532214E+04  0.22124532214E+04  0.00000000000E+00 0. -1.
         23    2    1    2    0    0  0.79216616650E+03 -0.75583832251E+03 -0.30707323418E+03  0.11408964977E+04  0.92369054204E+02 0.  0.
         11    1    3    3    0    0  0.30520791859E+03 -0.24080186158E+03 -0.82993132107E+02  0.39752392392E+03  0.00000000000E+00 0.  1.
        -11    1    3    3    0    0  0.48695824791E+03 -0.51503646093E+03 -0.22408010207E+03  0.74337257377E+03  0.00000000000E+00 0. -1.
         22    1    1    2    0    0 -0.79216616650E+03  0.75583832251E+03 -0.12871172819E+04  0.16898194290E+04  0.00000000000E+00 0.  1.
<mgrwt>
<rscale>  0 0.23391257E+04</rscale>
<asrwt>0</asrwt>
<pdfrwt beam="1">  1        1 0.34037742E+00 0.23391257E+04</pdfrwt>
<pdfrwt beam="2">  1       -1 0.95117338E-01 0.23391257E+04</pdfrwt>
<totfact> 0.20544842E+00</totfact>
</mgrwt>
</event>
<event>
 6    1  0.1934315E-005  0.2044960E+04  0.7818608E-02  0.8585884E-01
         -2   -1    0    0    0  501 -0.00000000000E+00  0.00000000000E+00  0.32050869768E+03  0.32050869768E+03  0.00000000000E+00 0.  1.
          2   -1    0    0  501    0  0.00000000000E+00 -0.00000000000E+00 -0.32618933854E+04  0.32618933854E+04  0.00000000000E+00 0. -1.
         23    2    1    2    0    0 -0.13569225860E+03 -0.67280309420E+03 -0.15033986878E+03  0.70820522588E+03  0.88747806853E+02 0.  0.
         11    1    3    3    0    0 -0.77705110425E+02 -0.20681166031E+03 -0.70330566548E+02  0.23185240050E+03  0.00000000000E+00 0.  1.
        -11    1    3    3    0    0 -0.57987148177E+02 -0.46599143389E+03 -0.80009302228E+02  0.47635282538E+03  0.00000000000E+00 0. -1.
         22    1    1    2    0    0  0.13569225860E+03  0.67280309420E+03 -0.27910448190E+04  0.28741968572E+04  0.00000000000E+00 0. -1.
<mgrwt>
<rscale>  0 0.20449599E+04</rscale>
<asrwt>0</asrwt>
<pdfrwt beam="1">  1        2 0.50182977E+00 0.20449599E+04</pdfrwt>
<pdfrwt beam="2">  1       -2 0.49309028E-01 0.20449599E+04</pdfrwt>
<totfact> 0.42703624E+00</totfact>
</mgrwt>
</event>
<event>
 6    1  0.1934315E-005  0.3261830E+04  0.7818608E-02  0.8172676E-01
         -1   -1    0    0    0  501 -0.00000000000E+00  0.00000000000E+00  0.16183443370E+04  0.16183443370E+04  0.00000000000E+00 0. -1.
          1   -1    0    0  501    0  0.00000000000E+00 -0.00000000000E+00 -0.16435831181E+04  0.16435831181E+04  0.00000000000E+00 0.  1.
         23    2    1    2    0    0 -0.17417094558E+03 -0.15173179078E+04 -0.58037166012E+03  0.16368854049E+04  0.99866978634E+02 0.  0.
         13    1    3    3    0    0 -0.61592721226E+02 -0.79096304651E+03 -0.34464721603E+03  0.86498433961E+03  0.00000000000E+00 0. -1.
        -13    1    3    3    0    0 -0.11257822435E+03 -0.72635486129E+03 -0.23572444410E+03  0.77190106533E+03  0.00000000000E+00 0.  1.
         22    1    1    2    0    0  0.17417094558E+03  0.15173179078E+04  0.55513287898E+03  0.16250420502E+04  0.00000000000E+00 0. -1.
<mgrwt>
<rscale>  0 0.32618298E+04</rscale>
<asrwt>0</asrwt>
<pdfrwt beam="1">  1        1 0.25285894E+00 0.32618298E+04</pdfrwt>
<pdfrwt beam="2">  1       -1 0.24897605E+00 0.32618298E+04</pdfrwt>
<totfact> 0.30694737E-01</totfact>
</mgrwt>
</event>
<event>
 6    1  0.1934315E-005  0.1522751E+04  0.7818608E-02  0.8869463E-01
         -2   -1    0    0    0  501 -0.00000000000E+00  0.00000000000E+00  0.25065827966E+03  0.25065827966E+03  0.00000000000E+00 0. -1.
          2   -1    0    0  501    0  0.00000000000E+00 -0.00000000000E+00 -0.23126819567E+04  0.23126819567E+04  0.00000000000E+00 0.  1.
         23    2    1    2    0    0 -0.71395869142E+03  0.58881094672E+02 -0.61272785771E+03  0.94665771703E+03  0.86726058525E+02 0.  0.
         13    1    3    3    0    0 -0.51224909767E+03  0.15954520574E+02 -0.47418308588E+03  0.69821435371E+03  0.00000000000E+00 0.  1.
        -13    1    3    3    0    0 -0.20170959375E+03  0.42926574098E+02 -0.13854477183E+03  0.24844336332E+03  0.00000000000E+00 0. -1.
         22    1    1    2    0    0  0.71395869142E+03 -0.58881094672E+02 -0.14492958193E+04  0.16166825193E+04  0.00000000000E+00 0.  1.
<mgrwt>
<rscale>  0 0.15227513E+04</rscale>
<asrwt>0</asrwt>
<pdfrwt beam="1">  1        2 0.35579723E+00 0.15227513E+04</pdfrwt>
<pdfrwt beam="2">  1       -2 0.38562811E-01 0.15227513E+04</pdfrwt>
<totfact> 0.27363676E+01</totfact>
</mgrwt>
</event>
<event>
 6    1  0.1934315E-005  0.1043346E+04  0.7818608E-02  0.9262241E-01
          2   -1    0    0  501    0  0.00000000000E+00  0.00000000000E+00  0.10675464141E+04  0.10675464141E+04  0.00000000000E+00 0.  1.
         -2   -1    0    0    0  501 -0.00000000000E+00 -0.00000000000E+00 -0.25492358185E+03  0.25492358185E+03  0.00000000000E+00 0. -1.
         23    2    1    2    0    0 -0.20888135001E+01 -0.51679465791E+03  0.36341458656E+03  0.63772980465E+03  0.86879574272E+02 0.  0.
         13    1    3    3    0    0  0.11320716295E+02 -0.24548240056E+03  0.22346837125E+03  0.33215640977E+03  0.00000000000E+00 0. -1.
        -13    1    3    3    0    0 -0.13409529795E+02 -0.27131225735E+03  0.13994621531E+03  0.30557339488E+03  0.00000000000E+00 0.  1.
         22    1    1    2    0    0  0.20888135001E+01  0.51679465791E+03  0.44920824570E+03  0.68474019131E+03  0.00000000000E+00 0.  1.
<mgrwt>
<rscale>  0 0.10433461E+04</rscale>
<asrwt>0</asrwt>
<pdfrwt beam="1">  1        2 0.16423791E+00 0.10433461E+04</pdfrwt>
<pdfrwt beam="2">  1       -2 0.39219013E-01 0.10433461E+04</pdfrwt>
<totfact> 0.13961021E+02</totfact>
</mgrwt>
</event>
<event>
 6    1  0.1934315E-005  0.2036969E+04  0.7818608E-02  0.8589529E-01
         -2   -1    0    0    0  501 -0.00000000000E+00  0.00000000000E+00  0.70257155743E+03  0.70257155743E+03  0.00000000000E+00 0. -1.
          2   -1    0    0  501    0  0.00000000000E+00 -0.00000000000E+00 -0.14764490556E+04  0.14764490556E+04  0.00000000000E+00 0.  1.
         23    2    1    2    0    0 -0.19246513037E+03  0.57501406197E+03  0.48498248779E+03  0.78173307565E+03  0.90634376669E+02 0.  0.
         11    1    3    3    0    0 -0.15726280991E+03  0.49756840640E+03  0.45241608555E+03  0.69064189338E+03  0.00000000000E+00 0. -1.
        -11    1    3    3    0    0 -0.35202320465E+02  0.77445655568E+02  0.32566402236E+02  0.91091182268E+02  0.00000000000E+00 0.  1.
         22    1    1    2    0    0  0.19246513037E+03 -0.57501406197E+03 -0.12588599859E+04  0.13972875374E+04  0.00000000000E+00 0.  1.
<mgrwt>
<rscale>  0 0.20369694E+04</rscale>
<asrwt>0</asrwt>
<pdfrwt beam="1">  1        2 0.22714601E+00 0.20369694E+04</pdfrwt>
<pdfrwt beam="2">  1       -2 0.10808793E+00 0.20369694E+04</pdfrwt>
<totfact> 0.83125995E+00</totfact>
</mgrwt>
</event>
<event>
 6    1  0.1934315E-005  0.1097799E+04  0.7818608E-02  0.9207339E-01
          1   -1    0    0  501    0  0.00000000000E+00  0.00000000000E+00  0.56055183017E+03  0.56055183017E+03  0.00000000000E+00 0. -1.
         -1   -1    0    0    0  501 -0.00000000000E+00 -0.00000000000E+00 -0.53748986886E+03  0.53748986886E+03  0.00000000000E+00 0.  1.
         23    2    1    2    0    0  0.76308821794E+02  0.22139168625E+03 -0.48106026118E+03  0.54218512560E+03  0.87797611028E+02 0.  0.
         11    1    3    3    0    0  0.29234848122E+02  0.42833909831E+02 -0.19438867234E+03  0.20118741538E+03  0.00000000000E+00 0. -1.
        -11    1    3    3    0    0  0.47073973672E+02  0.17855777642E+03 -0.28667158885E+03  0.34099771021E+03  0.00000000000E+00 0.  1.
         22    1    1    2    0    0 -0.76308821794E+02 -0.22139168625E+03  0.50412222249E+03  0.55585657344E+03  0.00000000000E+00 0. -1.
<mgrwt>
<rscale>  0 0.10977995E+04</rscale>
<asrwt>0</asrwt>
<pdfrwt beam="1">  1        1 0.86238743E-01 0.10977995E+04</pdfrwt>
<pdfrwt beam="2">  1       -1 0.82690749E-01 0.10977995E+04</pdfrwt>
<totfact> 0.54715166E+01</totfact>
</mgrwt>
</event>
<event>
 6    1  0.1934315E-005  0.2709730E+04  0.7818608E-02  0.8331855E-01
          2   -1    0    0  501    0  0.00000000000E+00  0.00000000000E+00  0.14580777892E+04  0.14580777892E+04  0.00000000000E+00 0.  1.
         -2   -1    0    0    0  501 -0.00000000000E+00 -0.00000000000E+00 -0.12589578670E+04  0.12589578670E+04  0.00000000000E+00 0. -1.
         23    2    1    2    0    0 -0.36092243399E+03 -0.46110331358E+03  0.13230431648E+04  0.14497216760E+04  0.91479247651E+02 0.  0.
         11    1    3    3    0    0 -0.20309687324E+03 -0.21192851372E+03  0.57404155012E+03  0.64473695110E+03  0.00000000000E+00 0.  1.
        -11    1    3    3    0    0 -0.15782556075E+03 -0.24917479987E+03  0.74900161464E+03  0.80498472486E+03  0.00000000000E+00 0. -1.
         22    1    1    2    0    0  0.36092243399E+03  0.46110331358E+03 -0.11239232426E+04  0.12673139802E+04  0.00000000000E+00 0. -1.
<mgrwt>
<rscale>  0 0.27097295E+04</rscale>
<asrwt>0</asrwt>
<pdfrwt beam="1">  1        2 0.22431966E+00 0.27097295E+04</pdfrwt>
<pdfrwt beam="2">  1       -2 0.19368583E+00 0.27097295E+04</pdfrwt>
<totfact> 0.17213199E+00</totfact>
</mgrwt>
</event>
<event>
 6    1  0.1934315E-005  0.5749993E+03  0.7818608E-02  0.9958676E-01
         -2   -1    0    0    0  501 -0.00000000000E+00  0.00000000000E+00  0.11404880548E+04  0.11404880548E+04  0.00000000000E+00 0. -1.
          2   -1    0    0  501    0  0.00000000000E+00 -0.00000000000E+00 -0.72474290109E+02  0.72474290109E+02  0.00000000000E+00 0.  1.
         23    2    1    2    0    0  0.21685350066E+03 -0.17655962524E+03  0.58032142617E+03  0.65078571869E+03  0.92468113272E+02 0.  0.
         13    1    3    3    0    0  0.16048590883E+03 -0.11307941292E+03  0.30543301462E+03  0.36308677610E+03  0.00000000000E+00 0.  1.
        -13    1    3    3    0    0  0.56367591823E+02 -0.63480212324E+02  0.27488841155E+03  0.28769894259E+03  0.00000000000E+00 0. -1.
         22    1    1    2    0    0 -0.21685350066E+03  0.17655962524E+03  0.48769233854E+03  0.56217662623E+03  0.00000000000E+00 0. -1.
<mgrwt>
<rscale>  0 0.57499935E+03</rscale>
<asrwt>0</asrwt>
<pdfrwt beam="1">  1        2 0.11149892E-01 0.57499935E+03</pdfrwt>
<pdfrwt beam="2">  1       -2 0.17545969E+00 0.57499935E+03</pdfrwt>
<totfact> 0.11534411E+02</totfact>
</mgrwt>
</event>
<event>
 6    1  0.2862894E-005  0.2844298E+04  0.7818608E-02  0.8289646E-01
         -2   -1    0    0    0  501 -0.00000000000E+00  0.00000000000E+00  0.10533824917E+04  0.10533824917E+04  0.00000000000E+00 0. -1.
          2   -1    0    0  501    0  0.00000000000E+00 -0.00000000000E+00 -0.19200120795E+04  0.19200120795E+04  0.00000000000E+00 0.  1.
         23    2    1    2    0    0  0.76104882379E+03 -0.11774419551E+04 -0.19348979350E+03  0.14181833147E+04  0.90778544358E+02 0.  0.
         13    1    3    3    0    0  0.30795531603E+03 -0.46893011425E+03 -0.32795020388E+02  0.56196747423E+03  0.00000000000E+00 0.  1.
        -13    1    3    3    0    0  0.45309350776E+03 -0.70851184083E+03 -0.16069477311E+03  0.85621584047E+03  0.00000000000E+00 0. -1.
         22    1    1    2    0    0 -0.76104882379E+03  0.11774419551E+04 -0.67313979428E+03  0.15552112565E+04  0.00000000000E+00 0. -1.
<mgrwt>
<rscale>  0 0.28442975E+04</rscale>
<asrwt>0</asrwt>
<pdfrwt beam="1">  1        2 0.29538647E+00 0.28442975E+04</pdfrwt>
<pdfrwt beam="2">  1       -2 0.16205884E+00 0.28442975E+04</pdfrwt>
<totfact> 0.15611353E+00</totfact>
</mgrwt>
</event>
<event>
 6    1  0.1934315E-005  0.1013170E+04  0.7818608E-02  0.9294217E-01
         -2   -1    0    0    0  501 -0.00000000000E+00  0.00000000000E+00  0.27558633555E+03  0.27558633555E+03  0.00000000000E+00 0. -1.
          2   -1    0    0  501    0  0.00000000000E+00 -0.00000000000E+00 -0.93120891298E+03  0.93120891298E+03  0.00000000000E+00 0.  1.
         23    2    1    2    0    0  0.11423138725E+03 -0.46444172626E+03 -0.14720607720E+03  0.50876783887E+03  0.91761417725E+02 0.  0.
         13    1    3    3    0    0  0.30183509291E+02 -0.28424966539E+03 -0.62243322733E+02  0.29254597542E+03  0.00000000000E+00 0.  1.
        -13    1    3    3    0    0  0.84047877958E+02 -0.18019206086E+03 -0.84962754467E+02  0.21622186345E+03  0.00000000000E+00 0. -1.
         22    1    1    2    0    0 -0.11423138725E+03  0.46444172626E+03 -0.50841650024E+03  0.69802740966E+03  0.00000000000E+00 0. -1.
<mgrwt>
<rscale>  0 0.10131702E+04</rscale>
<asrwt>0</asrwt>
<pdfrwt beam="1">  1        2 0.14326291E+00 0.10131702E+04</pdfrwt>
<pdfrwt beam="2">  1       -2 0.42397898E-01 0.10131702E+04</pdfrwt>
<totfact> 0.14689706E+02</totfact>
</mgrwt>
</event>
<event>
 6    1  0.1934315E-005  0.8133722E+03  0.7818608E-02  0.9540861E-01
         -1   -1    0    0    0  501 -0.00000000000E+00  0.00000000000E+00  0.80404912766E+03  0.80404912766E+03  0.00000000000E+00 0. -1.
          1   -1    0    0  501    0  0.00000000000E+00 -0.00000000000E+00 -0.20570085283E+03  0.20570085283E+03  0.00000000000E+00 0.  1.
         23    2    1    2    0    0  0.25992340002E+03 -0.25504032590E+03  0.51348732062E+03  0.63584207303E+03  0.89555411253E+02 0.  0.
         13    1    3    3    0    0  0.19262352413E+02 -0.39621661224E+02  0.11335755975E+03  0.12161764104E+03  0.00000000000E+00 0. -1.
        -13    1    3    3    0    0  0.24066104761E+03 -0.21541866468E+03  0.40012976087E+03  0.51422443200E+03  0.00000000000E+00 0.  1.
         22    1    1    2    0    0 -0.25992340002E+03  0.25504032590E+03  0.84860954207E+02  0.37390790746E+03  0.00000000000E+00 0.  1.
<mgrwt>
<rscale>  0 0.81337222E+03</rscale>
<asrwt>0</asrwt>
<pdfrwt beam="1">  1        1 0.31646285E-01 0.81337222E+03</pdfrwt>
<pdfrwt beam="2">  1       -1 0.12369986E+00 0.81337222E+03</pdfrwt>
<totfact> 0.83411095E+01</totfact>
</mgrwt>
</event>
<event>
 6    1  0.1934315E-005  0.2742395E+04  0.7818608E-02  0.8321379E-01
          2   -1    0    0  501    0  0.00000000000E+00  0.00000000000E+00  0.28338990216E+04  0.28338990216E+04  0.00000000000E+00 0.  1.
         -2   -1    0    0    0  501 -0.00000000000E+00 -0.00000000000E+00 -0.66346134285E+03  0.66346134285E+03  0.00000000000E+00 0. -1.
         23    2    1    2    0    0  0.90680616684E+03 -0.16128658353E+03  0.23792371648E+04  0.25529515486E+04  0.92094171980E+02 0.  0.
         11    1    3    3    0    0  0.48137764337E+03 -0.10205374256E+03  0.13882423489E+04  0.14728734573E+04  0.00000000000E+00 0. -1.
        -11    1    3    3    0    0  0.42542852347E+03 -0.59232840977E+02  0.99099481592E+03  0.10800780913E+04  0.00000000000E+00 0.  1.
         22    1    1    2    0    0 -0.90680616684E+03  0.16128658353E+03 -0.20879948603E+03  0.94440881594E+03  0.00000000000E+00 0. -1.
<mgrwt>
<rscale>  0 0.27423949E+04</rscale>
<asrwt>0</asrwt>
<pdfrwt beam="1">  1        2 0.43598446E+00 0.27423949E+04</pdfrwt>
<pdfrwt beam="2">  1       -2 0.10207098E+00 0.27423949E+04</pdfrwt>
<totfact> 0.15161554E+00</totfact>
</mgrwt>
</event>
<event>
 6    1  0.1934315E-005  0.3946066E+04  0.7818608E-02  0.8015516E-01
         -2   -1    0    0    0  501 -0.00000000000E+00  0.00000000000E+00  0.14597093697E+04  0.14597093697E+04  0.00000000000E+00 0. -1.
          2   -1    0    0  501    0  0.00000000000E+00 -0.00000000000E+00 -0.26668726907E+04  0.26668726907E+04  0.00000000000E+00 0.  1.
         23    2    1    2    0    0 -0.20920124536E+03  0.19413190608E+04 -0.31574476353E+03  0.19801636712E+04  0.94172992095E+02 0.  0.
         11    1    3    3    0    0 -0.84975189730E+02  0.44634364906E+03 -0.89029087239E+02  0.46300066339E+03  0.00000000000E+00 0. -1.
        -11    1    3    3    0    0 -0.12422605563E+03  0.14949754117E+04 -0.22671567630E+03  0.15171630078E+04  0.00000000000E+00 0.  1.
         22    1    1    2    0    0  0.20920124536E+03 -0.19413190608E+04 -0.89141855748E+03  0.21464183892E+04  0.00000000000E+00 0. -1.
<mgrwt>
<rscale>  0 0.39460659E+04</rscale>
<asrwt>0</asrwt>
<pdfrwt beam="1">  1        2 0.41028811E+00 0.39460659E+04</pdfrwt>
<pdfrwt beam="2">  1       -2 0.22457067E+00 0.39460659E+04</pdfrwt>
<totfact> 0.20357592E-01</totfact>
</mgrwt>
</event>
<event>
 6    1  0.1934315E-005  0.5241018E+04  0.7818608E-02  0.7792367E-01
         -2   -1    0    0    0  501 -0.00000000000E+00  0.00000000000E+00  0.31440414101E+04  0.31440414101E+04  0.00000000000E+00 0. -1.
          2   -1    0    0  501    0  0.00000000000E+00 -0.00000000000E+00 -0.21841528136E+04  0.21841528136E+04  0.00000000000E+00 0.  1.
         23    2    1    2    0    0 -0.13445071816E+04  0.12783565300E+04  0.23604695782E+04  0.30036465117E+04  0.90447545176E+02 0.  0.
         13    1    3    3    0    0 -0.57850967864E+03  0.50548873408E+03  0.10266970214E+04  0.12823022586E+04  0.00000000000E+00 0.  1.
        -13    1    3    3    0    0 -0.76599750292E+03  0.77286779593E+03  0.13337725568E+04  0.17213442531E+04  0.00000000000E+00 0. -1.
         22    1    1    2    0    0  0.13445071816E+04 -0.12783565300E+04 -0.14005809817E+04  0.23245477120E+04  0.00000000000E+00 0.  1.
<mgrwt>
<rscale>  0 0.52410178E+04</rscale>
<asrwt>0</asrwt>
<pdfrwt beam="1">  1        2 0.33602351E+00 0.52410178E+04</pdfrwt>
<pdfrwt beam="2">  1       -2 0.48369868E+00 0.52410178E+04</pdfrwt>
<totfact> 0.79210885E-03</totfact>
</mgrwt>
</event>
<event>
 6    1  0.1934315E-005  0.5823347E+03  0.7818608E-02  0.9942749E-01
          4   -1    0    0  501    0  0.00000000000E+00  0.00000000000E+00  0.27784815433E+03  0.27784815433E+03  0.00000000000E+00 0.  1.
         -4   -1    0    0    0  501 -0.00000000000E+00 -0.00000000000E+00 -0.30512497748E+03  0.30512497748E+03  0.00000000000E+00 0. -1.
         23    2    1    2    0    0 -0.73347341147E+02  0.29424680137E+02 -0.28721952470E+03  0.31128240259E+03  0.90310766460E+02 0.  0.
         11    1    3    3    0    0  0.14427586818E+02 -0.11260751419E+02 -0.20105957987E+02  0.27188404339E+02  0.00000000000E+00 0. -1.
        -11    1    3    3    0    0 -0.87774927965E+02  0.40685431556E+02 -0.26711356671E+03  0.28409399825E+03  0.00000000000E+00 0.  1.
         22    1    1    2    0    0  0.73347341147E+02 -0.29424680137E+02  0.25994270155E+03  0.27169072922E+03  0.00000000000E+00 0.  1.
<mgrwt>
<rscale>  0 0.58233465E+03</rscale>
<asrwt>0</asrwt>
<pdfrwt beam="1">  1        4 0.42745870E-01 0.58233465E+03</pdfrwt>
<pdfrwt beam="2">  1       -4 0.46942304E-01 0.58233465E+03</pdfrwt>
<totfact> 0.46125370E+01</totfact>
</mgrwt>
</event>
<event>
 6    1  0.1934315E-005  0.3767716E+04  0.7818608E-02  0.8053119E-01
         -2   -1    0    0    0  501 -0.00000000000E+00  0.00000000000E+00  0.15585524783E+04  0.15585524783E+04  0.00000000000E+00 0. -1.
          2   -1    0    0  501    0  0.00000000000E+00 -0.00000000000E+00 -0.22770624474E+04  0.22770624474E+04  0.00000000000E+00 0.  1.
         23    2    1    2    0    0 -0.11833395065E+04  0.59301996540E+03 -0.17224906675E+04  0.21743075160E+04  0.93134351017E+02 0.  0.
         13    1    3    3    0    0 -0.28742479067E+03  0.13122946806E+03 -0.35078915449E+03  0.47210932472E+03  0.00000000000E+00 0.  1.
        -13    1    3    3    0    0 -0.89591471581E+03  0.46179049733E+03 -0.13717015130E+04  0.17021981912E+04  0.00000000000E+00 0. -1.
         22    1    1    2    0    0  0.11833395065E+04 -0.59301996540E+03  0.10039806984E+04  0.16613074097E+04  0.00000000000E+00 0. -1.
<mgrwt>
<rscale>  0 0.37677162E+04</rscale>
<asrwt>0</asrwt>
<pdfrwt beam="1">  1        2 0.35031730E+00 0.37677162E+04</pdfrwt>
<pdfrwt beam="2">  1       -2 0.23977730E+00 0.37677162E+04</pdfrwt>
<totfact> 0.27909371E-01</totfact>
</mgrwt>
</event>
<event>
 6    1  0.1934315E-005  0.2148426E+04  0.7818608E-02  0.8540206E-01
          2   -1    0    0  501    0  0.00000000000E+00  0.00000000000E+00  0.41109032520E+04  0.41109032520E+04  0.00000000000E+00 0.  1.
         -2   -1    0    0    0  501 -0.00000000000E+00 -0.00000000000E+00 -0.28070078308E+03  0.28070078308E+03  0.00000000000E+00 0. -1.
         23    2    1    2    0    0 -0.61129682483E+03 -0.49988346929E+03  0.34014128965E+04  0.34930341779E+04  0.90059891422E+02 0.  0.
         11    1    3    3    0    0 -0.28145916060E+03 -0.18872481283E+03  0.15922176103E+04  0.16278799810E+04  0.00000000000E+00 0. -1.
        -11    1    3    3    0    0 -0.32983766423E+03 -0.31115865646E+03  0.18091952863E+04  0.18651541969E+04  0.00000000000E+00 0.  1.
         22    1    1    2    0    0  0.61129682483E+03  0.49988346929E+03  0.42878957239E+03  0.89856985722E+03  0.00000000000E+00 0. -1.
<mgrwt>
<rscale>  0 0.21484262E+04</rscale>
<asrwt>0</asrwt>
<pdfrwt beam="1">  1        2 0.63244661E+00 0.21484262E+04</pdfrwt>
<pdfrwt beam="2">  1       -2 0.43184739E-01 0.21484262E+04</pdfrwt>
<totfact> 0.13048637E+00</totfact>
</mgrwt>
</event>
<event>
 6    1  0.1934315E-005  0.2513416E+04  0.7818608E-02  0.8398222E-01
         -1   -1    0    0    0  501 -0.00000000000E+00  0.00000000000E+00  0.25414270973E+04  0.25414270973E+04  0.00000000000E+00 0.  1.
          1   -1    0    0  501    0  0.00000000000E+00 -0.00000000000E+00 -0.62142843003E+03  0.62142843003E+03  0.00000000000E+00 0. -1.
         23    2    1    2    0    0  0.87181121637E+03  0.68875365654E+03  0.16958423825E+04  0.20294172024E+04  0.90644353308E+02 0.  0.
         11    1    3    3    0    0  0.12417754302E+03  0.77791987354E+02  0.17866844591E+03  0.23107156695E+03  0.00000000000E+00 0. -1.
        -11    1    3    3    0    0  0.74763367335E+03  0.61096166918E+03  0.15171739366E+04  0.17983456355E+04  0.00000000000E+00 0.  1.
         22    1    1    2    0    0 -0.87181121637E+03 -0.68875365654E+03  0.22415628478E+03  0.11334383249E+04  0.00000000000E+00 0. -1.
<mgrwt>
<rscale>  0 0.25134160E+04</rscale>
<asrwt>0</asrwt>
<pdfrwt beam="1">  1        1 0.95604375E-01 0.25134160E+04</pdfrwt>
<pdfrwt beam="2">  1       -1 0.39098878E+00 0.25134160E+04</pdfrwt>
<totfact> 0.23801700E-01</totfact>
</mgrwt>
</event>
<event>
 6    1  0.1934315E-005  0.2417846E+04  0.7818608E-02  0.8432852E-01
          2   -1    0    0  501    0  0.00000000000E+00  0.00000000000E+00  0.19080710039E+04  0.19080710039E+04  0.00000000000E+00 0.  1.
         -2   -1    0    0    0  501 -0.00000000000E+00 -0.00000000000E+00 -0.76595436938E+03  0.76595436938E+03  0.00000000000E+00 0. -1.
         23    2    1    2    0    0 -0.99097868632E+02 -0.10670593051E+04  0.11864397514E+04  0.16014581321E+04  0.92697987967E+02 0.  0.
         13    1    3    3    0    0 -0.27524779455E+02 -0.60719668683E+03  0.72494351966E+03  0.94603833785E+03  0.00000000000E+00 0. -1.
        -13    1    3    3    0    0 -0.71573089177E+02 -0.45986261826E+03  0.46149623174E+03  0.65541979423E+03  0.00000000000E+00 0.  1.
         22    1    1    2    0    0  0.99097868632E+02  0.10670593051E+04 -0.44323116904E+02  0.10725672412E+04  0.00000000000E+00 0.  1.
<mgrwt>
<rscale>  0 0.24178464E+04</rscale>
<asrwt>0</asrwt>
<pdfrwt beam="1">  1        2 0.29354938E+00 0.24178464E+04</pdfrwt>
<pdfrwt beam="2">  1       -2 0.11783913E+00 0.24178464E+04</pdfrwt>
<totfact> 0.37484699E+00</totfact>
</mgrwt>
</event>
<event>
 6    1  0.1934315E-005  0.2985686E+04  0.7818608E-02  0.8247830E-01
          2   -1    0    0  501    0  0.00000000000E+00  0.00000000000E+00  0.24865981163E+04  0.24865981163E+04  0.00000000000E+00 0.  1.
         -2   -1    0    0    0  501 -0.00000000000E+00 -0.00000000000E+00 -0.89623682211E+03  0.89623682211E+03  0.00000000000E+00 0. -1.
         23    2    1    2    0    0  0.62449011627E+03  0.13537981989E+04  0.84123640050E+03  0.17143189585E+04  0.91942053840E+02 0.  0.
         13    1    3    3    0    0  0.33547670602E+03  0.83392752843E+03  0.51244183052E+03  0.10346866060E+04  0.00000000000E+00 0.  1.
        -13    1    3    3    0    0  0.28901341025E+03  0.51987067051E+03  0.32879456998E+03  0.67963235254E+03  0.00000000000E+00 0. -1.
         22    1    1    2    0    0 -0.62449011627E+03 -0.13537981989E+04  0.74912489371E+03  0.16685159799E+04  0.00000000000E+00 0. -1.
<mgrwt>
<rscale>  0 0.29856864E+04</rscale>
<asrwt>0</asrwt>
<pdfrwt beam="1">  1        2 0.38255355E+00 0.29856864E+04</pdfrwt>
<pdfrwt beam="2">  1       -2 0.13788259E+00 0.29856864E+04</pdfrwt>
<totfact> 0.11346398E+00</totfact>
</mgrwt>
</event>
<event>
 6    1  0.1934315E-005  0.3172398E+04  0.7818608E-02  0.8196145E-01
          2   -1    0    0  501    0  0.00000000000E+00  0.00000000000E+00  0.65174030139E+03  0.65174030139E+03  0.00000000000E+00 0.  1.
         -2   -1    0    0    0  501 -0.00000000000E+00 -0.00000000000E+00 -0.38604744468E+04  0.38604744468E+04  0.00000000000E+00 0. -1.
         23    2    1    2    0    0 -0.93434217211E+03  0.10884913510E+04 -0.64719732295E+03  0.15763537827E+04  0.90654055492E+02 0.  0.
         11    1    3    3    0    0 -0.22001098168E+03  0.29884429851E+03 -0.19874534164E+03  0.42096610034E+03  0.00000000000E+00 0. -1.
        -11    1    3    3    0    0 -0.71433119044E+03  0.78964705245E+03 -0.44845198131E+03  0.11553876824E+04  0.00000000000E+00 0.  1.
         22    1    1    2    0    0  0.93434217211E+03 -0.10884913510E+04 -0.25615368224E+04  0.29358609654E+04  0.00000000000E+00 0. -1.
<mgrwt>
<rscale>  0 0.31723977E+04</rscale>
<asrwt>0</asrwt>
<pdfrwt beam="1">  1        2 0.10026774E+00 0.31723977E+04</pdfrwt>
<pdfrwt beam="2">  1       -2 0.59391913E+00 0.31723977E+04</pdfrwt>
<totfact> 0.20095296E-02</totfact>
</mgrwt>
</event>
<event>
 6    1  0.1934315E-005  0.1516335E+04  0.7818608E-02  0.8873662E-01
         -2   -1    0    0    0  501 -0.00000000000E+00  0.00000000000E+00  0.35131349924E+03  0.35131349924E+03  0.00000000000E+00 0. -1.
          2   -1    0    0  501    0  0.00000000000E+00 -0.00000000000E+00 -0.16361968699E+04  0.16361968699E+04  0.00000000000E+00 0.  1.
         23    2    1    2    0    0  0.12420141140E+03 -0.54216395328E+03 -0.13147141755E+04  0.14305026316E+04  0.92177399020E+02 0.  0.
         11    1    3    3    0    0  0.50287177551E+02 -0.75229860258E+02 -0.23547011727E+03  0.25225881199E+03  0.00000000000E+00 0.  1.
        -11    1    3    3    0    0  0.73914233851E+02 -0.46693409302E+03 -0.10792440582E+04  0.11782438196E+04  0.00000000000E+00 0. -1.
         22    1    1    2    0    0 -0.12420141140E+03  0.54216395328E+03  0.29830804787E+02  0.55700773760E+03  0.00000000000E+00 0. -1.
<mgrwt>
<rscale>  0 0.15163351E+04</rscale>
<asrwt>0</asrwt>
<pdfrwt beam="1">  1        2 0.25172259E+00 0.15163351E+04</pdfrwt>
<pdfrwt beam="2">  1       -2 0.54048232E-01 0.15163351E+04</pdfrwt>
<totfact> 0.33108832E+01</totfact>
</mgrwt>
</event>
<event>
 6    1  0.1934315E-005  0.2259757E+04  0.7818608E-02  0.8493959E-01
         -2   -1    0    0    0  501 -0.00000000000E+00  0.00000000000E+00  0.93379354526E+03  0.93379354526E+03  0.00000000000E+00 0. -1.
          2   -1    0    0  501    0  0.00000000000E+00 -0.00000000000E+00 -0.13671389878E+04  0.13671389878E+04  0.00000000000E+00 0.  1.
         23    2    1    2    0    0 -0.51293170590E+03 -0.19142143943E+03  0.78724404989E+03  0.96318075811E+03  0.90680076705E+02 0.  0.
         13    1    3    3    0    0 -0.31940264662E+03 -0.75076235731E+02  0.43724194845E+03  0.54665804058E+03  0.00000000000E+00 0. -1.
        -13    1    3    3    0    0 -0.19352905928E+03 -0.11634520370E+03  0.35000210143E+03  0.41652271753E+03  0.00000000000E+00 0.  1.
         22    1    1    2    0    0  0.51293170590E+03  0.19142143943E+03 -0.12205894924E+04  0.13377517750E+04  0.00000000000E+00 0.  1.
<mgrwt>
<rscale>  0 0.22597571E+04</rscale>
<asrwt>0</asrwt>
<pdfrwt beam="1">  1        2 0.21032907E+00 0.22597571E+04</pdfrwt>
<pdfrwt beam="2">  1       -2 0.14366055E+00 0.22597571E+04</pdfrwt>
<totfact> 0.46164836E+00</totfact>
</mgrwt>
</event>
<event>
 6    1  0.1934315E-005  0.2209072E+04  0.7818608E-02  0.8514661E-01
          2   -1    0    0  501    0  0.00000000000E+00  0.00000000000E+00  0.12895627970E+04  0.12895627970E+04  0.00000000000E+00 0.  1.
         -2   -1    0    0    0  501 -0.00000000000E+00 -0.00000000000E+00 -0.94605719376E+03  0.94605719376E+03  0.00000000000E+00 0. -1.
         23    2    1    2    0    0  0.67018234343E+02  0.24926711208E+03 -0.91285563869E+03  0.95301751643E+03  0.91167058958E+02 0.  0.
         11    1    3    3    0    0 -0.99588869329E+01  0.11988846624E+03 -0.33780228113E+03  0.35858444599E+03  0.00000000000E+00 0.  1.
        -11    1    3    3    0    0  0.76977121275E+02  0.12937864584E+03 -0.57505335756E+03  0.59443307045E+03  0.00000000000E+00 0. -1.
         22    1    1    2    0    0 -0.67018234343E+02 -0.24926711208E+03  0.12563612419E+04  0.12826024743E+04  0.00000000000E+00 0.  1.
<mgrwt>
<rscale>  0 0.22090723E+04</rscale>
<asrwt>0</asrwt>
<pdfrwt beam="1">  1        2 0.19839428E+00 0.22090723E+04</pdfrwt>
<pdfrwt beam="2">  1       -2 0.14554726E+00 0.22090723E+04</pdfrwt>
<totfact> 0.49688993E+00</totfact>
</mgrwt>
</event>
<event>
 6    1  0.1934315E-005  0.3471890E+04  0.7818608E-02  0.8120484E-01
         -2   -1    0    0    0  501 -0.00000000000E+00  0.00000000000E+00  0.14465536132E+04  0.14465536132E+04  0.00000000000E+00 0. -1.
          2   -1    0    0  501    0  0.00000000000E+00 -0.00000000000E+00 -0.20832313685E+04  0.20832313685E+04  0.00000000000E+00 0.  1.
         23    2    1    2    0    0  0.16422171804E+04 -0.54355591830E+03 -0.45122480718E+03  0.17900369827E+04  0.91094835269E+02 0.  0.
         13    1    3    3    0    0  0.10791422431E+04 -0.31199559794E+03 -0.29997641402E+03  0.11627016311E+04  0.00000000000E+00 0. -1.
        -13    1    3    3    0    0  0.56307493725E+03 -0.23156032036E+03 -0.15124839316E+03  0.62733535159E+03  0.00000000000E+00 0.  1.
         22    1    1    2    0    0 -0.16422171804E+04  0.54355591830E+03 -0.18545294809E+03  0.17397479989E+04  0.00000000000E+00 0. -1.
<mgrwt>
<rscale>  0 0.34718905E+04</rscale>
<asrwt>0</asrwt>
<pdfrwt beam="1">  1        2 0.32049713E+00 0.34718905E+04</pdfrwt>
<pdfrwt beam="2">  1       -2 0.22254671E+00 0.34718905E+04</pdfrwt>
<totfact> 0.47095908E-01</totfact>
</mgrwt>
</event>
<event>
 6    1  0.1934315E-005  0.2087425E+04  0.7818608E-02  0.8566803E-01
         -2   -1    0    0    0  501 -0.00000000000E+00  0.00000000000E+00  0.50260358446E+03  0.50260358446E+03  0.00000000000E+00 0. -1.
          2   -1    0    0  501    0  0.00000000000E+00 -0.00000000000E+00 -0.21673860249E+04  0.21673860249E+04  0.00000000000E+00 0.  1.
         23    2    1    2    0    0 -0.66161579487E+03 -0.36227926232E+03 -0.17528946905E+04  0.19105519934E+04  0.92668224449E+02 0.  0.
         11    1    3    3    0    0 -0.26243231483E+03 -0.93497327957E+02 -0.66109984272E+03  0.71740189033E+03  0.00000000000E+00 0.  1.
        -11    1    3    3    0    0 -0.39918348003E+03 -0.26878193436E+03 -0.10917948478E+04  0.11931501031E+04  0.00000000000E+00 0. -1.
         22    1    1    2    0    0  0.66161579487E+03  0.36227926232E+03  0.88112250013E+02  0.75943761595E+03  0.00000000000E+00 0. -1.
<mgrwt>
<rscale>  0 0.20874252E+04</rscale>
<asrwt>0</asrwt>
<pdfrwt beam="1">  1        2 0.33344401E+00 0.20874252E+04</pdfrwt>
<pdfrwt beam="2">  1       -2 0.77323627E-01 0.20874252E+04</pdfrwt>
<totfact> 0.74129155E+00</totfact>
</mgrwt>
</event>
<event>
 6    1  0.1934315E-005  0.2921171E+04  0.7818608E-02  0.8266606E-01
         -2   -1    0    0    0  501 -0.00000000000E+00  0.00000000000E+00  0.14756604315E+04  0.14756604315E+04  0.00000000000E+00 0. -1.
          2   -1    0    0  501    0  0.00000000000E+00 -0.00000000000E+00 -0.14456650002E+04  0.14456650002E+04  0.00000000000E+00 0.  1.
         23    2    1    2    0    0  0.80845557745E+03  0.79749437912E+03 -0.90137140741E+03  0.14526382991E+04  0.89943917873E+02 0.  0.
         13    1    3    3    0    0  0.23489656302E+03  0.22443239214E+03 -0.31048337753E+03  0.44938426951E+03  0.00000000000E+00 0. -1.
        -13    1    3    3    0    0  0.57355901443E+03  0.57306198698E+03 -0.59088802989E+03  0.10032540296E+04  0.00000000000E+00 0.  1.
         22    1    1    2    0    0 -0.80845557745E+03 -0.79749437912E+03  0.93136683866E+03  0.14686871326E+04  0.00000000000E+00 0. -1.
<mgrwt>
<rscale>  0 0.29211714E+04</rscale>
<asrwt>0</asrwt>
<pdfrwt beam="1">  1        2 0.22241000E+00 0.29211714E+04</pdfrwt>
<pdfrwt beam="2">  1       -2 0.22702468E+00 0.29211714E+04</pdfrwt>
<totfact> 0.10479330E+00</totfact>
</mgrwt>
</event>
<event>
 6    1  0.1934315E-005  0.2162428E+04  0.7818608E-02  0.8534231E-01
         -2   -1    0    0    0  501 -0.00000000000E+00  0.00000000000E+00  0.81601596802E+03  0.81601596802E+03  0.00000000000E+00 0. -1.
          2   -1    0    0  501    0  0.00000000000E+00 -0.00000000000E+00 -0.14325986265E+04  0.14325986265E+04  0.00000000000E+00 0.  1.
         23    2    1    2    0    0 -0.72077137418E+02  0.83155434267E+03  0.40273733605E+03  0.93115833726E+03  0.90447491146E+02 0.  0.
         11    1    3    3    0    0 -0.58675111763E+02  0.21945772269E+03  0.10122908414E+03  0.24870019755E+03  0.00000000000E+00 0. -1.
        -11    1    3    3    0    0 -0.13402025655E+02  0.61209661998E+03  0.30150825191E+03  0.68245813971E+03  0.00000000000E+00 0.  1.
         22    1    1    2    0    0  0.72077137418E+02 -0.83155434267E+03 -0.10193199945E+04  0.13174562573E+04  0.00000000000E+00 0.  1.
<mgrwt>
<rscale>  0 0.21624277E+04</rscale>
<asrwt>0</asrwt>
<pdfrwt beam="1">  1        2 0.22039979E+00 0.21624277E+04</pdfrwt>
<pdfrwt beam="2">  1       -2 0.12554092E+00 0.21624277E+04</pdfrwt>
<totfact> 0.60296715E+00</totfact>
</mgrwt>
</event>
<event>
 6    1  0.1934315E-005  0.2579587E+04  0.7818608E-02  0.8375168E-01
          2   -1    0    0  501    0  0.00000000000E+00  0.00000000000E+00  0.13337069677E+04  0.13337069677E+04  0.00000000000E+00 0.  1.
         -2   -1    0    0    0  501 -0.00000000000E+00 -0.00000000000E+00 -0.12473259538E+04  0.12473259538E+04  0.00000000000E+00 0. -1.
         23    2    1    2    0    0  0.12778188354E+04  0.15188197822E+03  0.10191115714E+03  0.12941256612E+04  0.92120745146E+02 0.  0.
         13    1    3    3    0    0  0.49075639058E+03  0.42800483972E+02  0.81227078753E+02  0.49927102324E+03  0.00000000000E+00 0.  1.
        -13    1    3    3    0    0  0.78706244479E+03  0.10908149425E+03  0.20684078392E+02  0.79485463796E+03  0.00000000000E+00 0. -1.
         22    1    1    2    0    0 -0.12778188354E+04 -0.15188197822E+03 -0.15530143193E+02  0.12869072603E+04  0.00000000000E+00 0. -1.
<mgrwt>
<rscale>  0 0.25795870E+04</rscale>
<asrwt>0</asrwt>
<pdfrwt beam="1">  1        2 0.20518569E+00 0.25795870E+04</pdfrwt>
<pdfrwt beam="2">  1       -2 0.19189630E+00 0.25795870E+04</pdfrwt>
<totfact> 0.21077189E+00</totfact>
</mgrwt>
</event>
<event>
 6    1  0.1934315E-005  0.1226693E+04  0.7818608E-02  0.9089808E-01
         -2   -1    0    0    0  501 -0.00000000000E+00  0.00000000000E+00  0.28823183076E+03  0.28823183076E+03  0.00000000000E+00 0. -1.
          2   -1    0    0  501    0  0.00000000000E+00 -0.00000000000E+00 -0.13051777686E+04  0.13051777686E+04  0.00000000000E+00 0.  1.
         23    2    1    2    0    0 -0.58690125846E+03 -0.13416558634E+03 -0.38512624292E+03  0.72068420231E+03  0.92790111217E+02 0.  0.
         13    1    3    3    0    0 -0.23988878339E+03 -0.93351002133E+02 -0.13244735320E+03  0.28948806429E+03  0.00000000000E+00 0. -1.
        -13    1    3    3    0    0 -0.34701247506E+03 -0.40814584202E+02 -0.25267888972E+03  0.43119613802E+03  0.00000000000E+00 0.  1.
         22    1    1    2    0    0  0.58690125846E+03  0.13416558634E+03 -0.63181969488E+03  0.87272539700E+03  0.00000000000E+00 0.  1.
<mgrwt>
<rscale>  0 0.12266928E+04</rscale>
<asrwt>0</asrwt>
<pdfrwt beam="1">  1        2 0.20079658E+00 0.12266928E+04</pdfrwt>
<pdfrwt beam="2">  1       -2 0.44343359E-01 0.12266928E+04</pdfrwt>
<totfact> 0.77954211E+01</totfact>
</mgrwt>
</event>
<event>
 6    1  0.1934315E-005  0.6487370E+04  0.7818608E-02  0.7632745E-01
          2   -1    0    0  501    0  0.00000000000E+00  0.00000000000E+00  0.28325507102E+04  0.28325507102E+04  0.00000000000E+00 0.  1.
         -2   -1    0    0    0  501 -0.00000000000E+00 -0.00000000000E+00 -0.37144935852E+04  0.37144935852E+04  0.00000000000E+00 0. -1.
         23    2    1    2    0    0  0.30507357030E+04 -0.10562222439E+04 -0.75136512797E+03  0.33160004538E+04  0.93357892808E+02 0.  0.
         11    1    3    3    0    0  0.20229340116E+04 -0.73884678905E+03 -0.52650575758E+03  0.22170622241E+04  0.00000000000E+00 0. -1.
        -11    1    3    3    0    0  0.10278016914E+04 -0.31737545485E+03 -0.22485937039E+03  0.10989382297E+04  0.00000000000E+00 0.  1.
         22    1    1    2    0    0 -0.30507357030E+04  0.10562222439E+04 -0.13057774696E+03  0.32310438416E+04  0.00000000000E+00 0.  1.
<mgrwt>
<rscale>  0 0.64873697E+04</rscale>
<asrwt>0</asrwt>
<pdfrwt beam="1">  1        2 0.43577703E+00 0.64873697E+04</pdfrwt>
<pdfrwt beam="2">  1       -2 0.57146056E+00 0.64873697E+04</pdfrwt>
<totfact> 0.98438403E-04</totfact>
</mgrwt>
</event>
<event>
 6    1  0.1934315E-005  0.7049169E+03  0.7818608E-02  0.9708860E-01
         -2   -1    0    0    0  501 -0.00000000000E+00  0.00000000000E+00  0.11584331300E+03  0.11584331300E+03  0.00000000000E+00 0. -1.
          2   -1    0    0  501    0  0.00000000000E+00 -0.00000000000E+00 -0.10723704863E+04  0.10723704863E+04  0.00000000000E+00 0.  1.
         23    2    1    2    0    0 -0.31263211704E+03  0.11353300493E+03 -0.65039815134E+03  0.73617003828E+03  0.91104259929E+02 0.  0.
         11    1    3    3    0    0 -0.57790262427E+02 -0.12180205079E+02 -0.86791390989E+02  0.10498008086E+03  0.00000000000E+00 0.  1.
        -11    1    3    3    0    0 -0.25484185461E+03  0.12571321001E+03 -0.56360676036E+03  0.63118995742E+03  0.00000000000E+00 0. -1.
         22    1    1    2    0    0  0.31263211704E+03 -0.11353300493E+03 -0.30612902200E+03  0.45204376107E+03  0.00000000000E+00 0. -1.
<mgrwt>
<rscale>  0 0.70491687E+03</rscale>
<asrwt>0</asrwt>
<pdfrwt beam="1">  1        2 0.16498007E+00 0.70491687E+03</pdfrwt>
<pdfrwt beam="2">  1       -2 0.17822048E-01 0.70491687E+03</pdfrwt>
<totfact> 0.59577211E+02</totfact>
</mgrwt>
</event>
<event>
 6    1  0.1934315E-005  0.2199397E+04  0.7818608E-02  0.8518679E-01
          2   -1    0    0  501    0  0.00000000000E+00  0.00000000000E+00  0.14706970196E+04  0.14706970196E+04  0.00000000000E+00 0.  1.
         -2   -1    0    0    0  501 -0.00000000000E+00 -0.00000000000E+00 -0.82228852259E+03  0.82228852259E+03  0.00000000000E+00 0. -1.
         23    2    1    2    0    0  0.88218816905E+03 -0.27087561566E+03 -0.29523568771E+03  0.97310148966E+03  0.90182221698E+02 0.  0.
         13    1    3    3    0    0  0.11289341731E+03 -0.66723698922E+02 -0.48375331597E+02  0.13977534968E+03  0.00000000000E+00 0. -1.
        -13    1    3    3    0    0  0.76929475174E+03 -0.20415191674E+03 -0.24686035612E+03  0.83332613998E+03  0.00000000000E+00 0.  1.
         22    1    1    2    0    0 -0.88218816905E+03  0.27087561566E+03  0.94364418472E+03  0.13198840525E+04  0.00000000000E+00 0.  1.
<mgrwt>
<rscale>  0 0.21993974E+04</rscale>
<asrwt>0</asrwt>
<pdfrwt beam="1">  1        2 0.22626108E+00 0.21993974E+04</pdfrwt>
<pdfrwt beam="2">  1       -2 0.12650593E+00 0.21993974E+04</pdfrwt>
<totfact> 0.56096891E+00</totfact>
</mgrwt>
</event>
<event>
 6    1  0.1934315E-005  0.1686896E+04  0.7818608E-02  0.8768873E-01
          2   -1    0    0  501    0  0.00000000000E+00  0.00000000000E+00  0.17499142963E+04  0.17499142963E+04  0.00000000000E+00 0.  1.
         -2   -1    0    0    0  501 -0.00000000000E+00 -0.00000000000E+00 -0.40653689410E+03  0.40653689410E+03  0.00000000000E+00 0. -1.
         23    2    1    2    0    0 -0.64808026588E+03 -0.53577684709E+03  0.69091427947E+03  0.10921331048E+04  0.91254128862E+02 0.  0.
         11    1    3    3    0    0 -0.33764449481E+03 -0.31775478975E+03  0.42403807453E+03  0.62831536663E+03  0.00000000000E+00 0. -1.
        -11    1    3    3    0    0 -0.31043577106E+03 -0.21802205735E+03  0.26687620494E+03  0.46381773813E+03  0.00000000000E+00 0.  1.
         22    1    1    2    0    0  0.64808026588E+03  0.53577684709E+03  0.65246312271E+03  0.10643180856E+04  0.00000000000E+00 0.  1.
<mgrwt>
<rscale>  0 0.16868962E+04</rscale>
<asrwt>0</asrwt>
<pdfrwt beam="1">  1        2 0.26921758E+00 0.16868962E+04</pdfrwt>
<pdfrwt beam="2">  1       -2 0.62544138E-01 0.16868962E+04</pdfrwt>
<totfact> 0.20775173E+01</totfact>
</mgrwt>
</event>
<event>
 6    1  0.2016948E-005  0.4734588E+04  0.7818608E-02  0.7870807E-01
         -2   -1    0    0    0  501 -0.00000000000E+00  0.00000000000E+00  0.23054364008E+04  0.23054364008E+04  0.00000000000E+00 0. -1.
          2   -1    0    0  501    0  0.00000000000E+00 -0.00000000000E+00 -0.24308110202E+04  0.24308110202E+04  0.00000000000E+00 0.  1.
         23    2    1    2    0    0 -0.59787198126E+03  0.17423842980E+04  0.14234079281E+04  0.23295730917E+04  0.86410138040E+02 0.  0.
         11    1    3    3    0    0 -0.43462647004E+03  0.13608546560E+04  0.10785633618E+04  0.17900068404E+04  0.00000000000E+00 0.  1.
        -11    1    3    3    0    0 -0.16324551122E+03  0.38152964194E+03  0.34484456631E+03  0.53956625128E+03  0.00000000000E+00 0. -1.
         22    1    1    2    0    0  0.59787198126E+03 -0.17423842980E+04 -0.15487825476E+04  0.24066743293E+04  0.00000000000E+00 0.  1.
<mgrwt>
<rscale>  0 0.47345877E+04</rscale>
<asrwt>0</asrwt>
<pdfrwt beam="1">  1        2 0.37397092E+00 0.47345877E+04</pdfrwt>
<pdfrwt beam="2">  1       -2 0.35468252E+00 0.47345877E+04</pdfrwt>
<totfact> 0.41246277E-02</totfact>
</mgrwt>
</event>
<event>
 6    1  0.1934315E-005  0.4297512E+04  0.7818608E-02  0.7947078E-01
          2   -1    0    0  501    0  0.00000000000E+00  0.00000000000E+00  0.22054001887E+04  0.22054001887E+04  0.00000000000E+00 0.  1.
         -2   -1    0    0    0  501 -0.00000000000E+00 -0.00000000000E+00 -0.20935670539E+04  0.20935670539E+04  0.00000000000E+00 0. -1.
         23    2    1    2    0    0 -0.57946989099E+03  0.14179815569E+04  0.15619078320E+04  0.21896607980E+04  0.92743109584E+02 0.  0.
         13    1    3    3    0    0 -0.20970649571E+03  0.56258491866E+03  0.67135005884E+03  0.90066059454E+03  0.00000000000E+00 0.  1.
        -13    1    3    3    0    0 -0.36976339528E+03  0.85539663820E+03  0.89055777317E+03  0.12890002034E+04  0.00000000000E+00 0. -1.
         22    1    1    2    0    0  0.57946989099E+03 -0.14179815569E+04 -0.14500746972E+04  0.21093064447E+04  0.00000000000E+00 0. -1.
<mgrwt>
<rscale>  0 0.42975124E+04</rscale>
<asrwt>0</asrwt>
<pdfrwt beam="1">  1        2 0.33929234E+00 0.42975124E+04</pdfrwt>
<pdfrwt beam="2">  1       -2 0.32208724E+00 0.42975124E+04</pdfrwt>
<totfact> 0.91793498E-02</totfact>
</mgrwt>
</event>
<event>
 6    1  0.1934315E-005  0.2765100E+04  0.7818608E-02  0.8314186E-01
         -2   -1    0    0    0  501 -0.00000000000E+00  0.00000000000E+00  0.12601624574E+04  0.12601624574E+04  0.00000000000E+00 0. -1.
          2   -1    0    0  501    0  0.00000000000E+00 -0.00000000000E+00 -0.15168238792E+04  0.15168238792E+04  0.00000000000E+00 0.  1.
         23    2    1    2    0    0  0.56749704081E+03 -0.22617440822E+03  0.11154170196E+04  0.12750519161E+04  0.91621542211E+02 0.  0.
         13    1    3    3    0    0  0.37798084103E+03 -0.11776744542E+03  0.65214818202E+03  0.76291279888E+03  0.00000000000E+00 0.  1.
        -13    1    3    3    0    0  0.18951619978E+03 -0.10840696280E+03  0.46326883753E+03  0.51213911722E+03  0.00000000000E+00 0. -1.
         22    1    1    2    0    0 -0.56749704081E+03  0.22617440822E+03 -0.13720784414E+04  0.15019344205E+04  0.00000000000E+00 0.  1.
<mgrwt>
<rscale>  0 0.27651000E+04</rscale>
<asrwt>0</asrwt>
<pdfrwt beam="1">  1        2 0.23335752E+00 0.27651000E+04</pdfrwt>
<pdfrwt beam="2">  1       -2 0.19387115E+00 0.27651000E+04</pdfrwt>
<totfact> 0.15827250E+00</totfact>
</mgrwt>
</event>
<event>
 6    1  0.1934315E-005  0.2186879E+04  0.7818608E-02  0.8523909E-01
          2   -1    0    0  501    0  0.00000000000E+00  0.00000000000E+00  0.11972026450E+04  0.11972026450E+04  0.00000000000E+00 0.  1.
         -2   -1    0    0    0  501 -0.00000000000E+00 -0.00000000000E+00 -0.99866920770E+03  0.99866920770E+03  0.00000000000E+00 0. -1.
         23    2    1    2    0    0  0.14055269958E+03  0.48820622403E+03  0.10696031752E+04  0.11874756673E+04  0.89146674864E+02 0.  0.
         11    1    3    3    0    0  0.92403697706E+02  0.19345175611E+03  0.50828566118E+03  0.55164874571E+03  0.00000000000E+00 0. -1.
        -11    1    3    3    0    0  0.48149001871E+02  0.29475446793E+03  0.56131751400E+03  0.63582692163E+03  0.00000000000E+00 0.  1.
         22    1    1    2    0    0 -0.14055269958E+03 -0.48820622403E+03 -0.87106973784E+03  0.10083961854E+04  0.00000000000E+00 0. -1.
<mgrwt>
<rscale>  0 0.21868785E+04</rscale>
<asrwt>0</asrwt>
<pdfrwt beam="1">  1        2 0.18418502E+00 0.21868785E+04</pdfrwt>
<pdfrwt beam="2">  1       -2 0.15364142E+00 0.21868785E+04</pdfrwt>
<totfact> 0.48905473E+00</totfact>
</mgrwt>
</event>
<event>
 6    1  0.1934315E-005  0.3219588E+04  0.7818608E-02  0.8183663E-01
         -2   -1    0    0    0  501 -0.00000000000E+00  0.00000000000E+00  0.21419740871E+04  0.21419740871E+04  0.00000000000E+00 0. -1.
          2   -1    0    0  501    0  0.00000000000E+00 -0.00000000000E+00 -0.12098358009E+04  0.12098358009E+04  0.00000000000E+00 0.  1.
         23    2    1    2    0    0  0.14368443692E+03 -0.10296579844E+04  0.17441704011E+04  0.20326294842E+04  0.92797897527E+02 0.  0.
         11    1    3    3    0    0  0.95937539935E+02 -0.53692009090E+03  0.83340323162E+03  0.99601613544E+03  0.00000000000E+00 0.  1.
        -11    1    3    3    0    0  0.47746896987E+02 -0.49273789349E+03  0.91076716947E+03  0.10366133488E+04  0.00000000000E+00 0. -1.
         22    1    1    2    0    0 -0.14368443692E+03  0.10296579844E+04 -0.81203211488E+03  0.13191804038E+04  0.00000000000E+00 0.  1.
<mgrwt>
<rscale>  0 0.32195881E+04</rscale>
<asrwt>0</asrwt>
<pdfrwt beam="1">  1        2 0.18612859E+00 0.32195881E+04</pdfrwt>
<pdfrwt beam="2">  1       -2 0.32953447E+00 0.32195881E+04</pdfrwt>
<totfact> 0.32820248E-01</totfact>
</mgrwt>
</event>
<event>
 6    1  0.1934315E-005  0.3031933E+04  0.7818608E-02  0.8234670E-01
         -2   -1    0    0    0  501 -0.00000000000E+00  0.00000000000E+00  0.11259100799E+04  0.11259100799E+04  0.00000000000E+00 0. -1.
          2   -1    0    0  501    0  0.00000000000E+00 -0.00000000000E+00 -0.20411532566E+04  0.20411532566E+04  0.00000000000E+00 0.  1.
         23    2    1    2    0    0 -0.54060729006E+03  0.13824525420E+04 -0.77218110179E+03  0.16757893743E+04  0.92601836656E+02 0.  0.
         13    1    3    3    0    0 -0.41669942591E+03  0.10464037056E+04 -0.54115304457E+03  0.12495782266E+04  0.00000000000E+00 0.  1.
        -13    1    3    3    0    0 -0.12390786415E+03  0.33604883637E+03 -0.23102805723E+03  0.42621114773E+03  0.00000000000E+00 0. -1.
         22    1    1    2    0    0  0.54060729006E+03 -0.13824525420E+04 -0.14306207496E+03  0.14912739622E+04  0.00000000000E+00 0. -1.
<mgrwt>
<rscale>  0 0.30319334E+04</rscale>
<asrwt>0</asrwt>
<pdfrwt beam="1">  1        2 0.31402358E+00 0.30319334E+04</pdfrwt>
<pdfrwt beam="2">  1       -2 0.17321694E+00 0.30319334E+04</pdfrwt>
<totfact> 0.10944039E+00</totfact>
</mgrwt>
</event>
<event>
 6    1  0.1934315E-005  0.3612238E+04  0.7818608E-02  0.8087694E-01
          2   -1    0    0  501    0  0.00000000000E+00  0.00000000000E+00  0.15528855785E+04  0.15528855785E+04  0.00000000000E+00 0.  1.
         -2   -1    0    0    0  501 -0.00000000000E+00 -0.00000000000E+00 -0.21006476378E+04  0.21006476378E+04  0.00000000000E+00 0. -1.
         23    2    1    2    0    0  0.10780889435E+04  0.13938775151E+04 -0.66939687256E+03  0.18871908585E+04  0.90702074997E+02 0.  0.
         11    1    3    3    0    0  0.25890290825E+03  0.27889155758E+03 -0.16045626565E+03  0.41298599247E+03  0.00000000000E+00 0. -1.
        -11    1    3    3    0    0  0.81918603521E+03  0.11149859575E+04 -0.50894060690E+03  0.14742048661E+04  0.00000000000E+00 0.  1.
         22    1    1    2    0    0 -0.10780889435E+04 -0.13938775151E+04  0.12163481332E+03  0.17663423578E+04  0.00000000000E+00 0.  1.
<mgrwt>
<rscale>  0 0.36122378E+04</rscale>
<asrwt>0</asrwt>
<pdfrwt beam="1">  1        2 0.23890548E+00 0.36122378E+04</pdfrwt>
<pdfrwt beam="2">  1       -2 0.32317656E+00 0.36122378E+04</pdfrwt>
<totfact> 0.22078916E-01</totfact>
</mgrwt>
</event>
<event>
 6    1  0.1934315E-005  0.2241006E+04  0.7818608E-02  0.8501552E-01
          2   -1    0    0  501    0  0.00000000000E+00  0.00000000000E+00  0.29702049256E+04  0.29702049256E+04  0.00000000000E+00 0.  1.
         -2   -1    0    0    0  501 -0.00000000000E+00 -0.00000000000E+00 -0.42270717023E+03  0.42270717023E+03  0.00000000000E+00 0. -1.
         23    2    1    2    0    0  0.71303495958E+03  0.34784484229E+02  0.25797941761E+04  0.26782990028E+04  0.91207146717E+02 0.  0.
         13    1    3    3    0    0  0.28024793128E+03  0.19241119291E+02  0.85476862391E+03  0.89974358796E+03  0.00000000000E+00 0. -1.
        -13    1    3    3    0    0  0.43278702830E+03  0.15543364938E+02  0.17250255522E+04  0.17785554149E+04  0.00000000000E+00 0.  1.
         22    1    1    2    0    0 -0.71303495958E+03 -0.34784484229E+02 -0.32296420710E+02  0.71461309302E+03  0.00000000000E+00 0. -1.
<mgrwt>
<rscale>  0 0.22410060E+04</rscale>
<asrwt>0</asrwt>
<pdfrwt beam="1">  1        2 0.45695459E+00 0.22410060E+04</pdfrwt>
<pdfrwt beam="2">  1       -2 0.65031874E-01 0.22410060E+04</pdfrwt>
<totfact> 0.36142981E+00</totfact>
</mgrwt>
</event>
<event>
 6    1  0.1934315E-005  0.1000184E+04  0.7818608E-02  0.9308343E-01
         -2   -1    0    0    0  501 -0.00000000000E+00  0.00000000000E+00  0.37863248097E+03  0.37863248097E+03  0.00000000000E+00 0. -1.
          2   -1    0    0  501    0  0.00000000000E+00 -0.00000000000E+00 -0.66051420781E+03  0.66051420781E+03  0.00000000000E+00 0.  1.
         23    2    1    2    0    0 -0.62633061528E+02 -0.26770857899E+03  0.28665946946E+03  0.40761689886E+03  0.91581117836E+02 0.  0.
         11    1    3    3    0    0  0.18087019628E+02 -0.24827605069E+02  0.51930840138E+02  0.60335415884E+02  0.00000000000E+00 0. -1.
        -11    1    3    3    0    0 -0.80720081156E+02 -0.24288097392E+03  0.23472862932E+03  0.34728148298E+03  0.00000000000E+00 0.  1.
         22    1    1    2    0    0  0.62633061528E+02  0.26770857899E+03 -0.56854119630E+03  0.63152978992E+03  0.00000000000E+00 0.  1.
<mgrwt>
<rscale>  0 0.10001842E+04</rscale>
<asrwt>0</asrwt>
<pdfrwt beam="1">  1        2 0.10161757E+00 0.10001842E+04</pdfrwt>
<pdfrwt beam="2">  1       -2 0.58251151E-01 0.10001842E+04</pdfrwt>
<totfact> 0.12137093E+02</totfact>
</mgrwt>
</event>
<event>
 6    1  0.1934315E-005  0.1566006E+04  0.7818608E-02  0.8841708E-01
         -2   -1    0    0    0  501 -0.00000000000E+00  0.00000000000E+00  0.27344325941E+03  0.27344325941E+03  0.00000000000E+00 0. -1.
          2   -1    0    0  501    0  0.00000000000E+00 -0.00000000000E+00 -0.22421250901E+04  0.22421250901E+04  0.00000000000E+00 0.  1.
         23    2    1    2    0    0 -0.60376038875E+03 -0.49109148018E+03 -0.10828316540E+04  0.13364042454E+04  0.88059452826E+02 0.  0.
         13    1    3    3    0    0 -0.44612119323E+03 -0.39616764323E+03 -0.77960260492E+03  0.98170929617E+03  0.00000000000E+00 0. -1.
        -13    1    3    3    0    0 -0.15763919552E+03 -0.94923836943E+02 -0.30322904911E+03  0.35469494922E+03  0.00000000000E+00 0.  1.
         22    1    1    2    0    0  0.60376038875E+03  0.49109148018E+03 -0.88585017665E+03  0.11791641041E+04  0.00000000000E+00 0. -1.
<mgrwt>
<rscale>  0 0.15660064E+04</rscale>
<asrwt>0</asrwt>
<pdfrwt beam="1">  1        2 0.34494232E+00 0.15660064E+04</pdfrwt>
<pdfrwt beam="2">  1       -2 0.42068195E-01 0.15660064E+04</pdfrwt>
<totfact> 0.25197409E+01</totfact>
</mgrwt>
</event>
<event>
 6    1  0.1934315E-005  0.1204494E+04  0.7818608E-02  0.9108932E-01
          2   -1    0    0  501    0  0.00000000000E+00  0.00000000000E+00  0.59997995636E+03  0.59997995636E+03  0.00000000000E+00 0.  1.
         -2   -1    0    0    0  501 -0.00000000000E+00 -0.00000000000E+00 -0.60452237887E+03  0.60452237887E+03  0.00000000000E+00 0. -1.
         23    2    1    2    0    0 -0.36917641024E+03  0.19346091025E+03  0.42765843805E+03  0.60407254788E+03  0.91068972733E+02 0.  0.
         11    1    3    3    0    0 -0.11041266678E+03  0.28449507504E+02  0.16237874086E+03  0.19841166031E+03  0.00000000000E+00 0. -1.
        -11    1    3    3    0    0 -0.25876374345E+03  0.16501140275E+03  0.26527969720E+03  0.40566088757E+03  0.00000000000E+00 0.  1.
         22    1    1    2    0    0  0.36917641024E+03 -0.19346091025E+03 -0.43220086056E+03  0.60042978736E+03  0.00000000000E+00 0. -1.
<mgrwt>
<rscale>  0 0.12044938E+04</rscale>
<asrwt>0</asrwt>
<pdfrwt beam="1">  1        2 0.92304609E-01 0.12044938E+04</pdfrwt>
<pdfrwt beam="2">  1       -2 0.93003442E-01 0.12044938E+04</pdfrwt>
<totfact> 0.47935187E+01</totfact>
</mgrwt>
</event>
<event>
 6    1  0.1934315E-005  0.3191502E+04  0.7818608E-02  0.8191065E-01
         -2   -1    0    0    0  501 -0.00000000000E+00  0.00000000000E+00  0.18182795226E+04  0.18182795226E+04  0.00000000000E+00 0. -1.
          2   -1    0    0  501    0  0.00000000000E+00 -0.00000000000E+00 -0.14004564230E+04  0.14004564230E+04  0.00000000000E+00 0.  1.
         23    2    1    2    0    0  0.15842767781E+03 -0.27343303240E+03  0.17852035593E+04  0.18153136022E+04  0.92448765081E+02 0.  0.
         13    1    3    3    0    0  0.11537677972E+02 -0.90829487465E+02  0.39309662395E+03  0.40361871806E+03  0.00000000000E+00 0. -1.
        -13    1    3    3    0    0  0.14688999984E+03 -0.18260354493E+03  0.13921069353E+04  0.14116948842E+04  0.00000000000E+00 0.  1.
         22    1    1    2    0    0 -0.15842767781E+03  0.27343303240E+03 -0.13673804597E+04  0.14034223433E+04  0.00000000000E+00 0.  1.
<mgrwt>
<rscale>  0 0.31915020E+04</rscale>
<asrwt>0</asrwt>
<pdfrwt beam="1">  1        2 0.21545483E+00 0.31915020E+04</pdfrwt>
<pdfrwt beam="2">  1       -2 0.27973531E+00 0.31915020E+04</pdfrwt>
<totfact> 0.51508644E-01</totfact>
</mgrwt>
</event>
<event>
 6    1  0.1934315E-005  0.1983503E+04  0.7818608E-02  0.8614373E-01
          2   -1    0    0  501    0  0.00000000000E+00  0.00000000000E+00  0.29543647244E+04  0.29543647244E+04  0.00000000000E+00 0.  1.
         -2   -1    0    0    0  501 -0.00000000000E+00 -0.00000000000E+00 -0.33292128533E+03  0.33292128533E+03  0.00000000000E+00 0. -1.
         23    2    1    2    0    0 -0.61824070343E+02  0.26528762876E+03  0.28902886627E+04  0.29045622243E+04  0.92268191860E+02 0.  0.
         13    1    3    3    0    0 -0.15842302282E+02  0.11157421780E+02  0.49744560745E+03  0.49782285903E+03  0.00000000000E+00 0. -1.
        -13    1    3    3    0    0 -0.45981768061E+02  0.25413020698E+03  0.23928430553E+04  0.24067393652E+04  0.00000000000E+00 0.  1.
         22    1    1    2    0    0  0.61824070343E+02 -0.26528762876E+03 -0.26884522366E+03  0.38272378543E+03  0.00000000000E+00 0. -1.
<mgrwt>
<rscale>  0 0.19835029E+04</rscale>
<asrwt>0</asrwt>
<pdfrwt beam="1">  1        2 0.45451763E+00 0.19835029E+04</pdfrwt>
<pdfrwt beam="2">  1       -2 0.51218661E-01 0.19835029E+04</pdfrwt>
<totfact> 0.62447607E+00</totfact>
</mgrwt>
</event>
<event>
 6    1  0.1934315E-005  0.2399230E+04  0.7818608E-02  0.8439792E-01
          2   -1    0    0  501    0  0.00000000000E+00  0.00000000000E+00  0.97473823125E+03  0.97473823125E+03  0.00000000000E+00 0.  1.
         -2   -1    0    0    0  501 -0.00000000000E+00 -0.00000000000E+00 -0.14763718764E+04  0.14763718764E+04  0.00000000000E+00 0. -1.
         23    2    1    2    0    0  0.11814421811E+03  0.94162799397E+03 -0.99796289854E+03  0.13801460266E+04  0.90839267377E+02 0.  0.
         13    1    3    3    0    0  0.87135073653E+02  0.65916760315E+03 -0.63742184114E+03  0.92108688714E+03  0.00000000000E+00 0.  1.
        -13    1    3    3    0    0  0.31009144460E+02  0.28246039082E+03 -0.36054105740E+03  0.45905913942E+03  0.00000000000E+00 0. -1.
         22    1    1    2    0    0 -0.11814421811E+03 -0.94162799397E+03  0.49632925335E+03  0.10709640811E+04  0.00000000000E+00 0.  1.
<mgrwt>
<rscale>  0 0.23992300E+04</rscale>
<asrwt>0</asrwt>
<pdfrwt beam="1">  1        2 0.14995973E+00 0.23992300E+04</pdfrwt>
<pdfrwt beam="2">  1       -2 0.22713413E+00 0.23992300E+04</pdfrwt>
<totfact> 0.20955199E+00</totfact>
</mgrwt>
</event>
<event>
 6    1  0.1934315E-005  0.2208438E+04  0.7818608E-02  0.8514924E-01
          2   -1    0    0  501    0  0.00000000000E+00  0.00000000000E+00  0.33931946804E+04  0.33931946804E+04  0.00000000000E+00 0.  1.
         -2   -1    0    0    0  501 -0.00000000000E+00 -0.00000000000E+00 -0.35933685744E+03  0.35933685744E+03  0.00000000000E+00 0. -1.
         23    2    1    2    0    0  0.13435296490E+03 -0.16542225070E+03  0.33572495456E+04  0.33652364998E+04  0.90977731071E+02 0.  0.
         11    1    3    3    0    0  0.23208277699E+02 -0.48953577119E+02  0.15142427328E+04  0.15152115795E+04  0.00000000000E+00 0.  1.
        -11    1    3    3    0    0  0.11114468720E+03 -0.11646867358E+03  0.18430068128E+04  0.18500249202E+04  0.00000000000E+00 0. -1.
         22    1    1    2    0    0 -0.13435296490E+03  0.16542225070E+03 -0.32339172268E+03  0.38729503805E+03  0.00000000000E+00 0. -1.
<mgrwt>
<rscale>  0 0.22084383E+04</rscale>
<asrwt>0</asrwt>
<pdfrwt beam="1">  1        2 0.52202993E+00 0.22084383E+04</pdfrwt>
<pdfrwt beam="2">  1       -2 0.55282596E-01 0.22084383E+04</pdfrwt>
<totfact> 0.27152433E+00</totfact>
</mgrwt>
</event>
<event>
 6    1  0.1934315E-005  0.2398403E+04  0.7818608E-02  0.8440102E-01
          2   -1    0    0  501    0  0.00000000000E+00  0.00000000000E+00  0.12118728472E+04  0.12118728472E+04  0.00000000000E+00 0. -1.
         -2   -1    0    0    0  501 -0.00000000000E+00 -0.00000000000E+00 -0.11866621811E+04  0.11866621811E+04  0.00000000000E+00 0.  1.
         23    2    1    2    0    0  0.83863395780E+02  0.99627549441E+03 -0.64632430281E+03  0.11941442510E+04  0.92991708114E+02 0.  0.
         11    1    3    3    0    0  0.50479234860E+02  0.27919852181E+03 -0.22203115499E+03  0.36027461959E+03  0.00000000000E+00 0. -1.
        -11    1    3    3    0    0  0.33384160921E+02  0.71707697260E+03 -0.42429314782E+03  0.83386963137E+03  0.00000000000E+00 0.  1.
         22    1    1    2    0    0 -0.83863395780E+02 -0.99627549441E+03  0.67153496893E+03  0.12043907773E+04  0.00000000000E+00 0. -1.
<mgrwt>
<rscale>  0 0.23984025E+04</rscale>
<asrwt>0</asrwt>
<pdfrwt beam="1">  1        2 0.18644198E+00 0.23984025E+04</pdfrwt>
<pdfrwt beam="2">  1       -2 0.18256341E+00 0.23984025E+04</pdfrwt>
<totfact> 0.29177030E+00</totfact>
</mgrwt>
</event>
<event>
 6    1  0.1934315E-005  0.1561889E+04  0.7818608E-02  0.8844310E-01
          2   -1    0    0  501    0  0.00000000000E+00  0.00000000000E+00  0.29117747335E+04  0.29117747335E+04  0.00000000000E+00 0.  1.
         -2   -1    0    0    0  501 -0.00000000000E+00 -0.00000000000E+00 -0.20945094616E+03  0.20945094616E+03  0.00000000000E+00 0. -1.
         23    2    1    2    0    0  0.35745497640E+03 -0.28883051190E+03  0.99200239095E+02  0.47784728597E+03  0.85441304525E+02 0.  0.
         13    1    3    3    0    0  0.43584887448E+02 -0.86438977742E+01 -0.40782715952E+01  0.44620529825E+02  0.00000000000E+00 0.  1.
        -13    1    3    3    0    0  0.31387008895E+03 -0.28018661412E+03  0.10327851069E+03  0.43322675615E+03  0.00000000000E+00 0. -1.
         22    1    1    2    0    0 -0.35745497640E+03  0.28883051190E+03  0.26031235482E+04  0.26433783937E+04  0.00000000000E+00 0.  1.
<mgrwt>
<rscale>  0 0.15618886E+04</rscale>
<asrwt>0</asrwt>
<pdfrwt beam="1">  1        2 0.44796531E+00 0.15618886E+04</pdfrwt>
<pdfrwt beam="2">  1       -2 0.32223225E-01 0.15618886E+04</pdfrwt>
<totfact> 0.17130849E+01</totfact>
</mgrwt>
</event>
<event>
 6    1  0.1934315E-005  0.2748950E+04  0.7818608E-02  0.8319295E-01
         -2   -1    0    0    0  501 -0.00000000000E+00  0.00000000000E+00  0.86847085486E+03  0.86847085486E+03  0.00000000000E+00 0. -1.
          2   -1    0    0  501    0  0.00000000000E+00 -0.00000000000E+00 -0.21752969488E+04  0.21752969488E+04  0.00000000000E+00 0.  1.
         23    2    1    2    0    0 -0.85789607231E+03 -0.33522772197E+02 -0.18403301897E+04  0.20329581938E+04  0.94838618793E+02 0.  0.
         11    1    3    3    0    0 -0.45753842395E+03  0.24856990564E+02 -0.92920239060E+03  0.10360387841E+04  0.00000000000E+00 0. -1.
        -11    1    3    3    0    0 -0.40035764836E+03 -0.58379762761E+02 -0.91112779910E+03  0.99691940978E+03  0.00000000000E+00 0.  1.
         22    1    1    2    0    0  0.85789607231E+03  0.33522772197E+02  0.53350409575E+03  0.10108096098E+04  0.00000000000E+00 0. -1.
<mgrwt>
<rscale>  0 0.27489503E+04</rscale>
<asrwt>0</asrwt>
<pdfrwt beam="1">  1        2 0.33466107E+00 0.27489503E+04</pdfrwt>
<pdfrwt beam="2">  1       -2 0.13361090E+00 0.27489503E+04</pdfrwt>
<totfact> 0.18870892E+00</totfact>
</mgrwt>
</event>
<event>
 6    1  0.2167974E-005  0.2852763E+04  0.7818608E-02  0.8287072E-01
         -2   -1    0    0    0  501 -0.00000000000E+00  0.00000000000E+00  0.11049519529E+04  0.11049519529E+04  0.00000000000E+00 0. -1.
          2   -1    0    0  501    0  0.00000000000E+00 -0.00000000000E+00 -0.18413143746E+04  0.18413143746E+04  0.00000000000E+00 0.  1.
         23    2    1    2    0    0 -0.11119409381E+04  0.62347308344E+03  0.28803362071E+03  0.13108707829E+04  0.10142734847E+03 0.  0.
         13    1    3    3    0    0 -0.45987700708E+03  0.23934684156E+03  0.16556610858E+03  0.54422964686E+03  0.00000000000E+00 0. -1.
        -13    1    3    3    0    0 -0.65206393107E+03  0.38412624188E+03  0.12246751212E+03  0.76664113601E+03  0.00000000000E+00 0.  1.
         22    1    1    2    0    0  0.11119409381E+04 -0.62347308344E+03 -0.10243960424E+04  0.16353955446E+04  0.00000000000E+00 0.  1.
<mgrwt>
<rscale>  0 0.28527628E+04</rscale>
<asrwt>0</asrwt>
<pdfrwt beam="1">  1        2 0.28327913E+00 0.28527628E+04</pdfrwt>
<pdfrwt beam="2">  1       -2 0.16999261E+00 0.28527628E+04</pdfrwt>
<totfact> 0.15118168E+00</totfact>
</mgrwt>
</event>
<event>
 6    1  0.1934315E-005  0.2399108E+04  0.7818608E-02  0.8439838E-01
          2   -1    0    0  501    0  0.00000000000E+00  0.00000000000E+00  0.20567709724E+04  0.20567709724E+04  0.00000000000E+00 0.  1.
         -2   -1    0    0    0  501 -0.00000000000E+00 -0.00000000000E+00 -0.69960595111E+03  0.69960595111E+03  0.00000000000E+00 0. -1.
         23    2    1    2    0    0  0.93124334273E+03 -0.38377957478E+03 -0.65291890301E+02  0.10134240869E+04  0.90908874716E+02 0.  0.
         11    1    3    3    0    0  0.81209936789E+03 -0.36629309387E+03 -0.55833625860E+02  0.89263285158E+03  0.00000000000E+00 0. -1.
        -11    1    3    3    0    0  0.11914397484E+03 -0.17486480910E+02 -0.94582644408E+01  0.12079123529E+03  0.00000000000E+00 0.  1.
         22    1    1    2    0    0 -0.93124334273E+03  0.38377957478E+03  0.14224569116E+04  0.17429528366E+04  0.00000000000E+00 0.  1.
<mgrwt>
<rscale>  0 0.23991075E+04</rscale>
<asrwt>0</asrwt>
<pdfrwt beam="1">  1        2 0.31642630E+00 0.23991075E+04</pdfrwt>
<pdfrwt beam="2">  1       -2 0.10763169E+00 0.23991075E+04</pdfrwt>
<totfact> 0.38684506E+00</totfact>
</mgrwt>
</event>
<event>
 6    1  0.1934315E-005  0.3179989E+04  0.7818608E-02  0.8194122E-01
          2   -1    0    0  501    0  0.00000000000E+00  0.00000000000E+00  0.33916155706E+04  0.33916155706E+04  0.00000000000E+00 0.  1.
         -2   -1    0    0    0  501 -0.00000000000E+00 -0.00000000000E+00 -0.74539183539E+03  0.74539183539E+03  0.00000000000E+00 0. -1.
         23    2    1    2    0    0 -0.69018814138E+03  0.12993301047E+04  0.54396658707E+03  0.15710566059E+04  0.87754313743E+02 0.  0.
         13    1    3    3    0    0 -0.60159544862E+03  0.11319595100E+04  0.44184307815E+03  0.13559036550E+04  0.00000000000E+00 0. -1.
        -13    1    3    3    0    0 -0.88592692765E+02  0.16737059476E+03  0.10212350892E+03  0.21515295088E+03  0.00000000000E+00 0.  1.
         22    1    1    2    0    0  0.69018814138E+03 -0.12993301047E+04  0.21022571481E+04  0.25659508001E+04  0.00000000000E+00 0. -1.
<mgrwt>
<rscale>  0 0.31799890E+04</rscale>
<asrwt>0</asrwt>
<pdfrwt beam="1">  1        2 0.52178700E+00 0.31799890E+04</pdfrwt>
<pdfrwt beam="2">  1       -2 0.11467567E+00 0.31799890E+04</pdfrwt>
<totfact> 0.48323648E-01</totfact>
</mgrwt>
</event>
<event>
 6    1  0.1934315E-005  0.1338548E+04  0.7818608E-02  0.8999543E-01
         -2   -1    0    0    0  501 -0.00000000000E+00  0.00000000000E+00  0.22614727677E+03  0.22614727677E+03  0.00000000000E+00 0. -1.
          2   -1    0    0  501    0  0.00000000000E+00 -0.00000000000E+00 -0.19806895627E+04  0.19806895627E+04  0.00000000000E+00 0.  1.
         23    2    1    2    0    0 -0.31150162576E+03  0.51141356476E+03 -0.13632565694E+04  0.14915176037E+04  0.87058550055E+02 0.  0.
         11    1    3    3    0    0 -0.11800366033E+03  0.24358341565E+03 -0.70028577055E+03  0.75077153959E+03  0.00000000000E+00 0. -1.
        -11    1    3    3    0    0 -0.19349796542E+03  0.26783014911E+03 -0.66297079887E+03  0.74074606414E+03  0.00000000000E+00 0.  1.
         22    1    1    2    0    0  0.31150162576E+03 -0.51141356476E+03 -0.39128571652E+03  0.71531923575E+03  0.00000000000E+00 0. -1.
<mgrwt>
<rscale>  0 0.13385478E+04</rscale>
<asrwt>0</asrwt>
<pdfrwt beam="1">  1        2 0.30472148E+00 0.13385478E+04</pdfrwt>
<pdfrwt beam="2">  1       -2 0.34791888E-01 0.13385478E+04</pdfrwt>
<totfact> 0.51913215E+01</totfact>
</mgrwt>
</event>
<event>
 6    1  0.1934315E-005  0.4600591E+03  0.7818608E-02  0.1024764E+00
         -2   -1    0    0    0  501 -0.00000000000E+00  0.00000000000E+00  0.58002432363E+02  0.58002432363E+02  0.00000000000E+00 0. -1.
          2   -1    0    0  501    0  0.00000000000E+00 -0.00000000000E+00 -0.91226495946E+03  0.91226495946E+03  0.00000000000E+00 0.  1.
         23    2    1    2    0    0 -0.36234138748E+01  0.49112384021E+02 -0.89822436730E+03  0.90425376606E+03  0.91884188203E+02 0.  0.
         13    1    3    3    0    0  0.30495649796E+02 -0.11684725261E+02 -0.21254433736E+03  0.21503863096E+03  0.00000000000E+00 0. -1.
        -13    1    3    3    0    0 -0.34119063671E+02  0.60797109282E+02 -0.68568002994E+03  0.68921513511E+03  0.00000000000E+00 0.  1.
         22    1    1    2    0    0  0.36234138748E+01 -0.49112384021E+02  0.43961840199E+02  0.66013625760E+02  0.00000000000E+00 0. -1.
<mgrwt>
<rscale>  0 0.46005907E+03</rscale>
<asrwt>0</asrwt>
<pdfrwt beam="1">  1        2 0.14034845E+00 0.46005907E+03</pdfrwt>
<pdfrwt beam="2">  1       -2 0.89234517E-02 0.46005907E+03</pdfrwt>
<totfact> 0.23799894E+03</totfact>
</mgrwt>
</event>
<event>
 6    1  0.1934315E-005  0.1157155E+04  0.7818608E-02  0.9151208E-01
         -2   -1    0    0    0  501 -0.00000000000E+00  0.00000000000E+00  0.20186887978E+03  0.20186887978E+03  0.00000000000E+00 0. -1.
          2   -1    0    0  501    0  0.00000000000E+00 -0.00000000000E+00 -0.16582634828E+04  0.16582634828E+04  0.00000000000E+00 0.  1.
         23    2    1    2    0    0 -0.22506593890E+03  0.32098100334E+03 -0.56870396836E+02  0.40673926881E+03  0.92299021657E+02 0.  0.
         11    1    3    3    0    0 -0.44537985210E+02  0.81085897557E+02 -0.52714821876E+02  0.10647726215E+03  0.00000000000E+00 0.  1.
        -11    1    3    3    0    0 -0.18052795369E+03  0.23989510578E+03 -0.41555749596E+01  0.30026200666E+03  0.00000000000E+00 0. -1.
         22    1    1    2    0    0  0.22506593890E+03 -0.32098100334E+03 -0.13995242062E+04  0.14533930938E+04  0.00000000000E+00 0.  1.
<mgrwt>
<rscale>  0 0.11571548E+04</rscale>
<asrwt>0</asrwt>
<pdfrwt beam="1">  1        2 0.25511746E+00 0.11571548E+04</pdfrwt>
<pdfrwt beam="2">  1       -2 0.31056751E-01 0.11571548E+04</pdfrwt>
<totfact> 0.98356818E+01</totfact>
</mgrwt>
</event>
<event>
 6    1  0.1934315E-005  0.8515879E+03  0.7818608E-02  0.9488208E-01
          2   -1    0    0  501    0  0.00000000000E+00  0.00000000000E+00  0.66172671345E+03  0.66172671345E+03  0.00000000000E+00 0.  1.
         -2   -1    0    0    0  501 -0.00000000000E+00 -0.00000000000E+00 -0.27398089743E+03  0.27398089743E+03  0.00000000000E+00 0. -1.
         23    2    1    2    0    0  0.63937648539E+02  0.26191395409E+03 -0.15929033002E+03  0.32584247225E+03  0.90072000299E+02 0.  0.
         13    1    3    3    0    0 -0.56892721967E+01  0.14512127528E+03 -0.10599528035E+03  0.17979864241E+03  0.00000000000E+00 0. -1.
        -13    1    3    3    0    0  0.69626920736E+02  0.11679267881E+03 -0.53295049669E+02  0.14604382984E+03  0.00000000000E+00 0.  1.
         22    1    1    2    0    0 -0.63937648539E+02 -0.26191395409E+03  0.54703614604E+03  0.60986513863E+03  0.00000000000E+00 0.  1.
<mgrwt>
<rscale>  0 0.85158788E+03</rscale>
<asrwt>0</asrwt>
<pdfrwt beam="1">  1        2 0.10180411E+00 0.85158788E+03</pdfrwt>
<pdfrwt beam="2">  1       -2 0.42150907E-01 0.85158788E+03</pdfrwt>
<totfact> 0.23563544E+02</totfact>
</mgrwt>
</event>
<event>
 6    1  0.1934315E-005  0.1011546E+04  0.7818608E-02  0.9295972E-01
          2   -1    0    0  501    0  0.00000000000E+00  0.00000000000E+00  0.20778241380E+04  0.20778241380E+04  0.00000000000E+00 0.  1.
         -2   -1    0    0    0  501 -0.00000000000E+00 -0.00000000000E+00 -0.12311251121E+03  0.12311251121E+03  0.00000000000E+00 0. -1.
         23    2    1    2    0    0 -0.56676837541E+02  0.42852904100E+03  0.15395537710E+04  0.16015991416E+04  0.89691657473E+02 0.  0.
         11    1    3    3    0    0 -0.52021611610E+02  0.22405976878E+03  0.95459674450E+03  0.98191851631E+03  0.00000000000E+00 0. -1.
        -11    1    3    3    0    0 -0.46552259312E+01  0.20446927222E+03  0.58495702655E+03  0.61968062526E+03  0.00000000000E+00 0.  1.
         22    1    1    2    0    0  0.56676837541E+02 -0.42852904100E+03  0.41515785575E+03  0.59933750766E+03  0.00000000000E+00 0.  1.
<mgrwt>
<rscale>  0 0.10115456E+04</rscale>
<asrwt>0</asrwt>
<pdfrwt beam="1">  1        2 0.31966522E+00 0.10115456E+04</pdfrwt>
<pdfrwt beam="2">  1       -2 0.18940388E-01 0.10115456E+04</pdfrwt>
<totfact> 0.14249693E+02</totfact>
</mgrwt>
</event>
<event>
 6    1  0.1972937E-005  0.3466670E+04  0.7818608E-02  0.8121734E-01
         -2   -1    0    0    0  501 -0.00000000000E+00  0.00000000000E+00  0.21053467351E+04  0.21053467351E+04  0.00000000000E+00 0. -1.
          2   -1    0    0  501    0  0.00000000000E+00 -0.00000000000E+00 -0.14270570619E+04  0.14270570619E+04  0.00000000000E+00 0.  1.
         23    2    1    2    0    0  0.16018391632E+04  0.13627545522E+03 -0.31811625443E+03  0.16410327395E+04  0.85620070731E+02 0.  0.
         13    1    3    3    0    0  0.72052955525E+03  0.20202656819E+02 -0.15433490956E+03  0.73715008759E+03  0.00000000000E+00 0.  1.
        -13    1    3    3    0    0  0.88130960793E+03  0.11607279840E+03 -0.16378134488E+03  0.90388265194E+03  0.00000000000E+00 0. -1.
         22    1    1    2    0    0 -0.16018391632E+04 -0.13627545522E+03  0.99640592767E+03  0.18913710575E+04  0.00000000000E+00 0.  1.
<mgrwt>
<rscale>  0 0.34666698E+04</rscale>
<asrwt>0</asrwt>
<pdfrwt beam="1">  1        2 0.21954724E+00 0.34666698E+04</pdfrwt>
<pdfrwt beam="2">  1       -2 0.32389950E+00 0.34666698E+04</pdfrwt>
<totfact> 0.26054213E-01</totfact>
</mgrwt>
</event>
<event>
 6    1  0.1934315E-005  0.2715499E+04  0.7818608E-02  0.8329994E-01
          2   -1    0    0  501    0  0.00000000000E+00  0.00000000000E+00  0.15261215046E+04  0.15261215046E+04  0.00000000000E+00 0.  1.
         -2   -1    0    0    0  501 -0.00000000000E+00 -0.00000000000E+00 -0.12079534909E+04  0.12079534909E+04  0.00000000000E+00 0. -1.
         23    2    1    2    0    0 -0.11778490573E+04 -0.52516642186E+03 -0.26628165354E+03  0.13181973221E+04  0.60084013617E+02 0.  0.
         11    1    3    3    0    0 -0.59147011517E+03 -0.28390487048E+03 -0.11119600533E+03  0.66543476332E+03  0.00000000000E+00 0. -1.
        -11    1    3    3    0    0 -0.58637894210E+03 -0.24126155138E+03 -0.15508564821E+03  0.65276255882E+03  0.00000000000E+00 0.  1.
         22    1    1    2    0    0  0.11778490573E+04  0.52516642186E+03  0.58444966720E+03  0.14158776733E+04  0.00000000000E+00 0.  1.
<mgrwt>
<rscale>  0 0.27154991E+04</rscale>
<asrwt>0</asrwt>
<pdfrwt beam="1">  1        2 0.23478793E+00 0.27154991E+04</pdfrwt>
<pdfrwt beam="2">  1       -2 0.18583900E+00 0.27154991E+04</pdfrwt>
<totfact> 0.17780600E+00</totfact>
</mgrwt>
</event>
<event>
 6    1  0.1934315E-005  0.1860160E+04  0.7818608E-02  0.8674945E-01
          2   -1    0    0  501    0  0.00000000000E+00  0.00000000000E+00  0.34251274361E+04  0.34251274361E+04  0.00000000000E+00 0.  1.
         -2   -1    0    0    0  501 -0.00000000000E+00 -0.00000000000E+00 -0.25255967612E+03  0.25255967612E+03  0.00000000000E+00 0. -1.
         23    2    1    2    0    0  0.87196458054E+03 -0.23249301879E+03  0.11648672814E+04  0.14764973327E+04  0.93559376178E+02 0.  0.
         13    1    3    3    0    0  0.38854090871E+03 -0.62324097976E+02  0.46763897704E+03  0.61117472442E+03  0.00000000000E+00 0. -1.
        -13    1    3    3    0    0  0.48342367183E+03 -0.17016892081E+03  0.69722830432E+03  0.86532260831E+03  0.00000000000E+00 0.  1.
         22    1    1    2    0    0 -0.87196458054E+03  0.23249301879E+03  0.20077004786E+04  0.22011897794E+04  0.00000000000E+00 0.  1.
<mgrwt>
<rscale>  0 0.18601603E+04</rscale>
<asrwt>0</asrwt>
<pdfrwt beam="1">  1        2 0.52694265E+00 0.18601603E+04</pdfrwt>
<pdfrwt beam="2">  1       -2 0.38855337E-01 0.18601603E+04</pdfrwt>
<totfact> 0.54251102E+00</totfact>
</mgrwt>
</event>
<event>
 6    1  0.1934315E-005  0.2818440E+04  0.7818608E-02  0.8297566E-01
          2   -1    0    0  501    0  0.00000000000E+00  0.00000000000E+00  0.11027314809E+04  0.11027314809E+04  0.00000000000E+00 0.  1.
         -2   -1    0    0    0  501 -0.00000000000E+00 -0.00000000000E+00 -0.18008931182E+04  0.18008931182E+04  0.00000000000E+00 0. -1.
         23    2    1    2    0    0  0.10223317754E+04  0.47034046958E+03 -0.12207524535E+04  0.16628653245E+04  0.92206932528E+02 0.  0.
         13    1    3    3    0    0  0.93378746100E+03  0.43724839831E+03 -0.10786025855E+04  0.14921557297E+04  0.00000000000E+00 0.  1.
        -13    1    3    3    0    0  0.88544314361E+02  0.33092071276E+02 -0.14214986806E+03  0.17070959485E+03  0.00000000000E+00 0. -1.
         22    1    1    2    0    0 -0.10223317754E+04 -0.47034046958E+03  0.52259081631E+03  0.12407592746E+04  0.00000000000E+00 0. -1.
<mgrwt>
<rscale>  0 0.28184404E+04</rscale>
<asrwt>0</asrwt>
<pdfrwt beam="1">  1        2 0.16965100E+00 0.28184404E+04</pdfrwt>
<pdfrwt beam="2">  1       -2 0.27706048E+00 0.28184404E+04</pdfrwt>
<totfact> 0.82749802E-01</totfact>
</mgrwt>
</event>
<event>
 6    1  0.1934315E-005  0.3641139E+04  0.7818608E-02  0.8081133E-01
          2   -1    0    0  501    0  0.00000000000E+00  0.00000000000E+00  0.19283936500E+04  0.19283936500E+04  0.00000000000E+00 0.  1.
         -2   -1    0    0    0  501 -0.00000000000E+00 -0.00000000000E+00 -0.17187746525E+04  0.17187746525E+04  0.00000000000E+00 0. -1.
         23    2    1    2    0    0  0.80893261367E+03  0.16097733833E+04  0.35998633890E+03  0.18393097194E+04  0.87907683839E+02 0.  0.
         11    1    3    3    0    0  0.52495005277E+03  0.11236784739E+04  0.22716794698E+03  0.12608850648E+04  0.00000000000E+00 0. -1.
        -11    1    3    3    0    0  0.28398256090E+03  0.48609490938E+03  0.13281839192E+03  0.57842465460E+03  0.00000000000E+00 0.  1.
         22    1    1    2    0    0 -0.80893261367E+03 -0.16097733833E+04 -0.15036734135E+03  0.18078585830E+04  0.00000000000E+00 0. -1.
<mgrwt>
<rscale>  0 0.36411395E+04</rscale>
<asrwt>0</asrwt>
<pdfrwt beam="1">  1        2 0.29667595E+00 0.36411395E+04</pdfrwt>
<pdfrwt beam="2">  1       -2 0.26442687E+00 0.36411395E+04</pdfrwt>
<totfact> 0.31182846E-01</totfact>
</mgrwt>
</event>
<event>
 6    1  0.1934315E-005  0.2049923E+04  0.7818608E-02  0.8583629E-01
          2   -1    0    0  501    0  0.00000000000E+00  0.00000000000E+00  0.13673447811E+04  0.13673447811E+04  0.00000000000E+00 0.  1.
         -2   -1    0    0    0  501 -0.00000000000E+00 -0.00000000000E+00 -0.76831106192E+03  0.76831106192E+03  0.00000000000E+00 0. -1.
         23    2    1    2    0    0  0.74869833275E+03  0.10309922350E+03 -0.41805044474E+03  0.86851779219E+03  0.91533259869E+02 0.  0.
         13    1    3    3    0    0  0.51498787464E+03  0.45020301668E+02 -0.24564601302E+03  0.57234718685E+03  0.00000000000E+00 0.  1.
        -13    1    3    3    0    0  0.23371045811E+03  0.58078921834E+02 -0.17240443171E+03  0.29617060534E+03  0.00000000000E+00 0. -1.
         22    1    1    2    0    0 -0.74869833275E+03 -0.10309922350E+03  0.10170841639E+04  0.12671380508E+04  0.00000000000E+00 0.  1.
<mgrwt>
<rscale>  0 0.20499230E+04</rscale>
<asrwt>0</asrwt>
<pdfrwt beam="1">  1        2 0.21036073E+00 0.20499230E+04</pdfrwt>
<pdfrwt beam="2">  1       -2 0.11820170E+00 0.20499230E+04</pdfrwt>
<totfact> 0.77087687E+00</totfact>
</mgrwt>
</event>
<event>
 6    1  0.1934315E-005  0.1711853E+04  0.7818608E-02  0.8754633E-01
         -2   -1    0    0    0  501 -0.00000000000E+00  0.00000000000E+00  0.13828927577E+04  0.13828927577E+04  0.00000000000E+00 0. -1.
          2   -1    0    0  501    0  0.00000000000E+00 -0.00000000000E+00 -0.52976614604E+03  0.52976614604E+03  0.00000000000E+00 0.  1.
         23    2    1    2    0    0  0.82316782054E+03 -0.18753992086E+03  0.28848274898E+03  0.89698219614E+03  0.92619010171E+02 0.  0.
         11    1    3    3    0    0  0.58374832319E+03 -0.90021657401E+02  0.20863252548E+03  0.62641322968E+03  0.00000000000E+00 0. -1.
        -11    1    3    3    0    0  0.23941949734E+03 -0.97518263455E+02  0.79850223505E+02  0.27056896646E+03  0.00000000000E+00 0.  1.
         22    1    1    2    0    0 -0.82316782054E+03  0.18753992086E+03  0.56464386264E+03  0.10156767076E+04  0.00000000000E+00 0. -1.
<mgrwt>
<rscale>  0 0.17118525E+04</rscale>
<asrwt>0</asrwt>
<pdfrwt beam="1">  1        2 0.81502484E-01 0.17118525E+04</pdfrwt>
<pdfrwt beam="2">  1       -2 0.21275273E+00 0.17118525E+04</pdfrwt>
<totfact> 0.60094535E+00</totfact>
</mgrwt>
</event>
<event>
 6    1  0.1934315E-005  0.9211293E+03  0.7818608E-02  0.9399547E-01
          2   -1    0    0  501    0  0.00000000000E+00  0.00000000000E+00  0.27843603101E+03  0.27843603101E+03  0.00000000000E+00 0.  1.
         -2   -1    0    0    0  501 -0.00000000000E+00 -0.00000000000E+00 -0.76182601908E+03  0.76182601908E+03  0.00000000000E+00 0. -1.
         23    2    1    2    0    0  0.23973978870E+03 -0.28085187648E+03 -0.54786776596E+03  0.66541497908E+03  0.79152148378E+02 0.  0.
         11    1    3    3    0    0  0.15613171818E+03 -0.21738020402E+03 -0.34148048575E+03  0.43386655629E+03  0.00000000000E+00 0. -1.
        -11    1    3    3    0    0  0.83608070527E+02 -0.63471672459E+02 -0.20638728021E+03  0.23154842279E+03  0.00000000000E+00 0.  1.
         22    1    1    2    0    0 -0.23973978870E+03  0.28085187648E+03  0.64477777895E+02  0.37484707102E+03  0.00000000000E+00 0.  1.
<mgrwt>
<rscale>  0 0.92112934E+03</rscale>
<asrwt>0</asrwt>
<pdfrwt beam="1">  1        2 0.42836312E-01 0.92112934E+03</pdfrwt>
<pdfrwt beam="2">  1       -2 0.11720400E+00 0.92112934E+03</pdfrwt>
<totfact> 0.67290052E+01</totfact>
</mgrwt>
</event>
<event>
 6    1  0.1934315E-005  0.2846230E+04  0.7818608E-02  0.8289058E-01
         -2   -1    0    0    0  501 -0.00000000000E+00  0.00000000000E+00  0.12392881543E+04  0.12392881543E+04  0.00000000000E+00 0. -1.
          2   -1    0    0  501    0  0.00000000000E+00 -0.00000000000E+00 -0.16342097087E+04  0.16342097087E+04  0.00000000000E+00 0.  1.
         23    2    1    2    0    0  0.30433946206E+03 -0.13472710392E+04  0.14475464879E+03  0.13905912019E+04  0.70909951210E+02 0.  0.
         13    1    3    3    0    0  0.50808555574E+02 -0.25523087586E+03  0.54463117155E+02  0.26587692724E+03  0.00000000000E+00 0.  1.
        -13    1    3    3    0    0  0.25353090649E+03 -0.10920401633E+04  0.90291531631E+02  0.11247142746E+04  0.00000000000E+00 0. -1.
         22    1    1    2    0    0 -0.30433946206E+03  0.13472710392E+04 -0.53967620327E+03  0.14829066611E+04  0.00000000000E+00 0. -1.
<mgrwt>
<rscale>  0 0.28462303E+04</rscale>
<asrwt>0</asrwt>
<pdfrwt beam="1">  1        2 0.25141688E+00 0.28462303E+04</pdfrwt>
<pdfrwt beam="2">  1       -2 0.19065972E+00 0.28462303E+04</pdfrwt>
<totfact> 0.14195031E+00</totfact>
</mgrwt>
</event>
<event>
 6    1  0.1934315E-005  0.2109089E+04  0.7818608E-02  0.8557250E-01
          2   -1    0    0  501    0  0.00000000000E+00  0.00000000000E+00  0.12424014470E+04  0.12424014470E+04  0.00000000000E+00 0.  1.
         -2   -1    0    0    0  501 -0.00000000000E+00 -0.00000000000E+00 -0.89509239566E+03  0.89509239566E+03  0.00000000000E+00 0. -1.
         23    2    1    2    0    0  0.17220064681E+03 -0.73742715021E+03 -0.56696003565E+03  0.95033764904E+03  0.90808042233E+02 0.  0.
         11    1    3    3    0    0  0.13775764263E+03 -0.40721806609E+03 -0.34143922849E+03  0.54898494351E+03  0.00000000000E+00 0. -1.
        -11    1    3    3    0    0  0.34443004176E+02 -0.33020908412E+03 -0.22552080716E+03  0.40135270553E+03  0.00000000000E+00 0.  1.
         22    1    1    2    0    0 -0.17220064681E+03  0.73742715021E+03  0.91426908700E+03  0.11871561936E+04  0.00000000000E+00 0.  1.
<mgrwt>
<rscale>  0 0.21090890E+04</rscale>
<asrwt>0</asrwt>
<pdfrwt beam="1">  1        2 0.19113869E+00 0.21090890E+04</pdfrwt>
<pdfrwt beam="2">  1       -2 0.13770652E+00 0.21090890E+04</pdfrwt>
<totfact> 0.61705387E+00</totfact>
</mgrwt>
</event>
<event>
 6    1  0.1934315E-005  0.2489074E+04  0.7818608E-02  0.8406889E-01
          2   -1    0    0  501    0  0.00000000000E+00  0.00000000000E+00  0.38431978501E+04  0.38431978501E+04  0.00000000000E+00 0.  1.
         -2   -1    0    0    0  501 -0.00000000000E+00 -0.00000000000E+00 -0.40301639562E+03  0.40301639562E+03  0.00000000000E+00 0. -1.
         23    2    1    2    0    0  0.87385718968E+03 -0.76030552670E+03  0.24906141412E+04  0.27484262219E+04  0.94852595497E+02 0.  0.
         13    1    3    3    0    0  0.51568843418E+03 -0.44640458588E+03  0.13547909367E+04  0.15167959973E+04  0.00000000000E+00 0. -1.
        -13    1    3    3    0    0  0.35816875550E+03 -0.31390094082E+03  0.11358232045E+04  0.12316302245E+04  0.00000000000E+00 0.  1.
         22    1    1    2    0    0 -0.87385718968E+03  0.76030552670E+03  0.94956731326E+03  0.14977880238E+04  0.00000000000E+00 0. -1.
<mgrwt>
<rscale>  0 0.24890735E+04</rscale>
<asrwt>0</asrwt>
<pdfrwt beam="1">  1        2 0.59126118E+00 0.24890735E+04</pdfrwt>
<pdfrwt beam="2">  1       -2 0.62002525E-01 0.24890735E+04</pdfrwt>
<totfact> 0.98401694E-01</totfact>
</mgrwt>
</event>
<event>
 6    1  0.1934315E-005  0.1846274E+04  0.7818608E-02  0.8682071E-01
         -2   -1    0    0    0  501 -0.00000000000E+00  0.00000000000E+00  0.27368877189E+03  0.27368877189E+03  0.00000000000E+00 0. -1.
          2   -1    0    0  501    0  0.00000000000E+00 -0.00000000000E+00 -0.31136892084E+04  0.31136892084E+04  0.00000000000E+00 0.  1.
         23    2    1    2    0    0  0.40618259284E+03 -0.78079053947E+03 -0.19212472237E+04  0.21150864920E+04  0.88214560566E+02 0.  0.
         11    1    3    3    0    0  0.24963345691E+03 -0.45849961602E+03 -0.10366933833E+04  0.11607204365E+04  0.00000000000E+00 0.  1.
        -11    1    3    3    0    0  0.15654913593E+03 -0.32229092345E+03 -0.88455384037E+03  0.95436605546E+03  0.00000000000E+00 0. -1.
         22    1    1    2    0    0 -0.40618259284E+03  0.78079053947E+03 -0.91875321287E+03  0.12722914884E+04  0.00000000000E+00 0.  1.
<mgrwt>
<rscale>  0 0.18462738E+04</rscale>
<asrwt>0</asrwt>
<pdfrwt beam="1">  1        2 0.47902908E+00 0.18462738E+04</pdfrwt>
<pdfrwt beam="2">  1       -2 0.42105967E-01 0.18462738E+04</pdfrwt>
<totfact> 0.74467960E+00</totfact>
</mgrwt>
</event>
<event>
 6    1  0.1934315E-005  0.2069243E+04  0.7818608E-02  0.8574914E-01
         -1   -1    0    0    0  501 -0.00000000000E+00  0.00000000000E+00  0.10193042372E+04  0.10193042372E+04  0.00000000000E+00 0. -1.
          1   -1    0    0  501    0  0.00000000000E+00 -0.00000000000E+00 -0.10501687948E+04  0.10501687948E+04  0.00000000000E+00 0.  1.
         23    2    1    2    0    0 -0.10239088795E+04  0.11189388669E+03 -0.88650312051E+02  0.10378486679E+04  0.91440385620E+02 0.  0.
         11    1    3    3    0    0 -0.20959043825E+03 -0.71626253885E+01  0.34054365333E+01  0.20974043960E+03  0.00000000000E+00 0.  1.
        -11    1    3    3    0    0 -0.81431844126E+03  0.11905651208E+03 -0.92055748584E+02  0.82810822825E+03  0.00000000000E+00 0. -1.
         22    1    1    2    0    0  0.10239088795E+04 -0.11189388669E+03  0.57785754471E+02  0.10316243642E+04  0.00000000000E+00 0. -1.
<mgrwt>
<rscale>  0 0.20692429E+04</rscale>
<asrwt>0</asrwt>
<pdfrwt beam="1">  1        1 0.16156443E+00 0.20692429E+04</pdfrwt>
<pdfrwt beam="2">  1       -1 0.15681604E+00 0.20692429E+04</pdfrwt>
<totfact> 0.39428823E+00</totfact>
</mgrwt>
</event>
<event>
 6    1  0.1934315E-005  0.7272336E+03  0.7818608E-02  0.9671760E-01
         -1   -1    0    0    0  501 -0.00000000000E+00  0.00000000000E+00  0.19916696172E+03  0.19916696172E+03  0.00000000000E+00 0. -1.
          1   -1    0    0  501    0  0.00000000000E+00 -0.00000000000E+00 -0.66385092960E+03  0.66385092960E+03  0.00000000000E+00 0.  1.
         23    2    1    2    0    0  0.10010004709E+03  0.78414035898E+02 -0.63308826171E+03  0.65199944039E+03  0.90187264580E+02 0.  0.
         11    1    3    3    0    0  0.27409841322E+02  0.17909947015E+02 -0.38669196626E+03  0.38807569155E+03  0.00000000000E+00 0.  1.
        -11    1    3    3    0    0  0.72690205767E+02  0.60504088883E+02 -0.24639629545E+03  0.26392374884E+03  0.00000000000E+00 0. -1.
         22    1    1    2    0    0 -0.10010004709E+03 -0.78414035898E+02  0.16840429384E+03  0.21101845094E+03  0.00000000000E+00 0. -1.
<mgrwt>
<rscale>  0 0.72723359E+03</rscale>
<asrwt>0</asrwt>
<pdfrwt beam="1">  1        1 0.10213091E+00 0.72723359E+03</pdfrwt>
<pdfrwt beam="2">  1       -1 0.30641071E-01 0.72723359E+03</pdfrwt>
<totfact> 0.29340772E+02</totfact>
</mgrwt>
</event>
<event>
 6    1  0.2611452E-005  0.4049839E+04  0.7818608E-02  0.7994567E-01
          2   -1    0    0  501    0  0.00000000000E+00  0.00000000000E+00  0.23703450672E+04  0.23703450672E+04  0.00000000000E+00 0.  1.
         -2   -1    0    0    0  501 -0.00000000000E+00 -0.00000000000E+00 -0.17298324827E+04  0.17298324827E+04  0.00000000000E+00 0. -1.
         23    2    1    2    0    0 -0.11234784714E+04  0.35137454394E+03  0.19872891376E+04  0.23114699075E+04  0.88921713619E+02 0.  0.
         11    1    3    3    0    0 -0.46359585278E+03  0.19041346638E+03  0.85794507424E+03  0.99360361981E+03  0.00000000000E+00 0. -1.
        -11    1    3    3    0    0 -0.65988261863E+03  0.16096107756E+03  0.11293440634E+04  0.13178662877E+04  0.00000000000E+00 0.  1.
         22    1    1    2    0    0  0.11234784714E+04 -0.35137454394E+03 -0.13467765531E+04  0.17887076424E+04  0.00000000000E+00 0. -1.
<mgrwt>
<rscale>  0 0.40498394E+04</rscale>
<asrwt>0</asrwt>
<pdfrwt beam="1">  1        2 0.36466847E+00 0.40498394E+04</pdfrwt>
<pdfrwt beam="2">  1       -2 0.26612807E+00 0.40498394E+04</pdfrwt>
<totfact> 0.16625323E-01</totfact>
</mgrwt>
</event>
<event>
 6    1  0.1934315E-005  0.2738366E+04  0.7818608E-02  0.8322663E-01
          2   -1    0    0  501    0  0.00000000000E+00  0.00000000000E+00  0.33372707310E+04  0.33372707310E+04  0.00000000000E+00 0.  1.
         -2   -1    0    0    0  501 -0.00000000000E+00 -0.00000000000E+00 -0.56173528058E+03  0.56173528058E+03  0.00000000000E+00 0. -1.
         23    2    1    2    0    0 -0.39338543546E+03 -0.76582016978E+03 -0.12375820888E+03  0.87458270190E+03  0.91357402087E+02 0.  0.
         13    1    3    3    0    0 -0.29129969668E+02 -0.12070961169E+03 -0.49553899487E+01  0.12427357473E+03  0.00000000000E+00 0.  1.
        -13    1    3    3    0    0 -0.36425546580E+03 -0.64511055809E+03 -0.11880281893E+03  0.75030912717E+03  0.00000000000E+00 0. -1.
         22    1    1    2    0    0  0.39338543546E+03  0.76582016978E+03  0.28992936593E+04  0.30244233096E+04  0.00000000000E+00 0.  1.
<mgrwt>
<rscale>  0 0.27383665E+04</rscale>
<asrwt>0</asrwt>
<pdfrwt beam="1">  1        2 0.51342625E+00 0.27383665E+04</pdfrwt>
<pdfrwt beam="2">  1       -2 0.86420814E-01 0.27383665E+04</pdfrwt>
<totfact> 0.10667752E+00</totfact>
</mgrwt>
</event>
<event>
 6    1  0.1934315E-005  0.1670175E+04  0.7818608E-02  0.8778560E-01
         -2   -1    0    0    0  501 -0.00000000000E+00  0.00000000000E+00  0.23157009228E+04  0.23157009228E+04  0.00000000000E+00 0. -1.
          2   -1    0    0  501    0  0.00000000000E+00 -0.00000000000E+00 -0.30114907457E+03  0.30114907457E+03  0.00000000000E+00 0.  1.
         23    2    1    2    0    0  0.12229083423E+03  0.81147405265E+03  0.12234049942E+04  0.14769559098E+04  0.10598959077E+03 0.  0.
         13    1    3    3    0    0  0.84279435816E+02  0.23828913152E+03  0.39085703907E+03  0.46546101715E+03  0.00000000000E+00 0. -1.
        -13    1    3    3    0    0  0.38011398413E+02  0.57318492113E+03  0.83254795513E+03  0.10114948926E+04  0.00000000000E+00 0.  1.
         22    1    1    2    0    0 -0.12229083423E+03 -0.81147405265E+03  0.79114685400E+03  0.11398940876E+04  0.00000000000E+00 0. -1.
<mgrwt>
<rscale>  0 0.16701751E+04</rscale>
<asrwt>0</asrwt>
<pdfrwt beam="1">  1        2 0.46330628E-01 0.16701751E+04</pdfrwt>
<pdfrwt beam="2">  1       -2 0.35626167E+00 0.16701751E+04</pdfrwt>
<totfact> 0.14886781E+00</totfact>
</mgrwt>
</event>
<event>
 6    1  0.1934315E-005  0.1684409E+04  0.7818608E-02  0.8770307E-01
          2   -1    0    0  501    0  0.00000000000E+00  0.00000000000E+00  0.15332848066E+04  0.15332848066E+04  0.00000000000E+00 0.  1.
         -2   -1    0    0    0  501 -0.00000000000E+00 -0.00000000000E+00 -0.46260705237E+03  0.46260705237E+03  0.00000000000E+00 0. -1.
         23    2    1    2    0    0  0.26817067891E+03  0.50242021585E+03  0.12681110000E+04  0.13931303200E+04  0.91460340807E+02 0.  0.
         11    1    3    3    0    0  0.45034884086E+02  0.45039483374E+02  0.20161789251E+03  0.21143904660E+03  0.00000000000E+00 0. -1.
        -11    1    3    3    0    0  0.22313579482E+03  0.45738073247E+03  0.10664931075E+04  0.11816912734E+04  0.00000000000E+00 0.  1.
         22    1    1    2    0    0 -0.26817067891E+03 -0.50242021585E+03 -0.19743324576E+03  0.60276153896E+03  0.00000000000E+00 0. -1.
<mgrwt>
<rscale>  0 0.16844089E+04</rscale>
<asrwt>0</asrwt>
<pdfrwt beam="1">  1        2 0.23588997E+00 0.16844089E+04</pdfrwt>
<pdfrwt beam="2">  1       -2 0.71170317E-01 0.16844089E+04</pdfrwt>
<totfact> 0.20760072E+01</totfact>
</mgrwt>
</event>
<event>
 6    1  0.1934315E-005  0.2027294E+04  0.7818608E-02  0.8593965E-01
          2   -1    0    0  501    0  0.00000000000E+00  0.00000000000E+00  0.83734816779E+03  0.83734816779E+03  0.00000000000E+00 0.  1.
         -2   -1    0    0    0  501 -0.00000000000E+00 -0.00000000000E+00 -0.12270646793E+04  0.12270646793E+04  0.00000000000E+00 0. -1.
         23    2    1    2    0    0  0.30011689504E+03 -0.42361312588E+02 -0.11781142471E+04  0.12197616641E+04  0.89446668079E+02 0.  0.
         11    1    3    3    0    0  0.20640753299E+03 -0.11075417994E+02 -0.63686359165E+03  0.66956849458E+03  0.00000000000E+00 0. -1.
        -11    1    3    3    0    0  0.93709362050E+02 -0.31285894594E+02 -0.54125065548E+03  0.55019316953E+03  0.00000000000E+00 0.  1.
         22    1    1    2    0    0 -0.30011689504E+03  0.42361312588E+02  0.78839773559E+03  0.84465118302E+03  0.00000000000E+00 0.  1.
<mgrwt>
<rscale>  0 0.20272941E+04</rscale>
<asrwt>0</asrwt>
<pdfrwt beam="1">  1        2 0.12882279E+00 0.20272941E+04</pdfrwt>
<pdfrwt beam="2">  1       -2 0.18877918E+00 0.20272941E+04</pdfrwt>
<totfact> 0.47413348E+00</totfact>
</mgrwt>
</event>
<event>
 6    1  0.1934315E-005  0.4324423E+04  0.7818608E-02  0.7942117E-01
          2   -1    0    0  501    0  0.00000000000E+00  0.00000000000E+00  0.16136795567E+04  0.16136795567E+04  0.00000000000E+00 0.  1.
         -2   -1    0    0    0  501 -0.00000000000E+00 -0.00000000000E+00 -0.28972038462E+04  0.28972038462E+04  0.00000000000E+00 0. -1.
         23    2    1    2    0    0 -0.18717368201E+04 -0.96939452958E+03 -0.11399318874E+04  0.23981261392E+04  0.91868350075E+02 0.  0.
         11    1    3    3    0    0 -0.87229713273E+03 -0.41026865163E+03 -0.49018248532E+03  0.10814349371E+04  0.00000000000E+00 0.  1.
        -11    1    3    3    0    0 -0.99943968739E+03 -0.55912587795E+03 -0.64974940204E+03  0.13166912021E+04  0.00000000000E+00 0. -1.
         22    1    1    2    0    0  0.18717368201E+04  0.96939452958E+03 -0.14359240217E+03  0.21127572638E+04  0.00000000000E+00 0.  1.
<mgrwt>
<rscale>  0 0.43244230E+04</rscale>
<asrwt>0</asrwt>
<pdfrwt beam="1">  1        2 0.24825840E+00 0.43244230E+04</pdfrwt>
<pdfrwt beam="2">  1       -2 0.44572366E+00 0.43244230E+04</pdfrwt>
<totfact> 0.31215960E-02</totfact>
</mgrwt>
</event>
<event>
 6    1  0.1934315E-005  0.6599849E+04  0.7818608E-02  0.7620173E-01
          2   -1    0    0  501    0  0.00000000000E+00  0.00000000000E+00  0.48097267984E+04  0.48097267984E+04  0.00000000000E+00 0.  1.
         -2   -1    0    0    0  501 -0.00000000000E+00 -0.00000000000E+00 -0.22640583997E+04  0.22640583997E+04  0.00000000000E+00 0. -1.
         23    2    1    2    0    0  0.21408175166E+03 -0.19692470195E+04  0.41010353495E+04  0.45552675443E+04  0.90590519982E+02 0.  0.
         11    1    3    3    0    0  0.65009284025E+02 -0.70216425896E+03  0.15572213216E+04  0.17094440904E+04  0.00000000000E+00 0.  1.
        -11    1    3    3    0    0  0.14907246764E+03 -0.12670827606E+04  0.25438140279E+04  0.28458234540E+04  0.00000000000E+00 0. -1.
         22    1    1    2    0    0 -0.21408175166E+03  0.19692470195E+04 -0.15553669508E+04  0.25185176537E+04  0.00000000000E+00 0. -1.
<mgrwt>
<rscale>  0 0.65998492E+04</rscale>
<asrwt>0</asrwt>
<pdfrwt beam="1">  1        2 0.73995796E+00 0.65998492E+04</pdfrwt>
<pdfrwt beam="2">  1       -2 0.34831668E+00 0.65998492E+04</pdfrwt>
<totfact> 0.58371836E-04</totfact>
</mgrwt>
</event>
<event>
 6    1  0.1934315E-005  0.5613773E+04  0.7818608E-02  0.7740225E-01
          2   -1    0    0  501    0  0.00000000000E+00  0.00000000000E+00  0.36034423343E+04  0.36034423343E+04  0.00000000000E+00 0.  1.
         -2   -1    0    0    0  501 -0.00000000000E+00 -0.00000000000E+00 -0.21864122940E+04  0.21864122940E+04  0.00000000000E+00 0. -1.
         23    2    1    2    0    0 -0.17736932290E+04  0.42393886777E+03  0.29084033064E+04  0.34340307696E+04  0.89697827448E+02 0.  0.
         13    1    3    3    0    0 -0.13975247337E+04  0.29609700158E+03  0.22705044144E+04  0.26825247644E+04  0.00000000000E+00 0. -1.
        -13    1    3    3    0    0 -0.37616849528E+03  0.12784186619E+03  0.63789889198E+03  0.75150600529E+03  0.00000000000E+00 0.  1.
         22    1    1    2    0    0  0.17736932290E+04 -0.42393886777E+03 -0.14913732661E+04  0.23558238587E+04  0.00000000000E+00 0. -1.
<mgrwt>
<rscale>  0 0.56137726E+04</rscale>
<asrwt>0</asrwt>
<pdfrwt beam="1">  1        2 0.55437574E+00 0.56137726E+04</pdfrwt>
<pdfrwt beam="2">  1       -2 0.33637112E+00 0.56137726E+04</pdfrwt>
<totfact> 0.89970440E-03</totfact>
</mgrwt>
</event>
<event>
 6    1  0.1934315E-005  0.2083485E+04  0.7818608E-02  0.8568553E-01
          2   -1    0    0  501    0  0.00000000000E+00  0.00000000000E+00  0.10817760384E+04  0.10817760384E+04  0.00000000000E+00 0.  1.
         -2   -1    0    0    0  501 -0.00000000000E+00 -0.00000000000E+00 -0.10031906276E+04  0.10031906276E+04  0.00000000000E+00 0. -1.
         23    2    1    2    0    0 -0.68237988132E+03  0.77970844457E+03 -0.51405293741E+02  0.10407036990E+04  0.82668760441E+02 0.  0.
         11    1    3    3    0    0 -0.28285359716E+03  0.38523864499E+03 -0.18342749271E+02  0.47827965404E+03  0.00000000000E+00 0.  1.
        -11    1    3    3    0    0 -0.39952628416E+03  0.39446979958E+03 -0.33062544471E+02  0.56242404497E+03  0.00000000000E+00 0. -1.
         22    1    1    2    0    0  0.68237988132E+03 -0.77970844457E+03  0.12999070447E+03  0.10442629670E+04  0.00000000000E+00 0.  1.
<mgrwt>
<rscale>  0 0.20834851E+04</rscale>
<asrwt>0</asrwt>
<pdfrwt beam="1">  1        2 0.16642708E+00 0.20834851E+04</pdfrwt>
<pdfrwt beam="2">  1       -2 0.15433702E+00 0.20834851E+04</pdfrwt>
<totfact> 0.57297770E+00</totfact>
</mgrwt>
</event>
<event>
 6    1  0.1934315E-005  0.9289799E+03  0.7818608E-02  0.9390063E-01
         -1   -1    0    0    0  501 -0.00000000000E+00  0.00000000000E+00  0.27854343165E+03  0.27854343165E+03  0.00000000000E+00 0. -1.
          1   -1    0    0  501    0  0.00000000000E+00 -0.00000000000E+00 -0.77456831344E+03  0.77456831344E+03  0.00000000000E+00 0.  1.
         23    2    1    2    0    0 -0.19955820983E+03  0.35262951837E+03 -0.34408694341E+01  0.41529510564E+03  0.91033668754E+02 0.  0.
         11    1    3    3    0    0 -0.93726913396E+02  0.97979990188E+02 -0.27953999914E+02  0.13844218607E+03  0.00000000000E+00 0.  1.
        -11    1    3    3    0    0 -0.10583129644E+03  0.25464952818E+03  0.24513130480E+02  0.27685291957E+03  0.00000000000E+00 0. -1.
         22    1    1    2    0    0  0.19955820983E+03 -0.35262951837E+03 -0.49258401235E+03  0.63781663945E+03  0.00000000000E+00 0.  1.
<mgrwt>
<rscale>  0 0.92897991E+03</rscale>
<asrwt>0</asrwt>
<pdfrwt beam="1">  1        1 0.11916435E+00 0.92897991E+03</pdfrwt>
<pdfrwt beam="2">  1       -1 0.42852837E-01 0.92897991E+03</pdfrwt>
<totfact> 0.12558257E+02</totfact>
</mgrwt>
</event>
<event>
 6    1  0.1934315E-005  0.1531649E+04  0.7818608E-02  0.8863675E-01
          2   -1    0    0  501    0  0.00000000000E+00  0.00000000000E+00  0.12381638384E+04  0.12381638384E+04  0.00000000000E+00 0.  1.
         -2   -1    0    0    0  501 -0.00000000000E+00 -0.00000000000E+00 -0.47367493915E+03  0.47367493915E+03  0.00000000000E+00 0. -1.
         23    2    1    2    0    0  0.10697513715E+03 -0.46486324177E+03 -0.28241411878E+03  0.56138345782E+03  0.88612294381E+02 0.  0.
         13    1    3    3    0    0  0.70720198459E+02 -0.31275801884E+03 -0.14000213989E+03  0.34988501539E+03  0.00000000000E+00 0.  1.
        -13    1    3    3    0    0  0.36254938696E+02 -0.15210522292E+03 -0.14241197889E+03  0.21149844243E+03  0.00000000000E+00 0. -1.
         22    1    1    2    0    0 -0.10697513715E+03  0.46486324177E+03  0.10469030181E+04  0.11504553197E+04  0.00000000000E+00 0.  1.
<mgrwt>
<rscale>  0 0.15316490E+04</rscale>
<asrwt>0</asrwt>
<pdfrwt beam="1">  1        2 0.19048674E+00 0.15316490E+04</pdfrwt>
<pdfrwt beam="2">  1       -2 0.72873068E-01 0.15316490E+04</pdfrwt>
<totfact> 0.29487441E+01</totfact>
</mgrwt>
</event>
<event>
 6    1  0.1934315E-005  0.1020175E+04  0.7818608E-02  0.9286690E-01
         -2   -1    0    0    0  501 -0.00000000000E+00  0.00000000000E+00  0.17346022809E+03  0.17346022809E+03  0.00000000000E+00 0.  1.
          2   -1    0    0  501    0  0.00000000000E+00 -0.00000000000E+00 -0.14999941403E+04  0.14999941403E+04  0.00000000000E+00 0. -1.
         23    2    1    2    0    0  0.90344596568E+02 -0.14919636286E+03 -0.14478091102E+04  0.14610176143E+04  0.89440196258E+02 0.  0.
         11    1    3    3    0    0  0.33112947992E+02 -0.57128894007E+02 -0.90994316557E+03  0.91233587149E+03  0.00000000000E+00 0. -1.
        -11    1    3    3    0    0  0.57231648576E+02 -0.92067468856E+02 -0.53786594466E+03  0.54868174277E+03  0.00000000000E+00 0.  1.
         22    1    1    2    0    0 -0.90344596568E+02  0.14919636286E+03  0.12127519807E+03  0.21243675409E+03  0.00000000000E+00 0.  1.
<mgrwt>
<rscale>  0 0.10201751E+04</rscale>
<asrwt>0</asrwt>
<pdfrwt beam="1">  1        2 0.23076833E+00 0.10201751E+04</pdfrwt>
<pdfrwt beam="2">  1       -2 0.26686189E-01 0.10201751E+04</pdfrwt>
<totfact> 0.16109278E+02</totfact>
</mgrwt>
</event>
<event>
 6    1  0.1934315E-005  0.2565243E+04  0.7818608E-02  0.8380104E-01
          2   -1    0    0  501    0  0.00000000000E+00  0.00000000000E+00  0.28340604881E+04  0.28340604881E+04  0.00000000000E+00 0.  1.
         -2   -1    0    0    0  501 -0.00000000000E+00 -0.00000000000E+00 -0.58048085133E+03  0.58048085133E+03  0.00000000000E+00 0. -1.
         23    2    1    2    0    0 -0.71633335500E+03  0.93787862775E+03  0.46437622067E+03  0.12711798067E+04  0.86620036520E+02 0.  0.
         13    1    3    3    0    0 -0.19069101066E+03  0.26837628371E+03  0.90089460786E+02  0.34132829087E+03  0.00000000000E+00 0. -1.
        -13    1    3    3    0    0 -0.52564234433E+03  0.66950234404E+03  0.37428675988E+03  0.92985151581E+03  0.00000000000E+00 0.  1.
         22    1    1    2    0    0  0.71633335500E+03 -0.93787862775E+03  0.17892034161E+04  0.21433615327E+04  0.00000000000E+00 0.  1.
<mgrwt>
<rscale>  0 0.25652429E+04</rscale>
<asrwt>0</asrwt>
<pdfrwt beam="1">  1        2 0.43600930E+00 0.25652429E+04</pdfrwt>
<pdfrwt beam="2">  1       -2 0.89304748E-01 0.25652429E+04</pdfrwt>
<totfact> 0.21040876E+00</totfact>
</mgrwt>
</event>
<event>
 6    1  0.1934315E-005  0.1609655E+04  0.7818608E-02  0.8814638E-01
          2   -1    0    0  501    0  0.00000000000E+00  0.00000000000E+00  0.54796764898E+03  0.54796764898E+03  0.00000000000E+00 0.  1.
         -2   -1    0    0    0  501 -0.00000000000E+00 -0.00000000000E+00 -0.11820904870E+04  0.11820904870E+04  0.00000000000E+00 0. -1.
         23    2    1    2    0    0 -0.48557729703E+03  0.18045106876E+03 -0.97620817753E+03  0.11092761460E+04  0.95724931495E+02 0.  0.
         11    1    3    3    0    0 -0.23924793849E+03  0.10146208220E+03 -0.39149724512E+03  0.46989809867E+03  0.00000000000E+00 0. -1.
        -11    1    3    3    0    0 -0.24632935854E+03  0.78988986558E+02 -0.58471093241E+03  0.63937804729E+03  0.00000000000E+00 0.  1.
         22    1    1    2    0    0  0.48557729703E+03 -0.18045106876E+03  0.34208533951E+03  0.62078199001E+03  0.00000000000E+00 0.  1.
<mgrwt>
<rscale>  0 0.16096551E+04</rscale>
<asrwt>0</asrwt>
<pdfrwt beam="1">  1        2 0.84302716E-01 0.16096551E+04</pdfrwt>
<pdfrwt beam="2">  1       -2 0.18186007E+00 0.16096551E+04</pdfrwt>
<totfact> 0.93184980E+00</totfact>
</mgrwt>
</event>
<event>
 6    1  0.1934315E-005  0.3299855E+04  0.7818608E-02  0.8162932E-01
         -1   -1    0    0    0  501 -0.00000000000E+00  0.00000000000E+00  0.13289559707E+04  0.13289559707E+04  0.00000000000E+00 0. -1.
          1   -1    0    0  501    0  0.00000000000E+00 -0.00000000000E+00 -0.20484202469E+04  0.20484202469E+04  0.00000000000E+00 0.  1.
         23    2    1    2    0    0  0.19168584962E+03  0.14492310411E+04  0.42017605051E+03  0.15237866866E+04  0.91454237017E+02 0.  0.
         11    1    3    3    0    0  0.19829046696E+03  0.14222023890E+04  0.40447030163E+03  0.14918361068E+04  0.00000000000E+00 0.  1.
        -11    1    3    3    0    0 -0.66046173408E+01  0.27028652059E+02  0.15705748882E+02  0.31950579811E+02  0.00000000000E+00 0. -1.
         22    1    1    2    0    0 -0.19168584962E+03 -0.14492310411E+04 -0.11396403267E+04  0.18535895310E+04  0.00000000000E+00 0.  1.
<mgrwt>
<rscale>  0 0.32998547E+04</rscale>
<asrwt>0</asrwt>
<pdfrwt beam="1">  1        1 0.31514157E+00 0.32998547E+04</pdfrwt>
<pdfrwt beam="2">  1       -1 0.20445477E+00 0.32998547E+04</pdfrwt>
<totfact> 0.32147828E-01</totfact>
</mgrwt>
</event>
<event>
 6    1  0.1934315E-005  0.2435851E+04  0.7818608E-02  0.8426202E-01
         -2   -1    0    0    0  501 -0.00000000000E+00  0.00000000000E+00  0.24739010847E+04  0.24739010847E+04  0.00000000000E+00 0. -1.
          2   -1    0    0  501    0  0.00000000000E+00 -0.00000000000E+00 -0.59959664328E+03  0.59959664328E+03  0.00000000000E+00 0.  1.
         23    2    1    2    0    0 -0.38548609777E+03  0.67589006545E+03  0.21178873219E+04  0.22581698602E+04  0.91964651535E+02 0.  0.
         13    1    3    3    0    0 -0.27011789405E+03  0.42397402940E+03  0.14676978715E+04  0.15514041047E+04  0.00000000000E+00 0. -1.
        -13    1    3    3    0    0 -0.11536820373E+03  0.25191603605E+03  0.65018945047E+03  0.70676575550E+03  0.00000000000E+00 0.  1.
         22    1    1    2    0    0  0.38548609777E+03 -0.67589006545E+03 -0.24358288055E+03  0.81532786770E+03  0.00000000000E+00 0.  1.
<mgrwt>
<rscale>  0 0.24358512E+04</rscale>
<asrwt>0</asrwt>
<pdfrwt beam="1">  1        2 0.92245639E-01 0.24358512E+04</pdfrwt>
<pdfrwt beam="2">  1       -2 0.38060016E+00 0.24358512E+04</pdfrwt>
<totfact> 0.44193203E-01</totfact>
</mgrwt>
</event>
<event>
 6    1  0.1934315E-005  0.2517130E+04  0.7818608E-02  0.8396908E-01
         -2   -1    0    0    0  501 -0.00000000000E+00  0.00000000000E+00  0.96280966469E+03  0.96280966469E+03  0.00000000000E+00 0. -1.
          2   -1    0    0  501    0  0.00000000000E+00 -0.00000000000E+00 -0.16451707236E+04  0.16451707236E+04  0.00000000000E+00 0.  1.
         23    2    1    2    0    0  0.22287106015E+03  0.46794750225E+03 -0.15278912001E+04  0.16162306246E+04  0.95412463845E+02 0.  0.
         13    1    3    3    0    0  0.18190117896E+03  0.44176977011E+03 -0.14084781332E+04  0.14872993042E+04  0.00000000000E+00 0.  1.
        -13    1    3    3    0    0  0.40969881194E+02  0.26177732143E+02 -0.11941306689E+03  0.12893132036E+03  0.00000000000E+00 0. -1.
         22    1    1    2    0    0 -0.22287106015E+03 -0.46794750225E+03  0.84553014113E+03  0.99174976374E+03  0.00000000000E+00 0. -1.
<mgrwt>
<rscale>  0 0.25171303E+04</rscale>
<asrwt>0</asrwt>
<pdfrwt beam="1">  1        2 0.25310319E+00 0.25171303E+04</pdfrwt>
<pdfrwt beam="2">  1       -2 0.14812456E+00 0.25171303E+04</pdfrwt>
<totfact> 0.29033755E+00</totfact>
</mgrwt>
</event>
<event>
 6    1  0.1934315E-005  0.3969692E+04  0.7818608E-02  0.8010689E-01
         -2   -1    0    0    0  501 -0.00000000000E+00  0.00000000000E+00  0.15936145789E+04  0.15936145789E+04  0.00000000000E+00 0. -1.
          2   -1    0    0  501    0  0.00000000000E+00 -0.00000000000E+00 -0.24721245052E+04  0.24721245052E+04  0.00000000000E+00 0.  1.
         23    2    1    2    0    0  0.96195323778E+03  0.12496524672E+04  0.79305238563E+03  0.17676734012E+04  0.93551303548E+02 0.  0.
         13    1    3    3    0    0  0.94677893728E+03  0.12235468197E+04  0.76273069586E+03  0.17248812395E+04  0.00000000000E+00 0.  1.
        -13    1    3    3    0    0  0.15174300501E+02  0.26105647469E+02  0.30321689770E+02  0.42792161618E+02  0.00000000000E+00 0. -1.
         22    1    1    2    0    0 -0.96195323778E+03 -0.12496524672E+04 -0.16715623119E+04  0.22980656829E+04  0.00000000000E+00 0.  1.
<mgrwt>
<rscale>  0 0.39696920E+04</rscale>
<asrwt>0</asrwt>
<pdfrwt beam="1">  1        2 0.38032685E+00 0.39696920E+04</pdfrwt>
<pdfrwt beam="2">  1       -2 0.24517147E+00 0.39696920E+04</pdfrwt>
<totfact> 0.19663023E-01</totfact>
</mgrwt>
</event>
<event>
 6    1  0.1934315E-005  0.2861892E+04  0.7818608E-02  0.8284307E-01
          2   -1    0    0  501    0  0.00000000000E+00  0.00000000000E+00  0.15410819539E+04  0.15410819539E+04  0.00000000000E+00 0.  1.
         -2   -1    0    0    0  501 -0.00000000000E+00 -0.00000000000E+00 -0.13286807217E+04  0.13286807217E+04  0.00000000000E+00 0. -1.
         23    2    1    2    0    0  0.11286057744E+04 -0.58617766036E+03  0.76050269083E+03  0.14849267819E+04  0.96374069952E+02 0.  0.
         13    1    3    3    0    0  0.69406698111E+03 -0.38918002149E+03  0.52057369786E+03  0.95088750034E+03  0.00000000000E+00 0.  1.
        -13    1    3    3    0    0  0.43453879331E+03 -0.19699763887E+03  0.23992899298E+03  0.53403928159E+03  0.00000000000E+00 0. -1.
         22    1    1    2    0    0 -0.11286057744E+04  0.58617766036E+03 -0.54810145856E+03  0.13848358937E+04  0.00000000000E+00 0. -1.
<mgrwt>
<rscale>  0 0.28618916E+04</rscale>
<asrwt>0</asrwt>
<pdfrwt beam="1">  1        2 0.23708953E+00 0.28618916E+04</pdfrwt>
<pdfrwt beam="2">  1       -2 0.20441242E+00 0.28618916E+04</pdfrwt>
<totfact> 0.12967613E+00</totfact>
</mgrwt>
</event>
<event>
 6    1  0.1934315E-005  0.3703384E+04  0.7818608E-02  0.8067212E-01
         -2   -1    0    0    0  501 -0.00000000000E+00  0.00000000000E+00  0.98576131235E+03  0.98576131235E+03  0.00000000000E+00 0. -1.
          2   -1    0    0  501    0  0.00000000000E+00 -0.00000000000E+00 -0.34782886525E+04  0.34782886525E+04  0.00000000000E+00 0.  1.
         23    2    1    2    0    0  0.27810632729E+03 -0.15210226749E+04 -0.21394211813E+02  0.15490281733E+04  0.90429323494E+02 0.  0.
         11    1    3    3    0    0  0.56414506382E+02 -0.27058946240E+03 -0.37857189894E+02  0.27898820857E+03  0.00000000000E+00 0.  1.
        -11    1    3    3    0    0  0.22169182091E+03 -0.12504332125E+04  0.16462978081E+02  0.12700399648E+04  0.00000000000E+00 0. -1.
         22    1    1    2    0    0 -0.27810632729E+03  0.15210226749E+04 -0.24711331284E+04  0.29150217915E+04  0.00000000000E+00 0.  1.
<mgrwt>
<rscale>  0 0.37033835E+04</rscale>
<asrwt>0</asrwt>
<pdfrwt beam="1">  1        2 0.53512133E+00 0.37033835E+04</pdfrwt>
<pdfrwt beam="2">  1       -2 0.15165559E+00 0.37033835E+04</pdfrwt>
<totfact> 0.19766086E-01</totfact>
</mgrwt>
</event>
<event>
 6    1  0.1934315E-005  0.1188586E+04  0.7818608E-02  0.9122906E-01
         -2   -1    0    0    0  501 -0.00000000000E+00  0.00000000000E+00  0.97075768894E+03  0.97075768894E+03  0.00000000000E+00 0. -1.
          2   -1    0    0  501    0  0.00000000000E+00 -0.00000000000E+00 -0.36382324267E+03  0.36382324267E+03  0.00000000000E+00 0.  1.
         23    2    1    2    0    0 -0.64703862453E+02  0.25388957213E+03 -0.28875781079E+03  0.40135474037E+03  0.95173786696E+02 0.  0.
         11    1    3    3    0    0 -0.36509562428E+02  0.19481790628E+02 -0.57713298224E+02  0.71016287615E+02  0.00000000000E+00 0.  1.
        -11    1    3    3    0    0 -0.28194300026E+02  0.23440778150E+03 -0.23104451256E+03  0.33033845275E+03  0.00000000000E+00 0. -1.
         22    1    1    2    0    0  0.64703862453E+02 -0.25388957213E+03  0.89569225706E+03  0.93322619124E+03  0.00000000000E+00 0. -1.
<mgrwt>
<rscale>  0 0.11885861E+04</rscale>
<asrwt>0</asrwt>
<pdfrwt beam="1">  1        2 0.55972807E-01 0.11885861E+04</pdfrwt>
<pdfrwt beam="2">  1       -2 0.14934734E+00 0.11885861E+04</pdfrwt>
<totfact> 0.26453709E+01</totfact>
</mgrwt>
</event>
<event>
 6    1  0.1969132E-005  0.2427794E+04  0.7818608E-02  0.8429171E-01
         -2   -1    0    0    0  501 -0.00000000000E+00  0.00000000000E+00  0.85044941440E+03  0.85044941440E+03  0.00000000000E+00 0. -1.
          2   -1    0    0  501    0  0.00000000000E+00 -0.00000000000E+00 -0.17326675363E+04  0.17326675363E+04  0.00000000000E+00 0.  1.
         23    2    1    2    0    0  0.79034838973E+03 -0.61636640659E+03  0.28276263081E+03  0.10463221438E+04  0.10137652045E+03 0.  0.
         13    1    3    3    0    0  0.46866031446E+03 -0.38482526358E+03  0.12173265415E+03  0.61850773069E+03  0.00000000000E+00 0.  1.
        -13    1    3    3    0    0  0.32168807527E+03 -0.23154114300E+03  0.16102997667E+03  0.42781441310E+03  0.00000000000E+00 0. -1.
         22    1    1    2    0    0 -0.79034838973E+03  0.61636640659E+03 -0.11649807527E+04  0.15367948069E+04  0.00000000000E+00 0.  1.
<mgrwt>
<rscale>  0 0.24277941E+04</rscale>
<asrwt>0</asrwt>
<pdfrwt beam="1">  1        2 0.26656423E+00 0.24277941E+04</pdfrwt>
<pdfrwt beam="2">  1       -2 0.13083837E+00 0.24277941E+04</pdfrwt>
<totfact> 0.36058238E+00</totfact>
</mgrwt>
</event>
<event>
 6    1  0.1934315E-005  0.6140809E+04  0.7818608E-02  0.7673184E-01
          2   -1    0    0  501    0  0.00000000000E+00  0.00000000000E+00  0.22201104754E+04  0.22201104754E+04  0.00000000000E+00 0.  1.
         -2   -1    0    0    0  501 -0.00000000000E+00 -0.00000000000E+00 -0.42463576076E+04  0.42463576076E+04  0.00000000000E+00 0. -1.
         23    2    1    2    0    0  0.20637591024E+04  0.13389176491E+04 -0.29468306515E+04  0.38398207675E+04  0.92792965242E+02 0.  0.
         13    1    3    3    0    0  0.67964797391E+03  0.46815289608E+03 -0.93057106835E+03  0.12438050554E+04  0.00000000000E+00 0. -1.
        -13    1    3    3    0    0  0.13841111285E+04  0.87076475299E+03 -0.20162595832E+04  0.25960157122E+04  0.00000000000E+00 0.  1.
         22    1    1    2    0    0 -0.20637591024E+04 -0.13389176491E+04  0.92058351931E+03  0.26266473154E+04  0.00000000000E+00 0. -1.
<mgrwt>
<rscale>  0 0.61408087E+04</rscale>
<asrwt>0</asrwt>
<pdfrwt beam="1">  1        2 0.34155546E+00 0.61408087E+04</pdfrwt>
<pdfrwt beam="2">  1       -2 0.65328578E+00 0.61408087E+04</pdfrwt>
<totfact> 0.11220081E-03</totfact>
</mgrwt>
</event>
<event>
 6    1  0.1934315E-005  0.2409813E+04  0.7818608E-02  0.8435839E-01
         -2   -1    0    0    0  501 -0.00000000000E+00  0.00000000000E+00  0.62759606520E+03  0.62759606520E+03  0.00000000000E+00 0.  1.
          2   -1    0    0  501    0  0.00000000000E+00 -0.00000000000E+00 -0.23132705933E+04  0.23132705933E+04  0.00000000000E+00 0. -1.
         23    2    1    2    0    0  0.62070609924E+03  0.73045628034E+03 -0.17310858879E+04  0.19812288983E+04  0.98828928317E+02 0.  0.
         13    1    3    3    0    0  0.23818708022E+03  0.26178615605E+03 -0.54624646071E+03  0.65088422359E+03  0.00000000000E+00 0. -1.
        -13    1    3    3    0    0  0.38251901902E+03  0.46867012429E+03 -0.11848394272E+04  0.13303446747E+04  0.00000000000E+00 0.  1.
         22    1    1    2    0    0 -0.62070609924E+03 -0.73045628034E+03  0.45411359835E+02  0.95963776016E+03  0.00000000000E+00 0.  1.
<mgrwt>
<rscale>  0 0.24098129E+04</rscale>
<asrwt>0</asrwt>
<pdfrwt beam="1">  1        2 0.35588778E+00 0.24098129E+04</pdfrwt>
<pdfrwt beam="2">  1       -2 0.96553241E-01 0.24098129E+04</pdfrwt>
<totfact> 0.35914912E+00</totfact>
</mgrwt>
</event>
<event>
 6    1  0.1934315E-005  0.1788735E+04  0.7818608E-02  0.8712313E-01
          2   -1    0    0  501    0  0.00000000000E+00  0.00000000000E+00  0.64522669394E+03  0.64522669394E+03  0.00000000000E+00 0.  1.
         -2   -1    0    0    0  501 -0.00000000000E+00 -0.00000000000E+00 -0.12397090848E+04  0.12397090848E+04  0.00000000000E+00 0. -1.
         23    2    1    2    0    0  0.34609688645E+03 -0.81212135004E+03 -0.16300143415E+03  0.90233720457E+03  0.91207572071E+02 0.  0.
         11    1    3    3    0    0  0.20418160781E+03 -0.50240001092E+03 -0.55732621595E+02  0.54516238411E+03  0.00000000000E+00 0.  1.
        -11    1    3    3    0    0  0.14191527864E+03 -0.30972133913E+03 -0.10726881256E+03  0.35717482046E+03  0.00000000000E+00 0. -1.
         22    1    1    2    0    0 -0.34609688645E+03  0.81212135004E+03 -0.43148095673E+03  0.98259857420E+03  0.00000000000E+00 0. -1.
<mgrwt>
<rscale>  0 0.17887352E+04</rscale>
<asrwt>0</asrwt>
<pdfrwt beam="1">  1        2 0.99265647E-01 0.17887352E+04</pdfrwt>
<pdfrwt beam="2">  1       -2 0.19072447E+00 0.17887352E+04</pdfrwt>
<totfact> 0.65663436E+00</totfact>
</mgrwt>
</event>
<event>
 6    1  0.1934315E-005  0.1296750E+04  0.7818608E-02  0.9032146E-01
         -2   -1    0    0    0  501 -0.00000000000E+00  0.00000000000E+00  0.54607408822E+03  0.54607408822E+03  0.00000000000E+00 0. -1.
          2   -1    0    0  501    0  0.00000000000E+00 -0.00000000000E+00 -0.76984082608E+03  0.76984082608E+03  0.00000000000E+00 0.  1.
         23    2    1    2    0    0 -0.46547402714E+03 -0.40622496186E+03 -0.30146706971E+03  0.69324153993E+03  0.89535741357E+02 0.  0.
         11    1    3    3    0    0 -0.21810631538E+03 -0.21644600580E+03 -0.10499571430E+03  0.32472040012E+03  0.00000000000E+00 0.  1.
        -11    1    3    3    0    0 -0.24736771176E+03 -0.18977895606E+03 -0.19647135541E+03  0.36852113981E+03  0.00000000000E+00 0. -1.
         22    1    1    2    0    0  0.46547402714E+03  0.40622496186E+03  0.77700331843E+02  0.62267337437E+03  0.00000000000E+00 0. -1.
<mgrwt>
<rscale>  0 0.12967500E+04</rscale>
<asrwt>0</asrwt>
<pdfrwt beam="1">  1        2 0.11843705E+00 0.12967500E+04</pdfrwt>
<pdfrwt beam="2">  1       -2 0.84011398E-01 0.12967500E+04</pdfrwt>
<totfact> 0.43986773E+01</totfact>
</mgrwt>
</event>
<event>
 6    1  0.1934315E-005  0.4946346E+04  0.7818608E-02  0.7836838E-01
          2   -1    0    0  501    0  0.00000000000E+00  0.00000000000E+00  0.41633783442E+04  0.41633783442E+04  0.00000000000E+00 0.  1.
         -2   -1    0    0    0  501 -0.00000000000E+00 -0.00000000000E+00 -0.14691395060E+04  0.14691395060E+04  0.00000000000E+00 0. -1.
         23    2    1    2    0    0  0.28998189224E+03  0.17837209580E+04  0.32688183430E+04  0.37362342319E+04  0.92319672620E+02 0.  0.
         13    1    3    3    0    0  0.24960698957E+03  0.14224002025E+04  0.26760995435E+04  0.30408937423E+04  0.00000000000E+00 0. -1.
        -13    1    3    3    0    0  0.40374902678E+02  0.36132075554E+03  0.59271879949E+03  0.69534048956E+03  0.00000000000E+00 0.  1.
         22    1    1    2    0    0 -0.28998189224E+03 -0.17837209580E+04 -0.57457950480E+03  0.18962836184E+04  0.00000000000E+00 0. -1.
<mgrwt>
<rscale>  0 0.49463456E+04</rscale>
<asrwt>0</asrwt>
<pdfrwt beam="1">  1        2 0.64051974E+00 0.49463456E+04</pdfrwt>
<pdfrwt beam="2">  1       -2 0.22602146E+00 0.49463456E+04</pdfrwt>
<totfact> 0.16458897E-02</totfact>
</mgrwt>
</event>
<event>
 6    1  0.1934315E-005  0.1315884E+04  0.7818608E-02  0.9017063E-01
          2   -1    0    0  501    0  0.00000000000E+00  0.00000000000E+00  0.98898498180E+03  0.98898498180E+03  0.00000000000E+00 0.  1.
         -2   -1    0    0    0  501 -0.00000000000E+00 -0.00000000000E+00 -0.43770885345E+03  0.43770885345E+03  0.00000000000E+00 0. -1.
         23    2    1    2    0    0 -0.25382746780E+03  0.15331856244E+03 -0.35584350626E+03  0.47233488994E+03  0.92415811999E+02 0.  0.
         13    1    3    3    0    0 -0.19726191989E+03  0.13304956720E+03 -0.22112713088E+03  0.32482558456E+03  0.00000000000E+00 0.  1.
        -13    1    3    3    0    0 -0.56565547905E+02  0.20268995239E+02 -0.13471637538E+03  0.14750930538E+03  0.00000000000E+00 0. -1.
         22    1    1    2    0    0  0.25382746780E+03 -0.15331856244E+03  0.90711963461E+03  0.95435894531E+03  0.00000000000E+00 0.  1.
<mgrwt>
<rscale>  0 0.13158837E+04</rscale>
<asrwt>0</asrwt>
<pdfrwt beam="1">  1        2 0.15215154E+00 0.13158837E+04</pdfrwt>
<pdfrwt beam="2">  1       -2 0.67339824E-01 0.13158837E+04</pdfrwt>
<totfact> 0.50715180E+01</totfact>
</mgrwt>
</event>
<event>
 6    1  0.1934315E-005  0.1586267E+04  0.7818608E-02  0.8829030E-01
         -2   -1    0    0    0  501 -0.00000000000E+00  0.00000000000E+00  0.45704768775E+03  0.45704768775E+03  0.00000000000E+00 0. -1.
          2   -1    0    0  501    0  0.00000000000E+00 -0.00000000000E+00 -0.13763565309E+04  0.13763565309E+04  0.00000000000E+00 0.  1.
         23    2    1    2    0    0 -0.62096745199E+03  0.27399186001E+03 -0.92964538896E+03  0.11545972064E+04  0.90454651356E+02 0.  0.
         13    1    3    3    0    0 -0.41831948189E+03  0.22839793749E+03 -0.66552811885E+03  0.81858688223E+03  0.00000000000E+00 0. -1.
        -13    1    3    3    0    0 -0.20264797010E+03  0.45593922525E+02 -0.26411727011E+03  0.33601032414E+03  0.00000000000E+00 0.  1.
         22    1    1    2    0    0  0.62096745199E+03 -0.27399186001E+03  0.10336545774E+02  0.67880701231E+03  0.00000000000E+00 0. -1.
<mgrwt>
<rscale>  0 0.15862668E+04</rscale>
<asrwt>0</asrwt>
<pdfrwt beam="1">  1        2 0.21174716E+00 0.15862668E+04</pdfrwt>
<pdfrwt beam="2">  1       -2 0.70315029E-01 0.15862668E+04</pdfrwt>
<totfact> 0.26381124E+01</totfact>
</mgrwt>
</event>
<event>
 6    1  0.1934315E-005  0.2934877E+04  0.7818608E-02  0.8262576E-01
         -2   -1    0    0    0  501 -0.00000000000E+00  0.00000000000E+00  0.13347405200E+04  0.13347405200E+04  0.00000000000E+00 0. -1.
          2   -1    0    0  501    0  0.00000000000E+00 -0.00000000000E+00 -0.16133290625E+04  0.16133290625E+04  0.00000000000E+00 0.  1.
         23    2    1    2    0    0  0.86997606380E+03 -0.25873392054E+03 -0.12958417833E+04  0.15847626658E+04  0.92006447395E+02 0.  0.
         13    1    3    3    0    0  0.21758728599E+03 -0.98242972814E+02 -0.38356607167E+03  0.45179513063E+03  0.00000000000E+00 0.  1.
        -13    1    3    3    0    0  0.65238877781E+03 -0.16049094773E+03 -0.91227571163E+03  0.11329675352E+04  0.00000000000E+00 0. -1.
         22    1    1    2    0    0 -0.86997606380E+03  0.25873392054E+03  0.10172532408E+04  0.13633069167E+04  0.00000000000E+00 0. -1.
<mgrwt>
<rscale>  0 0.29348769E+04</rscale>
<asrwt>0</asrwt>
<pdfrwt beam="1">  1        2 0.24820447E+00 0.29348769E+04</pdfrwt>
<pdfrwt beam="2">  1       -2 0.20534470E+00 0.29348769E+04</pdfrwt>
<totfact> 0.11579008E+00</totfact>
</mgrwt>
</event>
<event>
 6    1  0.1934315E-005  0.4045695E+04  0.7818608E-02  0.7995391E-01
         -2   -1    0    0    0  501 -0.00000000000E+00  0.00000000000E+00  0.14572122857E+04  0.14572122857E+04  0.00000000000E+00 0. -1.
          2   -1    0    0  501    0  0.00000000000E+00 -0.00000000000E+00 -0.28080410194E+04  0.28080410194E+04  0.00000000000E+00 0.  1.
         23    2    1    2    0    0 -0.11796210907E+04  0.15081435897E+04 -0.13603148600E+04  0.23505488915E+04  0.92847015524E+02 0.  0.
         13    1    3    3    0    0 -0.20509562711E+03  0.27468139655E+03 -0.20186087360E+03  0.39782144004E+03  0.00000000000E+00 0.  1.
        -13    1    3    3    0    0 -0.97452546359E+03  0.12334621932E+04 -0.11584539864E+04  0.19527274515E+04  0.00000000000E+00 0. -1.
         22    1    1    2    0    0  0.11796210907E+04 -0.15081435897E+04  0.94861262230E+01  0.19147044136E+04  0.00000000000E+00 0. -1.
<mgrwt>
<rscale>  0 0.40456949E+04</rscale>
<asrwt>0</asrwt>
<pdfrwt beam="1">  1        2 0.43200631E+00 0.40456949E+04</pdfrwt>
<pdfrwt beam="2">  1       -2 0.22418651E+00 0.40456949E+04</pdfrwt>
<totfact> 0.16708476E-01</totfact>
</mgrwt>
</event>
<event>
 6    1  0.1934315E-005  0.2372491E+04  0.7818608E-02  0.8449875E-01
          2   -1    0    0  501    0  0.00000000000E+00  0.00000000000E+00  0.59407358402E+03  0.59407358402E+03  0.00000000000E+00 0.  1.
         -2   -1    0    0    0  501 -0.00000000000E+00 -0.00000000000E+00 -0.23686938089E+04  0.23686938089E+04  0.00000000000E+00 0. -1.
         23    2    1    2    0    0 -0.67072051772E+02 -0.95275906859E+03 -0.17635009376E+04  0.20075856608E+04  0.90642845295E+02 0.  0.
         11    1    3    3    0    0 -0.42284093940E+02 -0.51750254740E+03 -0.86425445913E+03  0.10082324143E+04  0.00000000000E+00 0. -1.
        -11    1    3    3    0    0 -0.24787957831E+02 -0.43525652120E+03 -0.89924647852E+03  0.99935324647E+03  0.00000000000E+00 0.  1.
         22    1    1    2    0    0  0.67072051772E+02  0.95275906859E+03 -0.11119287266E+02  0.95518173217E+03  0.00000000000E+00 0.  1.
<mgrwt>
<rscale>  0 0.23724910E+04</rscale>
<asrwt>0</asrwt>
<pdfrwt beam="1">  1        2 0.91395934E-01 0.23724910E+04</pdfrwt>
<pdfrwt beam="2">  1       -2 0.36441444E+00 0.23724910E+04</pdfrwt>
<totfact> 0.57074840E-01</totfact>
</mgrwt>
</event>
<event>
 6    1  0.1934315E-005  0.2325527E+04  0.7818608E-02  0.8467924E-01
          2   -1    0    0  501    0  0.00000000000E+00  0.00000000000E+00  0.15293236120E+04  0.15293236120E+04  0.00000000000E+00 0.  1.
         -2   -1    0    0    0  501 -0.00000000000E+00 -0.00000000000E+00 -0.88406361846E+03  0.88406361846E+03  0.00000000000E+00 0. -1.
         23    2    1    2    0    0 -0.93084672171E+03  0.19772586303E+03  0.10133443563E+04  0.13930651076E+04  0.90512283534E+02 0.  0.
         13    1    3    3    0    0 -0.60819729909E+03  0.95129025234E+02  0.69354764359E+03  0.92734126404E+03  0.00000000000E+00 0. -1.
        -13    1    3    3    0    0 -0.32264942262E+03  0.10259683779E+03  0.31979671267E+03  0.46572384358E+03  0.00000000000E+00 0.  1.
         22    1    1    2    0    0  0.93084672171E+03 -0.19772586303E+03 -0.36808436275E+03  0.10203221228E+04  0.00000000000E+00 0. -1.
<mgrwt>
<rscale>  0 0.23255274E+04</rscale>
<asrwt>0</asrwt>
<pdfrwt beam="1">  1        2 0.23528056E+00 0.23255274E+04</pdfrwt>
<pdfrwt beam="2">  1       -2 0.13600979E+00 0.23255274E+04</pdfrwt>
<totfact> 0.42796984E+00</totfact>
</mgrwt>
</event>
<event>
 6    1  0.1934315E-005  0.1571514E+04  0.7818608E-02  0.8838242E-01
         -2   -1    0    0    0  501 -0.00000000000E+00  0.00000000000E+00  0.48985245676E+03  0.48985245676E+03  0.00000000000E+00 0. -1.
          2   -1    0    0  501    0  0.00000000000E+00 -0.00000000000E+00 -0.12604075608E+04  0.12604075608E+04  0.00000000000E+00 0.  1.
         23    2    1    2    0    0  0.37247892411E+03  0.57536171110E+03  0.37239574366E+02  0.69086684694E+03  0.78285163292E+02 0.  0.
         11    1    3    3    0    0  0.20019901090E+03  0.37836650842E+03  0.17548550344E+02  0.42842596826E+03  0.00000000000E+00 0. -1.
        -11    1    3    3    0    0  0.17227991320E+03  0.19699520268E+03  0.19691024022E+02  0.26244087867E+03  0.00000000000E+00 0.  1.
         22    1    1    2    0    0 -0.37247892411E+03 -0.57536171110E+03 -0.80779467838E+03  0.10593931706E+04  0.00000000000E+00 0.  1.
<mgrwt>
<rscale>  0 0.15715136E+04</rscale>
<asrwt>0</asrwt>
<pdfrwt beam="1">  1        2 0.19390886E+00 0.15715136E+04</pdfrwt>
<pdfrwt beam="2">  1       -2 0.75361916E-01 0.15715136E+04</pdfrwt>
<totfact> 0.26479141E+01</totfact>
</mgrwt>
</event>
<event>
 6    1  0.1934315E-005  0.2436379E+04  0.7818608E-02  0.8426008E-01
          2   -1    0    0  501    0  0.00000000000E+00  0.00000000000E+00  0.20979837183E+04  0.20979837183E+04  0.00000000000E+00 0.  1.
         -2   -1    0    0    0  501 -0.00000000000E+00 -0.00000000000E+00 -0.70733878240E+03  0.70733878240E+03  0.00000000000E+00 0. -1.
         23    2    1    2    0    0 -0.11044846689E+04  0.10520373331E+03  0.12221649439E+03  0.11201326240E+04  0.93840367235E+02 0.  0.
         11    1    3    3    0    0 -0.45966517427E+03  0.19654989078E+01  0.30340848132E+02  0.46066962423E+03  0.00000000000E+00 0.  1.
        -11    1    3    3    0    0 -0.64481949462E+03  0.10323823441E+03  0.91875646260E+02  0.65946299977E+03  0.00000000000E+00 0. -1.
         22    1    1    2    0    0  0.11044846689E+04 -0.10520373331E+03  0.12684284415E+04  0.16851898767E+04  0.00000000000E+00 0.  1.
<mgrwt>
<rscale>  0 0.24363787E+04</rscale>
<asrwt>0</asrwt>
<pdfrwt beam="1">  1        2 0.32276672E+00 0.24363787E+04</pdfrwt>
<pdfrwt beam="2">  1       -2 0.10882135E+00 0.24363787E+04</pdfrwt>
<totfact> 0.35616186E+00</totfact>
</mgrwt>
</event>
<event>
 6    1  0.1934315E-005  0.2485107E+04  0.7818608E-02  0.8408311E-01
          2   -1    0    0  501    0  0.00000000000E+00  0.00000000000E+00  0.16476197598E+04  0.16476197598E+04  0.00000000000E+00 0.  1.
         -2   -1    0    0    0  501 -0.00000000000E+00 -0.00000000000E+00 -0.93707236904E+03  0.93707236904E+03  0.00000000000E+00 0. -1.
         23    2    1    2    0    0  0.40976379392E+03  0.45938398117E+03 -0.76473426619E+03  0.98613153371E+03  0.93257144102E+02 0.  0.
         11    1    3    3    0    0  0.13144095147E+03  0.99819707784E+02 -0.24708159043E+03  0.29713634936E+03  0.00000000000E+00 0. -1.
        -11    1    3    3    0    0  0.27832284245E+03  0.35956427339E+03 -0.51765267576E+03  0.68899518435E+03  0.00000000000E+00 0.  1.
         22    1    1    2    0    0 -0.40976379392E+03 -0.45938398117E+03  0.14752816569E+04  0.15985605951E+04  0.00000000000E+00 0.  1.
<mgrwt>
<rscale>  0 0.24851068E+04</rscale>
<asrwt>0</asrwt>
<pdfrwt beam="1">  1        2 0.25347996E+00 0.24851068E+04</pdfrwt>
<pdfrwt beam="2">  1       -2 0.14416498E+00 0.24851068E+04</pdfrwt>
<totfact> 0.31165108E+00</totfact>
</mgrwt>
</event>
<event>
 6    1  0.1934315E-005  0.1705222E+04  0.7818608E-02  0.8758391E-01
         -2   -1    0    0    0  501 -0.00000000000E+00  0.00000000000E+00  0.56188059221E+03  0.56188059221E+03  0.00000000000E+00 0. -1.
          2   -1    0    0  501    0  0.00000000000E+00 -0.00000000000E+00 -0.12937727280E+04  0.12937727280E+04  0.00000000000E+00 0.  1.
         23    2    1    2    0    0 -0.35459080111E+02  0.47228354983E+03 -0.11352870473E+04  0.12335307017E+04  0.91718125195E+02 0.  0.
         13    1    3    3    0    0 -0.60713885803E+02  0.32893779628E+03 -0.84499401035E+03  0.90879102509E+03  0.00000000000E+00 0.  1.
        -13    1    3    3    0    0  0.25254805692E+02  0.14334575355E+03 -0.29029303696E+03  0.32473967663E+03  0.00000000000E+00 0. -1.
         22    1    1    2    0    0  0.35459080111E+02 -0.47228354983E+03  0.40339491152E+03  0.62212261850E+03  0.00000000000E+00 0. -1.
<mgrwt>
<rscale>  0 0.17052223E+04</rscale>
<asrwt>0</asrwt>
<pdfrwt beam="1">  1        2 0.19904196E+00 0.17052223E+04</pdfrwt>
<pdfrwt beam="2">  1       -2 0.86443168E-01 0.17052223E+04</pdfrwt>
<totfact> 0.18386793E+01</totfact>
</mgrwt>
</event>
<event>
 6    1  0.1934315E-005  0.1603583E+04  0.7818608E-02  0.8818350E-01
         -2   -1    0    0    0  501 -0.00000000000E+00  0.00000000000E+00  0.32474125822E+03  0.32474125822E+03  0.00000000000E+00 0. -1.
          2   -1    0    0  501    0  0.00000000000E+00 -0.00000000000E+00 -0.19796359400E+04  0.19796359400E+04  0.00000000000E+00 0.  1.
         23    2    1    2    0    0 -0.34675527331E+03 -0.71311375403E+03 -0.68892914363E+03  0.10546332778E+04  0.94114504416E+02 0.  0.
         11    1    3    3    0    0 -0.83915937402E+02 -0.97724784355E+02 -0.97292347715E+02  0.16142434436E+03  0.00000000000E+00 0. -1.
        -11    1    3    3    0    0 -0.26283933591E+03 -0.61538896967E+03 -0.59163679591E+03  0.89320893344E+03  0.00000000000E+00 0.  1.
         22    1    1    2    0    0  0.34675527331E+03  0.71311375403E+03 -0.96596553816E+03  0.12497439204E+04  0.00000000000E+00 0.  1.
<mgrwt>
<rscale>  0 0.16035828E+04</rscale>
<asrwt>0</asrwt>
<pdfrwt beam="1">  1        2 0.30455937E+00 0.16035828E+04</pdfrwt>
<pdfrwt beam="2">  1       -2 0.49960194E-01 0.16035828E+04</pdfrwt>
<totfact> 0.24924193E+01</totfact>
</mgrwt>
</event>
<event>
 6    1  0.1934315E-005  0.1795024E+04  0.7818608E-02  0.8708950E-01
          2   -1    0    0  501    0  0.00000000000E+00  0.00000000000E+00  0.21064737576E+04  0.21064737576E+04  0.00000000000E+00 0.  1.
         -2   -1    0    0    0  501 -0.00000000000E+00 -0.00000000000E+00 -0.38240580595E+03  0.38240580595E+03  0.00000000000E+00 0. -1.
         23    2    1    2    0    0 -0.32565983538E+03 -0.60985918098E+03  0.16528354695E+04  0.17938568190E+04  0.89859049284E+02 0.  0.
         11    1    3    3    0    0 -0.16509986027E+03 -0.28825853767E+03  0.68165983731E+03  0.75829485175E+03  0.00000000000E+00 0. -1.
        -11    1    3    3    0    0 -0.16055997510E+03 -0.32160064331E+03  0.97117563221E+03  0.10355619672E+04  0.00000000000E+00 0.  1.
         22    1    1    2    0    0  0.32565983538E+03  0.60985918098E+03  0.71232482187E+02  0.69502274461E+03  0.00000000000E+00 0. -1.
<mgrwt>
<rscale>  0 0.17950240E+04</rscale>
<asrwt>0</asrwt>
<pdfrwt beam="1">  1        2 0.32407288E+00 0.17950240E+04</pdfrwt>
<pdfrwt beam="2">  1       -2 0.58831664E-01 0.17950240E+04</pdfrwt>
<totfact> 0.14860060E+01</totfact>
</mgrwt>
</event>
<event>
 6    1  0.1934315E-005  0.1605167E+04  0.7818608E-02  0.8817380E-01
          2   -1    0    0  501    0  0.00000000000E+00  0.00000000000E+00  0.11081212553E+04  0.11081212553E+04  0.00000000000E+00 0.  1.
         -2   -1    0    0    0  501 -0.00000000000E+00 -0.00000000000E+00 -0.58129043451E+03  0.58129043451E+03  0.00000000000E+00 0. -1.
         23    2    1    2    0    0 -0.70978713763E+03  0.74843858702E+02 -0.11616513626E+03  0.72876441599E+03  0.90575113568E+02 0.  0.
         13    1    3    3    0    0 -0.45113286019E+03  0.27532074312E+02 -0.33861520833E+02  0.45323887217E+03  0.00000000000E+00 0.  1.
        -13    1    3    3    0    0 -0.25865427744E+03  0.47311784390E+02 -0.82303615427E+02  0.27552554381E+03  0.00000000000E+00 0. -1.
         22    1    1    2    0    0  0.70978713763E+03 -0.74843858702E+02  0.64299595706E+03  0.96064727383E+03  0.00000000000E+00 0.  1.
<mgrwt>
<rscale>  0 0.16051670E+04</rscale>
<asrwt>0</asrwt>
<pdfrwt beam="1">  1        2 0.17048019E+00 0.16051670E+04</pdfrwt>
<pdfrwt beam="2">  1       -2 0.89429297E-01 0.16051670E+04</pdfrwt>
<totfact> 0.22143283E+01</totfact>
</mgrwt>
</event>
<event>
 6    1  0.1934315E-005  0.5053188E+04  0.7818608E-02  0.7820355E-01
         -2   -1    0    0    0  501 -0.00000000000E+00  0.00000000000E+00  0.21637027671E+04  0.21637027671E+04  0.00000000000E+00 0.  1.
          2   -1    0    0  501    0  0.00000000000E+00 -0.00000000000E+00 -0.29503479333E+04  0.29503479333E+04  0.00000000000E+00 0. -1.
         23    2    1    2    0    0 -0.25718008384E+02 -0.18735906467E+04  0.13206339202E+04  0.22941874989E+04  0.90658708653E+02 0.  0.
         13    1    3    3    0    0 -0.30789945637E+02 -0.11429043303E+04  0.75457663983E+03  0.13698774523E+04  0.00000000000E+00 0. -1.
        -13    1    3    3    0    0  0.50719372532E+01 -0.73068631639E+03  0.56605728035E+03  0.92431004654E+03  0.00000000000E+00 0.  1.
         22    1    1    2    0    0  0.25718008384E+02  0.18735906467E+04 -0.21072790864E+04  0.28198632015E+04  0.00000000000E+00 0. -1.
<mgrwt>
<rscale>  0 0.50531875E+04</rscale>
<asrwt>0</asrwt>
<pdfrwt beam="1">  1        2 0.45389968E+00 0.50531875E+04</pdfrwt>
<pdfrwt beam="2">  1       -2 0.33287735E+00 0.50531875E+04</pdfrwt>
<totfact> 0.26995204E-02</totfact>
</mgrwt>
</event>
<event>
 6    1  0.1934315E-005  0.1151071E+04  0.7818608E-02  0.9156796E-01
          2   -1    0    0  501    0  0.00000000000E+00  0.00000000000E+00  0.15508842995E+03  0.15508842995E+03  0.00000000000E+00 0.  1.
         -2   -1    0    0    0  501 -0.00000000000E+00 -0.00000000000E+00 -0.21358226081E+04  0.21358226081E+04  0.00000000000E+00 0. -1.
         23    2    1    2    0    0 -0.70902872644E+02 -0.52660381464E+03 -0.14174069949E+04  0.15165233378E+04  0.91987226814E+02 0.  0.
         11    1    3    3    0    0 -0.47901432875E+02 -0.36728002144E+03 -0.10990066392E+04  0.11597434003E+04  0.00000000000E+00 0. -1.
        -11    1    3    3    0    0 -0.23001439769E+02 -0.15932379320E+03 -0.31840035565E+03  0.35677993748E+03  0.00000000000E+00 0.  1.
         22    1    1    2    0    0  0.70902872644E+02  0.52660381464E+03 -0.56332718325E+03  0.77438770027E+03  0.00000000000E+00 0.  1.
<mgrwt>
<rscale>  0 0.11510715E+04</rscale>
<asrwt>0</asrwt>
<pdfrwt beam="1">  1        2 0.23859759E-01 0.11510715E+04</pdfrwt>
<pdfrwt beam="2">  1       -2 0.32858809E+00 0.11510715E+04</pdfrwt>
<totfact> 0.49209430E+00</totfact>
</mgrwt>
</event>
<event>
 6    1  0.1934315E-005  0.4318404E+04  0.7818608E-02  0.7943224E-01
          2   -1    0    0  501    0  0.00000000000E+00  0.00000000000E+00  0.21809350077E+04  0.21809350077E+04  0.00000000000E+00 0.  1.
         -2   -1    0    0    0  501 -0.00000000000E+00 -0.00000000000E+00 -0.21376851715E+04  0.21376851715E+04  0.00000000000E+00 0. -1.
         23    2    1    2    0    0  0.59128345033E+03  0.20245109264E+04 -0.43627950613E+03  0.21557033987E+04  0.91960458629E+02 0.  0.
         11    1    3    3    0    0  0.43092158356E+03  0.13842316726E+04 -0.33453214840E+03  0.14878516367E+04  0.00000000000E+00 0. -1.
        -11    1    3    3    0    0  0.16036186677E+03  0.64027925381E+03 -0.10174735773E+03  0.66785176198E+03  0.00000000000E+00 0.  1.
         22    1    1    2    0    0 -0.59128345033E+03 -0.20245109264E+04  0.47952934231E+03  0.21629167806E+04  0.00000000000E+00 0.  1.
<mgrwt>
<rscale>  0 0.43184036E+04</rscale>
<asrwt>0</asrwt>
<pdfrwt beam="1">  1        2 0.33552846E+00 0.43184036E+04</pdfrwt>
<pdfrwt beam="2">  1       -2 0.32887464E+00 0.43184036E+04</pdfrwt>
<totfact> 0.85850615E-02</totfact>
</mgrwt>
</event>
<event>
 6    1  0.1934315E-005  0.2501572E+04  0.7818608E-02  0.8402426E-01
         -2   -1    0    0    0  501 -0.00000000000E+00  0.00000000000E+00  0.77260416174E+03  0.77260416174E+03  0.00000000000E+00 0. -1.
          2   -1    0    0  501    0  0.00000000000E+00 -0.00000000000E+00 -0.20249244804E+04  0.20249244804E+04  0.00000000000E+00 0.  1.
         23    2    1    2    0    0 -0.61548233083E+02 -0.67146412833E+03  0.54890417547E+03  0.87423408880E+03  0.91308200915E+02 0.  0.
         11    1    3    3    0    0  0.10503850956E+02 -0.37682264962E+03  0.31299154601E+03  0.48996872148E+03  0.00000000000E+00 0. -1.
        -11    1    3    3    0    0 -0.72052084040E+02 -0.29464147871E+03  0.23591262945E+03  0.38426536733E+03  0.00000000000E+00 0.  1.
         22    1    1    2    0    0  0.61548233083E+02  0.67146412833E+03 -0.18012244941E+04  0.19232945533E+04  0.00000000000E+00 0.  1.
<mgrwt>
<rscale>  0 0.25015716E+04</rscale>
<asrwt>0</asrwt>
<pdfrwt beam="1">  1        2 0.31152684E+00 0.25015716E+04</pdfrwt>
<pdfrwt beam="2">  1       -2 0.11886218E+00 0.25015716E+04</pdfrwt>
<totfact> 0.31376103E+00</totfact>
</mgrwt>
</event>
<event>
 6    1  0.1934315E-005  0.4807073E+04  0.7818608E-02  0.7858977E-01
          2   -1    0    0  501    0  0.00000000000E+00  0.00000000000E+00  0.40145733521E+04  0.40145733521E+04  0.00000000000E+00 0.  1.
         -2   -1    0    0    0  501 -0.00000000000E+00 -0.00000000000E+00 -0.14390042182E+04  0.14390042182E+04  0.00000000000E+00 0. -1.
         23    2    1    2    0    0  0.11449185655E+04  0.79338187432E+03 -0.93266306951E+03  0.16789270549E+04  0.92964156884E+02 0.  0.
         11    1    3    3    0    0  0.43136239202E+03  0.35277391449E+03 -0.35957644926E+03  0.66318788503E+03  0.00000000000E+00 0.  1.
        -11    1    3    3    0    0  0.71355617347E+03  0.44060795983E+03 -0.57308662025E+03  0.10157391699E+04  0.00000000000E+00 0. -1.
         22    1    1    2    0    0 -0.11449185655E+04 -0.79338187432E+03  0.35082322034E+04  0.37746505153E+04  0.00000000000E+00 0.  1.
<mgrwt>
<rscale>  0 0.48070731E+04</rscale>
<asrwt>0</asrwt>
<pdfrwt beam="1">  1        2 0.61762667E+00 0.48070731E+04</pdfrwt>
<pdfrwt beam="2">  1       -2 0.22138527E+00 0.48070731E+04</pdfrwt>
<totfact> 0.23728598E-02</totfact>
</mgrwt>
</event>
<event>
 6    1  0.1934315E-005  0.2573736E+04  0.7818608E-02  0.8377178E-01
         -1   -1    0    0    0  501 -0.00000000000E+00  0.00000000000E+00  0.23421182227E+04  0.23421182227E+04  0.00000000000E+00 0. -1.
          1   -1    0    0  501    0  0.00000000000E+00 -0.00000000000E+00 -0.70706453600E+03  0.70706453600E+03  0.00000000000E+00 0.  1.
         23    2    1    2    0    0 -0.40349657985E+03 -0.95431831307E+02 -0.62262102690E+03  0.75374993747E+03  0.92548909883E+02 0.  0.
         13    1    3    3    0    0 -0.26926381064E+03 -0.49001459225E+02 -0.33190769179E+03  0.43019397787E+03  0.00000000000E+00 0. -1.
        -13    1    3    3    0    0 -0.13423276921E+03 -0.46430372082E+02 -0.29071333511E+03  0.32355595960E+03  0.00000000000E+00 0.  1.
         22    1    1    2    0    0  0.40349657985E+03  0.95431831307E+02  0.22576747136E+04  0.22954328212E+04  0.00000000000E+00 0. -1.
<mgrwt>
<rscale>  0 0.25737356E+04</rscale>
<asrwt>0</asrwt>
<pdfrwt beam="1">  1        1 0.10877916E+00 0.25737356E+04</pdfrwt>
<pdfrwt beam="2">  1       -1 0.36032588E+00 0.25737356E+04</pdfrwt>
<totfact> 0.31419533E-01</totfact>
</mgrwt>
</event>
<event>
 6    1  0.1934315E-005  0.6049709E+03  0.7818608E-02  0.9895146E-01
         -2   -1    0    0    0  501 -0.00000000000E+00  0.00000000000E+00  0.27737205343E+03  0.27737205343E+03  0.00000000000E+00 0. -1.
          2   -1    0    0  501    0  0.00000000000E+00 -0.00000000000E+00 -0.32987262897E+03  0.32987262897E+03  0.00000000000E+00 0.  1.
         23    2    1    2    0    0  0.13063515728E+03  0.21810188852E+03 -0.17893133964E+03  0.32331033048E+03  0.88764674279E+02 0.  0.
         13    1    3    3    0    0  0.49589262888E+01  0.51257528695E+01 -0.38031838059E+02  0.38694767070E+02  0.00000000000E+00 0.  1.
        -13    1    3    3    0    0  0.12567623099E+03  0.21297613565E+03 -0.14089950158E+03  0.28461556341E+03  0.00000000000E+00 0. -1.
         22    1    1    2    0    0 -0.13063515728E+03 -0.21810188852E+03  0.12643076409E+03  0.28393435192E+03  0.00000000000E+00 0. -1.
<mgrwt>
<rscale>  0 0.60497090E+03</rscale>
<asrwt>0</asrwt>
<pdfrwt beam="1">  1        2 0.50749635E-01 0.60497090E+03</pdfrwt>
<pdfrwt beam="2">  1       -2 0.42672624E-01 0.60497090E+03</pdfrwt>
<totfact> 0.51822340E+02</totfact>
</mgrwt>
</event>
<event>
 6    1  0.1934315E-005  0.3357367E+04  0.7818608E-02  0.8148450E-01
          2   -1    0    0  501    0  0.00000000000E+00  0.00000000000E+00  0.13091606517E+04  0.13091606517E+04  0.00000000000E+00 0.  1.
         -2   -1    0    0    0  501 -0.00000000000E+00 -0.00000000000E+00 -0.21525071764E+04  0.21525071764E+04  0.00000000000E+00 0. -1.
         23    2    1    2    0    0 -0.65866183822E+02  0.14978020756E+04 -0.11977466704E+04  0.19211001161E+04  0.90989877121E+02 0.  0.
         13    1    3    3    0    0 -0.69266423588E+02  0.56920931597E+03 -0.45623740249E+03  0.73276848339E+03  0.00000000000E+00 0. -1.
        -13    1    3    3    0    0  0.34002397664E+01  0.92859275965E+03 -0.74150926792E+03  0.11883316327E+04  0.00000000000E+00 0.  1.
         22    1    1    2    0    0  0.65866183822E+02 -0.14978020756E+04  0.35440014577E+03  0.15405677120E+04  0.00000000000E+00 0.  1.
<mgrwt>
<rscale>  0 0.33573666E+04</rscale>
<asrwt>0</asrwt>
<pdfrwt beam="1">  1        2 0.20140933E+00 0.33573666E+04</pdfrwt>
<pdfrwt beam="2">  1       -2 0.33115494E+00 0.33573666E+04</pdfrwt>
<totfact> 0.27709062E-01</totfact>
</mgrwt>
</event>
<event>
 6    1  0.1934315E-005  0.2182615E+04  0.7818608E-02  0.8525699E-01
          2   -1    0    0  501    0  0.00000000000E+00  0.00000000000E+00  0.30898370803E+04  0.30898370803E+04  0.00000000000E+00 0.  1.
         -2   -1    0    0    0  501 -0.00000000000E+00 -0.00000000000E+00 -0.38544175362E+03  0.38544175362E+03  0.00000000000E+00 0. -1.
         23    2    1    2    0    0  0.53347354444E+03  0.93933211698E+03  0.11307295741E+04  0.15665193547E+04  0.92166535966E+02 0.  0.
         11    1    3    3    0    0  0.11684887725E+03  0.17998804274E+03  0.17675692422E+03  0.27801504618E+03  0.00000000000E+00 0. -1.
        -11    1    3    3    0    0  0.41662466719E+03  0.75934407423E+03  0.95397264990E+03  0.12885043085E+04  0.00000000000E+00 0.  1.
         22    1    1    2    0    0 -0.53347354444E+03 -0.93933211698E+03  0.15736657526E+04  0.19087594792E+04  0.00000000000E+00 0.  1.
<mgrwt>
<rscale>  0 0.21826151E+04</rscale>
<asrwt>0</asrwt>
<pdfrwt beam="1">  1        2 0.47535954E+00 0.21826151E+04</pdfrwt>
<pdfrwt beam="2">  1       -2 0.59298733E-01 0.21826151E+04</pdfrwt>
<totfact> 0.37186134E+00</totfact>
</mgrwt>
</event>
<event>
 6    1  0.1934315E-005  0.8247360E+03  0.7818608E-02  0.9524887E-01
          2   -1    0    0  501    0  0.00000000000E+00  0.00000000000E+00  0.70341575046E+03  0.70341575046E+03  0.00000000000E+00 0.  1.
         -2   -1    0    0    0  501 -0.00000000000E+00 -0.00000000000E+00 -0.24174515690E+03  0.24174515690E+03  0.00000000000E+00 0. -1.
         23    2    1    2    0    0 -0.27881073327E+03  0.25362963164E+03  0.56744223595E+02  0.39196222684E+03  0.91384163442E+02 0.  0.
         13    1    3    3    0    0 -0.68479466686E+02  0.12134826459E+03  0.18236963628E+02  0.14052553334E+03  0.00000000000E+00 0. -1.
        -13    1    3    3    0    0 -0.21033126658E+03  0.13228136704E+03  0.38507259966E+02  0.25143669350E+03  0.00000000000E+00 0.  1.
         22    1    1    2    0    0  0.27881073327E+03 -0.25362963164E+03  0.40492636997E+03  0.55319868052E+03  0.00000000000E+00 0.  1.
<mgrwt>
<rscale>  0 0.82473596E+03</rscale>
<asrwt>0</asrwt>
<pdfrwt beam="1">  1        2 0.10821781E+00 0.82473596E+03</pdfrwt>
<pdfrwt beam="2">  1       -2 0.37191563E-01 0.82473596E+03</pdfrwt>
<totfact> 0.27883610E+02</totfact>
</mgrwt>
</event>
<event>
 6    1  0.1934315E-005  0.5580353E+04  0.7818608E-02  0.7744728E-01
          2   -1    0    0  501    0  0.00000000000E+00  0.00000000000E+00  0.17576857922E+04  0.17576857922E+04  0.00000000000E+00 0.  1.
         -2   -1    0    0    0  501 -0.00000000000E+00 -0.00000000000E+00 -0.44291674881E+04  0.44291674881E+04  0.00000000000E+00 0. -1.
         23    2    1    2    0    0  0.23813004865E+03 -0.14409505572E+04  0.12987292685E+04  0.19565318351E+04  0.90965272719E+02 0.  0.
         13    1    3    3    0    0  0.22805001313E+02 -0.29065402724E+03  0.22439952384E+03  0.36790620807E+03  0.00000000000E+00 0. -1.
        -13    1    3    3    0    0  0.21532504734E+03 -0.11502965299E+04  0.10743297446E+04  0.15886256270E+04  0.00000000000E+00 0.  1.
         22    1    1    2    0    0 -0.23813004865E+03  0.14409505572E+04 -0.39702109644E+04  0.42303214452E+04  0.00000000000E+00 0. -1.
<mgrwt>
<rscale>  0 0.55803530E+04</rscale>
<asrwt>0</asrwt>
<pdfrwt beam="1">  1        2 0.27041320E+00 0.55803530E+04</pdfrwt>
<pdfrwt beam="2">  1       -2 0.68141038E+00 0.55803530E+04</pdfrwt>
<totfact> 0.16973765E-03</totfact>
</mgrwt>
</event>
<event>
 6    1  0.1934315E-005  0.1749808E+04  0.7818608E-02  0.8733456E-01
         -2   -1    0    0    0  501 -0.00000000000E+00  0.00000000000E+00  0.12318721185E+04  0.12318721185E+04  0.00000000000E+00 0. -1.
          2   -1    0    0  501    0  0.00000000000E+00 -0.00000000000E+00 -0.62137680421E+03  0.62137680421E+03  0.00000000000E+00 0.  1.
         23    2    1    2    0    0 -0.53546812407E+03 -0.57423962220E+03 -0.96753860677E+02  0.79651875322E+03  0.92755372173E+02 0.  0.
         13    1    3    3    0    0 -0.16809414004E+03 -0.12204365581E+03 -0.16196829384E+02  0.20835698001E+03  0.00000000000E+00 0. -1.
        -13    1    3    3    0    0 -0.36737398404E+03 -0.45219596639E+03 -0.80557031294E+02  0.58816177321E+03  0.00000000000E+00 0.  1.
         22    1    1    2    0    0  0.53546812407E+03  0.57423962220E+03  0.70724917496E+03  0.10567301695E+04  0.00000000000E+00 0.  1.
<mgrwt>
<rscale>  0 0.17498077E+04</rscale>
<asrwt>0</asrwt>
<pdfrwt beam="1">  1        2 0.95596431E-01 0.17498077E+04</pdfrwt>
<pdfrwt beam="2">  1       -2 0.18951879E+00 0.17498077E+04</pdfrwt>
<totfact> 0.70284249E+00</totfact>
</mgrwt>
</event>
<event>
 6    1  0.1934315E-005  0.1419841E+04  0.7818608E-02  0.8939581E-01
          2   -1    0    0  501    0  0.00000000000E+00  0.00000000000E+00  0.31371217384E+04  0.31371217384E+04  0.00000000000E+00 0.  1.
         -2   -1    0    0    0  501 -0.00000000000E+00 -0.00000000000E+00 -0.16065272452E+03  0.16065272452E+03  0.00000000000E+00 0. -1.
         23    2    1    2    0    0  0.19270388373E+03  0.68002574969E+03  0.14639350068E+04  0.16282449096E+04  0.92227838857E+02 0.  0.
         13    1    3    3    0    0  0.52320841868E+02  0.26049525125E+03  0.64215533155E+03  0.69495231221E+03  0.00000000000E+00 0.  1.
        -13    1    3    3    0    0  0.14038304187E+03  0.41953049844E+03  0.82177967528E+03  0.93329259735E+03  0.00000000000E+00 0. -1.
         22    1    1    2    0    0 -0.19270388373E+03 -0.68002574969E+03  0.15125340071E+04  0.16695295534E+04  0.00000000000E+00 0.  1.
<mgrwt>
<rscale>  0 0.14198411E+04</rscale>
<asrwt>0</asrwt>
<pdfrwt beam="1">  1        2 0.48263407E+00 0.14198411E+04</pdfrwt>
<pdfrwt beam="2">  1       -2 0.24715806E-01 0.14198411E+04</pdfrwt>
<totfact> 0.20495132E+01</totfact>
</mgrwt>
</event>
<event>
 6    1  0.1934315E-005  0.6158823E+04  0.7818608E-02  0.7671016E-01
         -2   -1    0    0    0  501 -0.00000000000E+00  0.00000000000E+00  0.33464504326E+04  0.33464504326E+04  0.00000000000E+00 0. -1.
          2   -1    0    0  501    0  0.00000000000E+00 -0.00000000000E+00 -0.28336814334E+04  0.28336814334E+04  0.00000000000E+00 0.  1.
         23    2    1    2    0    0  0.13788643594E+04 -0.15415675011E+04  0.25449605100E+04  0.32805629983E+04  0.87019003018E+02 0.  0.
         11    1    3    3    0    0  0.56118234745E+02 -0.89977951079E+02  0.12105132308E+03  0.16093076390E+03  0.00000000000E+00 0. -1.
        -11    1    3    3    0    0  0.13227461246E+04 -0.14515895500E+04  0.24239091869E+04  0.31196322344E+04  0.00000000000E+00 0.  1.
         22    1    1    2    0    0 -0.13788643594E+04  0.15415675011E+04 -0.20321915107E+04  0.28995688676E+04  0.00000000000E+00 0.  1.
<mgrwt>
<rscale>  0 0.61588228E+04</rscale>
<asrwt>0</asrwt>
<pdfrwt beam="1">  1        2 0.43595099E+00 0.61588228E+04</pdfrwt>
<pdfrwt beam="2">  1       -2 0.51483853E+00 0.61588228E+04</pdfrwt>
<totfact> 0.19937837E-03</totfact>
</mgrwt>
</event>
<event>
 6    1  0.1934315E-005  0.1595773E+04  0.7818608E-02  0.8823149E-01
          2   -1    0    0  501    0  0.00000000000E+00  0.00000000000E+00  0.12841280147E+04  0.12841280147E+04  0.00000000000E+00 0.  1.
         -2   -1    0    0    0  501 -0.00000000000E+00 -0.00000000000E+00 -0.49576284505E+03  0.49576284505E+03  0.00000000000E+00 0. -1.
         23    2    1    2    0    0 -0.32770863297E+03 -0.69547565809E+03  0.16851355535E+03  0.79232042538E+03  0.91079630053E+02 0.  0.
         11    1    3    3    0    0 -0.90946367465E+02 -0.27179144560E+03  0.33590975710E+02  0.28856573827E+03  0.00000000000E+00 0.  1.
        -11    1    3    3    0    0 -0.23676226550E+03 -0.42368421250E+03  0.13492257964E+03  0.50375468711E+03  0.00000000000E+00 0. -1.
         22    1    1    2    0    0  0.32770863297E+03  0.69547565809E+03  0.61985161435E+03  0.98757043442E+03  0.00000000000E+00 0.  1.
<mgrwt>
<rscale>  0 0.15957731E+04</rscale>
<asrwt>0</asrwt>
<pdfrwt beam="1">  1        2 0.19755815E+00 0.15957731E+04</pdfrwt>
<pdfrwt beam="2">  1       -2 0.76271207E-01 0.15957731E+04</pdfrwt>
<totfact> 0.24921491E+01</totfact>
</mgrwt>
</event>
<event>
 6    1  0.1934315E-005  0.1350815E+04  0.7818608E-02  0.8990212E-01
         -2   -1    0    0    0  501 -0.00000000000E+00  0.00000000000E+00  0.27847860914E+03  0.27847860914E+03  0.00000000000E+00 0. -1.
          2   -1    0    0  501    0  0.00000000000E+00 -0.00000000000E+00 -0.16380973619E+04  0.16380973619E+04  0.00000000000E+00 0.  1.
         23    2    1    2    0    0 -0.15766561796E+03 -0.17159843242E+03 -0.15776230992E+04  0.15974672684E+04  0.93287519989E+02 0.  0.
         13    1    3    3    0    0 -0.78216807023E+02 -0.89096928057E+02 -0.10968642930E+04  0.11032531028E+04  0.00000000000E+00 0. -1.
        -13    1    3    3    0    0 -0.79448810933E+02 -0.82501504358E+02 -0.48075880617E+03  0.49421416561E+03  0.00000000000E+00 0.  1.
         22    1    1    2    0    0  0.15766561796E+03  0.17159843242E+03  0.21800434638E+03  0.31910870269E+03  0.00000000000E+00 0. -1.
<mgrwt>
<rscale>  0 0.13508147E+04</rscale>
<asrwt>0</asrwt>
<pdfrwt beam="1">  1        2 0.25201498E+00 0.13508147E+04</pdfrwt>
<pdfrwt beam="2">  1       -2 0.42842863E-01 0.13508147E+04</pdfrwt>
<totfact> 0.53554835E+01</totfact>
</mgrwt>
</event>
<event>
 6    1  0.1934315E-005  0.1909226E+04  0.7818608E-02  0.8650277E-01
         -2   -1    0    0    0  501 -0.00000000000E+00  0.00000000000E+00  0.64119612405E+03  0.64119612405E+03  0.00000000000E+00 0. -1.
          2   -1    0    0  501    0  0.00000000000E+00 -0.00000000000E+00 -0.14212288540E+04  0.14212288540E+04  0.00000000000E+00 0.  1.
         23    2    1    2    0    0 -0.42492073464E+03 -0.50539477185E+03  0.35000453952E+03  0.75362180853E+03  0.97268424784E+02 0.  0.
         11    1    3    3    0    0 -0.36723591921E+03 -0.37519216296E+03  0.27519305880E+03  0.59275846608E+03  0.00000000000E+00 0.  1.
        -11    1    3    3    0    0 -0.57684815428E+02 -0.13020260889E+03  0.74811480723E+02  0.16086334244E+03  0.00000000000E+00 0. -1.
         22    1    1    2    0    0  0.42492073464E+03  0.50539477185E+03 -0.11300372695E+04  0.13088031695E+04  0.00000000000E+00 0.  1.
<mgrwt>
<rscale>  0 0.19092265E+04</rscale>
<asrwt>0</asrwt>
<pdfrwt beam="1">  1        2 0.21865059E+00 0.19092265E+04</pdfrwt>
<pdfrwt beam="2">  1       -2 0.98645558E-01 0.19092265E+04</pdfrwt>
<totfact> 0.11235820E+01</totfact>
</mgrwt>
</event>
<event>
 6    1  0.1934315E-005  0.2625439E+04  0.7818608E-02  0.8359611E-01
          2   -1    0    0  501    0  0.00000000000E+00  0.00000000000E+00  0.13896947597E+04  0.13896947597E+04  0.00000000000E+00 0.  1.
         -2   -1    0    0    0  501 -0.00000000000E+00 -0.00000000000E+00 -0.12400083551E+04  0.12400083551E+04  0.00000000000E+00 0. -1.
         23    2    1    2    0    0 -0.81311677118E+02 -0.12191119974E+04  0.55127394378E+03  0.13435778478E+04  0.91939224190E+02 0.  0.
         11    1    3    3    0    0 -0.64406118075E+02 -0.47779667219E+03  0.25141237709E+03  0.54373338261E+03  0.00000000000E+00 0.  1.
        -11    1    3    3    0    0 -0.16905559042E+02 -0.74131532519E+03  0.29986156669E+03  0.79984446517E+03  0.00000000000E+00 0. -1.
         22    1    1    2    0    0  0.81311677118E+02  0.12191119974E+04 -0.40158753918E+03  0.12861252671E+04  0.00000000000E+00 0. -1.
<mgrwt>
<rscale>  0 0.26254395E+04</rscale>
<asrwt>0</asrwt>
<pdfrwt beam="1">  1        2 0.21379919E+00 0.26254395E+04</pdfrwt>
<pdfrwt beam="2">  1       -2 0.19077052E+00 0.26254395E+04</pdfrwt>
<totfact> 0.19834370E+00</totfact>
</mgrwt>
</event>
<event>
 6    1  0.1934315E-005  0.1745688E+04  0.7818608E-02  0.8735727E-01
         -2   -1    0    0    0  501 -0.00000000000E+00  0.00000000000E+00  0.72592792717E+03  0.72592792717E+03  0.00000000000E+00 0. -1.
          2   -1    0    0  501    0  0.00000000000E+00 -0.00000000000E+00 -0.10494934765E+04  0.10494934765E+04  0.00000000000E+00 0.  1.
         23    2    1    2    0    0 -0.38573503805E+03  0.22393391459E+03  0.59820851385E+03  0.75140707700E+03  0.88437840464E+02 0.  0.
         11    1    3    3    0    0 -0.24006468360E+02  0.32083745946E+02  0.91873647584E+02  0.10023195298E+03  0.00000000000E+00 0. -1.
        -11    1    3    3    0    0 -0.36172856969E+03  0.19185016865E+03  0.50633486627E+03  0.65117512402E+03  0.00000000000E+00 0.  1.
         22    1    1    2    0    0  0.38573503805E+03 -0.22393391459E+03 -0.92177406317E+03  0.10240143267E+04  0.00000000000E+00 0.  1.
<mgrwt>
<rscale>  0 0.17456880E+04</rscale>
<asrwt>0</asrwt>
<pdfrwt beam="1">  1        2 0.16146054E+00 0.17456880E+04</pdfrwt>
<pdfrwt beam="2">  1       -2 0.11168122E+00 0.17456880E+04</pdfrwt>
<totfact> 0.14067352E+01</totfact>
</mgrwt>
</event>
<event>
 6    1  0.1934315E-005  0.5324992E+03  0.7818608E-02  0.1005628E+00
          2   -1    0    0  501    0  0.00000000000E+00  0.00000000000E+00  0.52402587349E+03  0.52402587349E+03  0.00000000000E+00 0.  1.
         -2   -1    0    0    0  501 -0.00000000000E+00 -0.00000000000E+00 -0.13527736850E+03  0.13527736850E+03  0.00000000000E+00 0. -1.
         23    2    1    2    0    0 -0.17116250224E+03 -0.19044376544E+03  0.22385527754E+03  0.35474584767E+03  0.10083650723E+03 0.  0.
         11    1    3    3    0    0 -0.55657561701E+02 -0.39335243930E+01  0.47161228420E+02  0.73057636526E+02  0.00000000000E+00 0. -1.
        -11    1    3    3    0    0 -0.11550494054E+03 -0.18651024105E+03  0.17669404912E+03  0.28168821115E+03  0.00000000000E+00 0.  1.
         22    1    1    2    0    0  0.17116250224E+03  0.19044376544E+03  0.16489322746E+03  0.30455739431E+03  0.00000000000E+00 0. -1.
<mgrwt>
<rscale>  0 0.53249917E+03</rscale>
<asrwt>0</asrwt>
<pdfrwt beam="1">  1        2 0.80619364E-01 0.53249917E+03</pdfrwt>
<pdfrwt beam="2">  1       -2 0.20811903E-01 0.53249917E+03</pdfrwt>
<totfact> 0.11616390E+03</totfact>
</mgrwt>
</event>
<event>
 6    1  0.1934315E-005  0.1093049E+04  0.7818608E-02  0.9211993E-01
         -2   -1    0    0    0  501 -0.00000000000E+00  0.00000000000E+00  0.13157992320E+03  0.13157992320E+03  0.00000000000E+00 0. -1.
          2   -1    0    0  501    0  0.00000000000E+00 -0.00000000000E+00 -0.22700198875E+04  0.22700198875E+04  0.00000000000E+00 0.  1.
         23    2    1    2    0    0  0.26569204929E+03  0.35756123020E+03 -0.39539102344E+03  0.60252729725E+03  0.90899857646E+02 0.  0.
         11    1    3    3    0    0  0.12731787192E+03  0.23460003166E+03 -0.26479522149E+03  0.37598341012E+03  0.00000000000E+00 0.  1.
        -11    1    3    3    0    0  0.13837417736E+03  0.12296119855E+03 -0.13059580195E+03  0.22654388713E+03  0.00000000000E+00 0. -1.
         22    1    1    2    0    0 -0.26569204929E+03 -0.35756123020E+03 -0.17430489408E+04  0.17990725134E+04  0.00000000000E+00 0.  1.
<mgrwt>
<rscale>  0 0.10930490E+04</rscale>
<asrwt>0</asrwt>
<pdfrwt beam="1">  1        2 0.34923384E+00 0.10930490E+04</pdfrwt>
<pdfrwt beam="2">  1       -2 0.20243065E-01 0.10930490E+04</pdfrwt>
<totfact> 0.98524572E+01</totfact>
</mgrwt>
</event>
<event>
 6    1  0.1934315E-005  0.6291393E+03  0.7818608E-02  0.9846730E-01
          2   -1    0    0  501    0  0.00000000000E+00  0.00000000000E+00  0.58224010308E+03  0.58224010308E+03  0.00000000000E+00 0.  1.
         -2   -1    0    0    0  501 -0.00000000000E+00 -0.00000000000E+00 -0.16995404973E+03  0.16995404973E+03  0.00000000000E+00 0. -1.
         23    2    1    2    0    0  0.24324731419E+03  0.57787094522E+02 -0.45749340929E+01  0.26610600545E+03  0.91010284913E+02 0.  0.
         11    1    3    3    0    0  0.50495518597E+02  0.25254775377E+02  0.35322750490E+02  0.66598031352E+02  0.00000000000E+00 0. -1.
        -11    1    3    3    0    0  0.19275179559E+03  0.32532319145E+02 -0.39897684583E+02  0.19950797410E+03  0.00000000000E+00 0.  1.
         22    1    1    2    0    0 -0.24324731419E+03 -0.57787094522E+02  0.41686098745E+03  0.48608814737E+03  0.00000000000E+00 0.  1.
<mgrwt>
<rscale>  0 0.62913930E+03</rscale>
<asrwt>0</asrwt>
<pdfrwt beam="1">  1        2 0.89575400E-01 0.62913930E+03</pdfrwt>
<pdfrwt beam="2">  1       -2 0.26146777E-01 0.62913930E+03</pdfrwt>
<totfact> 0.68319514E+02</totfact>
</mgrwt>
</event>
<event>
 6    1  0.1934315E-005  0.2227977E+04  0.7818608E-02  0.8506873E-01
          2   -1    0    0  501    0  0.00000000000E+00  0.00000000000E+00  0.26445705956E+04  0.26445705956E+04  0.00000000000E+00 0.  1.
         -2   -1    0    0    0  501 -0.00000000000E+00 -0.00000000000E+00 -0.46925229964E+03  0.46925229964E+03  0.00000000000E+00 0. -1.
         23    2    1    2    0    0  0.82707411157E+03 -0.74333637024E+03  0.11305817103E+04  0.15880198022E+04  0.83614251796E+02 0.  0.
         11    1    3    3    0    0  0.41964135628E+03 -0.42970524141E+03  0.58848261628E+03  0.84086696454E+03  0.00000000000E+00 0.  1.
        -11    1    3    3    0    0  0.40743275529E+03 -0.31363112883E+03  0.54209909400E+03  0.74715283762E+03  0.00000000000E+00 0. -1.
         22    1    1    2    0    0 -0.82707411157E+03  0.74333637024E+03  0.10447365857E+04  0.15258030931E+04  0.00000000000E+00 0. -1.
<mgrwt>
<rscale>  0 0.22279774E+04</rscale>
<asrwt>0</asrwt>
<pdfrwt beam="1">  1        2 0.40685700E+00 0.22279774E+04</pdfrwt>
<pdfrwt beam="2">  1       -2 0.72192663E-01 0.22279774E+04</pdfrwt>
<totfact> 0.45395458E+00</totfact>
</mgrwt>
</event>
<event>
 6    1  0.1934315E-005  0.1974287E+04  0.7818608E-02  0.8618738E-01
          2   -1    0    0  501    0  0.00000000000E+00  0.00000000000E+00  0.12660142378E+04  0.12660142378E+04  0.00000000000E+00 0.  1.
         -2   -1    0    0    0  501 -0.00000000000E+00 -0.00000000000E+00 -0.76970073956E+03  0.76970073956E+03  0.00000000000E+00 0. -1.
         23    2    1    2    0    0  0.33489581824E+03  0.44450532503E+03 -0.58950700073E+03  0.81557303929E+03  0.88885800117E+02 0.  0.
         13    1    3    3    0    0  0.27936720614E+03  0.41615077909E+03 -0.52204736868E+03  0.72371331475E+03  0.00000000000E+00 0.  1.
        -13    1    3    3    0    0  0.55528612095E+02  0.28354545940E+02 -0.67459632047E+02  0.91859724540E+02  0.00000000000E+00 0. -1.
         22    1    1    2    0    0 -0.33489581824E+03 -0.44450532503E+03  0.10858204989E+04  0.12201419380E+04  0.00000000000E+00 0.  1.
<mgrwt>
<rscale>  0 0.19742868E+04</rscale>
<asrwt>0</asrwt>
<pdfrwt beam="1">  1        2 0.19477142E+00 0.19742868E+04</pdfrwt>
<pdfrwt beam="2">  1       -2 0.11841550E+00 0.19742868E+04</pdfrwt>
<totfact> 0.88447672E+00</totfact>
</mgrwt>
</event>
<event>
 6    1  0.1934315E-005  0.1952697E+04  0.7818608E-02  0.8629062E-01
          2   -1    0    0  501    0  0.00000000000E+00  0.00000000000E+00  0.17118120260E+04  0.17118120260E+04  0.00000000000E+00 0.  1.
         -2   -1    0    0    0  501 -0.00000000000E+00 -0.00000000000E+00 -0.55686956562E+03  0.55686956562E+03  0.00000000000E+00 0. -1.
         23    2    1    2    0    0  0.35624112773E+03  0.57624993570E+03  0.13921166610E+04  0.15508910017E+04  0.91117352701E+02 0.  0.
         13    1    3    3    0    0  0.18580072840E+03  0.23352421258E+03  0.54623960796E+03  0.62244130473E+03  0.00000000000E+00 0. -1.
        -13    1    3    3    0    0  0.17044039934E+03  0.34272572312E+03  0.84587705300E+03  0.92844969697E+03  0.00000000000E+00 0.  1.
         22    1    1    2    0    0 -0.35624112773E+03 -0.57624993570E+03 -0.23717420062E+03  0.71779058988E+03  0.00000000000E+00 0. -1.
<mgrwt>
<rscale>  0 0.19526966E+04</rscale>
<asrwt>0</asrwt>
<pdfrwt beam="1">  1        2 0.26335569E+00 0.19526966E+04</pdfrwt>
<pdfrwt beam="2">  1       -2 0.85672241E-01 0.19526966E+04</pdfrwt>
<totfact> 0.10660853E+01</totfact>
</mgrwt>
</event>
<event>
 6    1  0.1934315E-005  0.1590968E+04  0.7818608E-02  0.8826116E-01
          2   -1    0    0  501    0  0.00000000000E+00  0.00000000000E+00  0.68226192280E+03  0.68226192280E+03  0.00000000000E+00 0.  1.
         -2   -1    0    0    0  501 -0.00000000000E+00 -0.00000000000E+00 -0.92749487614E+03  0.92749487614E+03  0.00000000000E+00 0. -1.
         23    2    1    2    0    0 -0.49454826574E+02 -0.73210182803E+03  0.18080162392E+03  0.76127325314E+03  0.91808889821E+02 0.  0.
         13    1    3    3    0    0 -0.62134189365E+02 -0.27990575589E+03  0.57983148313E+02  0.29252339249E+03  0.00000000000E+00 0. -1.
        -13    1    3    3    0    0  0.12679362791E+02 -0.45219607214E+03  0.12281847561E+03  0.46874986064E+03  0.00000000000E+00 0.  1.
         22    1    1    2    0    0  0.49454826574E+02  0.73210182803E+03 -0.42603457726E+03  0.84848354581E+03  0.00000000000E+00 0. -1.
<mgrwt>
<rscale>  0 0.15909676E+04</rscale>
<asrwt>0</asrwt>
<pdfrwt beam="1">  1        2 0.10496337E+00 0.15909676E+04</pdfrwt>
<pdfrwt beam="2">  1       -2 0.14269152E+00 0.15909676E+04</pdfrwt>
<totfact> 0.13872880E+01</totfact>
</mgrwt>
</event>
<event>
 6    1  0.1934315E-005  0.3192803E+04  0.7818608E-02  0.8190720E-01
         -2   -1    0    0    0  501 -0.00000000000E+00  0.00000000000E+00  0.99382326891E+03  0.99382326891E+03  0.00000000000E+00 0. -1.
          2   -1    0    0  501    0  0.00000000000E+00 -0.00000000000E+00 -0.25643368911E+04  0.25643368911E+04  0.00000000000E+00 0.  1.
         23    2    1    2    0    0 -0.10906993323E+04 -0.11019751527E+04 -0.12035694415E+04  0.19648546957E+04  0.90001690411E+02 0.  0.
         11    1    3    3    0    0 -0.10332781334E+04 -0.10154072255E+04 -0.11101000782E+04  0.18251130700E+04  0.00000000000E+00 0. -1.
        -11    1    3    3    0    0 -0.57421198894E+02 -0.86567927125E+02 -0.93469363270E+02  0.13974162572E+03  0.00000000000E+00 0.  1.
         22    1    1    2    0    0  0.10906993323E+04  0.11019751527E+04 -0.36694418068E+03  0.15933054642E+04  0.00000000000E+00 0. -1.
<mgrwt>
<rscale>  0 0.31928030E+04</rscale>
<asrwt>0</asrwt>
<pdfrwt beam="1">  1        2 0.39451337E+00 0.31928030E+04</pdfrwt>
<pdfrwt beam="2">  1       -2 0.15289589E+00 0.31928030E+04</pdfrwt>
<totfact> 0.76595036E-01</totfact>
</mgrwt>
</event>
<event>
 6    1  0.1934315E-005  0.3330621E+04  0.7818608E-02  0.8155147E-01
         -2   -1    0    0    0  501 -0.00000000000E+00  0.00000000000E+00  0.77041878408E+03  0.77041878408E+03  0.00000000000E+00 0. -1.
          2   -1    0    0  501    0  0.00000000000E+00 -0.00000000000E+00 -0.35996781279E+04  0.35996781279E+04  0.00000000000E+00 0.  1.
         23    2    1    2    0    0 -0.10125053106E+04  0.52170275872E+03 -0.30074752993E+04  0.32172301810E+04  0.91222746403E+02 0.  0.
         11    1    3    3    0    0 -0.20377815098E+03  0.12023063897E+03 -0.72640854361E+03  0.76397009994E+03  0.00000000000E+00 0.  1.
        -11    1    3    3    0    0 -0.80872715963E+03  0.40147211975E+03 -0.22810667557E+04  0.24532600811E+04  0.00000000000E+00 0. -1.
         22    1    1    2    0    0  0.10125053106E+04 -0.52170275872E+03  0.17821595549E+03  0.11528667309E+04  0.00000000000E+00 0. -1.
<mgrwt>
<rscale>  0 0.33306214E+04</rscale>
<asrwt>0</asrwt>
<pdfrwt beam="1">  1        2 0.55379664E+00 0.33306214E+04</pdfrwt>
<pdfrwt beam="2">  1       -2 0.11852597E+00 0.33306214E+04</pdfrwt>
<totfact> 0.31461634E-01</totfact>
</mgrwt>
</event>
<event>
 6    1  0.1934315E-005  0.3930239E+04  0.7818608E-02  0.8018769E-01
          2   -1    0    0  501    0  0.00000000000E+00  0.00000000000E+00  0.21895246393E+04  0.21895246393E+04  0.00000000000E+00 0.  1.
         -2   -1    0    0    0  501 -0.00000000000E+00 -0.00000000000E+00 -0.17637139139E+04  0.17637139139E+04  0.00000000000E+00 0. -1.
         23    2    1    2    0    0  0.63995777718E+03 -0.18555479325E+04  0.14410896023E+03  0.19703215174E+04  0.93783811280E+02 0.  0.
         11    1    3    3    0    0  0.27112530000E+03 -0.92926599010E+03  0.75501919941E+02  0.97095043569E+03  0.00000000000E+00 0.  1.
        -11    1    3    3    0    0  0.36883247719E+03 -0.92628194240E+03  0.68607040285E+02  0.99937108174E+03  0.00000000000E+00 0. -1.
         22    1    1    2    0    0 -0.63995777718E+03  0.18555479325E+04  0.28170176515E+03  0.19829170358E+04  0.00000000000E+00 0.  1.
<mgrwt>
<rscale>  0 0.39302392E+04</rscale>
<asrwt>0</asrwt>
<pdfrwt beam="1">  1        2 0.33684994E+00 0.39302392E+04</pdfrwt>
<pdfrwt beam="2">  1       -2 0.27134060E+00 0.39302392E+04</pdfrwt>
<totfact> 0.19751926E-01</totfact>
</mgrwt>
</event>
<event>
 6    1  0.1934315E-005  0.1413598E+04  0.7818608E-02  0.8944034E-01
         -2   -1    0    0    0  501 -0.00000000000E+00  0.00000000000E+00  0.21048157278E+03  0.21048157278E+03  0.00000000000E+00 0. -1.
          2   -1    0    0  501    0  0.00000000000E+00 -0.00000000000E+00 -0.23734358766E+04  0.23734358766E+04  0.00000000000E+00 0.  1.
         23    2    1    2    0    0 -0.86867750354E+02 -0.65682147603E+03 -0.65346846276E+03  0.93543088232E+03  0.95128577975E+02 0.  0.
         13    1    3    3    0    0  0.17999748908E+02 -0.16993633396E+03 -0.18119327844E+03  0.24906495681E+03  0.00000000000E+00 0.  1.
        -13    1    3    3    0    0 -0.10486749926E+03 -0.48688514207E+03 -0.47227518432E+03  0.68636592551E+03  0.00000000000E+00 0. -1.
         22    1    1    2    0    0  0.86867750354E+02  0.65682147603E+03 -0.15094858411E+04  0.16484865671E+04  0.00000000000E+00 0.  1.
<mgrwt>
<rscale>  0 0.14135976E+04</rscale>
<asrwt>0</asrwt>
<pdfrwt beam="1">  1        2 0.36514398E+00 0.14135976E+04</pdfrwt>
<pdfrwt beam="2">  1       -2 0.32381781E-01 0.14135976E+04</pdfrwt>
<totfact> 0.35652493E+01</totfact>
</mgrwt>
</event>
<event>
 6    1  0.1934315E-005  0.3131597E+04  0.7818608E-02  0.8207120E-01
          2   -1    0    0  501    0  0.00000000000E+00  0.00000000000E+00  0.24678733295E+04  0.24678733295E+04  0.00000000000E+00 0. -1.
         -2   -1    0    0    0  501 -0.00000000000E+00 -0.00000000000E+00 -0.99345638632E+03  0.99345638632E+03  0.00000000000E+00 0.  1.
         23    2    1    2    0    0 -0.11896631055E+04  0.42128719323E+03  0.17596579657E+04  0.21674426865E+04  0.92900158200E+02 0.  0.
         11    1    3    3    0    0 -0.63569767731E+03  0.19704268067E+03  0.99219932872E+03  0.11947371522E+04  0.00000000000E+00 0. -1.
        -11    1    3    3    0    0 -0.55396542818E+03  0.22424451257E+03  0.76745863698E+03  0.97270553433E+03  0.00000000000E+00 0.  1.
         22    1    1    2    0    0  0.11896631055E+04 -0.42128719323E+03 -0.28524102249E+03  0.12938870293E+04  0.00000000000E+00 0.  1.
<mgrwt>
<rscale>  0 0.31315967E+04</rscale>
<asrwt>0</asrwt>
<pdfrwt beam="1">  1        2 0.37967282E+00 0.31315967E+04</pdfrwt>
<pdfrwt beam="2">  1       -2 0.15283944E+00 0.31315967E+04</pdfrwt>
<totfact> 0.87684731E-01</totfact>
</mgrwt>
</event>
<event>
 6    1  0.1934315E-005  0.1183709E+04  0.7818608E-02  0.9127237E-01
          1   -1    0    0  501    0  0.00000000000E+00  0.00000000000E+00  0.32110999924E+03  0.32110999924E+03  0.00000000000E+00 0.  1.
         -1   -1    0    0    0  501 -0.00000000000E+00 -0.00000000000E+00 -0.10908776754E+04  0.10908776754E+04  0.00000000000E+00 0. -1.
         23    2    1    2    0    0 -0.25512095355E+03 -0.49012961465E+03 -0.14590082389E+03  0.57860685566E+03  0.90471558580E+02 0.  0.
         13    1    3    3    0    0 -0.91799748347E+02 -0.20711034549E+03 -0.16460346085E+02  0.22714055560E+03  0.00000000000E+00 0. -1.
        -13    1    3    3    0    0 -0.16332120521E+03 -0.28301926915E+03 -0.12944047781E+03  0.35146630006E+03  0.00000000000E+00 0.  1.
         22    1    1    2    0    0  0.25512095355E+03  0.49012961465E+03 -0.62386685232E+03  0.83338081902E+03  0.00000000000E+00 0. -1.
<mgrwt>
<rscale>  0 0.11837090E+04</rscale>
<asrwt>0</asrwt>
<pdfrwt beam="1">  1        1 0.49401539E-01 0.11837090E+04</pdfrwt>
<pdfrwt beam="2">  1       -1 0.16782733E+00 0.11837090E+04</pdfrwt>
<totfact> 0.20291770E+01</totfact>
</mgrwt>
</event>
<event>
 6    1  0.1934315E-005  0.1140162E+04  0.7818608E-02  0.9166908E-01
          2   -1    0    0  501    0  0.00000000000E+00  0.00000000000E+00  0.16198851540E+04  0.16198851540E+04  0.00000000000E+00 0.  1.
         -2   -1    0    0    0  501 -0.00000000000E+00 -0.00000000000E+00 -0.20062662980E+03  0.20062662980E+03  0.00000000000E+00 0. -1.
         23    2    1    2    0    0 -0.52104666391E+03  0.19266613171E+03  0.89146503361E+03  0.10542377904E+04  0.89986378279E+02 0.  0.
         11    1    3    3    0    0 -0.28644933220E+03  0.64012208439E+02  0.50705645402E+03  0.58588141318E+03  0.00000000000E+00 0. -1.
        -11    1    3    3    0    0 -0.23459733171E+03  0.12865392327E+03  0.38440857959E+03  0.46835637722E+03  0.00000000000E+00 0.  1.
         22    1    1    2    0    0  0.52104666391E+03 -0.19266613171E+03  0.52779349062E+03  0.76627399344E+03  0.00000000000E+00 0. -1.
<mgrwt>
<rscale>  0 0.11401616E+04</rscale>
<asrwt>0</asrwt>
<pdfrwt beam="1">  1        2 0.24921309E+00 0.11401616E+04</pdfrwt>
<pdfrwt beam="2">  1       -2 0.30865637E-01 0.11401616E+04</pdfrwt>
<totfact> 0.10463387E+02</totfact>
</mgrwt>
</event>
<event>
 6    1  0.1934315E-005  0.1112160E+04  0.7818608E-02  0.9193420E-01
          2   -1    0    0  501    0  0.00000000000E+00  0.00000000000E+00  0.47222143914E+03  0.47222143914E+03  0.00000000000E+00 0.  1.
         -2   -1    0    0    0  501 -0.00000000000E+00 -0.00000000000E+00 -0.65483073425E+03  0.65483073425E+03  0.00000000000E+00 0. -1.
         23    2    1    2    0    0 -0.25263021259E+03 -0.48025024258E+03 -0.19705872722E+03  0.58421600483E+03  0.89520268705E+02 0.  0.
         13    1    3    3    0    0 -0.13536994151E+03 -0.23568552760E+03 -0.52305558391E+02  0.27678251466E+03  0.00000000000E+00 0. -1.
        -13    1    3    3    0    0 -0.11726027108E+03 -0.24456471498E+03 -0.14475316883E+03  0.30743349016E+03  0.00000000000E+00 0.  1.
         22    1    1    2    0    0  0.25263021259E+03  0.48025024258E+03  0.14449432113E+02  0.54283616856E+03  0.00000000000E+00 0. -1.
<mgrwt>
<rscale>  0 0.11121603E+04</rscale>
<asrwt>0</asrwt>
<pdfrwt beam="1">  1        2 0.72649452E-01 0.11121603E+04</pdfrwt>
<pdfrwt beam="2">  1       -2 0.10074319E+00 0.11121603E+04</pdfrwt>
<totfact> 0.52994307E+01</totfact>
</mgrwt>
</event>
<event>
 6    1  0.2157829E-005  0.3593234E+04  0.7818608E-02  0.8092043E-01
          2   -1    0    0  501    0  0.00000000000E+00  0.00000000000E+00  0.16377511494E+04  0.16377511494E+04  0.00000000000E+00 0.  1.
         -2   -1    0    0    0  501 -0.00000000000E+00 -0.00000000000E+00 -0.19708936852E+04  0.19708936852E+04  0.00000000000E+00 0. -1.
         23    2    1    2    0    0 -0.14393962387E+04 -0.11951143383E+03  0.90556071188E+03  0.17058757338E+04  0.61865187347E+02 0.  0.
         11    1    3    3    0    0 -0.83113717049E+03 -0.98697202541E+02  0.53324755380E+03  0.99241276070E+03  0.00000000000E+00 0. -1.
        -11    1    3    3    0    0 -0.60825906825E+03 -0.20814231291E+02  0.37231315807E+03  0.71346297312E+03  0.00000000000E+00 0.  1.
         22    1    1    2    0    0  0.14393962387E+04  0.11951143383E+03 -0.12387032477E+04  0.19027691008E+04  0.00000000000E+00 0. -1.
<mgrwt>
<rscale>  0 0.35932344E+04</rscale>
<asrwt>0</asrwt>
<pdfrwt beam="1">  1        2 0.25196172E+00 0.35932344E+04</pdfrwt>
<pdfrwt beam="2">  1       -2 0.30321441E+00 0.35932344E+04</pdfrwt>
<totfact> 0.26310035E-01</totfact>
</mgrwt>
</event>
<event>
 6    1  0.1934315E-005  0.1427656E+04  0.7818608E-02  0.8934039E-01
          1   -1    0    0  501    0  0.00000000000E+00  0.00000000000E+00  0.68960085621E+03  0.68960085621E+03  0.00000000000E+00 0. -1.
         -1   -1    0    0    0  501 -0.00000000000E+00 -0.00000000000E+00 -0.73890677268E+03  0.73890677268E+03  0.00000000000E+00 0.  1.
         23    2    1    2    0    0 -0.56800828487E+03  0.41326856162E+03  0.81566957808E+02  0.71397839581E+03  0.98425938503E+02 0.  0.
         11    1    3    3    0    0 -0.21752653876E+03  0.20541711354E+03  0.41960572631E+01  0.29921830241E+03  0.00000000000E+00 0. -1.
        -11    1    3    3    0    0 -0.35048174611E+03  0.20785144808E+03  0.77370900545E+02  0.41476009340E+03  0.00000000000E+00 0.  1.
         22    1    1    2    0    0  0.56800828487E+03 -0.41326856162E+03 -0.13087287428E+03  0.71452923308E+03  0.00000000000E+00 0. -1.
<mgrwt>
<rscale>  0 0.14276565E+04</rscale>
<asrwt>0</asrwt>
<pdfrwt beam="1">  1        1 0.10609244E+00 0.14276565E+04</pdfrwt>
<pdfrwt beam="2">  1       -1 0.11367796E+00 0.14276565E+04</pdfrwt>
<totfact> 0.19143881E+01</totfact>
</mgrwt>
</event>
<event>
 6    1  0.1934315E-005  0.5717031E+03  0.7818608E-02  0.9965917E-01
         -2   -1    0    0    0  501 -0.00000000000E+00  0.00000000000E+00  0.94691972191E+02  0.94691972191E+02  0.00000000000E+00 0. -1.
          2   -1    0    0  501    0  0.00000000000E+00 -0.00000000000E+00 -0.86291482458E+03  0.86291482458E+03  0.00000000000E+00 0.  1.
         23    2    1    2    0    0  0.25095515025E+03 -0.64439770155E+02 -0.56441503638E+03  0.62795759341E+03  0.92927038105E+02 0.  0.
         11    1    3    3    0    0  0.14104644486E+03  0.10539621816E+02 -0.31423032464E+03  0.34459524106E+03  0.00000000000E+00 0. -1.
        -11    1    3    3    0    0  0.10990870539E+03 -0.74979391971E+02 -0.25018471174E+03  0.28336235235E+03  0.00000000000E+00 0.  1.
         22    1    1    2    0    0 -0.25095515025E+03  0.64439770155E+02 -0.20380781600E+03  0.32964920336E+03  0.00000000000E+00 0.  1.
<mgrwt>
<rscale>  0 0.57170309E+03</rscale>
<asrwt>0</asrwt>
<pdfrwt beam="1">  1        2 0.13275612E+00 0.57170309E+03</pdfrwt>
<pdfrwt beam="2">  1       -2 0.14567996E-01 0.57170309E+03</pdfrwt>
<totfact> 0.11508820E+03</totfact>
</mgrwt>
</event>
<event>
 6    1  0.1934315E-005  0.1690183E+04  0.7818608E-02  0.8766983E-01
         -2   -1    0    0    0  501 -0.00000000000E+00  0.00000000000E+00  0.25428728144E+03  0.25428728144E+03  0.00000000000E+00 0. -1.
          2   -1    0    0  501    0  0.00000000000E+00 -0.00000000000E+00 -0.28085545187E+04  0.28085545187E+04  0.00000000000E+00 0.  1.
         23    2    1    2    0    0 -0.27455285115E+03 -0.21886306210E+03 -0.26690223498E+04  0.26934517030E+04  0.87871866822E+02 0.  0.
         13    1    3    3    0    0 -0.19561386378E+02  0.41393416685E+01 -0.84997426560E+02  0.87317492568E+02  0.00000000000E+00 0. -1.
        -13    1    3    3    0    0 -0.25499146477E+03 -0.22300240377E+03 -0.25840249232E+04  0.26061342105E+04  0.00000000000E+00 0.  1.
         22    1    1    2    0    0  0.27455285115E+03  0.21886306210E+03  0.11475511248E+03  0.36939009714E+03  0.00000000000E+00 0. -1.
<mgrwt>
<rscale>  0 0.16901831E+04</rscale>
<asrwt>0</asrwt>
<pdfrwt beam="1">  1        2 0.43208533E+00 0.16901831E+04</pdfrwt>
<pdfrwt beam="2">  1       -2 0.39121119E-01 0.16901831E+04</pdfrwt>
<totfact> 0.13487784E+01</totfact>
</mgrwt>
</event>
<event>
 6    1  0.1934315E-005  0.1597524E+04  0.7818608E-02  0.8822070E-01
          2   -1    0    0  501    0  0.00000000000E+00  0.00000000000E+00  0.64762217145E+03  0.64762217145E+03  0.00000000000E+00 0.  1.
         -2   -1    0    0    0  501 -0.00000000000E+00 -0.00000000000E+00 -0.98517476770E+03  0.98517476770E+03  0.00000000000E+00 0. -1.
         23    2    1    2    0    0 -0.51968429127E+03 -0.24078716380E+03 -0.73502337841E+03  0.93563609435E+03  0.84293021072E+02 0.  0.
         11    1    3    3    0    0 -0.29616680043E+02 -0.36191334474E+02 -0.44861558096E+02  0.64803702229E+02  0.00000000000E+00 0.  1.
        -11    1    3    3    0    0 -0.49006761123E+03 -0.20459582932E+03 -0.69016182032E+03  0.87083239212E+03  0.00000000000E+00 0. -1.
         22    1    1    2    0    0  0.51968429127E+03  0.24078716380E+03  0.39747078217E+03  0.69716084480E+03  0.00000000000E+00 0.  1.
<mgrwt>
<rscale>  0 0.15975244E+04</rscale>
<asrwt>0</asrwt>
<pdfrwt beam="1">  1        2 0.99634181E-01 0.15975244E+04</pdfrwt>
<pdfrwt beam="2">  1       -2 0.15156535E+00 0.15975244E+04</pdfrwt>
<totfact> 0.12617884E+01</totfact>
</mgrwt>
</event>
<event>
 6    1  0.1934315E-005  0.2133622E+04  0.7818608E-02  0.8546576E-01
          2   -1    0    0  501    0  0.00000000000E+00  0.00000000000E+00  0.13465311874E+04  0.13465311874E+04  0.00000000000E+00 0.  1.
         -2   -1    0    0    0  501 -0.00000000000E+00 -0.00000000000E+00 -0.84519791652E+03  0.84519791652E+03  0.00000000000E+00 0. -1.
         23    2    1    2    0    0  0.75010829537E+03  0.48365117554E+03  0.84769064756E+03  0.12343658778E+04  0.92188784756E+02 0.  0.
         13    1    3    3    0    0  0.38105750004E+03  0.19380071255E+03  0.38383029194E+03  0.57453392200E+03  0.00000000000E+00 0.  1.
        -13    1    3    3    0    0  0.36905079533E+03  0.28985046299E+03  0.46386035561E+03  0.65983195583E+03  0.00000000000E+00 0. -1.
         22    1    1    2    0    0 -0.75010829537E+03 -0.48365117554E+03 -0.34635737664E+03  0.95736322612E+03  0.00000000000E+00 0. -1.
<mgrwt>
<rscale>  0 0.21336217E+04</rscale>
<asrwt>0</asrwt>
<pdfrwt beam="1">  1        2 0.20715864E+00 0.21336217E+04</pdfrwt>
<pdfrwt beam="2">  1       -2 0.13003045E+00 0.21336217E+04</pdfrwt>
<totfact> 0.61973573E+00</totfact>
</mgrwt>
</event>
<event>
 6    1  0.1934315E-005  0.3665817E+04  0.7818608E-02  0.8075580E-01
          2   -1    0    0  501    0  0.00000000000E+00  0.00000000000E+00  0.48078606402E+04  0.48078606402E+04  0.00000000000E+00 0.  1.
         -2   -1    0    0    0  501 -0.00000000000E+00 -0.00000000000E+00 -0.69876279103E+03  0.69876279103E+03  0.00000000000E+00 0. -1.
         23    2    1    2    0    0 -0.88641829994E+03 -0.12034685811E+03 -0.34536172565E+03  0.96322922950E+03  0.91186941417E+02 0.  0.
         13    1    3    3    0    0 -0.29728698239E+03  0.27266055509E+01 -0.11007271903E+03  0.31702206193E+03  0.00000000000E+00 0. -1.
        -13    1    3    3    0    0 -0.58913131755E+03 -0.12307346366E+03 -0.23528900662E+03  0.64620716757E+03  0.00000000000E+00 0.  1.
         22    1    1    2    0    0  0.88641829994E+03  0.12034685811E+03  0.44544595748E+04  0.45433942018E+04  0.00000000000E+00 0.  1.
<mgrwt>
<rscale>  0 0.36658173E+04</rscale>
<asrwt>0</asrwt>
<pdfrwt beam="1">  1        2 0.73967085E+00 0.36658173E+04</pdfrwt>
<pdfrwt beam="2">  1       -2 0.10750197E+00 0.36658173E+04</pdfrwt>
<totfact> 0.32583353E-02</totfact>
</mgrwt>
</event>
<event>
 6    1  0.1934315E-005  0.4251320E+04  0.7818608E-02  0.7955681E-01
         -2   -1    0    0    0  501 -0.00000000000E+00  0.00000000000E+00  0.23591140024E+04  0.23591140024E+04  0.00000000000E+00 0.  1.
          2   -1    0    0  501    0  0.00000000000E+00 -0.00000000000E+00 -0.19153084330E+04  0.19153084330E+04  0.00000000000E+00 0. -1.
         23    2    1    2    0    0  0.10019115107E+04 -0.17663872878E+04 -0.40613836109E+03  0.20729784978E+04  0.91327750247E+02 0.  0.
         13    1    3    3    0    0  0.64166166434E+03 -0.10411793101E+04 -0.24930849465E+03  0.12481741757E+04  0.00000000000E+00 0. -1.
        -13    1    3    3    0    0  0.36024984636E+03 -0.72520797772E+03 -0.15682986644E+03  0.82480432210E+03  0.00000000000E+00 0.  1.
         22    1    1    2    0    0 -0.10019115107E+04  0.17663872878E+04  0.84994393043E+03  0.22014439377E+04  0.00000000000E+00 0.  1.
<mgrwt>
<rscale>  0 0.42513202E+04</rscale>
<asrwt>0</asrwt>
<pdfrwt beam="1">  1        2 0.29466284E+00 0.42513202E+04</pdfrwt>
<pdfrwt beam="2">  1       -2 0.36294062E+00 0.42513202E+04</pdfrwt>
<totfact> 0.74131132E-02</totfact>
</mgrwt>
</event>
<event>
 6    1  0.1934315E-005  0.1434392E+04  0.7818608E-02  0.8929293E-01
          1   -1    0    0  501    0  0.00000000000E+00  0.00000000000E+00  0.13276636963E+04  0.13276636963E+04  0.00000000000E+00 0.  1.
         -1   -1    0    0    0  501 -0.00000000000E+00 -0.00000000000E+00 -0.38742525478E+03  0.38742525478E+03  0.00000000000E+00 0. -1.
         23    2    1    2    0    0 -0.37201414592E+03  0.24759987048E+03  0.11383091167E+04  0.12262820229E+04  0.91212575527E+02 0.  0.
         13    1    3    3    0    0 -0.18157345636E+03  0.93159787510E+02  0.41339461072E+03  0.46102361137E+03  0.00000000000E+00 0.  1.
        -13    1    3    3    0    0 -0.19044068956E+03  0.15444008297E+03  0.72491450597E+03  0.76525841154E+03  0.00000000000E+00 0. -1.
         22    1    1    2    0    0  0.37201414592E+03 -0.24759987048E+03 -0.19807067520E+03  0.48880692814E+03  0.00000000000E+00 0. -1.
<mgrwt>
<rscale>  0 0.14343925E+04</rscale>
<asrwt>0</asrwt>
<pdfrwt beam="1">  1        1 0.20425595E+00 0.14343925E+04</pdfrwt>
<pdfrwt beam="2">  1       -1 0.59603886E-01 0.14343925E+04</pdfrwt>
<totfact> 0.23984972E+01</totfact>
</mgrwt>
</event>
<event>
 6    1  0.1934315E-005  0.2483225E+04  0.7818608E-02  0.8408986E-01
         -1   -1    0    0    0  501 -0.00000000000E+00  0.00000000000E+00  0.11271086638E+04  0.11271086638E+04  0.00000000000E+00 0. -1.
          1   -1    0    0  501    0  0.00000000000E+00 -0.00000000000E+00 -0.13677490072E+04  0.13677490072E+04  0.00000000000E+00 0.  1.
         23    2    1    2    0    0  0.13607683421E+03 -0.10546861361E+04 -0.76107743609E+03  0.13109089737E+04  0.91453392996E+02 0.  0.
         13    1    3    3    0    0  0.12607532209E+03 -0.88813120174E+03 -0.67850399094E+03  0.11247398295E+04  0.00000000000E+00 0.  1.
        -13    1    3    3    0    0  0.10001512120E+02 -0.16655493437E+03 -0.82573445144E+02  0.18616914419E+03  0.00000000000E+00 0. -1.
         22    1    1    2    0    0 -0.13607683421E+03  0.10546861361E+04  0.52043709263E+03  0.11839486973E+04  0.00000000000E+00 0. -1.
<mgrwt>
<rscale>  0 0.24832251E+04</rscale>
<asrwt>0</asrwt>
<pdfrwt beam="1">  1        1 0.21042292E+00 0.24832251E+04</pdfrwt>
<pdfrwt beam="2">  1       -1 0.17340133E+00 0.24832251E+04</pdfrwt>
<totfact> 0.16736316E+00</totfact>
</mgrwt>
</event>
<event>
 6    1  0.1934315E-005  0.2367890E+04  0.7818608E-02  0.8451624E-01
         -2   -1    0    0    0  501 -0.00000000000E+00  0.00000000000E+00  0.85356540865E+03  0.85356540865E+03  0.00000000000E+00 0. -1.
          2   -1    0    0  501    0  0.00000000000E+00 -0.00000000000E+00 -0.16422007855E+04  0.16422007855E+04  0.00000000000E+00 0.  1.
         23    2    1    2    0    0  0.12392670711E+03 -0.10202320060E+04 -0.10106308235E+04  0.14443323384E+04  0.92141562286E+02 0.  0.
         11    1    3    3    0    0  0.11033690297E+03 -0.61377388553E+03 -0.57263558044E+03  0.84664285428E+03  0.00000000000E+00 0. -1.
        -11    1    3    3    0    0  0.13589804142E+02 -0.40645812050E+03 -0.43799524304E+03  0.59768948411E+03  0.00000000000E+00 0.  1.
         22    1    1    2    0    0 -0.12392670711E+03  0.10202320060E+04  0.22199544657E+03  0.10514338558E+04  0.00000000000E+00 0. -1.
<mgrwt>
<rscale>  0 0.23678900E+04</rscale>
<asrwt>0</asrwt>
<pdfrwt beam="1">  1        2 0.25264627E+00 0.23678900E+04</pdfrwt>
<pdfrwt beam="2">  1       -2 0.13131776E+00 0.23678900E+04</pdfrwt>
<totfact> 0.40319011E+00</totfact>
</mgrwt>
</event>
<event>
 6    1  0.1934315E-005  0.4868751E+04  0.7818608E-02  0.7849079E-01
         -2   -1    0    0    0  501 -0.00000000000E+00  0.00000000000E+00  0.18714490099E+04  0.18714490099E+04  0.00000000000E+00 0. -1.
          2   -1    0    0  501    0  0.00000000000E+00 -0.00000000000E+00 -0.31666288175E+04  0.31666288175E+04  0.00000000000E+00 0.  1.
         23    2    1    2    0    0  0.12020012162E+04  0.16041590897E+04 -0.20755554310E+04  0.28870038114E+04  0.93420290266E+02 0.  0.
         11    1    3    3    0    0  0.50247096168E+03  0.74644998922E+03 -0.94431317847E+03  0.13043741920E+04  0.00000000000E+00 0. -1.
        -11    1    3    3    0    0  0.69953025454E+03  0.85770910050E+03 -0.11312422526E+04  0.15826296194E+04  0.00000000000E+00 0.  1.
         22    1    1    2    0    0 -0.12020012162E+04 -0.16041590897E+04  0.78037562335E+03  0.21510740160E+04  0.00000000000E+00 0.  1.
<mgrwt>
<rscale>  0 0.48687511E+04</rscale>
<asrwt>0</asrwt>
<pdfrwt beam="1">  1        2 0.48717366E+00 0.48687511E+04</pdfrwt>
<pdfrwt beam="2">  1       -2 0.28791524E+00 0.48687511E+04</pdfrwt>
<totfact> 0.37753778E-02</totfact>
</mgrwt>
</event>
<event>
 6    1  0.1934315E-005  0.2857070E+04  0.7818608E-02  0.8285766E-01
          2   -1    0    0  501    0  0.00000000000E+00  0.00000000000E+00  0.26611405150E+04  0.26611405150E+04  0.00000000000E+00 0.  1.
         -2   -1    0    0    0  501 -0.00000000000E+00 -0.00000000000E+00 -0.76685640071E+03  0.76685640071E+03  0.00000000000E+00 0. -1.
         23    2    1    2    0    0  0.89075638652E+03  0.47219432786E+03  0.21599371049E+04  0.23854107395E+04  0.91878591733E+02 0.  0.
         13    1    3    3    0    0  0.15855884222E+03  0.77469321843E+02  0.46500774593E+03  0.49736767693E+03  0.00000000000E+00 0. -1.
        -13    1    3    3    0    0  0.73219754430E+03  0.39472500602E+03  0.16949293590E+04  0.18880430626E+04  0.00000000000E+00 0.  1.
         22    1    1    2    0    0 -0.89075638652E+03 -0.47219432786E+03 -0.26565299062E+03  0.10425861762E+04  0.00000000000E+00 0. -1.
<mgrwt>
<rscale>  0 0.28570703E+04</rscale>
<asrwt>0</asrwt>
<pdfrwt beam="1">  1        2 0.40940623E+00 0.28570703E+04</pdfrwt>
<pdfrwt beam="2">  1       -2 0.11797791E+00 0.28570703E+04</pdfrwt>
<totfact> 0.13429794E+00</totfact>
</mgrwt>
</event>
<event>
 6    1  0.1934315E-005  0.4134189E+04  0.7818608E-02  0.7978010E-01
         -2   -1    0    0    0  501 -0.00000000000E+00  0.00000000000E+00  0.13842203178E+04  0.13842203178E+04  0.00000000000E+00 0. -1.
          2   -1    0    0  501    0  0.00000000000E+00 -0.00000000000E+00 -0.30868489035E+04  0.30868489035E+04  0.00000000000E+00 0.  1.
         23    2    1    2    0    0  0.10922040649E+03 -0.14663037792E+04  0.71793791737E+03  0.16389113751E+04  0.92842727778E+02 0.  0.
         11    1    3    3    0    0  0.46086790723E+02 -0.98563059422E+03  0.51902506788E+03  0.11148895379E+04  0.00000000000E+00 0.  1.
        -11    1    3    3    0    0  0.63133615766E+02 -0.48067318496E+03  0.19891284949E+03  0.52402183721E+03  0.00000000000E+00 0. -1.
         22    1    1    2    0    0 -0.10922040649E+03  0.14663037792E+04 -0.24205665031E+04  0.28321578462E+04  0.00000000000E+00 0.  1.
<mgrwt>
<rscale>  0 0.41341887E+04</rscale>
<asrwt>0</asrwt>
<pdfrwt beam="1">  1        2 0.47489983E+00 0.41341887E+04</pdfrwt>
<pdfrwt beam="2">  1       -2 0.21295697E+00 0.41341887E+04</pdfrwt>
<totfact> 0.13113247E-01</totfact>
</mgrwt>
</event>
<event>
 6    1  0.1934315E-005  0.1767580E+04  0.7818608E-02  0.8723733E-01
          2   -1    0    0  501    0  0.00000000000E+00  0.00000000000E+00  0.32142584195E+04  0.32142584195E+04  0.00000000000E+00 0.  1.
         -2   -1    0    0    0  501 -0.00000000000E+00 -0.00000000000E+00 -0.24300608883E+03  0.24300608883E+03  0.00000000000E+00 0. -1.
         23    2    1    2    0    0  0.14849098282E+03 -0.38061810603E+03  0.30172212020E+04  0.30461284581E+04  0.91406165921E+02 0.  0.
         13    1    3    3    0    0  0.90074302702E+02 -0.22975268854E+03  0.14819149827E+04  0.15023221005E+04  0.00000000000E+00 0. -1.
        -13    1    3    3    0    0  0.58416680117E+02 -0.15086541749E+03  0.15353062193E+04  0.15438063576E+04  0.00000000000E+00 0.  1.
         22    1    1    2    0    0 -0.14849098282E+03  0.38061810603E+03 -0.45968871337E+02  0.41113605017E+03  0.00000000000E+00 0. -1.
<mgrwt>
<rscale>  0 0.17675796E+04</rscale>
<asrwt>0</asrwt>
<pdfrwt beam="1">  1        2 0.49450126E+00 0.17675796E+04</pdfrwt>
<pdfrwt beam="2">  1       -2 0.37385554E-01 0.17675796E+04</pdfrwt>
<totfact> 0.81533224E+00</totfact>
</mgrwt>
</event>
<event>
 6    1  0.1934315E-005  0.2882298E+04  0.7818608E-02  0.8278164E-01
          2   -1    0    0  501    0  0.00000000000E+00  0.00000000000E+00  0.19221517064E+04  0.19221517064E+04  0.00000000000E+00 0.  1.
         -2   -1    0    0    0  501 -0.00000000000E+00 -0.00000000000E+00 -0.10805131743E+04  0.10805131743E+04  0.00000000000E+00 0. -1.
         23    2    1    2    0    0  0.12053314192E+04  0.65269228096E+03  0.88012432745E+03  0.16314201176E+04  0.89898411616E+02 0.  0.
         13    1    3    3    0    0  0.20863820722E+03  0.15165663232E+03  0.17549487815E+03  0.31197449879E+03  0.00000000000E+00 0. -1.
        -13    1    3    3    0    0  0.99669321203E+03  0.50103564864E+03  0.70462944930E+03  0.13194456188E+04  0.00000000000E+00 0.  1.
         22    1    1    2    0    0 -0.12053314192E+04 -0.65269228096E+03 -0.38485795325E+02  0.13712447631E+04  0.00000000000E+00 0. -1.
<mgrwt>
<rscale>  0 0.28822979E+04</rscale>
<asrwt>0</asrwt>
<pdfrwt beam="1">  1        2 0.29571565E+00 0.28822979E+04</pdfrwt>
<pdfrwt beam="2">  1       -2 0.16623280E+00 0.28822979E+04</pdfrwt>
<totfact> 0.14471696E+00</totfact>
</mgrwt>
</event>
<event>
 6    1  0.1934315E-005  0.3038250E+04  0.7818608E-02  0.8232892E-01
         -2   -1    0    0    0  501 -0.00000000000E+00  0.00000000000E+00  0.14852205006E+04  0.14852205006E+04  0.00000000000E+00 0. -1.
          2   -1    0    0  501    0  0.00000000000E+00 -0.00000000000E+00 -0.15538038910E+04  0.15538038910E+04  0.00000000000E+00 0.  1.
         23    2    1    2    0    0  0.14967498872E+04  0.23335691371E+03 -0.12884373778E+03  0.15229943842E+04  0.90529063784E+02 0.  0.
         11    1    3    3    0    0  0.73571010218E+03  0.13774789633E+03 -0.10289422887E+03  0.75553362581E+03  0.00000000000E+00 0.  1.
        -11    1    3    3    0    0  0.76103978503E+03  0.95609017379E+02 -0.25949508918E+02  0.76746075836E+03  0.00000000000E+00 0. -1.
         22    1    1    2    0    0 -0.14967498872E+04 -0.23335691371E+03  0.60260347338E+02  0.15160300075E+04  0.00000000000E+00 0. -1.
<mgrwt>
<rscale>  0 0.30382504E+04</rscale>
<asrwt>0</asrwt>
<pdfrwt beam="1">  1        2 0.23904675E+00 0.30382504E+04</pdfrwt>
<pdfrwt beam="2">  1       -2 0.22849546E+00 0.30382504E+04</pdfrwt>
<totfact> 0.88268313E-01</totfact>
</mgrwt>
</event>
<event>
 6    1  0.1934315E-005  0.2051043E+04  0.7818608E-02  0.8583121E-01
         -2   -1    0    0    0  501 -0.00000000000E+00  0.00000000000E+00  0.73916149817E+03  0.73916149817E+03  0.00000000000E+00 0. -1.
          2   -1    0    0  501    0  0.00000000000E+00 -0.00000000000E+00 -0.14228212065E+04  0.14228212065E+04  0.00000000000E+00 0.  1.
         23    2    1    2    0    0 -0.21670491330E+03  0.20279145481E+03 -0.13746463756E+04  0.14099534713E+04  0.10114711974E+03 0.  0.
         13    1    3    3    0    0 -0.80463403695E+02  0.11923898828E+03 -0.47802417716E+03  0.49919876764E+03  0.00000000000E+00 0. -1.
        -13    1    3    3    0    0 -0.13624150961E+03  0.83552466529E+02 -0.89662219841E+03  0.91075470369E+03  0.00000000000E+00 0.  1.
         22    1    1    2    0    0  0.21670491330E+03 -0.20279145481E+03  0.69098666721E+03  0.75202923338E+03  0.00000000000E+00 0. -1.
<mgrwt>
<rscale>  0 0.20510433E+04</rscale>
<asrwt>0</asrwt>
<pdfrwt beam="1">  1        2 0.21889557E+00 0.20510433E+04</pdfrwt>
<pdfrwt beam="2">  1       -2 0.11371715E+00 0.20510433E+04</pdfrwt>
<totfact> 0.78748258E+00</totfact>
</mgrwt>
</event>
<event>
 6    1  0.1934315E-005  0.1786681E+04  0.7818608E-02  0.8713415E-01
         -2   -1    0    0    0  501 -0.00000000000E+00  0.00000000000E+00  0.43117274807E+03  0.43117274807E+03  0.00000000000E+00 0. -1.
          2   -1    0    0  501    0  0.00000000000E+00 -0.00000000000E+00 -0.18508993695E+04  0.18508993695E+04  0.00000000000E+00 0.  1.
         23    2    1    2    0    0 -0.30326494479E+03 -0.59183632224E+03  0.45665515580E+02  0.67284436045E+03  0.91620603682E+02 0.  0.
         13    1    3    3    0    0 -0.21881198222E+03 -0.49164732799E+03  0.57863406310E+02  0.54124296991E+03  0.00000000000E+00 0.  1.
        -13    1    3    3    0    0 -0.84452962568E+02 -0.10018899425E+03 -0.12197890730E+02  0.13160139054E+03  0.00000000000E+00 0. -1.
         22    1    1    2    0    0  0.30326494479E+03  0.59183632224E+03 -0.14653921370E+04  0.16092277571E+04  0.00000000000E+00 0.  1.
<mgrwt>
<rscale>  0 0.17866811E+04</rscale>
<asrwt>0</asrwt>
<pdfrwt beam="1">  1        2 0.28475375E+00 0.17866811E+04</pdfrwt>
<pdfrwt beam="2">  1       -2 0.66334268E-01 0.17866811E+04</pdfrwt>
<totfact> 0.15964937E+01</totfact>
</mgrwt>
</event>
<event>
 6    1  0.1934315E-005  0.1512341E+04  0.7818608E-02  0.8876288E-01
         -2   -1    0    0    0  501 -0.00000000000E+00  0.00000000000E+00  0.97933074315E+03  0.97933074315E+03  0.00000000000E+00 0. -1.
          2   -1    0    0  501    0  0.00000000000E+00 -0.00000000000E+00 -0.58386168769E+03  0.58386168769E+03  0.00000000000E+00 0.  1.
         23    2    1    2    0    0 -0.23741127768E+03 -0.57442095466E+03  0.63888881485E+03  0.89567709231E+03  0.87948780692E+02 0.  0.
         11    1    3    3    0    0 -0.28278692061E+02 -0.10320234451E+03  0.15691157517E+03  0.18992538208E+03  0.00000000000E+00 0. -1.
        -11    1    3    3    0    0 -0.20913258562E+03 -0.47121861015E+03  0.48197723969E+03  0.70575171023E+03  0.00000000000E+00 0.  1.
         22    1    1    2    0    0  0.23741127768E+03  0.57442095466E+03 -0.24341975939E+03  0.66751533854E+03  0.00000000000E+00 0.  1.
<mgrwt>
<rscale>  0 0.15123408E+04</rscale>
<asrwt>0</asrwt>
<pdfrwt beam="1">  1        2 0.89824875E-01 0.15123408E+04</pdfrwt>
<pdfrwt beam="2">  1       -2 0.15066627E+00 0.15123408E+04</pdfrwt>
<totfact> 0.14640030E+01</totfact>
</mgrwt>
</event>
<event>
 6    1  0.1934315E-005  0.4941417E+04  0.7818608E-02  0.7837608E-01
          2   -1    0    0  501    0  0.00000000000E+00  0.00000000000E+00  0.37689353930E+04  0.37689353930E+04  0.00000000000E+00 0.  1.
         -2   -1    0    0    0  501 -0.00000000000E+00 -0.00000000000E+00 -0.16196619315E+04  0.16196619315E+04  0.00000000000E+00 0. -1.
         23    2    1    2    0    0 -0.15760237011E+04 -0.16718691833E+04  0.86837625109E+02  0.23011001420E+04  0.92324524807E+02 0.  0.
         11    1    3    3    0    0 -0.65804768580E+03 -0.73833033153E+03  0.73826422270E+02  0.99177052581E+03  0.00000000000E+00 0. -1.
        -11    1    3    3    0    0 -0.91797601526E+03 -0.93353885179E+03  0.13011202839E+02  0.13093296162E+04  0.00000000000E+00 0.  1.
         22    1    1    2    0    0  0.15760237011E+04  0.16718691833E+04  0.20624358364E+04  0.30874971825E+04  0.00000000000E+00 0.  1.
<mgrwt>
<rscale>  0 0.49414173E+04</rscale>
<asrwt>0</asrwt>
<pdfrwt beam="1">  1        2 0.57983621E+00 0.49414173E+04</pdfrwt>
<pdfrwt beam="2">  1       -2 0.24917876E+00 0.49414173E+04</pdfrwt>
<totfact> 0.24575167E-02</totfact>
</mgrwt>
</event>
<event>
 6    1  0.1934315E-005  0.3800285E+04  0.7818608E-02  0.8046094E-01
         -2   -1    0    0    0  501 -0.00000000000E+00  0.00000000000E+00  0.87556364172E+03  0.87556364172E+03  0.00000000000E+00 0. -1.
          2   -1    0    0  501    0  0.00000000000E+00 -0.00000000000E+00 -0.41236762034E+04  0.41236762034E+04  0.00000000000E+00 0.  1.
         23    2    1    2    0    0  0.38010359772E+03  0.11407254859E+04 -0.35586216195E+04  0.37574068233E+04  0.92654334800E+02 0.  0.
         13    1    3    3    0    0  0.79915491951E+02  0.36622290581E+03 -0.10586283178E+04  0.11230314411E+04  0.00000000000E+00 0.  1.
        -13    1    3    3    0    0  0.30018810576E+03  0.77450258008E+03 -0.24999933018E+04  0.26343753822E+04  0.00000000000E+00 0. -1.
         22    1    1    2    0    0 -0.38010359772E+03 -0.11407254859E+04  0.31050905780E+03  0.12418330218E+04  0.00000000000E+00 0. -1.
<mgrwt>
<rscale>  0 0.38002847E+04</rscale>
<asrwt>0</asrwt>
<pdfrwt beam="1">  1        2 0.63441173E+00 0.38002847E+04</pdfrwt>
<pdfrwt beam="2">  1       -2 0.13470210E+00 0.38002847E+04</pdfrwt>
<totfact> 0.85650353E-02</totfact>
</mgrwt>
</event>
<event>
 6    1  0.1934315E-005  0.2843870E+04  0.7818608E-02  0.8289776E-01
          2   -1    0    0  501    0  0.00000000000E+00  0.00000000000E+00  0.12989965425E+04  0.12989965425E+04  0.00000000000E+00 0.  1.
         -2   -1    0    0    0  501 -0.00000000000E+00 -0.00000000000E+00 -0.15565086327E+04  0.15565086327E+04  0.00000000000E+00 0. -1.
         23    2    1    2    0    0 -0.64743248462E+02  0.26379399165E+03 -0.15283330026E+04  0.15559803583E+04  0.10721077510E+03 0.  0.
         13    1    3    3    0    0 -0.28421476350E+02  0.19801054870E+02 -0.86162102255E+02  0.92864255540E+02  0.00000000000E+00 0. -1.
        -13    1    3    3    0    0 -0.36321772111E+02  0.24399293678E+03 -0.14421709003E+04  0.14631161027E+04  0.00000000000E+00 0.  1.
         22    1    1    2    0    0  0.64743248462E+02 -0.26379399165E+03  0.12708209124E+04  0.12995248169E+04  0.00000000000E+00 0.  1.
<mgrwt>
<rscale>  0 0.28438701E+04</rscale>
<asrwt>0</asrwt>
<pdfrwt beam="1">  1        2 0.19984562E+00 0.28438701E+04</pdfrwt>
<pdfrwt beam="2">  1       -2 0.23946287E+00 0.28438701E+04</pdfrwt>
<totfact> 0.10713763E+00</totfact>
</mgrwt>
</event>
<event>
 6    1  0.1934315E-005  0.1826077E+04  0.7818608E-02  0.8692554E-01
          2   -1    0    0  501    0  0.00000000000E+00  0.00000000000E+00  0.16259545303E+04  0.16259545303E+04  0.00000000000E+00 0.  1.
         -2   -1    0    0    0  501 -0.00000000000E+00 -0.00000000000E+00 -0.51270760320E+03  0.51270760320E+03  0.00000000000E+00 0. -1.
         23    2    1    2    0    0 -0.40026148659E+03  0.24556357250E+03 -0.35710854123E+03  0.59514150551E+03  0.78461299905E+02 0.  0.
         11    1    3    3    0    0 -0.15655343571E+03  0.52329993530E+02 -0.12211826198E+03  0.20532967726E+03  0.00000000000E+00 0.  1.
        -11    1    3    3    0    0 -0.24370805088E+03  0.19323357897E+03 -0.23499027925E+03  0.38981182825E+03  0.00000000000E+00 0. -1.
         22    1    1    2    0    0  0.40026148659E+03 -0.24556357250E+03  0.14703554683E+04  0.15435206280E+04  0.00000000000E+00 0.  1.
<mgrwt>
<rscale>  0 0.18260769E+04</rscale>
<asrwt>0</asrwt>
<pdfrwt beam="1">  1        2 0.25014685E+00 0.18260769E+04</pdfrwt>
<pdfrwt beam="2">  1       -2 0.78878094E-01 0.18260769E+04</pdfrwt>
<totfact> 0.14497440E+01</totfact>
</mgrwt>
</event>
<event>
 6    1  0.1934315E-005  0.5997309E+03  0.7818608E-02  0.9905965E-01
          2   -1    0    0  501    0  0.00000000000E+00  0.00000000000E+00  0.10725971969E+03  0.10725971969E+03  0.00000000000E+00 0. -1.
         -2   -1    0    0    0  501 -0.00000000000E+00 -0.00000000000E+00 -0.83833218832E+03  0.83833218832E+03  0.00000000000E+00 0.  1.
         23    2    1    2    0    0 -0.90892006428E+02 -0.12024761146E+03  0.22290345497E+02  0.17729744974E+03  0.90645911588E+02 0.  0.
         11    1    3    3    0    0 -0.56462173575E+01 -0.81544114964E+02  0.17260518068E+02  0.83541893321E+02  0.00000000000E+00 0. -1.
        -11    1    3    3    0    0 -0.85245789071E+02 -0.38703496492E+02  0.50298274290E+01  0.93755556416E+02  0.00000000000E+00 0.  1.
         22    1    1    2    0    0  0.90892006428E+02  0.12024761146E+03 -0.75336281414E+03  0.76829445827E+03  0.00000000000E+00 0.  1.
<mgrwt>
<rscale>  0 0.59973086E+03</rscale>
<asrwt>0</asrwt>
<pdfrwt beam="1">  1        2 0.16501495E-01 0.59973086E+03</pdfrwt>
<pdfrwt beam="2">  1       -2 0.12897418E+00 0.59973086E+03</pdfrwt>
<totfact> 0.16057214E+02</totfact>
</mgrwt>
</event>
<event>
 6    1  0.1934315E-005  0.2726041E+03  0.7818608E-02  0.1099798E+00
         -2   -1    0    0    0  501 -0.00000000000E+00  0.00000000000E+00  0.18645142892E+04  0.18645142892E+04  0.00000000000E+00 0. -1.
          2   -1    0    0  501    0  0.00000000000E+00 -0.00000000000E+00 -0.99641196064E+01  0.99641196064E+01  0.00000000000E+00 0.  1.
         23    2    1    2    0    0 -0.10330729845E+03 -0.17332845590E+02  0.14415014585E+04  0.14483539397E+04  0.93967304339E+02 0.  0.
         11    1    3    3    0    0 -0.59308321405E+02 -0.23286093940E+02  0.33760410289E+03  0.34356403981E+03  0.00000000000E+00 0.  1.
        -11    1    3    3    0    0 -0.43998977045E+02  0.59532483498E+01  0.11038973557E+04  0.11047898999E+04  0.00000000000E+00 0. -1.
         22    1    1    2    0    0  0.10330729845E+03  0.17332845590E+02  0.41304871103E+03  0.42612446906E+03  0.00000000000E+00 0.  1.
<mgrwt>
<rscale>  0 0.27260406E+03</rscale>
<asrwt>0</asrwt>
<pdfrwt beam="1">  1        2 0.15329430E-02 0.27260406E+03</pdfrwt>
<pdfrwt beam="2">  1       -2 0.28684808E+00 0.27260406E+03</pdfrwt>
<totfact> 0.34635469E+02</totfact>
</mgrwt>
</event>
<event>
 6    1  0.1934315E-005  0.2204046E+04  0.7818608E-02  0.8516746E-01
          2   -1    0    0  501    0  0.00000000000E+00  0.00000000000E+00  0.48903458441E+03  0.48903458441E+03  0.00000000000E+00 0.  1.
         -2   -1    0    0    0  501 -0.00000000000E+00 -0.00000000000E+00 -0.24833718917E+04  0.24833718917E+04  0.00000000000E+00 0. -1.
         23    2    1    2    0    0  0.52661371582E+03  0.59351968291E+03  0.29127217369E+02  0.79893084886E+03  0.88625542534E+02 0.  0.
         11    1    3    3    0    0  0.44247443239E+03  0.44522609343E+03  0.15623674175E+02  0.62789648572E+03  0.00000000000E+00 0.  1.
        -11    1    3    3    0    0  0.84139283428E+02  0.14829358948E+03  0.13503543193E+02  0.17103436314E+03  0.00000000000E+00 0. -1.
         22    1    1    2    0    0 -0.52661371582E+03 -0.59351968291E+03 -0.20234645246E+04  0.21734756272E+04  0.00000000000E+00 0. -1.
<mgrwt>
<rscale>  0 0.22040460E+04</rscale>
<asrwt>0</asrwt>
<pdfrwt beam="1">  1        2 0.75236089E-01 0.22040460E+04</pdfrwt>
<pdfrwt beam="2">  1       -2 0.38205722E+00 0.22040460E+04</pdfrwt>
<totfact> 0.56157307E-01</totfact>
</mgrwt>
</event>
<event>
 6    1  0.1934315E-005  0.1412785E+04  0.7818608E-02  0.8944616E-01
         -2   -1    0    0    0  501 -0.00000000000E+00  0.00000000000E+00  0.54904103693E+03  0.54904103693E+03  0.00000000000E+00 0. -1.
          2   -1    0    0  501    0  0.00000000000E+00 -0.00000000000E+00 -0.90883976185E+03  0.90883976185E+03  0.00000000000E+00 0.  1.
         23    2    1    2    0    0  0.27428839839E+03  0.52805963290E+03 -0.56383309843E+03  0.82882505644E+03  0.12231970374E+03 0.  0.
         11    1    3    3    0    0  0.46565990820E+02  0.64792244569E+02 -0.13901469862E+03  0.16028572267E+03  0.00000000000E+00 0. -1.
        -11    1    3    3    0    0  0.22772240757E+03  0.46326738833E+03 -0.42481839981E+03  0.66853933378E+03  0.00000000000E+00 0.  1.
         22    1    1    2    0    0 -0.27428839839E+03 -0.52805963290E+03  0.20403437351E+03  0.62905574233E+03  0.00000000000E+00 0. -1.
<mgrwt>
<rscale>  0 0.14127849E+04</rscale>
<asrwt>0</asrwt>
<pdfrwt beam="1">  1        2 0.13982150E+00 0.14127849E+04</pdfrwt>
<pdfrwt beam="2">  1       -2 0.84467853E-01 0.14127849E+04</pdfrwt>
<totfact> 0.34384439E+01</totfact>
</mgrwt>
</event>
<event>
 6    1  0.1934315E-005  0.2642180E+04  0.7818608E-02  0.8354013E-01
         -2   -1    0    0    0  501 -0.00000000000E+00  0.00000000000E+00  0.11228712262E+04  0.11228712262E+04  0.00000000000E+00 0. -1.
          2   -1    0    0  501    0  0.00000000000E+00 -0.00000000000E+00 -0.15543005029E+04  0.15543005029E+04  0.00000000000E+00 0.  1.
         23    2    1    2    0    0  0.56358681288E+03 -0.78717484923E+03 -0.11248278339E+04  0.14863418092E+04  0.81853398539E+02 0.  0.
         11    1    3    3    0    0  0.49095062844E+03 -0.68274827129E+03 -0.93170833772E+03  0.12550928842E+04  0.00000000000E+00 0. -1.
        -11    1    3    3    0    0  0.72636184441E+02 -0.10442657794E+03 -0.19311949621E+03  0.23124892495E+03  0.00000000000E+00 0.  1.
         22    1    1    2    0    0 -0.56358681288E+03  0.78717484923E+03  0.69339855722E+03  0.11908299199E+04  0.00000000000E+00 0. -1.
<mgrwt>
<rscale>  0 0.26421804E+04</rscale>
<asrwt>0</asrwt>
<pdfrwt beam="1">  1        2 0.23912315E+00 0.26421804E+04</pdfrwt>
<pdfrwt beam="2">  1       -2 0.17274942E+00 0.26421804E+04</pdfrwt>
<totfact> 0.21253918E+00</totfact>
</mgrwt>
</event>
<event>
 6    1  0.1934315E-005  0.1310781E+04  0.7818608E-02  0.9021059E-01
         -4   -1    0    0    0  501 -0.00000000000E+00  0.00000000000E+00  0.41617050805E+03  0.41617050805E+03  0.00000000000E+00 0. -1.
          4   -1    0    0  501    0  0.00000000000E+00 -0.00000000000E+00 -0.10321170988E+04  0.10321170988E+04  0.00000000000E+00 0.  1.
         23    2    1    2    0    0 -0.99796814212E+02 -0.16864679855E+03  0.37781477197E+03  0.43538939241E+03  0.91753879063E+02 0.  0.
         13    1    3    3    0    0 -0.76065488492E+02 -0.17570375404E+03  0.32902729935E+03  0.38067930262E+03  0.00000000000E+00 0. -1.
        -13    1    3    3    0    0 -0.23731325720E+02  0.70569554929E+01  0.48787472616E+02  0.54710089797E+02  0.00000000000E+00 0.  1.
         22    1    1    2    0    0  0.99796814212E+02  0.16864679855E+03 -0.99376136269E+03  0.10128982144E+04  0.00000000000E+00 0.  1.
<mgrwt>
<rscale>  0 0.13107810E+04</rscale>
<asrwt>0</asrwt>
<pdfrwt beam="1">  1        4 0.15878725E+00 0.13107810E+04</pdfrwt>
<pdfrwt beam="2">  1       -4 0.64026231E-01 0.13107810E+04</pdfrwt>
<totfact> 0.11380059E+00</totfact>
</mgrwt>
</event>
<event>
 6    1  0.1934315E-005  0.1525420E+04  0.7818608E-02  0.8867723E-01
          2   -1    0    0  501    0  0.00000000000E+00  0.00000000000E+00  0.47311915443E+03  0.47311915443E+03  0.00000000000E+00 0.  1.
         -2   -1    0    0    0  501 -0.00000000000E+00 -0.00000000000E+00 -0.12295554091E+04  0.12295554091E+04  0.00000000000E+00 0. -1.
         23    2    1    2    0    0 -0.46457576492E+03  0.23156458405E+03  0.23996916334E+03  0.57916374695E+03  0.91611399312E+02 0.  0.
         11    1    3    3    0    0 -0.33796727292E+03  0.12409083032E+03  0.18070120464E+03  0.40283164857E+03  0.00000000000E+00 0. -1.
        -11    1    3    3    0    0 -0.12660849200E+03  0.10747375373E+03  0.59267958703E+02  0.17633209837E+03  0.00000000000E+00 0.  1.
         22    1    1    2    0    0  0.46457576492E+03 -0.23156458405E+03 -0.99640541802E+03  0.11235108166E+04  0.00000000000E+00 0. -1.
<mgrwt>
<rscale>  0 0.15254196E+04</rscale>
<asrwt>0</asrwt>
<pdfrwt beam="1">  1        2 0.72787564E-01 0.15254196E+04</pdfrwt>
<pdfrwt beam="2">  1       -2 0.18916237E+00 0.15254196E+04</pdfrwt>
<totfact> 0.99310061E+00</totfact>
</mgrwt>
</event>
<event>
 6    1  0.1934315E-005  0.2000824E+04  0.7818608E-02  0.8606235E-01
          2   -1    0    0  501    0  0.00000000000E+00  0.00000000000E+00  0.73541906514E+03  0.73541906514E+03  0.00000000000E+00 0. -1.
         -2   -1    0    0    0  501 -0.00000000000E+00 -0.00000000000E+00 -0.13608900042E+04  0.13608900042E+04  0.00000000000E+00 0.  1.
         23    2    1    2    0    0 -0.99098484031E+03  0.27416983097E+02 -0.19037567565E+03  0.10136685321E+04  0.92077958144E+02 0.  0.
         13    1    3    3    0    0 -0.33942758772E+03  0.35543656367E+02 -0.10130146797E+03  0.35600059863E+03  0.00000000000E+00 0. -1.
        -13    1    3    3    0    0 -0.65155725259E+03 -0.81266732697E+01 -0.89074207687E+02  0.65766793346E+03  0.00000000000E+00 0.  1.
         22    1    1    2    0    0  0.99098484031E+03 -0.27416983097E+02 -0.43509526342E+03  0.10826405373E+04  0.00000000000E+00 0.  1.
<mgrwt>
<rscale>  0 0.20008243E+04</rscale>
<asrwt>0</asrwt>
<pdfrwt beam="1">  1        2 0.11314140E+00 0.20008243E+04</pdfrwt>
<pdfrwt beam="2">  1       -2 0.20936769E+00 0.20008243E+04</pdfrwt>
<totfact> 0.41281313E+00</totfact>
</mgrwt>
</event>
<event>
 6    1  0.1934315E-005  0.1551975E+04  0.7818608E-02  0.8850607E-01
         -2   -1    0    0    0  501 -0.00000000000E+00  0.00000000000E+00  0.49895308382E+03  0.49895308382E+03  0.00000000000E+00 0. -1.
          2   -1    0    0  501    0  0.00000000000E+00 -0.00000000000E+00 -0.12068408600E+04  0.12068408600E+04  0.00000000000E+00 0.  1.
         23    2    1    2    0    0 -0.33857033520E+03 -0.59413662319E+03  0.41398335421E+02  0.69136904472E+03  0.93000725464E+02 0.  0.
         13    1    3    3    0    0 -0.13151753095E+03 -0.31625351183E+03  0.12600340503E+01  0.34251238281E+03  0.00000000000E+00 0. -1.
        -13    1    3    3    0    0 -0.20705280425E+03 -0.27788311136E+03  0.40138301370E+02  0.34885666192E+03  0.00000000000E+00 0.  1.
         22    1    1    2    0    0  0.33857033520E+03  0.59413662319E+03 -0.74928611163E+03  0.10144248991E+04  0.00000000000E+00 0.  1.
<mgrwt>
<rscale>  0 0.15519755E+04</rscale>
<asrwt>0</asrwt>
<pdfrwt beam="1">  1        2 0.18566782E+00 0.15519755E+04</pdfrwt>
<pdfrwt beam="2">  1       -2 0.76762013E-01 0.15519755E+04</pdfrwt>
<totfact> 0.27386758E+01</totfact>
</mgrwt>
</event>
<event>
 6    1  0.1934315E-005  0.2224467E+04  0.7818608E-02  0.8508313E-01
         -2   -1    0    0    0  501 -0.00000000000E+00  0.00000000000E+00  0.59706052160E+03  0.59706052160E+03  0.00000000000E+00 0. -1.
          2   -1    0    0  501    0  0.00000000000E+00 -0.00000000000E+00 -0.20719222668E+04  0.20719222668E+04  0.00000000000E+00 0.  1.
         23    2    1    2    0    0  0.75004261030E+03 -0.66824273352E+03 -0.13058619768E+04  0.16503203370E+04  0.95757213966E+02 0.  0.
         11    1    3    3    0    0  0.18963289443E+03 -0.20120669966E+03 -0.30290994985E+03  0.41012096795E+03  0.00000000000E+00 0. -1.
        -11    1    3    3    0    0  0.56040971587E+03 -0.46703603387E+03 -0.10029520270E+04  0.12401993690E+04  0.00000000000E+00 0.  1.
         22    1    1    2    0    0 -0.75004261030E+03  0.66824273352E+03 -0.16899976837E+03  0.10186624514E+04  0.00000000000E+00 0. -1.
<mgrwt>
<rscale>  0 0.22244667E+04</rscale>
<asrwt>0</asrwt>
<pdfrwt beam="1">  1        2 0.31875726E+00 0.22244667E+04</pdfrwt>
<pdfrwt beam="2">  1       -2 0.91855468E-01 0.22244667E+04</pdfrwt>
<totfact> 0.56012656E+00</totfact>
</mgrwt>
</event>
<event>
 6    1  0.2133270E-005  0.2473728E+04  0.7818608E-02  0.8412405E-01
          2   -1    0    0  501    0  0.00000000000E+00  0.00000000000E+00  0.17947153017E+04  0.17947153017E+04  0.00000000000E+00 0.  1.
         -2   -1    0    0    0  501 -0.00000000000E+00 -0.00000000000E+00 -0.85240946344E+03  0.85240946344E+03  0.00000000000E+00 0. -1.
         23    2    1    2    0    0  0.55292624247E+03 -0.10003947071E+03  0.16492711607E+04  0.17440548384E+04  0.76789272759E+02 0.  0.
         11    1    3    3    0    0  0.21087128251E+03 -0.55723452718E+02  0.53953829409E+03  0.58195650333E+03  0.00000000000E+00 0. -1.
        -11    1    3    3    0    0  0.34205495997E+03 -0.44316017997E+02  0.11097328666E+04  0.11620983351E+04  0.00000000000E+00 0.  1.
         22    1    1    2    0    0 -0.55292624247E+03  0.10003947071E+03 -0.70696532250E+03  0.90306992672E+03  0.00000000000E+00 0. -1.
<mgrwt>
<rscale>  0 0.24737278E+04</rscale>
<asrwt>0</asrwt>
<pdfrwt beam="1">  1        2 0.27611005E+00 0.24737278E+04</pdfrwt>
<pdfrwt beam="2">  1       -2 0.13113992E+00 0.24737278E+04</pdfrwt>
<totfact> 0.32987390E+00</totfact>
</mgrwt>
</event>
<event>
 6    1  0.1934315E-005  0.3191122E+04  0.7818608E-02  0.8191166E-01
          2   -1    0    0  501    0  0.00000000000E+00  0.00000000000E+00  0.46849052879E+04  0.46849052879E+04  0.00000000000E+00 0.  1.
         -2   -1    0    0    0  501 -0.00000000000E+00 -0.00000000000E+00 -0.54340793043E+03  0.54340793043E+03  0.00000000000E+00 0. -1.
         23    2    1    2    0    0 -0.68262719523E+03 -0.12122633771E+04  0.33479523719E+04  0.36266653084E+04  0.91399079779E+02 0.  0.
         13    1    3    3    0    0 -0.19501041785E+03 -0.30161208135E+03  0.77917138207E+03  0.85796675537E+03  0.00000000000E+00 0. -1.
        -13    1    3    3    0    0 -0.48761677738E+03 -0.91065129575E+03  0.25687809898E+04  0.27686985530E+04  0.00000000000E+00 0.  1.
         22    1    1    2    0    0  0.68262719523E+03  0.12122633771E+04  0.79354498559E+03  0.16016479099E+04  0.00000000000E+00 0. -1.
<mgrwt>
<rscale>  0 0.31911219E+04</rscale>
<asrwt>0</asrwt>
<pdfrwt beam="1">  1        2 0.72075463E+00 0.31911219E+04</pdfrwt>
<pdfrwt beam="2">  1       -2 0.83601223E-01 0.31911219E+04</pdfrwt>
<totfact> 0.83731085E-02</totfact>
</mgrwt>
</event>
<event>
 6    1  0.1934315E-005  0.4879385E+04  0.7818608E-02  0.7847387E-01
         -2   -1    0    0    0  501 -0.00000000000E+00  0.00000000000E+00  0.10927249139E+04  0.10927249139E+04  0.00000000000E+00 0. -1.
          2   -1    0    0  501    0  0.00000000000E+00 -0.00000000000E+00 -0.54470248369E+04  0.54470248369E+04  0.00000000000E+00 0.  1.
         23    2    1    2    0    0 -0.84582713711E+03  0.20070438882E+04 -0.70709650132E+03  0.22917217949E+04  0.91403544916E+02 0.  0.
         13    1    3    3    0    0 -0.92723147510E+02  0.30276783101E+03 -0.10095658417E+03  0.33235248376E+03  0.00000000000E+00 0.  1.
        -13    1    3    3    0    0 -0.75310398960E+03  0.17042760572E+04 -0.60613991715E+03  0.19593693112E+04  0.00000000000E+00 0. -1.
         22    1    1    2    0    0  0.84582713711E+03 -0.20070438882E+04 -0.36472034216E+04  0.42480279558E+04  0.00000000000E+00 0.  1.
<mgrwt>
<rscale>  0 0.48793851E+04</rscale>
<asrwt>0</asrwt>
<pdfrwt beam="1">  1        2 0.83800381E+00 0.48793851E+04</pdfrwt>
<pdfrwt beam="2">  1       -2 0.16811153E+00 0.48793851E+04</pdfrwt>
<totfact> 0.11732930E-03</totfact>
</mgrwt>
</event>
<event>
 6    1  0.1934315E-005  0.2122906E+04  0.7818608E-02  0.8551220E-01
          2   -1    0    0  501    0  0.00000000000E+00  0.00000000000E+00  0.17628671920E+04  0.17628671920E+04  0.00000000000E+00 0.  1.
         -2   -1    0    0    0  501 -0.00000000000E+00 -0.00000000000E+00 -0.63911912186E+03  0.63911912186E+03  0.00000000000E+00 0. -1.
         23    2    1    2    0    0  0.10153765697E+04 -0.85969137639E+02  0.89215746024E+03  0.13569913467E+04  0.84263338104E+02 0.  0.
         11    1    3    3    0    0  0.56585548533E+03 -0.78537941906E+02  0.53705389291E+03  0.78408387465E+03  0.00000000000E+00 0.  1.
        -11    1    3    3    0    0  0.44952108437E+03 -0.74311957321E+01  0.35510356733E+03  0.57290747202E+03  0.00000000000E+00 0. -1.
         22    1    1    2    0    0 -0.10153765697E+04  0.85969137639E+02  0.23159060994E+03  0.10449949672E+04  0.00000000000E+00 0. -1.
<mgrwt>
<rscale>  0 0.21229057E+04</rscale>
<asrwt>0</asrwt>
<pdfrwt beam="1">  1        2 0.27121034E+00 0.21229057E+04</pdfrwt>
<pdfrwt beam="2">  1       -2 0.98326019E-01 0.21229057E+04</pdfrwt>
<totfact> 0.71548850E+00</totfact>
</mgrwt>
</event>
<event>
 6    1  0.1934315E-005  0.2203168E+04  0.7818608E-02  0.8517111E-01
          2   -1    0    0  501    0  0.00000000000E+00  0.00000000000E+00  0.23808242332E+04  0.23808242332E+04  0.00000000000E+00 0.  1.
         -2   -1    0    0    0  501 -0.00000000000E+00 -0.00000000000E+00 -0.50969224951E+03  0.50969224951E+03  0.00000000000E+00 0. -1.
         23    2    1    2    0    0 -0.52000886814E+03 -0.10054736125E+03  0.22015102775E+04  0.22662819019E+04  0.94165612315E+02 0.  0.
         13    1    3    3    0    0 -0.35515713989E+03 -0.52114816644E+02  0.13057513850E+04  0.13541932017E+04  0.00000000000E+00 0. -1.
        -13    1    3    3    0    0 -0.16485172825E+03 -0.48432544603E+02  0.89575889242E+03  0.91208870021E+03  0.00000000000E+00 0.  1.
         22    1    1    2    0    0  0.52000886814E+03  0.10054736125E+03 -0.33037829379E+03  0.62423458075E+03  0.00000000000E+00 0. -1.
<mgrwt>
<rscale>  0 0.22031683E+04</rscale>
<asrwt>0</asrwt>
<pdfrwt beam="1">  1        2 0.36628065E+00 0.22031683E+04</pdfrwt>
<pdfrwt beam="2">  1       -2 0.78414193E-01 0.22031683E+04</pdfrwt>
<totfact> 0.53870322E+00</totfact>
</mgrwt>
</event>
<event>
 6    1  0.1934315E-005  0.3584654E+04  0.7818608E-02  0.8094016E-01
          2   -1    0    0  501    0  0.00000000000E+00  0.00000000000E+00  0.17659359324E+04  0.17659359324E+04  0.00000000000E+00 0.  1.
         -2   -1    0    0    0  501 -0.00000000000E+00 -0.00000000000E+00 -0.18191124533E+04  0.18191124533E+04  0.00000000000E+00 0. -1.
         23    2    1    2    0    0  0.10307969009E+04  0.73312682349E+03  0.12417351410E+04  0.17748513240E+04  0.90409466445E+02 0.  0.
         13    1    3    3    0    0  0.13793031904E+03  0.63576926875E+02  0.16023154160E+03  0.22077351622E+03  0.00000000000E+00 0. -1.
        -13    1    3    3    0    0  0.89286658188E+03  0.66954989662E+03  0.10815035994E+04  0.15540778078E+04  0.00000000000E+00 0.  1.
         22    1    1    2    0    0 -0.10307969009E+04 -0.73312682349E+03 -0.12949116619E+04  0.18101970618E+04  0.00000000000E+00 0. -1.
<mgrwt>
<rscale>  0 0.35846540E+04</rscale>
<asrwt>0</asrwt>
<pdfrwt beam="1">  1        2 0.27168245E+00 0.35846540E+04</pdfrwt>
<pdfrwt beam="2">  1       -2 0.27986345E+00 0.35846540E+04</pdfrwt>
<totfact> 0.31033614E-01</totfact>
</mgrwt>
</event>
<event>
 6    1  0.1934315E-005  0.2882190E+04  0.7818608E-02  0.8278196E-01
          1   -1    0    0  501    0  0.00000000000E+00  0.00000000000E+00  0.19764068071E+04  0.19764068071E+04  0.00000000000E+00 0. -1.
         -1   -1    0    0    0  501 -0.00000000000E+00 -0.00000000000E+00 -0.10507731922E+04  0.10507731922E+04  0.00000000000E+00 0.  1.
         23    2    1    2    0    0 -0.12645889111E+04 -0.71020644524E-01  0.11858483314E+04  0.17360964165E+04  0.92786761767E+02 0.  0.
         13    1    3    3    0    0 -0.88491134091E+03  0.20601924925E+02  0.77760327464E+03  0.11782017541E+04  0.00000000000E+00 0. -1.
        -13    1    3    3    0    0 -0.37967757021E+03 -0.20672945570E+02  0.40824505677E+03  0.55789466244E+03  0.00000000000E+00 0.  1.
         22    1    1    2    0    0  0.12645889111E+04  0.71020644524E-01 -0.26021471654E+03  0.12910835828E+04  0.00000000000E+00 0.  1.
<mgrwt>
<rscale>  0 0.28821903E+04</rscale>
<asrwt>0</asrwt>
<pdfrwt beam="1">  1        1 0.30406259E+00 0.28821903E+04</pdfrwt>
<pdfrwt beam="2">  1       -1 0.16165741E+00 0.28821903E+04</pdfrwt>
<totfact> 0.75464273E-01</totfact>
</mgrwt>
</event>
<event>
 6    1  0.1934315E-005  0.4586596E+04  0.7818608E-02  0.7895649E-01
          2   -1    0    0  501    0  0.00000000000E+00  0.00000000000E+00  0.23923436252E+04  0.23923436252E+04  0.00000000000E+00 0.  1.
         -2   -1    0    0    0  501 -0.00000000000E+00 -0.00000000000E+00 -0.21983530994E+04  0.21983530994E+04  0.00000000000E+00 0. -1.
         23    2    1    2    0    0  0.15577754039E+04 -0.14355827125E+04  0.97374648476E+03  0.23333572975E+04  0.93872935008E+02 0.  0.
         11    1    3    3    0    0  0.98835386384E+03 -0.89766219240E+03  0.66217654731E+03  0.14903417567E+04  0.00000000000E+00 0. -1.
        -11    1    3    3    0    0  0.56942154002E+03 -0.53792052008E+03  0.31156993745E+03  0.84301554083E+03  0.00000000000E+00 0.  1.
         22    1    1    2    0    0 -0.15577754039E+04  0.14355827125E+04 -0.77975595896E+03  0.22573394270E+04  0.00000000000E+00 0. -1.
<mgrwt>
<rscale>  0 0.45865961E+04</rscale>
<asrwt>0</asrwt>
<pdfrwt beam="1">  1        2 0.36805287E+00 0.45865961E+04</pdfrwt>
<pdfrwt beam="2">  1       -2 0.33820817E+00 0.45865961E+04</pdfrwt>
<totfact> 0.55754202E-02</totfact>
</mgrwt>
</event>
<event>
 6    1  0.1934315E-005  0.1716746E+04  0.7818608E-02  0.8751870E-01
         -2   -1    0    0    0  501 -0.00000000000E+00  0.00000000000E+00  0.65215484760E+03  0.65215484760E+03  0.00000000000E+00 0. -1.
          2   -1    0    0  501    0  0.00000000000E+00 -0.00000000000E+00 -0.11298000280E+04  0.11298000280E+04  0.00000000000E+00 0.  1.
         23    2    1    2    0    0 -0.76453063918E+03  0.13345192895E+03 -0.61409487834E+03  0.99396056368E+03  0.92350240711E+02 0.  0.
         11    1    3    3    0    0 -0.43314378513E+03  0.11982379596E+03 -0.33594061837E+03  0.56109480460E+03  0.00000000000E+00 0. -1.
        -11    1    3    3    0    0 -0.33138685404E+03  0.13628132991E+02 -0.27815425997E+03  0.43286575907E+03  0.00000000000E+00 0.  1.
         22    1    1    2    0    0  0.76453063918E+03 -0.13345192895E+03  0.13644969793E+03  0.78799431194E+03  0.00000000000E+00 0. -1.
<mgrwt>
<rscale>  0 0.17167464E+04</rscale>
<asrwt>0</asrwt>
<pdfrwt beam="1">  1        2 0.17381539E+00 0.17167464E+04</pdfrwt>
<pdfrwt beam="2">  1       -2 0.10033152E+00 0.17167464E+04</pdfrwt>
<totfact> 0.16269410E+01</totfact>
</mgrwt>
</event>
<event>
 6    1  0.1934315E-005  0.1163048E+04  0.7818608E-02  0.9145830E-01
          1   -1    0    0  501    0  0.00000000000E+00  0.00000000000E+00  0.24235795236E+04  0.24235795236E+04  0.00000000000E+00 0.  1.
         -1   -1    0    0    0  501 -0.00000000000E+00 -0.00000000000E+00 -0.13953329911E+03  0.13953329911E+03  0.00000000000E+00 0. -1.
         23    2    1    2    0    0  0.53553820673E+03 -0.11247373457E+03  0.15587177024E+04  0.16545133638E+04  0.91444427172E+02 0.  0.
         11    1    3    3    0    0  0.42775324531E+03 -0.11206256872E+03  0.13319692150E+04  0.14034503368E+04  0.00000000000E+00 0. -1.
        -11    1    3    3    0    0  0.10778496141E+03 -0.41116585229E+00  0.22674848739E+03  0.25106302695E+03  0.00000000000E+00 0.  1.
         22    1    1    2    0    0 -0.53553820673E+03  0.11247373457E+03  0.72532852204E+03  0.90859945890E+03  0.00000000000E+00 0.  1.
<mgrwt>
<rscale>  0 0.11630478E+04</rscale>
<asrwt>0</asrwt>
<pdfrwt beam="1">  1        1 0.37285836E+00 0.11630478E+04</pdfrwt>
<pdfrwt beam="2">  1       -1 0.21466663E-01 0.11630478E+04</pdfrwt>
<totfact> 0.27745984E+01</totfact>
</mgrwt>
</event>
<event>
 6    1  0.1934315E-005  0.4577170E+04  0.7818608E-02  0.7897264E-01
         -2   -1    0    0    0  501 -0.00000000000E+00  0.00000000000E+00  0.25430539046E+04  0.25430539046E+04  0.00000000000E+00 0. -1.
          2   -1    0    0  501    0  0.00000000000E+00 -0.00000000000E+00 -0.20595789145E+04  0.20595789145E+04  0.00000000000E+00 0.  1.
         23    2    1    2    0    0 -0.12821467202E+02 -0.12786815777E+04  0.21493003995E+04  0.25025934715E+04  0.91054431634E+02 0.  0.
         13    1    3    3    0    0  0.34117236072E+02 -0.78000423512E+03  0.13378048820E+04  0.15489649754E+04  0.00000000000E+00 0.  1.
        -13    1    3    3    0    0 -0.46938703274E+02 -0.49867734253E+03  0.81149551747E+03  0.95362849617E+03  0.00000000000E+00 0. -1.
         22    1    1    2    0    0  0.12821467202E+02  0.12786815777E+04 -0.16658254093E+04  0.21000393476E+04  0.00000000000E+00 0.  1.
<mgrwt>
<rscale>  0 0.45771695E+04</rscale>
<asrwt>0</asrwt>
<pdfrwt beam="1">  1        2 0.31685829E+00 0.45771695E+04</pdfrwt>
<pdfrwt beam="2">  1       -2 0.39123906E+00 0.45771695E+04</pdfrwt>
<totfact> 0.39464939E-02</totfact>
</mgrwt>
</event>
<event>
 6    1  0.1934315E-005  0.2460857E+04  0.7818608E-02  0.8417064E-01
          2   -1    0    0  501    0  0.00000000000E+00  0.00000000000E+00  0.12383054289E+04  0.12383054289E+04  0.00000000000E+00 0.  1.
         -2   -1    0    0    0  501 -0.00000000000E+00 -0.00000000000E+00 -0.12226020421E+04  0.12226020421E+04  0.00000000000E+00 0. -1.
         23    2    1    2    0    0 -0.32292708059E+03 -0.49100433183E+03 -0.10712145732E+04  0.12252870580E+04  0.91981298626E+02 0.  0.
         11    1    3    3    0    0 -0.76562218738E+02 -0.16376428277E+03 -0.40010096567E+03  0.43904589325E+03  0.00000000000E+00 0. -1.
        -11    1    3    3    0    0 -0.24636486185E+03 -0.32724004906E+03 -0.67111360758E+03  0.78624116475E+03  0.00000000000E+00 0.  1.
         22    1    1    2    0    0  0.32292708059E+03  0.49100433183E+03  0.10869179600E+04  0.12356204130E+04  0.00000000000E+00 0.  1.
<mgrwt>
<rscale>  0 0.24608574E+04</rscale>
<asrwt>0</asrwt>
<pdfrwt beam="1">  1        2 0.19050853E+00 0.24608574E+04</pdfrwt>
<pdfrwt beam="2">  1       -2 0.18809262E+00 0.24608574E+04</pdfrwt>
<totfact> 0.25672994E+00</totfact>
</mgrwt>
</event>
<event>
 6    1  0.1934315E-005  0.2098809E+04  0.7818608E-02  0.8561768E-01
         -2   -1    0    0    0  501 -0.00000000000E+00  0.00000000000E+00  0.11320070588E+04  0.11320070588E+04  0.00000000000E+00 0. -1.
          2   -1    0    0  501    0  0.00000000000E+00 -0.00000000000E+00 -0.97282988216E+03  0.97282988216E+03  0.00000000000E+00 0.  1.
         23    2    1    2    0    0  0.51143792497E+03  0.43210731561E+03  0.88810161970E+03  0.11150812503E+04  0.79976400456E+02 0.  0.
         13    1    3    3    0    0  0.33605015309E+03  0.32789687597E+03  0.59416897043E+03  0.75728649274E+03  0.00000000000E+00 0. -1.
        -13    1    3    3    0    0  0.17538777188E+03  0.10421043964E+03  0.29393264927E+03  0.35779475759E+03  0.00000000000E+00 0.  1.
         22    1    1    2    0    0 -0.51143792497E+03 -0.43210731561E+03 -0.72892444310E+03  0.98975569058E+03  0.00000000000E+00 0.  1.
<mgrwt>
<rscale>  0 0.20988095E+04</rscale>
<asrwt>0</asrwt>
<pdfrwt beam="1">  1        2 0.14966614E+00 0.20988095E+04</pdfrwt>
<pdfrwt beam="2">  1       -2 0.17415493E+00 0.20988095E+04</pdfrwt>
<totfact> 0.48141595E+00</totfact>
</mgrwt>
</event>
<event>
 6    1  0.1934315E-005  0.1422261E+04  0.7818608E-02  0.8937860E-01
          2   -1    0    0  501    0  0.00000000000E+00  0.00000000000E+00  0.60508794406E+03  0.60508794406E+03  0.00000000000E+00 0.  1.
         -2   -1    0    0    0  501 -0.00000000000E+00 -0.00000000000E+00 -0.83575759373E+03  0.83575759373E+03  0.00000000000E+00 0. -1.
         23    2    1    2    0    0  0.22469294789E+03 -0.11927341571E+03 -0.78554106237E+03  0.83043964565E+03  0.88556060568E+02 0.  0.
         11    1    3    3    0    0  0.15943981077E+03 -0.38396040072E+02 -0.43804945201E+03  0.46774205665E+03  0.00000000000E+00 0. -1.
        -11    1    3    3    0    0  0.65253137125E+02 -0.80877375636E+02 -0.34749161036E+03  0.36269758900E+03  0.00000000000E+00 0.  1.
         22    1    1    2    0    0 -0.22469294789E+03  0.11927341571E+03  0.55487141271E+03  0.61040589214E+03  0.00000000000E+00 0.  1.
<mgrwt>
<rscale>  0 0.14222614E+04</rscale>
<asrwt>0</asrwt>
<pdfrwt beam="1">  1        2 0.93090453E-01 0.14222614E+04</pdfrwt>
<pdfrwt beam="2">  1       -2 0.12857809E+00 0.14222614E+04</pdfrwt>
<totfact> 0.21294601E+01</totfact>
</mgrwt>
</event>
<event>
 6    1  0.1934315E-005  0.8726628E+03  0.7818608E-02  0.9460415E-01
         -2   -1    0    0    0  501 -0.00000000000E+00  0.00000000000E+00  0.21674125105E+03  0.21674125105E+03  0.00000000000E+00 0. -1.
          2   -1    0    0  501    0  0.00000000000E+00 -0.00000000000E+00 -0.87839800472E+03  0.87839800472E+03  0.00000000000E+00 0.  1.
         23    2    1    2    0    0  0.14183929534E+03 -0.38140818745E+03 -0.51540041502E+03  0.66272567162E+03  0.89314818852E+02 0.  0.
         11    1    3    3    0    0  0.12794768626E+03 -0.25104297740E+03 -0.30873678536E+03  0.41798515471E+03  0.00000000000E+00 0.  1.
        -11    1    3    3    0    0  0.13891609074E+02 -0.13036521004E+03 -0.20666362966E+03  0.24474051691E+03  0.00000000000E+00 0. -1.
         22    1    1    2    0    0 -0.14183929534E+03  0.38140818745E+03 -0.14625633865E+03  0.43241358414E+03  0.00000000000E+00 0. -1.
<mgrwt>
<rscale>  0 0.87266278E+03</rscale>
<asrwt>0</asrwt>
<pdfrwt beam="1">  1        2 0.13513815E+00 0.87266278E+03</pdfrwt>
<pdfrwt beam="2">  1       -2 0.33344808E-01 0.87266278E+03</pdfrwt>
<totfact> 0.25551614E+02</totfact>
</mgrwt>
</event>
<event>
 6    1  0.1934315E-005  0.8030798E+03  0.7818608E-02  0.9555570E-01
          2   -1    0    0  501    0  0.00000000000E+00  0.00000000000E+00  0.12361740218E+04  0.12361740218E+04  0.00000000000E+00 0.  1.
         -2   -1    0    0    0  501 -0.00000000000E+00 -0.00000000000E+00 -0.13043009940E+03  0.13043009940E+03  0.00000000000E+00 0. -1.
         23    2    1    2    0    0 -0.14123813914E+03 -0.10994462928E+03  0.11618573990E+04  0.11790281214E+04  0.90325312093E+02 0.  0.
         11    1    3    3    0    0 -0.74380601082E+02 -0.61806331249E+02  0.88229849563E+03  0.88758274645E+03  0.00000000000E+00 0. -1.
        -11    1    3    3    0    0 -0.66857538059E+02 -0.48138298035E+02  0.27955890338E+03  0.29144537497E+03  0.00000000000E+00 0.  1.
         22    1    1    2    0    0  0.14123813914E+03  0.10994462928E+03 -0.56113476564E+02  0.18757599982E+03  0.00000000000E+00 0. -1.
<mgrwt>
<rscale>  0 0.80307982E+03</rscale>
<asrwt>0</asrwt>
<pdfrwt beam="1">  1        2 0.19018061E+00 0.80307982E+03</pdfrwt>
<pdfrwt beam="2">  1       -2 0.20066170E-01 0.80307982E+03</pdfrwt>
<totfact> 0.38477691E+02</totfact>
</mgrwt>
</event>
<event>
 6    1  0.1934315E-005  0.1731970E+04  0.7818608E-02  0.8743338E-01
          3   -1    0    0  501    0  0.00000000000E+00  0.00000000000E+00  0.38347240651E+03  0.38347240651E+03  0.00000000000E+00 0.  1.
         -3   -1    0    0    0  501 -0.00000000000E+00 -0.00000000000E+00 -0.19556306933E+04  0.19556306933E+04  0.00000000000E+00 0. -1.
         23    2    1    2    0    0  0.75618639991E+03 -0.36954019261E+03 -0.10496177966E+04  0.13484334327E+04  0.90539373938E+02 0.  0.
         13    1    3    3    0    0  0.21215013023E+03 -0.84949431302E+02 -0.22864950480E+03  0.32327183558E+03  0.00000000000E+00 0. -1.
        -13    1    3    3    0    0  0.54403626967E+03 -0.28459076131E+03 -0.82096829181E+03  0.10251615972E+04  0.00000000000E+00 0.  1.
         22    1    1    2    0    0 -0.75618639991E+03  0.36954019261E+03 -0.52254049018E+03  0.99066966706E+03  0.00000000000E+00 0.  1.
<mgrwt>
<rscale>  0 0.17319704E+04</rscale>
<asrwt>0</asrwt>
<pdfrwt beam="1">  1        3 0.58995754E-01 0.17319704E+04</pdfrwt>
<pdfrwt beam="2">  1       -3 0.30086627E+00 0.17319704E+04</pdfrwt>
<totfact> 0.26332934E-01</totfact>
</mgrwt>
</event>
<event>
 6    1  0.1934315E-005  0.1841578E+04  0.7818608E-02  0.8684496E-01
          2   -1    0    0  501    0  0.00000000000E+00  0.00000000000E+00  0.91749868292E+03  0.91749868292E+03  0.00000000000E+00 0.  1.
         -2   -1    0    0    0  501 -0.00000000000E+00 -0.00000000000E+00 -0.92409118034E+03  0.92409118034E+03  0.00000000000E+00 0. -1.
         23    2    1    2    0    0 -0.34428085046E+03  0.23512510762E+03  0.81535894146E+03  0.91995149161E+03  0.87677951989E+02 0.  0.
         13    1    3    3    0    0 -0.10772641939E+03  0.10736659355E+03  0.22914261777E+03  0.27502528270E+03  0.00000000000E+00 0. -1.
        -13    1    3    3    0    0 -0.23655443107E+03  0.12775851407E+03  0.58621632369E+03  0.64492620891E+03  0.00000000000E+00 0.  1.
         22    1    1    2    0    0  0.34428085046E+03 -0.23512510762E+03 -0.82195143889E+03  0.92163837166E+03  0.00000000000E+00 0. -1.
<mgrwt>
<rscale>  0 0.18415781E+04</rscale>
<asrwt>0</asrwt>
<pdfrwt beam="1">  1        2 0.14115364E+00 0.18415781E+04</pdfrwt>
<pdfrwt beam="2">  1       -2 0.14216787E+00 0.18415781E+04</pdfrwt>
<totfact> 0.92633793E+00</totfact>
</mgrwt>
</event>
<event>
 6    1  0.1934315E-005  0.1341057E+04  0.7818608E-02  0.8997626E-01
         -2   -1    0    0    0  501 -0.00000000000E+00  0.00000000000E+00  0.32136516103E+03  0.32136516103E+03  0.00000000000E+00 0.  1.
          2   -1    0    0  501    0  0.00000000000E+00 -0.00000000000E+00 -0.13990571709E+04  0.13990571709E+04  0.00000000000E+00 0. -1.
         23    2    1    2    0    0  0.15648037064E+03 -0.62805649777E+03 -0.75014145945E+03  0.99500491151E+03  0.91550499583E+02 0.  0.
         11    1    3    3    0    0  0.25599528947E+02 -0.40194078665E+02 -0.87018399821E+02  0.99212407235E+02  0.00000000000E+00 0. -1.
        -11    1    3    3    0    0  0.13088084169E+03 -0.58786241910E+03 -0.66312305963E+03  0.89579250428E+03  0.00000000000E+00 0.  1.
         22    1    1    2    0    0 -0.15648037064E+03  0.62805649777E+03 -0.32755055047E+03  0.72541742045E+03  0.00000000000E+00 0.  1.
<mgrwt>
<rscale>  0 0.13410566E+04</rscale>
<asrwt>0</asrwt>
<pdfrwt beam="1">  1        2 0.21523956E+00 0.13410566E+04</pdfrwt>
<pdfrwt beam="2">  1       -2 0.49440795E-01 0.13410566E+04</pdfrwt>
<totfact> 0.54818445E+01</totfact>
</mgrwt>
</event>
<event>
 6    1  0.1934315E-005  0.3231714E+04  0.7818608E-02  0.8180491E-01
          2   -1    0    0  501    0  0.00000000000E+00  0.00000000000E+00  0.32720450432E+04  0.32720450432E+04  0.00000000000E+00 0.  1.
         -2   -1    0    0    0  501 -0.00000000000E+00 -0.00000000000E+00 -0.79797023518E+03  0.79797023518E+03  0.00000000000E+00 0. -1.
         23    2    1    2    0    0 -0.10176285283E+04 -0.12521608818E+04  0.11640827679E+04  0.19916616413E+04  0.90292343593E+02 0.  0.
         13    1    3    3    0    0 -0.33893395828E+03 -0.37644165410E+03  0.32478570727E+03  0.60172277892E+03  0.00000000000E+00 0. -1.
        -13    1    3    3    0    0 -0.67869457003E+03 -0.87571922773E+03  0.83929706064E+03  0.13899388624E+04  0.00000000000E+00 0.  1.
         22    1    1    2    0    0  0.10176285283E+04  0.12521608818E+04  0.13099920402E+04  0.20783536371E+04  0.00000000000E+00 0. -1.
<mgrwt>
<rscale>  0 0.32317144E+04</rscale>
<asrwt>0</asrwt>
<pdfrwt beam="1">  1        2 0.50339154E+00 0.32317144E+04</pdfrwt>
<pdfrwt beam="2">  1       -2 0.12276465E+00 0.32317144E+04</pdfrwt>
<totfact> 0.48932843E-01</totfact>
</mgrwt>
</event>
<event>
 6    1  0.1934315E-005  0.1965795E+04  0.7818608E-02  0.8622782E-01
          2   -1    0    0  501    0  0.00000000000E+00  0.00000000000E+00  0.12280152943E+04  0.12280152943E+04  0.00000000000E+00 0.  1.
         -2   -1    0    0    0  501 -0.00000000000E+00 -0.00000000000E+00 -0.78670600832E+03  0.78670600832E+03  0.00000000000E+00 0. -1.
         23    2    1    2    0    0  0.18147732841E+03 -0.58553885962E+03 -0.56401973588E+03  0.83723405470E+03  0.83981087370E+02 0.  0.
         13    1    3    3    0    0  0.82581195904E+02 -0.27253617437E+03 -0.31900021882E+03  0.42761753924E+03  0.00000000000E+00 0. -1.
        -13    1    3    3    0    0  0.98896132508E+02 -0.31300268525E+03 -0.24501951705E+03  0.40961651546E+03  0.00000000000E+00 0.  1.
         22    1    1    2    0    0 -0.18147732841E+03  0.58553885962E+03  0.10053290219E+04  0.11774872479E+04  0.00000000000E+00 0.  1.
<mgrwt>
<rscale>  0 0.19657945E+04</rscale>
<asrwt>0</asrwt>
<pdfrwt beam="1">  1        2 0.18892543E+00 0.19657945E+04</pdfrwt>
<pdfrwt beam="2">  1       -2 0.12103169E+00 0.19657945E+04</pdfrwt>
<totfact> 0.88276611E+00</totfact>
</mgrwt>
</event>
<event>
 6    1  0.1934315E-005  0.1862600E+04  0.7818608E-02  0.8673700E-01
          2   -1    0    0  501    0  0.00000000000E+00  0.00000000000E+00  0.13499001348E+04  0.13499001348E+04  0.00000000000E+00 0.  1.
         -2   -1    0    0    0  501 -0.00000000000E+00 -0.00000000000E+00 -0.64250689449E+03  0.64250689449E+03  0.00000000000E+00 0. -1.
         23    2    1    2    0    0  0.80282780990E+03 -0.43736882681E+03  0.17913407736E+03  0.93652743093E+03  0.95763396937E+02 0.  0.
         13    1    3    3    0    0  0.35745665329E+03 -0.24836875080E+03  0.76427800463E+02  0.44193156035E+03  0.00000000000E+00 0.  1.
        -13    1    3    3    0    0  0.44537115661E+03 -0.18900007601E+03  0.10270627690E+03  0.49459587057E+03  0.00000000000E+00 0. -1.
         22    1    1    2    0    0 -0.80282780990E+03  0.43736882681E+03  0.52825916294E+03  0.10558795984E+04  0.00000000000E+00 0.  1.
<mgrwt>
<rscale>  0 0.18626005E+04</rscale>
<asrwt>0</asrwt>
<pdfrwt beam="1">  1        2 0.20767694E+00 0.18626005E+04</pdfrwt>
<pdfrwt beam="2">  1       -2 0.98847215E-01 0.18626005E+04</pdfrwt>
<totfact> 0.12334320E+01</totfact>
</mgrwt>
</event>
<event>
 6    1  0.2029102E-005  0.2661440E+04  0.7818608E-02  0.8347626E-01
          2   -1    0    0  501    0  0.00000000000E+00  0.00000000000E+00  0.12239176949E+04  0.12239176949E+04  0.00000000000E+00 0.  1.
         -2   -1    0    0    0  501 -0.00000000000E+00 -0.00000000000E+00 -0.14468424579E+04  0.14468424579E+04  0.00000000000E+00 0. -1.
         23    2    1    2    0    0  0.73040959492E+03 -0.22869607339E+03  0.97888025495E+03  0.12459319626E+04  0.91322677520E+02 0.  0.
         13    1    3    3    0    0  0.38699878729E+03 -0.12276615459E+03  0.44520775887E+03  0.60253592311E+03  0.00000000000E+00 0. -1.
        -13    1    3    3    0    0  0.34341080764E+03 -0.10592991879E+03  0.53367249608E+03  0.64339603944E+03  0.00000000000E+00 0.  1.
         22    1    1    2    0    0 -0.73040959492E+03  0.22869607339E+03 -0.12018050179E+04  0.14248281902E+04  0.00000000000E+00 0. -1.
<mgrwt>
<rscale>  0 0.26614403E+04</rscale>
<asrwt>0</asrwt>
<pdfrwt beam="1">  1        2 0.18829503E+00 0.26614403E+04</pdfrwt>
<pdfrwt beam="2">  1       -2 0.22259115E+00 0.26614403E+04</pdfrwt>
<totfact> 0.15351993E+00</totfact>
</mgrwt>
</event>
<event>
 6    1  0.1934315E-005  0.2007130E+04  0.7818608E-02  0.8603295E-01
         -2   -1    0    0    0  501 -0.00000000000E+00  0.00000000000E+00  0.91407387992E+03  0.91407387992E+03  0.00000000000E+00 0. -1.
          2   -1    0    0  501    0  0.00000000000E+00 -0.00000000000E+00 -0.11018170753E+04  0.11018170753E+04  0.00000000000E+00 0.  1.
         23    2    1    2    0    0 -0.81246310986E+03 -0.56646942050E+03 -0.24296645933E+03  0.10239063192E+04  0.91474263894E+02 0.  0.
         13    1    3    3    0    0 -0.23442509656E+03 -0.16762434394E+03 -0.11378219587E+03  0.30983775541E+03  0.00000000000E+00 0.  1.
        -13    1    3    3    0    0 -0.57803801330E+03 -0.39884507656E+03 -0.12918426346E+03  0.71406856382E+03  0.00000000000E+00 0. -1.
         22    1    1    2    0    0  0.81246310986E+03  0.56646942050E+03  0.55223263916E+02  0.99198463603E+03  0.00000000000E+00 0.  1.
<mgrwt>
<rscale>  0 0.20071295E+04</rscale>
<asrwt>0</asrwt>
<pdfrwt beam="1">  1        2 0.16951032E+00 0.20071295E+04</pdfrwt>
<pdfrwt beam="2">  1       -2 0.14062675E+00 0.20071295E+04</pdfrwt>
<totfact> 0.71632213E+00</totfact>
</mgrwt>
</event>
<event>
 6    1  0.1934315E-005  0.3312558E+04  0.7818608E-02  0.8159707E-01
          2   -1    0    0  501    0  0.00000000000E+00  0.00000000000E+00  0.13452489766E+04  0.13452489766E+04  0.00000000000E+00 0.  1.
         -2   -1    0    0    0  501 -0.00000000000E+00 -0.00000000000E+00 -0.20392207936E+04  0.20392207936E+04  0.00000000000E+00 0. -1.
         23    2    1    2    0    0  0.15185109965E+04 -0.54117110890E+03  0.35717341380E+02  0.16149534285E+04  0.89760973609E+02 0.  0.
         13    1    3    3    0    0  0.13798483199E+04 -0.47483302839E+03  0.11263867032E+02  0.14593062275E+04  0.00000000000E+00 0.  1.
        -13    1    3    3    0    0  0.13866267653E+03 -0.66338080510E+02  0.24453474348E+02  0.15564720105E+03  0.00000000000E+00 0. -1.
         22    1    1    2    0    0 -0.15185109965E+04  0.54117110890E+03 -0.72968915843E+03  0.17695163417E+04  0.00000000000E+00 0. -1.
<mgrwt>
<rscale>  0 0.33125577E+04</rscale>
<asrwt>0</asrwt>
<pdfrwt beam="1">  1        2 0.20696138E+00 0.33125577E+04</pdfrwt>
<pdfrwt beam="2">  1       -2 0.31372628E+00 0.33125577E+04</pdfrwt>
<totfact> 0.33976899E-01</totfact>
</mgrwt>
</event>
<event>
 6    1  0.1934315E-005  0.1550229E+04  0.7818608E-02  0.8851722E-01
          2   -1    0    0  501    0  0.00000000000E+00  0.00000000000E+00  0.59278930401E+03  0.59278930401E+03  0.00000000000E+00 0.  1.
         -2   -1    0    0    0  501 -0.00000000000E+00 -0.00000000000E+00 -0.10135173202E+04  0.10135173202E+04  0.00000000000E+00 0. -1.
         23    2    1    2    0    0  0.22719787327E+03  0.14402451137E+03  0.53899208285E+03  0.60959974554E+03  0.93474332851E+02 0.  0.
         13    1    3    3    0    0  0.87681549180E+02  0.11083631900E+03  0.27295168229E+03  0.30736845079E+03  0.00000000000E+00 0. -1.
        -13    1    3    3    0    0  0.13951632409E+03  0.33188192367E+02  0.26604040055E+03  0.30223129475E+03  0.00000000000E+00 0.  1.
         22    1    1    2    0    0 -0.22719787327E+03 -0.14402451137E+03 -0.95972009902E+03  0.99670687865E+03  0.00000000000E+00 0. -1.
<mgrwt>
<rscale>  0 0.15502287E+04</rscale>
<asrwt>0</asrwt>
<pdfrwt beam="1">  1        2 0.91198355E-01 0.15502287E+04</pdfrwt>
<pdfrwt beam="2">  1       -2 0.15592574E+00 0.15502287E+04</pdfrwt>
<totfact> 0.13076406E+01</totfact>
</mgrwt>
</event>
<event>
 6    1  0.1999042E-005  0.2069345E+04  0.7818608E-02  0.8574868E-01
          2   -1    0    0  501    0  0.00000000000E+00  0.00000000000E+00  0.26112256045E+04  0.26112256045E+04  0.00000000000E+00 0.  1.
         -2   -1    0    0    0  501 -0.00000000000E+00 -0.00000000000E+00 -0.40997899662E+03  0.40997899662E+03  0.00000000000E+00 0. -1.
         23    2    1    2    0    0  0.15398431658E+03  0.97306716391E+02  0.25867932097E+04  0.25947940606E+04  0.90979888343E+02 0.  0.
         13    1    3    3    0    0  0.72153746928E+02  0.74556506778E+02  0.91874240239E+03  0.92458230453E+03  0.00000000000E+00 0. -1.
        -13    1    3    3    0    0  0.81830569656E+02  0.22750209613E+02  0.16680508074E+04  0.16702117561E+04  0.00000000000E+00 0.  1.
         22    1    1    2    0    0 -0.15398431658E+03 -0.97306716391E+02 -0.38554660190E+03  0.42641054050E+03  0.00000000000E+00 0. -1.
<mgrwt>
<rscale>  0 0.20693455E+04</rscale>
<asrwt>0</asrwt>
<pdfrwt beam="1">  1        2 0.40172701E+00 0.20693455E+04</pdfrwt>
<pdfrwt beam="2">  1       -2 0.63073693E-01 0.20693455E+04</pdfrwt>
<totfact> 0.64524810E+00</totfact>
</mgrwt>
</event>
<event>
 6    1  0.1934315E-005  0.1568716E+04  0.7818608E-02  0.8840001E-01
         -2   -1    0    0    0  501 -0.00000000000E+00  0.00000000000E+00  0.27984669238E+03  0.27984669238E+03  0.00000000000E+00 0. -1.
          2   -1    0    0  501    0  0.00000000000E+00 -0.00000000000E+00 -0.21984077601E+04  0.21984077601E+04  0.00000000000E+00 0.  1.
         23    2    1    2    0    0  0.44110535930E+03  0.61391697644E+03 -0.12784984295E+04  0.14877252137E+04  0.85440537436E+02 0.  0.
         11    1    3    3    0    0  0.35482384636E+03  0.46273745437E+03 -0.92054720612E+03  0.10896940269E+04  0.00000000000E+00 0. -1.
        -11    1    3    3    0    0  0.86281512937E+02  0.15117952206E+03 -0.35795122334E+03  0.39803118679E+03  0.00000000000E+00 0.  1.
         22    1    1    2    0    0 -0.44110535930E+03 -0.61391697644E+03 -0.64006263825E+03  0.99052923876E+03  0.00000000000E+00 0. -1.
<mgrwt>
<rscale>  0 0.15687156E+04</rscale>
<asrwt>0</asrwt>
<pdfrwt beam="1">  1        2 0.33821657E+00 0.15687156E+04</pdfrwt>
<pdfrwt beam="2">  1       -2 0.43053338E-01 0.15687156E+04</pdfrwt>
<totfact> 0.25462976E+01</totfact>
</mgrwt>
</event>
<event>
 6    1  0.1934315E-005  0.2584071E+04  0.7818608E-02  0.8373632E-01
         -4   -1    0    0    0  501 -0.00000000000E+00  0.00000000000E+00  0.12072338581E+04  0.12072338581E+04  0.00000000000E+00 0. -1.
          4   -1    0    0  501    0  0.00000000000E+00 -0.00000000000E+00 -0.13827942426E+04  0.13827942426E+04  0.00000000000E+00 0.  1.
         23    2    1    2    0    0 -0.31906240864E+03 -0.73711337200E+03  0.92440826589E+03  0.12280192991E+04  0.91453885151E+02 0.  0.
         11    1    3    3    0    0 -0.86856586025E+02 -0.27326419543E+03  0.38010448709E+03  0.47612688240E+03  0.00000000000E+00 0.  1.
        -11    1    3    3    0    0 -0.23220582261E+03 -0.46384917657E+03  0.54430377880E+03  0.75189241670E+03  0.00000000000E+00 0. -1.
         22    1    1    2    0    0  0.31906240864E+03  0.73711337200E+03 -0.10999686504E+04  0.13620088016E+04  0.00000000000E+00 0.  1.
<mgrwt>
<rscale>  0 0.25840712E+04</rscale>
<asrwt>0</asrwt>
<pdfrwt beam="1">  1        4 0.21273758E+00 0.25840712E+04</pdfrwt>
<pdfrwt beam="2">  1       -4 0.18572828E+00 0.25840712E+04</pdfrwt>
<totfact> 0.31472435E-02</totfact>
</mgrwt>
</event>
<event>
 6    1  0.1934315E-005  0.1905042E+04  0.7818608E-02  0.8652351E-01
         -2   -1    0    0    0  501 -0.00000000000E+00  0.00000000000E+00  0.90284860402E+03  0.90284860402E+03  0.00000000000E+00 0. -1.
          2   -1    0    0  501    0  0.00000000000E+00 -0.00000000000E+00 -0.10049264304E+04  0.10049264304E+04  0.00000000000E+00 0.  1.
         23    2    1    2    0    0 -0.27656851024E+03  0.89318616663E+03  0.11838355359E+03  0.94711125912E+03  0.93452673995E+02 0.  0.
         11    1    3    3    0    0 -0.11468579782E+03  0.43895411179E+03  0.14998874383E+02  0.45393668139E+03  0.00000000000E+00 0.  1.
        -11    1    3    3    0    0 -0.16188271242E+03  0.45423205484E+03  0.10338467920E+03  0.49317457773E+03  0.00000000000E+00 0. -1.
         22    1    1    2    0    0  0.27656851024E+03 -0.89318616663E+03 -0.22046137995E+03  0.96066377529E+03  0.00000000000E+00 0.  1.
<mgrwt>
<rscale>  0 0.19050422E+04</rscale>
<asrwt>0</asrwt>
<pdfrwt beam="1">  1        2 0.15460407E+00 0.19050422E+04</pdfrwt>
<pdfrwt beam="2">  1       -2 0.13889979E+00 0.19050422E+04</pdfrwt>
<totfact> 0.85816069E+00</totfact>
</mgrwt>
</event>
<event>
 6    1  0.1934315E-005  0.1073037E+04  0.7818608E-02  0.9231877E-01
         -2   -1    0    0    0  501 -0.00000000000E+00  0.00000000000E+00  0.29081618929E+03  0.29081618929E+03  0.00000000000E+00 0. -1.
          2   -1    0    0  501    0  0.00000000000E+00 -0.00000000000E+00 -0.98980837393E+03  0.98980837393E+03  0.00000000000E+00 0.  1.
         23    2    1    2    0    0 -0.50347231101E+03 -0.49173725826E+02 -0.55071881109E+03  0.75347428429E+03  0.92357267940E+02 0.  0.
         11    1    3    3    0    0 -0.24458264454E+02 -0.18565275479E+02 -0.57873984787E+02  0.65515450611E+02  0.00000000000E+00 0. -1.
        -11    1    3    3    0    0 -0.47901404656E+03 -0.30608450347E+02 -0.49284482630E+03  0.68795883368E+03  0.00000000000E+00 0.  1.
         22    1    1    2    0    0  0.50347231101E+03  0.49173725826E+02 -0.14827337356E+03  0.52715027893E+03  0.00000000000E+00 0. -1.
<mgrwt>
<rscale>  0 0.10730374E+04</rscale>
<asrwt>0</asrwt>
<pdfrwt beam="1">  1        2 0.15227821E+00 0.10730374E+04</pdfrwt>
<pdfrwt beam="2">  1       -2 0.44740952E-01 0.10730374E+04</pdfrwt>
<totfact> 0.12041945E+02</totfact>
</mgrwt>
</event>
<event>
 6    1  0.1934315E-005  0.2807856E+04  0.7818608E-02  0.8300833E-01
         -2   -1    0    0    0  501 -0.00000000000E+00  0.00000000000E+00  0.19225300918E+04  0.19225300918E+04  0.00000000000E+00 0. -1.
          2   -1    0    0  501    0  0.00000000000E+00 -0.00000000000E+00 -0.10252190630E+04  0.10252190630E+04  0.00000000000E+00 0.  1.
         23    2    1    2    0    0 -0.11561798190E+04  0.78706631997E+03  0.55754475761E+03  0.15084207403E+04  0.90839458517E+02 0.  0.
         11    1    3    3    0    0 -0.66658127688E+03  0.45771831365E+03  0.37030337487E+03  0.88936001865E+03  0.00000000000E+00 0. -1.
        -11    1    3    3    0    0 -0.48959854212E+03  0.32934800632E+03  0.18724138274E+03  0.61906072168E+03  0.00000000000E+00 0.  1.
         22    1    1    2    0    0  0.11561798190E+04 -0.78706631997E+03  0.33976627116E+03  0.14393284145E+04  0.00000000000E+00 0. -1.
<mgrwt>
<rscale>  0 0.28078565E+04</rscale>
<asrwt>0</asrwt>
<pdfrwt beam="1">  1        2 0.15772601E+00 0.28078565E+04</pdfrwt>
<pdfrwt beam="2">  1       -2 0.29577386E+00 0.28078565E+04</pdfrwt>
<totfact> 0.71192769E-01</totfact>
</mgrwt>
</event>
<event>
 6    1  0.1934315E-005  0.1496068E+04  0.7818608E-02  0.8887072E-01
         -2   -1    0    0    0  501 -0.00000000000E+00  0.00000000000E+00  0.23560237079E+03  0.23560237079E+03  0.00000000000E+00 0. -1.
          2   -1    0    0  501    0  0.00000000000E+00 -0.00000000000E+00 -0.23749966290E+04  0.23749966290E+04  0.00000000000E+00 0.  1.
         23    2    1    2    0    0 -0.47466016385E+03 -0.41789761276E+02 -0.20735534023E+04  0.21295754311E+04  0.91755923686E+02 0.  0.
         11    1    3    3    0    0 -0.19290183581E+03 -0.62043322488E+02 -0.84180784959E+03  0.86585272868E+03  0.00000000000E+00 0. -1.
        -11    1    3    3    0    0 -0.28175832805E+03  0.20253561212E+02 -0.12317455527E+04  0.12637227025E+04  0.00000000000E+00 0.  1.
         22    1    1    2    0    0  0.47466016385E+03  0.41789761276E+02 -0.65840855958E+02  0.48102356866E+03  0.00000000000E+00 0. -1.
<mgrwt>
<rscale>  0 0.14960680E+04</rscale>
<asrwt>0</asrwt>
<pdfrwt beam="1">  1        2 0.36538409E+00 0.14960680E+04</pdfrwt>
<pdfrwt beam="2">  1       -2 0.36246519E-01 0.14960680E+04</pdfrwt>
<totfact> 0.28500377E+01</totfact>
</mgrwt>
</event>
<event>
 6    1  0.1934315E-005  0.1208582E+04  0.7818608E-02  0.9105377E-01
          2   -1    0    0  501    0  0.00000000000E+00  0.00000000000E+00  0.68256875549E+03  0.68256875549E+03  0.00000000000E+00 0.  1.
         -2   -1    0    0    0  501 -0.00000000000E+00 -0.00000000000E+00 -0.53499062362E+03  0.53499062362E+03  0.00000000000E+00 0. -1.
         23    2    1    2    0    0  0.52270230026E+03 -0.28915911258E+03  0.13953595060E+03  0.62015217814E+03  0.91037110350E+02 0.  0.
         11    1    3    3    0    0  0.35245573045E+03 -0.17074387985E+03  0.52068066598E+02  0.39508176115E+03  0.00000000000E+00 0.  1.
        -11    1    3    3    0    0  0.17024656981E+03 -0.11841523273E+03  0.87467883997E+02  0.22507041700E+03  0.00000000000E+00 0. -1.
         22    1    1    2    0    0 -0.52270230026E+03  0.28915911258E+03  0.80421812726E+01  0.59740720096E+03  0.00000000000E+00 0.  1.
<mgrwt>
<rscale>  0 0.12085824E+04</rscale>
<asrwt>0</asrwt>
<pdfrwt beam="1">  1        2 0.10501058E+00 0.12085824E+04</pdfrwt>
<pdfrwt beam="2">  1       -2 0.82306249E-01 0.12085824E+04</pdfrwt>
<totfact> 0.54105677E+01</totfact>
</mgrwt>
</event>
<event>
 6    1  0.1934315E-005  0.2787986E+04  0.7818608E-02  0.8307008E-01
          2   -1    0    0  501    0  0.00000000000E+00  0.00000000000E+00  0.24503707076E+04  0.24503707076E+04  0.00000000000E+00 0.  1.
         -2   -1    0    0    0  501 -0.00000000000E+00 -0.00000000000E+00 -0.79302981480E+03  0.79302981480E+03  0.00000000000E+00 0. -1.
         23    2    1    2    0    0  0.31890270019E+02  0.50319173685E+03  0.23395513686E+04  0.23950904101E+04  0.93480226451E+02 0.  0.
         13    1    3    3    0    0 -0.31777651269E+02  0.12329001558E+03  0.61568069374E+03  0.62870737526E+03  0.00000000000E+00 0. -1.
        -13    1    3    3    0    0  0.63667921288E+02  0.37990172127E+03  0.17238706749E+04  0.17663830348E+04  0.00000000000E+00 0.  1.
         22    1    1    2    0    0 -0.31890270019E+02 -0.50319173685E+03 -0.68221047581E+03  0.84831011232E+03  0.00000000000E+00 0. -1.
<mgrwt>
<rscale>  0 0.27879864E+04</rscale>
<asrwt>0</asrwt>
<pdfrwt beam="1">  1        2 0.37698011E+00 0.27879864E+04</pdfrwt>
<pdfrwt beam="2">  1       -2 0.12200459E+00 0.27879864E+04</pdfrwt>
<totfact> 0.16501359E+00</totfact>
</mgrwt>
</event>
<event>
 6    1  0.1934315E-005  0.4288895E+04  0.7818608E-02  0.7948675E-01
          2   -1    0    0  501    0  0.00000000000E+00  0.00000000000E+00  0.46816763957E+04  0.46816763957E+04  0.00000000000E+00 0.  1.
         -2   -1    0    0    0  501 -0.00000000000E+00 -0.00000000000E+00 -0.98226692260E+03  0.98226692260E+03  0.00000000000E+00 0. -1.
         23    2    1    2    0    0  0.11134006188E+04 -0.72892502852E+03 -0.36864389782E+03  0.13837504647E+04  0.88737760727E+02 0.  0.
         11    1    3    3    0    0  0.36654783521E+03 -0.29056294609E+03 -0.12836040505E+03  0.48503663235E+03  0.00000000000E+00 0.  1.
        -11    1    3    3    0    0  0.74685278356E+03 -0.43836208242E+03 -0.24028349277E+03  0.89871383238E+03  0.00000000000E+00 0. -1.
         22    1    1    2    0    0 -0.11134006188E+04  0.72892502852E+03  0.40680533709E+04  0.42801928535E+04  0.00000000000E+00 0.  1.
<mgrwt>
<rscale>  0 0.42888954E+04</rscale>
<asrwt>0</asrwt>
<pdfrwt beam="1">  1        2 0.72025789E+00 0.42888954E+04</pdfrwt>
<pdfrwt beam="2">  1       -2 0.15111799E+00 0.42888954E+04</pdfrwt>
<totfact> 0.17998239E-02</totfact>
</mgrwt>
</event>
<event>
 6    1  0.1934315E-005  0.2507539E+04  0.7818608E-02  0.8400305E-01
          2   -1    0    0  501    0  0.00000000000E+00  0.00000000000E+00  0.14079185875E+04  0.14079185875E+04  0.00000000000E+00 0.  1.
         -2   -1    0    0    0  501 -0.00000000000E+00 -0.00000000000E+00 -0.11164976416E+04  0.11164976416E+04  0.00000000000E+00 0. -1.
         23    2    1    2    0    0 -0.28135924820E+03 -0.12181008252E+04  0.21505881568E+03  0.12719132064E+04  0.92629711346E+02 0.  0.
         11    1    3    3    0    0 -0.18973731055E+03 -0.71041391427E+03  0.16501550260E+03  0.75360353814E+03  0.00000000000E+00 0. -1.
        -11    1    3    3    0    0 -0.91621937651E+02 -0.50768691093E+03  0.50043313077E+02  0.51830966823E+03  0.00000000000E+00 0.  1.
         22    1    1    2    0    0  0.28135924820E+03  0.12181008252E+04  0.76362130279E+02  0.12525030227E+04  0.00000000000E+00 0.  1.
<mgrwt>
<rscale>  0 0.25075389E+04</rscale>
<asrwt>0</asrwt>
<pdfrwt beam="1">  1        2 0.21660286E+00 0.25075389E+04</pdfrwt>
<pdfrwt beam="2">  1       -2 0.17176887E+00 0.25075389E+04</pdfrwt>
<totfact> 0.26432564E+00</totfact>
</mgrwt>
</event>
<event>
 6    1  0.1934315E-005  0.4177590E+04  0.7818608E-02  0.7969649E-01
         -2   -1    0    0    0  501 -0.00000000000E+00  0.00000000000E+00  0.25636625193E+04  0.25636625193E+04  0.00000000000E+00 0. -1.
          2   -1    0    0  501    0  0.00000000000E+00 -0.00000000000E+00 -0.17018871655E+04  0.17018871655E+04  0.00000000000E+00 0.  1.
         23    2    1    2    0    0  0.46498335876E+03  0.19594081693E+04  0.99319263788E+03  0.22474415608E+04  0.95247339433E+02 0.  0.
         13    1    3    3    0    0  0.33698439228E+03  0.14096241203E+04  0.66668300213E+03  0.15953259436E+04  0.00000000000E+00 0. -1.
        -13    1    3    3    0    0  0.12799896649E+03  0.54978404899E+03  0.32650963576E+03  0.65211561719E+03  0.00000000000E+00 0.  1.
         22    1    1    2    0    0 -0.46498335876E+03 -0.19594081693E+04 -0.13141728406E+03  0.20181081240E+04  0.00000000000E+00 0.  1.
<mgrwt>
<rscale>  0 0.41775899E+04</rscale>
<asrwt>0</asrwt>
<pdfrwt beam="1">  1        2 0.26182879E+00 0.41775899E+04</pdfrwt>
<pdfrwt beam="2">  1       -2 0.39440962E+00 0.41775899E+04</pdfrwt>
<totfact> 0.61405848E-02</totfact>
</mgrwt>
</event>
<event>
 6    1  0.1934315E-005  0.2036631E+04  0.7818608E-02  0.8589684E-01
          2   -1    0    0  501    0  0.00000000000E+00  0.00000000000E+00  0.71287971073E+03  0.71287971073E+03  0.00000000000E+00 0.  1.
         -2   -1    0    0    0  501 -0.00000000000E+00 -0.00000000000E+00 -0.14546160707E+04  0.14546160707E+04  0.00000000000E+00 0. -1.
         23    2    1    2    0    0  0.78889345861E+03  0.11186680069E+03 -0.10429214208E+04  0.13156862305E+04  0.92076582610E+02 0.  0.
         13    1    3    3    0    0  0.48388010717E+03  0.97421627630E+02 -0.69991254926E+03  0.85645111259E+03  0.00000000000E+00 0.  1.
        -13    1    3    3    0    0  0.30501335143E+03  0.14445173059E+02 -0.34300887158E+03  0.45923511795E+03  0.00000000000E+00 0. -1.
         22    1    1    2    0    0 -0.78889345861E+03 -0.11186680069E+03  0.30118506086E+03  0.85180955090E+03  0.00000000000E+00 0.  1.
<mgrwt>
<rscale>  0 0.20366308E+04</rscale>
<asrwt>0</asrwt>
<pdfrwt beam="1">  1        2 0.10967380E+00 0.20366308E+04</pdfrwt>
<pdfrwt beam="2">  1       -2 0.22378709E+00 0.20366308E+04</pdfrwt>
<totfact> 0.34668875E+00</totfact>
</mgrwt>
</event>
<event>
 6    1  0.1934315E-005  0.5985993E+04  0.7818608E-02  0.7692141E-01
          2   -1    0    0  501    0  0.00000000000E+00  0.00000000000E+00  0.30905598138E+04  0.30905598138E+04  0.00000000000E+00 0.  1.
         -2   -1    0    0    0  501 -0.00000000000E+00 -0.00000000000E+00 -0.28985126219E+04  0.28985126219E+04  0.00000000000E+00 0. -1.
         23    2    1    2    0    0 -0.15706373829E+04 -0.11319716743E+04 -0.21866895835E+04  0.29220461386E+04  0.92090400257E+02 0.  0.
         11    1    3    3    0    0 -0.13591930762E+04 -0.94245181499E+03 -0.18474878958E+04  0.24796840055E+04  0.00000000000E+00 0. -1.
        -11    1    3    3    0    0 -0.21144430668E+03 -0.18951985934E+03 -0.33920168773E+03  0.44236213318E+03  0.00000000000E+00 0.  1.
         22    1    1    2    0    0  0.15706373829E+04  0.11319716743E+04  0.23787367754E+04  0.30670262970E+04  0.00000000000E+00 0. -1.
<mgrwt>
<rscale>  0 0.59859925E+04</rscale>
<asrwt>0</asrwt>
<pdfrwt beam="1">  1        2 0.47547074E+00 0.59859925E+04</pdfrwt>
<pdfrwt beam="2">  1       -2 0.44592502E+00 0.59859925E+04</pdfrwt>
<totfact> 0.38114283E-03</totfact>
</mgrwt>
</event>
<event>
 6    1  0.1934315E-005  0.3002958E+04  0.7818608E-02  0.8242887E-01
          2   -1    0    0  501    0  0.00000000000E+00  0.00000000000E+00  0.26153878769E+04  0.26153878769E+04  0.00000000000E+00 0.  1.
         -2   -1    0    0    0  501 -0.00000000000E+00 -0.00000000000E+00 -0.86199020052E+03  0.86199020052E+03  0.00000000000E+00 0. -1.
         23    2    1    2    0    0  0.26279011585E+02  0.10833430515E+04  0.20786336192E+04  0.23459625162E+04  0.92193550480E+02 0.  0.
         11    1    3    3    0    0 -0.27176747208E+02  0.35792040890E+03  0.63502272036E+03  0.72945147204E+03  0.00000000000E+00 0.  1.
        -11    1    3    3    0    0  0.53455758793E+02  0.72542264259E+03  0.14436108989E+04  0.16165110441E+04  0.00000000000E+00 0. -1.
         22    1    1    2    0    0 -0.26279011585E+02 -0.10833430515E+04 -0.32523594285E+03  0.11314155612E+04  0.00000000000E+00 0. -1.
<mgrwt>
<rscale>  0 0.30029577E+04</rscale>
<asrwt>0</asrwt>
<pdfrwt beam="1">  1        2 0.40236736E+00 0.30029577E+04</pdfrwt>
<pdfrwt beam="2">  1       -2 0.13261388E+00 0.30029577E+04</pdfrwt>
<totfact> 0.10528231E+00</totfact>
</mgrwt>
</event>
<event>
 6    1  0.1934315E-005  0.2212096E+04  0.7818608E-02  0.8513410E-01
          2   -1    0    0  501    0  0.00000000000E+00  0.00000000000E+00  0.14156671102E+04  0.14156671102E+04  0.00000000000E+00 0.  1.
         -2   -1    0    0    0  501 -0.00000000000E+00 -0.00000000000E+00 -0.86414568765E+03  0.86414568765E+03  0.00000000000E+00 0. -1.
         23    2    1    2    0    0 -0.73934271175E+02  0.79865204792E+03 -0.50578819065E+03  0.95270504478E+03  0.92270463648E+02 0.  0.
         11    1    3    3    0    0  0.21333486470E+02  0.11444712791E+03 -0.66930949789E+02  0.13428706107E+03  0.00000000000E+00 0. -1.
        -11    1    3    3    0    0 -0.95267757644E+02  0.68420492001E+03 -0.43885724086E+03  0.81841798371E+03  0.00000000000E+00 0.  1.
         22    1    1    2    0    0  0.73934271175E+02 -0.79865204792E+03  0.10573096132E+04  0.13271077531E+04  0.00000000000E+00 0.  1.
<mgrwt>
<rscale>  0 0.22120964E+04</rscale>
<asrwt>0</asrwt>
<pdfrwt beam="1">  1        2 0.21779494E+00 0.22120964E+04</pdfrwt>
<pdfrwt beam="2">  1       -2 0.13294549E+00 0.22120964E+04</pdfrwt>
<totfact> 0.53112693E+00</totfact>
</mgrwt>
</event>
<event>
 6    1  0.1934315E-005  0.3080900E+04  0.7818608E-02  0.8220999E-01
         -2   -1    0    0    0  501 -0.00000000000E+00  0.00000000000E+00  0.10875996343E+04  0.10875996343E+04  0.00000000000E+00 0. -1.
          2   -1    0    0  501    0  0.00000000000E+00 -0.00000000000E+00 -0.21818568222E+04  0.21818568222E+04  0.00000000000E+00 0.  1.
         23    2    1    2    0    0  0.88648366227E+03  0.64426449365E+03  0.59911610015E+03  0.12524182531E+04  0.93173805182E+02 0.  0.
         11    1    3    3    0    0  0.46762160949E+03  0.29728340095E+03  0.33806250247E+03  0.64910218434E+03  0.00000000000E+00 0. -1.
        -11    1    3    3    0    0  0.41886205279E+03  0.34698109270E+03  0.26105359768E+03  0.60331606876E+03  0.00000000000E+00 0.  1.
         22    1    1    2    0    0 -0.88648366227E+03 -0.64426449365E+03 -0.16933732880E+04  0.20170382034E+04  0.00000000000E+00 0. -1.
<mgrwt>
<rscale>  0 0.30809003E+04</rscale>
<asrwt>0</asrwt>
<pdfrwt beam="1">  1        2 0.33567028E+00 0.30809003E+04</pdfrwt>
<pdfrwt beam="2">  1       -2 0.16732302E+00 0.30809003E+04</pdfrwt>
<totfact> 0.10013430E+00</totfact>
</mgrwt>
</event>
<event>
 6    1  0.1934315E-005  0.1683080E+04  0.7818608E-02  0.8771074E-01
         -1   -1    0    0    0  501 -0.00000000000E+00  0.00000000000E+00  0.76979228500E+03  0.76979228500E+03  0.00000000000E+00 0. -1.
          1   -1    0    0  501    0  0.00000000000E+00 -0.00000000000E+00 -0.91997472676E+03  0.91997472676E+03  0.00000000000E+00 0.  1.
         23    2    1    2    0    0  0.27560376101E+03  0.69789377025E+03  0.30167960974E+03  0.81387177759E+03  0.91452368937E+02 0.  0.
         11    1    3    3    0    0  0.69707640529E+02  0.28943653827E+03  0.10111245634E+03  0.31441436618E+03  0.00000000000E+00 0. -1.
        -11    1    3    3    0    0  0.20589612048E+03  0.40845723198E+03  0.20056715340E+03  0.49945741141E+03  0.00000000000E+00 0.  1.
         22    1    1    2    0    0 -0.27560376101E+03 -0.69789377025E+03 -0.45186205150E+03  0.87589523416E+03  0.00000000000E+00 0.  1.
<mgrwt>
<rscale>  0 0.16830799E+04</rscale>
<asrwt>0</asrwt>
<pdfrwt beam="1">  1        1 0.14153457E+00 0.16830799E+04</pdfrwt>
<pdfrwt beam="2">  1       -1 0.11842958E+00 0.16830799E+04</pdfrwt>
<totfact> 0.10680518E+01</totfact>
</mgrwt>
</event>
<event>
 6    1  0.1934315E-005  0.2088698E+04  0.7818608E-02  0.8566238E-01
          2   -1    0    0  501    0  0.00000000000E+00  0.00000000000E+00  0.10417071651E+04  0.10417071651E+04  0.00000000000E+00 0.  1.
         -2   -1    0    0    0  501 -0.00000000000E+00 -0.00000000000E+00 -0.10469974363E+04  0.10469974363E+04  0.00000000000E+00 0. -1.
         23    2    1    2    0    0  0.26230509746E+03  0.95228487755E+03  0.32994220079E+03  0.10456172310E+04  0.93824760449E+02 0.  0.
         13    1    3    3    0    0  0.12439326908E+03  0.34313917108E+03  0.15873585074E+03  0.39801412844E+03  0.00000000000E+00 0.  1.
        -13    1    3    3    0    0  0.13791182838E+03  0.60914570647E+03  0.17120635005E+03  0.64760310254E+03  0.00000000000E+00 0. -1.
         22    1    1    2    0    0 -0.26230509746E+03 -0.95228487755E+03 -0.33523247196E+03  0.10430873705E+04  0.00000000000E+00 0. -1.
<mgrwt>
<rscale>  0 0.20886979E+04</rscale>
<asrwt>0</asrwt>
<pdfrwt beam="1">  1        2 0.16026264E+00 0.20886979E+04</pdfrwt>
<pdfrwt beam="2">  1       -2 0.16107653E+00 0.20886979E+04</pdfrwt>
<totfact> 0.54043530E+00</totfact>
</mgrwt>
</event>
<event>
 6    1  0.1934315E-005  0.3478518E+04  0.7818608E-02  0.8118900E-01
          2   -1    0    0  501    0  0.00000000000E+00  0.00000000000E+00  0.18456482649E+04  0.18456482649E+04  0.00000000000E+00 0.  1.
         -2   -1    0    0    0  501 -0.00000000000E+00 -0.00000000000E+00 -0.16390025013E+04  0.16390025013E+04  0.00000000000E+00 0. -1.
         23    2    1    2    0    0 -0.71253565802E+03 -0.43249604182E+03 -0.14244613563E+04  0.16529110667E+04  0.90911761884E+02 0.  0.
         11    1    3    3    0    0 -0.62026800066E+03 -0.33863369358E+03 -0.12124143752E+04  0.14033366625E+04  0.00000000000E+00 0.  1.
        -11    1    3    3    0    0 -0.92267657363E+02 -0.93862348242E+02 -0.21204698111E+03  0.24957440416E+03  0.00000000000E+00 0. -1.
         22    1    1    2    0    0  0.71253565802E+03  0.43249604182E+03  0.16311071199E+04  0.18317396995E+04  0.00000000000E+00 0.  1.
<mgrwt>
<rscale>  0 0.34785181E+04</rscale>
<asrwt>0</asrwt>
<pdfrwt beam="1">  1        2 0.28394589E+00 0.34785181E+04</pdfrwt>
<pdfrwt beam="2">  1       -2 0.25215423E+00 0.34785181E+04</pdfrwt>
<totfact> 0.41765121E-01</totfact>
</mgrwt>
</event>
<event>
 6    1  0.1934315E-005  0.1069694E+04  0.7818608E-02  0.9235244E-01
          2   -1    0    0  501    0  0.00000000000E+00  0.00000000000E+00  0.12293931075E+04  0.12293931075E+04  0.00000000000E+00 0. -1.
         -2   -1    0    0    0  501 -0.00000000000E+00 -0.00000000000E+00 -0.23268517103E+03  0.23268517103E+03  0.00000000000E+00 0.  1.
         23    2    1    2    0    0 -0.28574912784E+03  0.13369163440E+02  0.11134371165E+04  0.11531171159E+04  0.90030949350E+02 0.  0.
         13    1    3    3    0    0 -0.18489484407E+03 -0.34688790228E+02  0.70919417555E+03  0.73372051502E+03  0.00000000000E+00 0.  1.
        -13    1    3    3    0    0 -0.10085428377E+03  0.48057953668E+02  0.40424294097E+03  0.41939660083E+03  0.00000000000E+00 0. -1.
         22    1    1    2    0    0  0.28574912784E+03 -0.13369163440E+02 -0.11672918002E+03  0.30896116270E+03  0.00000000000E+00 0.  1.
<mgrwt>
<rscale>  0 0.10696944E+04</rscale>
<asrwt>0</asrwt>
<pdfrwt beam="1">  1        2 0.18913740E+00 0.10696944E+04</pdfrwt>
<pdfrwt beam="2">  1       -2 0.35797719E-01 0.10696944E+04</pdfrwt>
<totfact> 0.13260586E+02</totfact>
</mgrwt>
</event>
<event>
 6    1  0.1934315E-005  0.7640616E+03  0.7818608E-02  0.9613545E-01
          2   -1    0    0  501    0  0.00000000000E+00  0.00000000000E+00  0.28632028387E+04  0.28632028387E+04  0.00000000000E+00 0.  1.
         -2   -1    0    0    0  501 -0.00000000000E+00 -0.00000000000E+00 -0.50973518742E+02  0.50973518742E+02  0.00000000000E+00 0. -1.
         23    2    1    2    0    0  0.19694112327E+03  0.31529712040E+03  0.12040005181E+04  0.12635407346E+04  0.93380192279E+02 0.  0.
         13    1    3    3    0    0  0.13559883069E+03  0.28270655059E+03  0.10040701542E+04  0.10518873092E+04  0.00000000000E+00 0. -1.
        -13    1    3    3    0    0  0.61342292582E+02  0.32590569808E+02  0.19993036384E+03  0.21165342540E+03  0.00000000000E+00 0.  1.
         22    1    1    2    0    0 -0.19694112327E+03 -0.31529712040E+03  0.16082288018E+04  0.16506356228E+04  0.00000000000E+00 0. -1.
<mgrwt>
<rscale>  0 0.76406158E+03</rscale>
<asrwt>0</asrwt>
<pdfrwt beam="1">  1        2 0.44049262E+00 0.76406158E+03</pdfrwt>
<pdfrwt beam="2">  1       -2 0.78420820E-02 0.76406158E+03</pdfrwt>
<totfact> 0.22545309E+02</totfact>
</mgrwt>
</event>
<event>
 6    1  0.1934315E-005  0.3512368E+04  0.7818608E-02  0.8110865E-01
          2   -1    0    0  501    0  0.00000000000E+00  0.00000000000E+00  0.18997021059E+04  0.18997021059E+04  0.00000000000E+00 0.  1.
         -2   -1    0    0    0  501 -0.00000000000E+00 -0.00000000000E+00 -0.16235080645E+04  0.16235080645E+04  0.00000000000E+00 0. -1.
         23    2    1    2    0    0 -0.96895483536E+03 -0.14540044398E+04 -0.26040728794E+02  0.17499791533E+04  0.93522904472E+02 0.  0.
         11    1    3    3    0    0 -0.43157116978E+03 -0.72839417881E+03 -0.25926446498E+02  0.84704423434E+03  0.00000000000E+00 0.  1.
        -11    1    3    3    0    0 -0.53738366558E+03 -0.72561026094E+03 -0.11428229586E+00  0.90293491896E+03  0.00000000000E+00 0. -1.
         22    1    1    2    0    0  0.96895483536E+03  0.14540044398E+04  0.30223477023E+03  0.17732310171E+04  0.00000000000E+00 0.  1.
<mgrwt>
<rscale>  0 0.35123677E+04</rscale>
<asrwt>0</asrwt>
<pdfrwt beam="1">  1        2 0.29226186E+00 0.35123677E+04</pdfrwt>
<pdfrwt beam="2">  1       -2 0.24977047E+00 0.35123677E+04</pdfrwt>
<totfact> 0.40204737E-01</totfact>
</mgrwt>
</event>
<event>
 6    1  0.1934315E-005  0.1626962E+04  0.7818608E-02  0.8804153E-01
         -2   -1    0    0    0  501 -0.00000000000E+00  0.00000000000E+00  0.15297078850E+03  0.15297078850E+03  0.00000000000E+00 0. -1.
          2   -1    0    0  501    0  0.00000000000E+00 -0.00000000000E+00 -0.43259983117E+04  0.43259983117E+04  0.00000000000E+00 0.  1.
         23    2    1    2    0    0 -0.79114084841E+03  0.83144955109E+02 -0.16604842338E+04  0.18435012657E+04  0.92044013052E+02 0.  0.
         13    1    3    3    0    0 -0.90096862429E+02  0.36318244146E+02 -0.17235494652E+03  0.19784510877E+03  0.00000000000E+00 0. -1.
        -13    1    3    3    0    0 -0.70104398598E+03  0.46826710964E+02 -0.14881292873E+04  0.16456561569E+04  0.00000000000E+00 0.  1.
         22    1    1    2    0    0  0.79114084841E+03 -0.83144955109E+02 -0.25125432895E+04  0.26354678346E+04  0.00000000000E+00 0.  1.
<mgrwt>
<rscale>  0 0.16269620E+04</rscale>
<asrwt>0</asrwt>
<pdfrwt beam="1">  1        2 0.66553825E+00 0.16269620E+04</pdfrwt>
<pdfrwt beam="2">  1       -2 0.23533966E-01 0.16269620E+04</pdfrwt>
<totfact> 0.28228316E+00</totfact>
</mgrwt>
</event>
<event>
 6    1  0.1934315E-005  0.2886502E+04  0.7818608E-02  0.8276905E-01
         -2   -1    0    0    0  501 -0.00000000000E+00  0.00000000000E+00  0.14098778892E+04  0.14098778892E+04  0.00000000000E+00 0. -1.
          2   -1    0    0  501    0  0.00000000000E+00 -0.00000000000E+00 -0.14774139297E+04  0.14774139297E+04  0.00000000000E+00 0.  1.
         23    2    1    2    0    0 -0.13373238239E+04  0.28896650276E+03  0.42105295677E+03  0.14344821762E+04  0.92286898561E+02 0.  0.
         13    1    3    3    0    0 -0.11357465866E+04  0.27684434338E+03  0.34740086990E+03  0.12195287876E+04  0.00000000000E+00 0. -1.
        -13    1    3    3    0    0 -0.20157723733E+03  0.12122159380E+02  0.73652086874E+02  0.21495338858E+03  0.00000000000E+00 0.  1.
         22    1    1    2    0    0  0.13373238239E+04 -0.28896650276E+03 -0.48858899722E+03  0.14528096427E+04  0.00000000000E+00 0.  1.
<mgrwt>
<rscale>  0 0.28865019E+04</rscale>
<asrwt>0</asrwt>
<pdfrwt beam="1">  1        2 0.22729445E+00 0.28865019E+04</pdfrwt>
<pdfrwt beam="2">  1       -2 0.21690429E+00 0.28865019E+04</pdfrwt>
<totfact> 0.11682024E+00</totfact>
</mgrwt>
</event>
<event>
 6    1  0.1934315E-005  0.2128052E+04  0.7818608E-02  0.8548986E-01
          1   -1    0    0  501    0  0.00000000000E+00  0.00000000000E+00  0.25651910713E+04  0.25651910713E+04  0.00000000000E+00 0.  1.
         -1   -1    0    0    0  501 -0.00000000000E+00 -0.00000000000E+00 -0.44135152066E+03  0.44135152066E+03  0.00000000000E+00 0. -1.
         23    2    1    2    0    0  0.71732312305E+02 -0.89060166371E+03  0.18747404601E+04  0.20789827799E+04  0.95920584162E+02 0.  0.
         11    1    3    3    0    0  0.49595756884E+02 -0.70309119952E+03  0.13833005653E+04  0.15525197029E+04  0.00000000000E+00 0. -1.
        -11    1    3    3    0    0  0.22136555422E+02 -0.18751046419E+03  0.49143989484E+03  0.52646307706E+03  0.00000000000E+00 0.  1.
         22    1    1    2    0    0 -0.71732312305E+02  0.89060166371E+03  0.24909909057E+03  0.92755981207E+03  0.00000000000E+00 0. -1.
<mgrwt>
<rscale>  0 0.21280517E+04</rscale>
<asrwt>0</asrwt>
<pdfrwt beam="1">  1        1 0.39464477E+00 0.21280517E+04</pdfrwt>
<pdfrwt beam="2">  1       -1 0.67900236E-01 0.21280517E+04</pdfrwt>
<totfact> 0.24594114E+00</totfact>
</mgrwt>
</event>
<event>
 6    1  0.1934315E-005  0.3202142E+04  0.7818608E-02  0.8188252E-01
         -2   -1    0    0    0  501 -0.00000000000E+00  0.00000000000E+00  0.10989407932E+04  0.10989407932E+04  0.00000000000E+00 0. -1.
          2   -1    0    0  501    0  0.00000000000E+00 -0.00000000000E+00 -0.23326362537E+04  0.23326362537E+04  0.00000000000E+00 0.  1.
         23    2    1    2    0    0  0.60106875663E+03  0.94282169973E+03  0.60878118566E+03  0.12763701893E+04  0.91158764475E+02 0.  0.
         11    1    3    3    0    0  0.36866524177E+03  0.64803674072E+03  0.38078307618E+03  0.83717467049E+03  0.00000000000E+00 0. -1.
        -11    1    3    3    0    0  0.23240351486E+03  0.29478495901E+03  0.22799810948E+03  0.43919551877E+03  0.00000000000E+00 0.  1.
         22    1    1    2    0    0 -0.60106875663E+03 -0.94282169973E+03 -0.18424766462E+04  0.21552068577E+04  0.00000000000E+00 0.  1.
<mgrwt>
<rscale>  0 0.32021425E+04</rscale>
<asrwt>0</asrwt>
<pdfrwt beam="1">  1        2 0.35886712E+00 0.32021425E+04</pdfrwt>
<pdfrwt beam="2">  1       -2 0.16906781E+00 0.32021425E+04</pdfrwt>
<totfact> 0.79144809E-01</totfact>
</mgrwt>
</event>
<event>
 6    1  0.1934315E-005  0.1653117E+04  0.7818608E-02  0.8788564E-01
         -2   -1    0    0    0  501 -0.00000000000E+00  0.00000000000E+00  0.10112039790E+04  0.10112039790E+04  0.00000000000E+00 0. -1.
          2   -1    0    0  501    0  0.00000000000E+00 -0.00000000000E+00 -0.67562947369E+03  0.67562947369E+03  0.00000000000E+00 0.  1.
         23    2    1    2    0    0 -0.61924447338E+03 -0.40062532377E+03  0.54376842131E+03  0.92047252300E+03  0.87299494467E+02 0.  0.
         13    1    3    3    0    0 -0.23214462800E+03 -0.15418933834E+03  0.25868672258E+03  0.38024242373E+03  0.00000000000E+00 0.  1.
        -13    1    3    3    0    0 -0.38709984538E+03 -0.24643598543E+03  0.28508169873E+03  0.54023009928E+03  0.00000000000E+00 0. -1.
         22    1    1    2    0    0  0.61924447338E+03  0.40062532377E+03 -0.20819391602E+03  0.76636092967E+03  0.00000000000E+00 0.  1.
<mgrwt>
<rscale>  0 0.16531173E+04</rscale>
<asrwt>0</asrwt>
<pdfrwt beam="1">  1        2 0.10394300E+00 0.16531173E+04</pdfrwt>
<pdfrwt beam="2">  1       -2 0.15556984E+00 0.16531173E+04</pdfrwt>
<totfact> 0.11115421E+01</totfact>
</mgrwt>
</event>
<event>
 6    1  0.1993320E-005  0.2446954E+04  0.7818608E-02  0.8422131E-01
          2   -1    0    0  501    0  0.00000000000E+00  0.00000000000E+00  0.17352297196E+04  0.17352297196E+04  0.00000000000E+00 0.  1.
         -2   -1    0    0    0  501 -0.00000000000E+00 -0.00000000000E+00 -0.86264992217E+03  0.86264992217E+03  0.00000000000E+00 0. -1.
         23    2    1    2    0    0  0.69319320188E+03  0.79895714608E+03  0.10860399496E+04  0.15187992124E+04  0.91754776707E+02 0.  0.
         11    1    3    3    0    0  0.47600476820E+03  0.59931851779E+03  0.74863237870E+03  0.10706136855E+04  0.00000000000E+00 0.  1.
        -11    1    3    3    0    0  0.21718843369E+03  0.19963862829E+03  0.33740757094E+03  0.44818552694E+03  0.00000000000E+00 0. -1.
         22    1    1    2    0    0 -0.69319320188E+03 -0.79895714608E+03 -0.21346015220E+03  0.10790804293E+04  0.00000000000E+00 0. -1.
<mgrwt>
<rscale>  0 0.24469538E+04</rscale>
<asrwt>0</asrwt>
<pdfrwt beam="1">  1        2 0.26695842E+00 0.24469538E+04</pdfrwt>
<pdfrwt beam="2">  1       -2 0.13271537E+00 0.24469538E+04</pdfrwt>
<totfact> 0.34607461E+00</totfact>
</mgrwt>
</event>
<event>
 6    1  0.1934315E-005  0.4390681E+03  0.7818608E-02  0.1031033E+00
         -2   -1    0    0    0  501 -0.00000000000E+00  0.00000000000E+00  0.10625756709E+03  0.10625756709E+03  0.00000000000E+00 0. -1.
          2   -1    0    0  501    0  0.00000000000E+00 -0.00000000000E+00 -0.45356964885E+03  0.45356964885E+03  0.00000000000E+00 0.  1.
         23    2    1    2    0    0  0.12659207161E+03 -0.50134703608E+02  0.22394151394E+02  0.16584531289E+03  0.92000699401E+02 0.  0.
         11    1    3    3    0    0  0.14112298561E+02 -0.27875764700E+02  0.39017175556E+02  0.49985550079E+02  0.00000000000E+00 0.  1.
        -11    1    3    3    0    0  0.11247977304E+03 -0.22258938908E+02 -0.16623024162E+02  0.11585976281E+03  0.00000000000E+00 0. -1.
         22    1    1    2    0    0 -0.12659207161E+03  0.50134703608E+02 -0.36970623316E+03  0.39398190305E+03  0.00000000000E+00 0.  1.
<mgrwt>
<rscale>  0 0.43906814E+03</rscale>
<asrwt>0</asrwt>
<pdfrwt beam="1">  1        2 0.69779945E-01 0.43906814E+03</pdfrwt>
<pdfrwt beam="2">  1       -2 0.16347318E-01 0.43906814E+03</pdfrwt>
<totfact> 0.20718103E+03</totfact>
</mgrwt>
</event>
<event>
 6    1  0.1934315E-005  0.1506637E+04  0.7818608E-02  0.8880052E-01
         -2   -1    0    0    0  501 -0.00000000000E+00  0.00000000000E+00  0.69390320964E+03  0.69390320964E+03  0.00000000000E+00 0. -1.
          2   -1    0    0  501    0  0.00000000000E+00 -0.00000000000E+00 -0.81782083363E+03  0.81782083363E+03  0.00000000000E+00 0.  1.
         23    2    1    2    0    0 -0.73165357537E+03 -0.16275375839E+03 -0.99847501127E+02  0.76180063983E+03  0.92547021204E+02 0.  0.
         13    1    3    3    0    0 -0.32535898602E+03 -0.54815196421E+02 -0.86976949553E+02  0.34121571666E+03  0.00000000000E+00 0. -1.
        -13    1    3    3    0    0 -0.40629458935E+03 -0.10793856197E+03 -0.12870551574E+02  0.42058492316E+03  0.00000000000E+00 0.  1.
         22    1    1    2    0    0  0.73165357537E+03  0.16275375839E+03 -0.24070122858E+02  0.74992340345E+03  0.00000000000E+00 0.  1.
<mgrwt>
<rscale>  0 0.15066367E+04</rscale>
<asrwt>0</asrwt>
<pdfrwt beam="1">  1        2 0.12581859E+00 0.15066367E+04</pdfrwt>
<pdfrwt beam="2">  1       -2 0.10675434E+00 0.15066367E+04</pdfrwt>
<totfact> 0.22816760E+01</totfact>
</mgrwt>
</event>
<event>
 6    1  0.1934315E-005  0.2981095E+04  0.7818608E-02  0.8249150E-01
          2   -1    0    0  501    0  0.00000000000E+00  0.00000000000E+00  0.23932897135E+04  0.23932897135E+04  0.00000000000E+00 0.  1.
         -2   -1    0    0    0  501 -0.00000000000E+00 -0.00000000000E+00 -0.92831719887E+03  0.92831719887E+03  0.00000000000E+00 0. -1.
         23    2    1    2    0    0 -0.14084906762E+04 -0.40067631207E+03  0.43062228830E+03  0.15287689714E+04  0.85507430183E+02 0.  0.
         11    1    3    3    0    0 -0.41040252902E+03 -0.15442974112E+03  0.14419476688E+03  0.46159604804E+03  0.00000000000E+00 0.  1.
        -11    1    3    3    0    0 -0.99808814717E+03 -0.24624657095E+03  0.28642752142E+03  0.10671729233E+04  0.00000000000E+00 0. -1.
         22    1    1    2    0    0  0.14084906762E+04  0.40067631207E+03  0.10343502263E+04  0.17928379410E+04  0.00000000000E+00 0.  1.
<mgrwt>
<rscale>  0 0.29810951E+04</rscale>
<asrwt>0</asrwt>
<pdfrwt beam="1">  1        2 0.36819842E+00 0.29810951E+04</pdfrwt>
<pdfrwt beam="2">  1       -2 0.14281803E+00 0.29810951E+04</pdfrwt>
<totfact> 0.11723129E+00</totfact>
</mgrwt>
</event>
<event>
 6    1  0.1934315E-005  0.1181535E+04  0.7818608E-02  0.9129175E-01
         -2   -1    0    0    0  501 -0.00000000000E+00  0.00000000000E+00  0.16788192791E+03  0.16788192791E+03  0.00000000000E+00 0. -1.
          2   -1    0    0  501    0  0.00000000000E+00 -0.00000000000E+00 -0.20788774592E+04  0.20788774592E+04  0.00000000000E+00 0.  1.
         23    2    1    2    0    0 -0.12719490517E+03 -0.39021667491E+03 -0.17598644003E+04  0.18093943039E+04  0.91309594149E+02 0.  0.
         11    1    3    3    0    0  0.12363404742E+02 -0.42287322770E+02 -0.23763214969E+03  0.24168183632E+03  0.00000000000E+00 0. -1.
        -11    1    3    3    0    0 -0.13955830991E+03 -0.34792935214E+03 -0.15222322507E+04  0.15677124675E+04  0.00000000000E+00 0.  1.
         22    1    1    2    0    0  0.12719490517E+03  0.39021667491E+03 -0.15113113091E+03  0.43736508320E+03  0.00000000000E+00 0. -1.
<mgrwt>
<rscale>  0 0.11815345E+04</rscale>
<asrwt>0</asrwt>
<pdfrwt beam="1">  1        2 0.31982732E+00 0.11815345E+04</pdfrwt>
<pdfrwt beam="2">  1       -2 0.25827988E-01 0.11815345E+04</pdfrwt>
<totfact> 0.80813624E+01</totfact>
</mgrwt>
</event>
<event>
 6    1  0.1934315E-005  0.4464368E+04  0.7818608E-02  0.7916905E-01
         -2   -1    0    0    0  501 -0.00000000000E+00  0.00000000000E+00  0.23867513346E+04  0.23867513346E+04  0.00000000000E+00 0. -1.
          2   -1    0    0  501    0  0.00000000000E+00 -0.00000000000E+00 -0.20876268760E+04  0.20876268760E+04  0.00000000000E+00 0.  1.
         23    2    1    2    0    0 -0.12411702230E+04 -0.47538941722E+03 -0.16465674313E+04  0.21180642352E+04  0.92266885104E+02 0.  0.
         13    1    3    3    0    0 -0.83081575460E+03 -0.35267512060E+03 -0.11616302205E+04  0.14710606133E+04  0.00000000000E+00 0. -1.
        -13    1    3    3    0    0 -0.41035446840E+03 -0.12271429662E+03 -0.48493721077E+03  0.64700362187E+03  0.00000000000E+00 0.  1.
         22    1    1    2    0    0  0.12411702230E+04  0.47538941722E+03  0.19456918899E+04  0.23563139754E+04  0.00000000000E+00 0. -1.
<mgrwt>
<rscale>  0 0.44643684E+04</rscale>
<asrwt>0</asrwt>
<pdfrwt beam="1">  1        2 0.32117337E+00 0.44643684E+04</pdfrwt>
<pdfrwt beam="2">  1       -2 0.36719251E+00 0.44643684E+04</pdfrwt>
<totfact> 0.54892220E-02</totfact>
</mgrwt>
</event>
<event>
 6    1  0.1934315E-005  0.5529843E+03  0.7818608E-02  0.1000806E+00
         -2   -1    0    0    0  501 -0.00000000000E+00  0.00000000000E+00  0.12596688314E+04  0.12596688314E+04  0.00000000000E+00 0. -1.
          2   -1    0    0  501    0  0.00000000000E+00 -0.00000000000E+00 -0.60688902225E+02  0.60688902225E+02  0.00000000000E+00 0.  1.
         23    2    1    2    0    0 -0.22860536735E+03 -0.12583271747E+03  0.77394740217E+03  0.82161237196E+03  0.89207744394E+02 0.  0.
         11    1    3    3    0    0 -0.15099792900E+03 -0.12240477631E+03  0.48764227638E+03  0.52495551577E+03  0.00000000000E+00 0.  1.
        -11    1    3    3    0    0 -0.77607438351E+02 -0.34279411580E+01  0.28630512579E+03  0.29665685618E+03  0.00000000000E+00 0. -1.
         22    1    1    2    0    0  0.22860536735E+03  0.12583271747E+03  0.42503252697E+03  0.49874536163E+03  0.00000000000E+00 0.  1.
<mgrwt>
<rscale>  0 0.55298433E+03</rscale>
<asrwt>0</asrwt>
<pdfrwt beam="1">  1        2 0.93367551E-02 0.55298433E+03</pdfrwt>
<pdfrwt beam="2">  1       -2 0.19379518E+00 0.55298433E+03</pdfrwt>
<totfact> 0.10883856E+02</totfact>
</mgrwt>
</event>
<event>
 6    1  0.1934315E-005  0.2503023E+04  0.7818608E-02  0.8401909E-01
         -2   -1    0    0    0  501 -0.00000000000E+00  0.00000000000E+00  0.60356784429E+03  0.60356784429E+03  0.00000000000E+00 0. -1.
          2   -1    0    0  501    0  0.00000000000E+00 -0.00000000000E+00 -0.25950371599E+04  0.25950371599E+04  0.00000000000E+00 0.  1.
         23    2    1    2    0    0  0.49214892625E+03 -0.37950878034E+03 -0.23827803581E+04  0.24641924416E+04  0.91458593578E+02 0.  0.
         13    1    3    3    0    0  0.10399729704E+02  0.50723672130E+01 -0.52356511469E+02  0.53619843157E+02  0.00000000000E+00 0. -1.
        -13    1    3    3    0    0  0.48174919654E+03 -0.38458114755E+03 -0.23304238467E+04  0.24105725985E+04  0.00000000000E+00 0.  1.
         22    1    1    2    0    0 -0.49214892625E+03  0.37950878034E+03  0.39131104255E+03  0.73441256252E+03  0.00000000000E+00 0. -1.
<mgrwt>
<rscale>  0 0.25030230E+04</rscale>
<asrwt>0</asrwt>
<pdfrwt beam="1">  1        2 0.39923648E+00 0.25030230E+04</pdfrwt>
<pdfrwt beam="2">  1       -2 0.92856593E-01 0.25030230E+04</pdfrwt>
<totfact> 0.26848508E+00</totfact>
</mgrwt>
</event>
<event>
 6    1  0.1934315E-005  0.1878621E+04  0.7818608E-02  0.8665572E-01
         -2   -1    0    0    0  501 -0.00000000000E+00  0.00000000000E+00  0.18714614854E+04  0.18714614854E+04  0.00000000000E+00 0. -1.
          2   -1    0    0  501    0  0.00000000000E+00 -0.00000000000E+00 -0.47145195783E+03  0.47145195783E+03  0.00000000000E+00 0.  1.
         23    2    1    2    0    0  0.76593804845E+03 -0.35098229577E+03  0.12138198471E+04  0.14800598849E+04  0.85842738984E+02 0.  0.
         13    1    3    3    0    0  0.49035960953E+03 -0.21897011063E+03  0.84352195304E+03  0.99996487001E+03  0.00000000000E+00 0. -1.
        -13    1    3    3    0    0  0.27557843892E+03 -0.13201218514E+03  0.37029789403E+03  0.48009501492E+03  0.00000000000E+00 0.  1.
         22    1    1    2    0    0 -0.76593804845E+03  0.35098229577E+03  0.18618968054E+03  0.86285355834E+03  0.00000000000E+00 0.  1.
<mgrwt>
<rscale>  0 0.18786210E+04</rscale>
<asrwt>0</asrwt>
<pdfrwt beam="1">  1        2 0.72531071E-01 0.18786210E+04</pdfrwt>
<pdfrwt beam="2">  1       -2 0.28791715E+00 0.18786210E+04</pdfrwt>
<totfact> 0.23325118E+00</totfact>
</mgrwt>
</event>
<event>
 6    1  0.1934315E-005  0.2848112E+04  0.7818608E-02  0.8288485E-01
         -2   -1    0    0    0  501 -0.00000000000E+00  0.00000000000E+00  0.94779663211E+03  0.94779663211E+03  0.00000000000E+00 0. -1.
          2   -1    0    0  501    0  0.00000000000E+00 -0.00000000000E+00 -0.21396321783E+04  0.21396321783E+04  0.00000000000E+00 0.  1.
         23    2    1    2    0    0 -0.13258105677E+04  0.51435181248E+03 -0.63779143006E+03  0.15612255700E+04  0.91191686681E+02 0.  0.
         13    1    3    3    0    0 -0.24411707347E+03  0.76952440004E+02 -0.81535967392E+02  0.26863160194E+03  0.00000000000E+00 0.  1.
        -13    1    3    3    0    0 -0.10816934942E+04  0.43739937248E+03 -0.55625546267E+03  0.12925939680E+04  0.00000000000E+00 0. -1.
         22    1    1    2    0    0  0.13258105677E+04 -0.51435181248E+03 -0.55404411610E+03  0.15262032404E+04  0.00000000000E+00 0. -1.
<mgrwt>
<rscale>  0 0.28481125E+04</rscale>
<asrwt>0</asrwt>
<pdfrwt beam="1">  1        2 0.32917418E+00 0.28481125E+04</pdfrwt>
<pdfrwt beam="2">  1       -2 0.14581487E+00 0.28481125E+04</pdfrwt>
<totfact> 0.15624821E+00</totfact>
</mgrwt>
</event>
<event>
 6    1  0.2039564E-005  0.3864676E+04  0.7818608E-02  0.8032416E-01
          2   -1    0    0  501    0  0.00000000000E+00  0.00000000000E+00  0.31970450890E+04  0.31970450890E+04  0.00000000000E+00 0.  1.
         -2   -1    0    0    0  501 -0.00000000000E+00 -0.00000000000E+00 -0.11679315350E+04  0.11679315350E+04  0.00000000000E+00 0. -1.
         23    2    1    2    0    0 -0.88586806427E+03 -0.17158211200E+04  0.98099034114E+03  0.21678497244E+04  0.91793437217E+02 0.  0.
         11    1    3    3    0    0 -0.19359144075E+03 -0.34792897622E+03  0.16355315195E+03  0.43044378487E+03  0.00000000000E+00 0.  1.
        -11    1    3    3    0    0 -0.69227662352E+03 -0.13678921438E+04  0.81743718919E+03  0.17374059396E+04  0.00000000000E+00 0. -1.
         22    1    1    2    0    0  0.88586806427E+03  0.17158211200E+04  0.10481232129E+04  0.21971268995E+04  0.00000000000E+00 0.  1.
<mgrwt>
<rscale>  0 0.38646758E+04</rscale>
<asrwt>0</asrwt>
<pdfrwt beam="1">  1        2 0.49185309E+00 0.38646758E+04</pdfrwt>
<pdfrwt beam="2">  1       -2 0.17968178E+00 0.38646758E+04</pdfrwt>
<totfact> 0.18914013E-01</totfact>
</mgrwt>
</event>
<event>
 6    1  0.1934315E-005  0.1952793E+04  0.7818608E-02  0.8629015E-01
          2   -1    0    0  501    0  0.00000000000E+00  0.00000000000E+00  0.24023757674E+04  0.24023757674E+04  0.00000000000E+00 0.  1.
         -2   -1    0    0    0  501 -0.00000000000E+00 -0.00000000000E+00 -0.39683648335E+03  0.39683648335E+03  0.00000000000E+00 0. -1.
         23    2    1    2    0    0  0.68520299931E+03  0.68485200684E+03  0.11537904672E+04  0.15092504418E+04  0.89883437968E+02 0.  0.
         11    1    3    3    0    0  0.40655881230E+03  0.34353199227E+03  0.63938169750E+03  0.83193344245E+03  0.00000000000E+00 0. -1.
        -11    1    3    3    0    0  0.27864418702E+03  0.34132001457E+03  0.51440876968E+03  0.67731699936E+03  0.00000000000E+00 0.  1.
         22    1    1    2    0    0 -0.68520299931E+03 -0.68485200684E+03  0.85174881692E+03  0.12899618090E+04  0.00000000000E+00 0.  1.
<mgrwt>
<rscale>  0 0.19527932E+04</rscale>
<asrwt>0</asrwt>
<pdfrwt beam="1">  1        2 0.36959626E+00 0.19527932E+04</pdfrwt>
<pdfrwt beam="2">  1       -2 0.61051768E-01 0.19527932E+04</pdfrwt>
<totfact> 0.92299135E+00</totfact>
</mgrwt>
</event>
<event>
 6    1  0.1934315E-005  0.2544804E+04  0.7818608E-02  0.8387195E-01
          2   -1    0    0  501    0  0.00000000000E+00  0.00000000000E+00  0.15705376179E+04  0.15705376179E+04  0.00000000000E+00 0.  1.
         -2   -1    0    0    0  501 -0.00000000000E+00 -0.00000000000E+00 -0.10308617689E+04  0.10308617689E+04  0.00000000000E+00 0. -1.
         23    2    1    2    0    0 -0.77193956829E+03 -0.92072418637E+03  0.69282051590E+03  0.13901698407E+04  0.94594894971E+02 0.  0.
         11    1    3    3    0    0 -0.49969318638E+03 -0.66404454905E+03  0.47584171031E+03  0.95763969054E+03  0.00000000000E+00 0.  1.
        -11    1    3    3    0    0 -0.27224638191E+03 -0.25667963732E+03  0.21697880559E+03  0.43253015011E+03  0.00000000000E+00 0. -1.
         22    1    1    2    0    0  0.77193956829E+03  0.92072418637E+03 -0.15314466682E+03  0.12112295461E+04  0.00000000000E+00 0. -1.
<mgrwt>
<rscale>  0 0.25448043E+04</rscale>
<asrwt>0</asrwt>
<pdfrwt beam="1">  1        2 0.24162117E+00 0.25448043E+04</pdfrwt>
<pdfrwt beam="2">  1       -2 0.15859412E+00 0.25448043E+04</pdfrwt>
<totfact> 0.26563715E+00</totfact>
</mgrwt>
</event>
<event>
 6    1  0.1934315E-005  0.4333691E+04  0.7818608E-02  0.7940417E-01
          2   -1    0    0  501    0  0.00000000000E+00  0.00000000000E+00  0.42646538437E+04  0.42646538437E+04  0.00000000000E+00 0.  1.
         -2   -1    0    0    0  501 -0.00000000000E+00 -0.00000000000E+00 -0.11009615371E+04  0.11009615371E+04  0.00000000000E+00 0. -1.
         23    2    1    2    0    0 -0.15113981831E+04 -0.13577347218E+04  0.25120991273E+04  0.32319936444E+04  0.85865297027E+02 0.  0.
         13    1    3    3    0    0 -0.76282892058E+03 -0.62763908949E+03  0.12233318213E+04  0.15723802129E+04  0.00000000000E+00 0.  1.
        -13    1    3    3    0    0 -0.74856926254E+03 -0.73009563235E+03  0.12887673059E+04  0.16596134315E+04  0.00000000000E+00 0. -1.
         22    1    1    2    0    0  0.15113981831E+04  0.13577347218E+04  0.65159317935E+03  0.21336217364E+04  0.00000000000E+00 0.  1.
<mgrwt>
<rscale>  0 0.43336912E+04</rscale>
<asrwt>0</asrwt>
<pdfrwt beam="1">  1        2 0.65610058E+00 0.43336912E+04</pdfrwt>
<pdfrwt beam="2">  1       -2 0.16937870E+00 0.43336912E+04</pdfrwt>
<totfact> 0.33534696E-02</totfact>
</mgrwt>
</event>
<event>
 6    1  0.2187251E-005  0.1897228E+04  0.7818608E-02  0.8656237E-01
          2   -1    0    0  501    0  0.00000000000E+00  0.00000000000E+00  0.16291765582E+04  0.16291765582E+04  0.00000000000E+00 0. -1.
         -2   -1    0    0    0  501 -0.00000000000E+00 -0.00000000000E+00 -0.55234558064E+03  0.55234558064E+03  0.00000000000E+00 0.  1.
         23    2    1    2    0    0 -0.40913346116E+03 -0.35590643883E+03  0.14317317662E+04  0.15334371505E+04  0.86683689980E+02 0.  0.
         11    1    3    3    0    0 -0.19208980165E+03 -0.22004806278E+03  0.71650591341E+03  0.77375730418E+03  0.00000000000E+00 0. -1.
        -11    1    3    3    0    0 -0.21704365950E+03 -0.13585837605E+03  0.71522585276E+03  0.75967984634E+03  0.00000000000E+00 0.  1.
         22    1    1    2    0    0  0.40913346116E+03  0.35590643883E+03 -0.35490078866E+03  0.64808498827E+03  0.00000000000E+00 0.  1.
<mgrwt>
<rscale>  0 0.18972279E+04</rscale>
<asrwt>0</asrwt>
<pdfrwt beam="1">  1        2 0.25064255E+00 0.18972279E+04</pdfrwt>
<pdfrwt beam="2">  1       -2 0.84976244E-01 0.18972279E+04</pdfrwt>
<totfact> 0.12130673E+01</totfact>
</mgrwt>
</event>
<event>
 6    1  0.1934315E-005  0.1926420E+04  0.7818608E-02  0.8641816E-01
         -2   -1    0    0    0  501 -0.00000000000E+00  0.00000000000E+00  0.12167932752E+04  0.12167932752E+04  0.00000000000E+00 0. -1.
          2   -1    0    0  501    0  0.00000000000E+00 -0.00000000000E+00 -0.76247455982E+03  0.76247455982E+03  0.00000000000E+00 0.  1.
         23    2    1    2    0    0 -0.87800930362E+03 -0.30211331179E+03 -0.27155606573E+02  0.93332791653E+03  0.90502941366E+02 0.  0.
         13    1    3    3    0    0 -0.84600634677E+03 -0.27293272725E+03 -0.33404911468E+02  0.88957006497E+03  0.00000000000E+00 0.  1.
        -13    1    3    3    0    0 -0.32002956849E+02 -0.29180584540E+02  0.62493048942E+01  0.43757851556E+02  0.00000000000E+00 0. -1.
         22    1    1    2    0    0  0.87800930362E+03  0.30211331179E+03  0.48147432196E+03  0.10459399185E+04  0.00000000000E+00 0. -1.
<mgrwt>
<rscale>  0 0.19264204E+04</rscale>
<asrwt>0</asrwt>
<pdfrwt beam="1">  1        2 0.11730378E+00 0.19264204E+04</pdfrwt>
<pdfrwt beam="2">  1       -2 0.18719897E+00 0.19264204E+04</pdfrwt>
<totfact> 0.55497025E+00</totfact>
</mgrwt>
</event>
<event>
 6    1  0.1934315E-005  0.2311947E+04  0.7818608E-02  0.8473226E-01
         -2   -1    0    0    0  501 -0.00000000000E+00  0.00000000000E+00  0.54892383358E+03  0.54892383358E+03  0.00000000000E+00 0. -1.
          2   -1    0    0  501    0  0.00000000000E+00 -0.00000000000E+00 -0.24343532299E+04  0.24343532299E+04  0.00000000000E+00 0.  1.
         23    2    1    2    0    0 -0.58657006294E+03  0.42835498298E+03 -0.21016332804E+04  0.22254535024E+04  0.90710616394E+02 0.  0.
         13    1    3    3    0    0 -0.32779242180E+03  0.27119097439E+03 -0.11147585576E+04  0.11931802287E+04  0.00000000000E+00 0. -1.
        -13    1    3    3    0    0 -0.25877764114E+03  0.15716400859E+03 -0.98687472278E+03  0.10322732737E+04  0.00000000000E+00 0.  1.
         22    1    1    2    0    0  0.58657006294E+03 -0.42835498298E+03  0.21620388410E+03  0.75782356105E+03  0.00000000000E+00 0. -1.
<mgrwt>
<rscale>  0 0.23119468E+04</rscale>
<asrwt>0</asrwt>
<pdfrwt beam="1">  1        2 0.37451589E+00 0.23119468E+04</pdfrwt>
<pdfrwt beam="2">  1       -2 0.84449820E-01 0.23119468E+04</pdfrwt>
<totfact> 0.42072182E+00</totfact>
</mgrwt>
</event>
<event>
 6    1  0.1934315E-005  0.1363991E+04  0.7818608E-02  0.8980304E-01
         -2   -1    0    0    0  501 -0.00000000000E+00  0.00000000000E+00  0.34588485500E+03  0.34588485500E+03  0.00000000000E+00 0. -1.
          2   -1    0    0  501    0  0.00000000000E+00 -0.00000000000E+00 -0.13447186015E+04  0.13447186015E+04  0.00000000000E+00 0.  1.
         23    2    1    2    0    0 -0.75283234398E+02  0.27630154143E+03 -0.12646130459E+04  0.12999005731E+04  0.92115344981E+02 0.  0.
         13    1    3    3    0    0 -0.37581313737E+02  0.80098768376E+02 -0.58071826345E+03  0.58741967055E+03  0.00000000000E+00 0.  1.
        -13    1    3    3    0    0 -0.37701920661E+02  0.19620277305E+03 -0.68389478245E+03  0.71248090250E+03  0.00000000000E+00 0. -1.
         22    1    1    2    0    0  0.75283234398E+02 -0.27630154143E+03  0.26577929938E+03  0.39070288347E+03  0.00000000000E+00 0. -1.
<mgrwt>
<rscale>  0 0.13639909E+04</rscale>
<asrwt>0</asrwt>
<pdfrwt beam="1">  1        2 0.20687978E+00 0.13639909E+04</pdfrwt>
<pdfrwt beam="2">  1       -2 0.53213055E-01 0.13639909E+04</pdfrwt>
<totfact> 0.50580359E+01</totfact>
</mgrwt>
</event>
<event>
 6    1  0.1934315E-005  0.2465843E+04  0.7818608E-02  0.8415256E-01
          2   -1    0    0  501    0  0.00000000000E+00  0.00000000000E+00  0.58070994953E+03  0.58070994953E+03  0.00000000000E+00 0.  1.
         -2   -1    0    0    0  501 -0.00000000000E+00 -0.00000000000E+00 -0.26176505553E+04  0.26176505553E+04  0.00000000000E+00 0. -1.
         23    2    1    2    0    0  0.63259223909E+03  0.89125449917E+03 -0.28447240175E+03  0.11330149334E+04  0.91053658486E+02 0.  0.
         11    1    3    3    0    0  0.57200235807E+03  0.77732385581E+03 -0.27555050578E+03  0.10036668549E+04  0.00000000000E+00 0. -1.
        -11    1    3    3    0    0  0.60589881018E+02  0.11393064337E+03 -0.89218959697E+01  0.12934807848E+03  0.00000000000E+00 0.  1.
         22    1    1    2    0    0 -0.63259223909E+03 -0.89125449917E+03 -0.17524682040E+04  0.20653455714E+04  0.00000000000E+00 0. -1.
<mgrwt>
<rscale>  0 0.24658432E+04</rscale>
<asrwt>0</asrwt>
<pdfrwt beam="1">  1        2 0.89339994E-01 0.24658432E+04</pdfrwt>
<pdfrwt beam="2">  1       -2 0.40271546E+00 0.24658432E+04</pdfrwt>
<totfact> 0.32889000E-01</totfact>
</mgrwt>
</event>
<event>
 6    1  0.1934315E-005  0.1805372E+04  0.7818608E-02  0.8703448E-01
         -2   -1    0    0    0  501 -0.00000000000E+00  0.00000000000E+00  0.35233848405E+03  0.35233848405E+03  0.00000000000E+00 0. -1.
          2   -1    0    0  501    0  0.00000000000E+00 -0.00000000000E+00 -0.23126685487E+04  0.23126685487E+04  0.00000000000E+00 0.  1.
         23    2    1    2    0    0  0.65645606182E+03 -0.54528371291E+03 -0.55946298627E+03  0.10246724754E+04  0.93198499161E+02 0.  0.
         13    1    3    3    0    0  0.23133824753E+03 -0.19902740058E+03 -0.14800300829E+03  0.33916689316E+03  0.00000000000E+00 0.  1.
        -13    1    3    3    0    0  0.42511781429E+03 -0.34625631233E+03 -0.41145997798E+03  0.68550558228E+03  0.00000000000E+00 0. -1.
         22    1    1    2    0    0 -0.65645606182E+03  0.54528371291E+03 -0.14008670784E+04  0.16403345574E+04  0.00000000000E+00 0.  1.
<mgrwt>
<rscale>  0 0.18053721E+04</rscale>
<asrwt>0</asrwt>
<pdfrwt beam="1">  1        2 0.35579515E+00 0.18053721E+04</pdfrwt>
<pdfrwt beam="2">  1       -2 0.54205923E-01 0.18053721E+04</pdfrwt>
<totfact> 0.13491145E+01</totfact>
</mgrwt>
</event>
<event>
 6    1  0.1934315E-005  0.7062221E+03  0.7818608E-02  0.9706650E-01
          2   -1    0    0  501    0  0.00000000000E+00  0.00000000000E+00  0.75476046924E+03  0.75476046924E+03  0.00000000000E+00 0.  1.
         -2   -1    0    0    0  501 -0.00000000000E+00 -0.00000000000E+00 -0.16520129263E+03  0.16520129263E+03  0.00000000000E+00 0. -1.
         23    2    1    2    0    0  0.26381425318E+02  0.20370512508E+03  0.66441784763E+03  0.70133976341E+03  0.90744861534E+02 0.  0.
         13    1    3    3    0    0 -0.21464071120E+00  0.16226323669E+03  0.38788870370E+03  0.42046052194E+03  0.00000000000E+00 0. -1.
        -13    1    3    3    0    0  0.26596066030E+02  0.41441888385E+02  0.27652914393E+03  0.28087924146E+03  0.00000000000E+00 0.  1.
         22    1    1    2    0    0 -0.26381425318E+02 -0.20370512508E+03 -0.74858671022E+02  0.21862199846E+03  0.00000000000E+00 0. -1.
<mgrwt>
<rscale>  0 0.70622208E+03</rscale>
<asrwt>0</asrwt>
<pdfrwt beam="1">  1        2 0.11611699E+00 0.70622208E+03</pdfrwt>
<pdfrwt beam="2">  1       -2 0.25415584E-01 0.70622208E+03</pdfrwt>
<totfact> 0.52042276E+02</totfact>
</mgrwt>
</event>
<event>
 6    1  0.1934315E-005  0.1641341E+04  0.7818608E-02  0.8795545E-01
          2   -1    0    0  501    0  0.00000000000E+00  0.00000000000E+00  0.47034687402E+03  0.47034687402E+03  0.00000000000E+00 0.  1.
         -2   -1    0    0    0  501 -0.00000000000E+00 -0.00000000000E+00 -0.14319226083E+04  0.14319226083E+04  0.00000000000E+00 0. -1.
         23    2    1    2    0    0  0.57073445799E+03 -0.51401473449E+03 -0.80887341378E+03  0.11191558459E+04  0.91019992925E+02 0.  0.
         13    1    3    3    0    0  0.22474102942E+03 -0.23523963475E+03 -0.28786927011E+03  0.43441332017E+03  0.00000000000E+00 0.  1.
        -13    1    3    3    0    0  0.34599342857E+03 -0.27877509974E+03 -0.52100414367E+03  0.68474252575E+03  0.00000000000E+00 0. -1.
         22    1    1    2    0    0 -0.57073445799E+03  0.51401473449E+03 -0.15270232046E+03  0.78311363638E+03  0.00000000000E+00 0.  1.
<mgrwt>
<rscale>  0 0.16413413E+04</rscale>
<asrwt>0</asrwt>
<pdfrwt beam="1">  1        2 0.72361058E-01 0.16413413E+04</pdfrwt>
<pdfrwt beam="2">  1       -2 0.22029579E+00 0.16413413E+04</pdfrwt>
<totfact> 0.62138102E+00</totfact>
</mgrwt>
</event>
<event>
 6    1  0.1934315E-005  0.1978574E+04  0.7818608E-02  0.8616704E-01
          2   -1    0    0  501    0  0.00000000000E+00  0.00000000000E+00  0.10347180005E+04  0.10347180005E+04  0.00000000000E+00 0.  1.
         -2   -1    0    0    0  501 -0.00000000000E+00 -0.00000000000E+00 -0.94585113671E+03  0.94585113671E+03  0.00000000000E+00 0. -1.
         23    2    1    2    0    0 -0.80254852770E+03  0.41976638321E+03 -0.34845226738E+03  0.97481768766E+03  0.92534241025E+02 0.  0.
         11    1    3    3    0    0 -0.41257491009E+03  0.25821004335E+03 -0.21524097463E+03  0.53218338952E+03  0.00000000000E+00 0.  1.
        -11    1    3    3    0    0 -0.38997361760E+03  0.16155633986E+03 -0.13321129275E+03  0.44263429814E+03  0.00000000000E+00 0. -1.
         22    1    1    2    0    0  0.80254852770E+03 -0.41976638321E+03  0.43731913118E+03  0.10057514496E+04  0.00000000000E+00 0.  1.
<mgrwt>
<rscale>  0 0.19785744E+04</rscale>
<asrwt>0</asrwt>
<pdfrwt beam="1">  1        2 0.15918738E+00 0.19785744E+04</pdfrwt>
<pdfrwt beam="2">  1       -2 0.14551556E+00 0.19785744E+04</pdfrwt>
<totfact> 0.72309805E+00</totfact>
</mgrwt>
</event>
<event>
 6    1  0.1934315E-005  0.2824185E+04  0.7818608E-02  0.8295799E-01
         -2   -1    0    0    0  501 -0.00000000000E+00  0.00000000000E+00  0.79249087336E+03  0.79249087336E+03  0.00000000000E+00 0. -1.
          2   -1    0    0  501    0  0.00000000000E+00 -0.00000000000E+00 -0.25161230660E+04  0.25161230660E+04  0.00000000000E+00 0.  1.
         23    2    1    2    0    0 -0.11884903388E+04  0.38014013584E+03 -0.91895149718E+02  0.12544519239E+04  0.90493660051E+02 0.  0.
         13    1    3    3    0    0 -0.60351408266E+02  0.41061331841E+02 -0.18154847783E+01  0.73017952842E+02  0.00000000000E+00 0. -1.
        -13    1    3    3    0    0 -0.11281389306E+04  0.33907880400E+03 -0.90079664940E+02  0.11814339711E+04  0.00000000000E+00 0.  1.
         22    1    1    2    0    0  0.11884903388E+04 -0.38014013584E+03 -0.16317370429E+04  0.20541620154E+04  0.00000000000E+00 0.  1.
<mgrwt>
<rscale>  0 0.28241845E+04</rscale>
<asrwt>0</asrwt>
<pdfrwt beam="1">  1        2 0.38709585E+00 0.28241845E+04</pdfrwt>
<pdfrwt beam="2">  1       -2 0.12192168E+00 0.28241845E+04</pdfrwt>
<totfact> 0.15096925E+00</totfact>
</mgrwt>
</event>
<event>
 6    1  0.1934315E-005  0.2404852E+04  0.7818608E-02  0.8437689E-01
         -2   -1    0    0    0  501 -0.00000000000E+00  0.00000000000E+00  0.13382875814E+04  0.13382875814E+04  0.00000000000E+00 0. -1.
          2   -1    0    0  501    0  0.00000000000E+00 -0.00000000000E+00 -0.10803570969E+04  0.10803570969E+04  0.00000000000E+00 0.  1.
         23    2    1    2    0    0  0.39193499146E+01  0.27771770086E+03  0.13039118730E+04  0.13364157064E+04  0.93157314029E+02 0.  0.
         13    1    3    3    0    0 -0.10550176619E+02  0.27051791770E+03  0.11397950970E+04  0.11715050632E+04  0.00000000000E+00 0.  1.
        -13    1    3    3    0    0  0.14469526533E+02  0.71997831617E+01  0.16411677597E+03  0.16491064317E+03  0.00000000000E+00 0. -1.
         22    1    1    2    0    0 -0.39193499146E+01 -0.27771770086E+03 -0.10459813885E+04  0.10822289719E+04  0.00000000000E+00 0.  1.
<mgrwt>
<rscale>  0 0.24048522E+04</rscale>
<asrwt>0</asrwt>
<pdfrwt beam="1">  1        2 0.16620878E+00 0.24048522E+04</pdfrwt>
<pdfrwt beam="2">  1       -2 0.20589040E+00 0.24048522E+04</pdfrwt>
<totfact> 0.24512864E+00</totfact>
</mgrwt>
</event>
<event>
 6    1  0.1934315E-005  0.2415242E+04  0.7818608E-02  0.8433819E-01
         -2   -1    0    0    0  501 -0.00000000000E+00  0.00000000000E+00  0.94495645713E+03  0.94495645713E+03  0.00000000000E+00 0. -1.
          2   -1    0    0  501    0  0.00000000000E+00 -0.00000000000E+00 -0.15432975092E+04  0.15432975092E+04  0.00000000000E+00 0.  1.
         23    2    1    2    0    0  0.18314823427E+03 -0.34742706532E+03  0.87502265299E+03  0.96344268331E+03  0.91149982759E+02 0.  0.
         13    1    3    3    0    0  0.63264258700E+02 -0.10287919745E+03  0.37620827461E+03  0.39511917390E+03  0.00000000000E+00 0. -1.
        -13    1    3    3    0    0  0.11988397557E+03 -0.24454786787E+03  0.49881437837E+03  0.56832350941E+03  0.00000000000E+00 0.  1.
         22    1    1    2    0    0 -0.18314823427E+03  0.34742706532E+03 -0.14733637050E+04  0.15248112830E+04  0.00000000000E+00 0.  1.
<mgrwt>
<rscale>  0 0.24152424E+04</rscale>
<asrwt>0</asrwt>
<pdfrwt beam="1">  1        2 0.23743038E+00 0.24152424E+04</pdfrwt>
<pdfrwt beam="2">  1       -2 0.14537792E+00 0.24152424E+04</pdfrwt>
<totfact> 0.35079485E+00</totfact>
</mgrwt>
</event>
<event>
 6    1  0.1934315E-005  0.1377693E+04  0.7818608E-02  0.8970126E-01
          2   -1    0    0  501    0  0.00000000000E+00  0.00000000000E+00  0.32573519185E+04  0.32573519185E+04  0.00000000000E+00 0.  1.
         -2   -1    0    0    0  501 -0.00000000000E+00 -0.00000000000E+00 -0.14567334390E+03  0.14567334390E+03  0.00000000000E+00 0. -1.
         23    2    1    2    0    0  0.10517532118E+03  0.62332416712E+03  0.22200861673E+04  0.23100788382E+04  0.89926541082E+02 0.  0.
         11    1    3    3    0    0  0.11403335490E+03  0.42677315177E+03  0.15395943954E+04  0.16017146535E+04  0.00000000000E+00 0.  1.
        -11    1    3    3    0    0 -0.88580337166E+01  0.19655101534E+03  0.68049177193E+03  0.70836418462E+03  0.00000000000E+00 0. -1.
         22    1    1    2    0    0 -0.10517532118E+03 -0.62332416712E+03  0.89159240730E+03  0.10929464242E+04  0.00000000000E+00 0. -1.
<mgrwt>
<rscale>  0 0.13776928E+04</rscale>
<asrwt>0</asrwt>
<pdfrwt beam="1">  1        2 0.50113101E+00 0.13776928E+04</pdfrwt>
<pdfrwt beam="2">  1       -2 0.22411286E-01 0.13776928E+04</pdfrwt>
<totfact> 0.20523918E+01</totfact>
</mgrwt>
</event>
<event>
 6    1  0.1934315E-005  0.1153669E+04  0.7818608E-02  0.9154405E-01
          2   -1    0    0  501    0  0.00000000000E+00  0.00000000000E+00  0.90736446244E+03  0.90736446244E+03  0.00000000000E+00 0.  1.
         -2   -1    0    0    0  501 -0.00000000000E+00 -0.00000000000E+00 -0.36670856891E+03  0.36670856891E+03  0.00000000000E+00 0. -1.
         23    2    1    2    0    0 -0.34884166294E+03  0.34622137404E+03  0.59750049061E+03  0.77930939702E+03  0.93576462645E+02 0.  0.
         11    1    3    3    0    0 -0.11865125081E+03  0.17399765199E+03  0.28933447460E+03  0.35786553398E+03  0.00000000000E+00 0.  1.
        -11    1    3    3    0    0 -0.23019041213E+03  0.17222372205E+03  0.30816601601E+03  0.42144386304E+03  0.00000000000E+00 0. -1.
         22    1    1    2    0    0  0.34884166294E+03 -0.34622137404E+03 -0.56844597084E+02  0.49476363433E+03  0.00000000000E+00 0. -1.
<mgrwt>
<rscale>  0 0.11536695E+04</rscale>
<asrwt>0</asrwt>
<pdfrwt beam="1">  1        2 0.13959453E+00 0.11536695E+04</pdfrwt>
<pdfrwt beam="2">  1       -2 0.56416703E-01 0.11536695E+04</pdfrwt>
<totfact> 0.84587359E+01</totfact>
</mgrwt>
</event>
<event>
 6    1  0.1934315E-005  0.1828265E+04  0.7818608E-02  0.8691411E-01
         -2   -1    0    0    0  501 -0.00000000000E+00  0.00000000000E+00  0.46504000703E+03  0.46504000703E+03  0.00000000000E+00 0. -1.
          2   -1    0    0  501    0  0.00000000000E+00 -0.00000000000E+00 -0.17969170427E+04  0.17969170427E+04  0.00000000000E+00 0.  1.
         23    2    1    2    0    0  0.39091362433E+03 -0.81683772459E+03 -0.79511567453E+03  0.12092699695E+04  0.10043701170E+03 0.  0.
         13    1    3    3    0    0  0.27246011137E+03 -0.64390482690E+03 -0.64702776610E+03  0.95262420109E+03  0.00000000000E+00 0. -1.
        -13    1    3    3    0    0  0.11845351295E+03 -0.17293289769E+03 -0.14808790843E+03  0.25664576844E+03  0.00000000000E+00 0.  1.
         22    1    1    2    0    0 -0.39091362433E+03  0.81683772459E+03 -0.53676136114E+03  0.10526870802E+04  0.00000000000E+00 0. -1.
<mgrwt>
<rscale>  0 0.18282651E+04</rscale>
<asrwt>0</asrwt>
<pdfrwt beam="1">  1        2 0.27644878E+00 0.18282651E+04</pdfrwt>
<pdfrwt beam="2">  1       -2 0.71544616E-01 0.18282651E+04</pdfrwt>
<totfact> 0.14458520E+01</totfact>
</mgrwt>
</event>
<event>
 6    1  0.1934315E-005  0.3042813E+04  0.7818608E-02  0.8231610E-01
         -2   -1    0    0    0  501 -0.00000000000E+00  0.00000000000E+00  0.13275949128E+04  0.13275949128E+04  0.00000000000E+00 0. -1.
          2   -1    0    0  501    0  0.00000000000E+00 -0.00000000000E+00 -0.17435124927E+04  0.17435124927E+04  0.00000000000E+00 0.  1.
         23    2    1    2    0    0  0.78932208514E+03  0.68788313067E+03 -0.13203630233E+04  0.16875489081E+04  0.90830877011E+02 0.  0.
         11    1    3    3    0    0  0.14172365682E+03  0.17151270112E+03 -0.26698950727E+03  0.34754222555E+03  0.00000000000E+00 0.  1.
        -11    1    3    3    0    0  0.64759842832E+03  0.51637042955E+03 -0.10533735161E+04  0.13400066825E+04  0.00000000000E+00 0. -1.
         22    1    1    2    0    0 -0.78932208514E+03 -0.68788313067E+03  0.90444544346E+03  0.13835584974E+04  0.00000000000E+00 0. -1.
<mgrwt>
<rscale>  0 0.30428134E+04</rscale>
<asrwt>0</asrwt>
<pdfrwt beam="1">  1        2 0.26823269E+00 0.30428134E+04</pdfrwt>
<pdfrwt beam="2">  1       -2 0.20424537E+00 0.30428134E+04</pdfrwt>
<totfact> 0.98722018E-01</totfact>
</mgrwt>
</event>
<event>
 6    1  0.1934315E-005  0.6958426E+03  0.7818608E-02  0.9724368E-01
          2   -1    0    0  501    0  0.00000000000E+00  0.00000000000E+00  0.13607308537E+03  0.13607308537E+03  0.00000000000E+00 0.  1.
         -2   -1    0    0    0  501 -0.00000000000E+00 -0.00000000000E+00 -0.88958975459E+03  0.88958975459E+03  0.00000000000E+00 0. -1.
         23    2    1    2    0    0  0.29655636085E+03  0.13270754349E+03 -0.23498838323E+03  0.41375716860E+03  0.10207099026E+03 0.  0.
         11    1    3    3    0    0  0.27575314061E+03  0.90965166459E+02 -0.17992103414E+03  0.34159337610E+03  0.00000000000E+00 0.  1.
        -11    1    3    3    0    0  0.20803220241E+02  0.41742377034E+02 -0.55067349090E+02  0.72163792505E+02  0.00000000000E+00 0. -1.
         22    1    1    2    0    0 -0.29655636085E+03 -0.13270754349E+03 -0.51852828599E+03  0.61190567135E+03  0.00000000000E+00 0.  1.
<mgrwt>
<rscale>  0 0.69584258E+03</rscale>
<asrwt>0</asrwt>
<pdfrwt beam="1">  1        2 0.20934320E-01 0.69584258E+03</pdfrwt>
<pdfrwt beam="2">  1       -2 0.13685997E+00 0.69584258E+03</pdfrwt>
<totfact> 0.10383254E+02</totfact>
</mgrwt>
</event>
<event>
 6    1  0.1934315E-005  0.2662117E+04  0.7818608E-02  0.8347402E-01
         -2   -1    0    0    0  501 -0.00000000000E+00  0.00000000000E+00  0.18484906156E+04  0.18484906156E+04  0.00000000000E+00 0. -1.
          2   -1    0    0  501    0  0.00000000000E+00 -0.00000000000E+00 -0.95846658614E+03  0.95846658614E+03  0.00000000000E+00 0.  1.
         23    2    1    2    0    0  0.52263638227E+03 -0.91830896383E+02  0.17308679734E+04  0.18126734194E+04  0.91100398612E+02 0.  0.
         11    1    3    3    0    0  0.36464249209E+03 -0.10435677377E+03  0.12600450668E+04  0.13158905933E+04  0.00000000000E+00 0.  1.
        -11    1    3    3    0    0  0.15799389018E+03  0.12525877385E+02  0.47082290662E+03  0.49678282613E+03  0.00000000000E+00 0. -1.
         22    1    1    2    0    0 -0.52263638227E+03  0.91830896383E+02 -0.84084394396E+03  0.99428378227E+03  0.00000000000E+00 0.  1.
<mgrwt>
<rscale>  0 0.26621168E+04</rscale>
<asrwt>0</asrwt>
<pdfrwt beam="1">  1        2 0.14745640E+00 0.26621168E+04</pdfrwt>
<pdfrwt beam="2">  1       -2 0.28438317E+00 0.26621168E+04</pdfrwt>
<totfact> 0.93403655E-01</totfact>
</mgrwt>
</event>
<event>
 6    1  0.1934315E-005  0.3479364E+04  0.7818608E-02  0.8118698E-01
         -2   -1    0    0    0  501 -0.00000000000E+00  0.00000000000E+00  0.12714142153E+04  0.12714142153E+04  0.00000000000E+00 0. -1.
          2   -1    0    0  501    0  0.00000000000E+00 -0.00000000000E+00 -0.23804145219E+04  0.23804145219E+04  0.00000000000E+00 0.  1.
         23    2    1    2    0    0 -0.11047292247E+04 -0.81177721703E+03 -0.16768446659E+04  0.21679634717E+04  0.94067376009E+02 0.  0.
         11    1    3    3    0    0 -0.11564969883E+03 -0.12193247274E+03 -0.21731269023E+03  0.27471291576E+03  0.00000000000E+00 0. -1.
        -11    1    3    3    0    0 -0.98907952582E+03 -0.68984474429E+03 -0.14595319757E+04  0.18932505559E+04  0.00000000000E+00 0.  1.
         22    1    1    2    0    0  0.11047292247E+04  0.81177721703E+03  0.56784435925E+03  0.14838652655E+04  0.00000000000E+00 0. -1.
<mgrwt>
<rscale>  0 0.34793637E+04</rscale>
<asrwt>0</asrwt>
<pdfrwt beam="1">  1        2 0.36621761E+00 0.34793637E+04</pdfrwt>
<pdfrwt beam="2">  1       -2 0.19560219E+00 0.34793637E+04</pdfrwt>
<totfact> 0.47747124E-01</totfact>
</mgrwt>
</event>
<event>
 6    1  0.1934315E-005  0.1770779E+04  0.7818608E-02  0.8721995E-01
         -2   -1    0    0    0  501 -0.00000000000E+00  0.00000000000E+00  0.35887624635E+03  0.35887624635E+03  0.00000000000E+00 0. -1.
          2   -1    0    0  501    0  0.00000000000E+00 -0.00000000000E+00 -0.21843600124E+04  0.21843600124E+04  0.00000000000E+00 0.  1.
         23    2    1    2    0    0 -0.64056905458E+03 -0.27033174471E+02 -0.43201520302E+02  0.64914293747E+03  0.91981931414E+02 0.  0.
         11    1    3    3    0    0 -0.23181826106E+03 -0.53695548621E+02 -0.96402420209E+01  0.23815090252E+03  0.00000000000E+00 0.  1.
        -11    1    3    3    0    0 -0.40875079352E+03  0.26662374151E+02 -0.33561278281E+02  0.41099203495E+03  0.00000000000E+00 0. -1.
         22    1    1    2    0    0  0.64056905458E+03  0.27033174471E+02 -0.17822822457E+04  0.18940933212E+04  0.00000000000E+00 0.  1.
<mgrwt>
<rscale>  0 0.17707794E+04</rscale>
<asrwt>0</asrwt>
<pdfrwt beam="1">  1        2 0.33605537E+00 0.17707794E+04</pdfrwt>
<pdfrwt beam="2">  1       -2 0.55211733E-01 0.17707794E+04</pdfrwt>
<totfact> 0.15383838E+01</totfact>
</mgrwt>
</event>
<event>
 6    1  0.1934315E-005  0.9950362E+03  0.7818608E-02  0.9314006E-01
         -2   -1    0    0    0  501 -0.00000000000E+00  0.00000000000E+00  0.96852319025E+03  0.96852319025E+03  0.00000000000E+00 0. -1.
          2   -1    0    0  501    0  0.00000000000E+00 -0.00000000000E+00 -0.25556872910E+03  0.25556872910E+03  0.00000000000E+00 0.  1.
         23    2    1    2    0    0  0.21050787069E+03 -0.15518512672E+03 -0.15494701405E+03  0.31764337816E+03  0.92156124856E+02 0.  0.
         11    1    3    3    0    0  0.15369802895E+02 -0.50482262449E+01 -0.45335073095E+02  0.48135062914E+02  0.00000000000E+00 0. -1.
        -11    1    3    3    0    0  0.19513806779E+03 -0.15013690047E+03 -0.10961194096E+03  0.26950831524E+03  0.00000000000E+00 0.  1.
         22    1    1    2    0    0 -0.21050787069E+03  0.15518512672E+03  0.86790147520E+03  0.90644854119E+03  0.00000000000E+00 0. -1.
<mgrwt>
<rscale>  0 0.99503616E+03</rscale>
<asrwt>0</asrwt>
<pdfrwt beam="1">  1        2 0.39318267E-01 0.99503616E+03</pdfrwt>
<pdfrwt beam="2">  1       -2 0.14900357E+00 0.99503616E+03</pdfrwt>
<totfact> 0.39953534E+01</totfact>
</mgrwt>
</event>
<event>
 6    1  0.1934315E-005  0.2907098E+04  0.7818608E-02  0.8270769E-01
          2   -1    0    0  501    0  0.00000000000E+00  0.00000000000E+00  0.10785663941E+04  0.10785663941E+04  0.00000000000E+00 0.  1.
         -2   -1    0    0    0  501 -0.00000000000E+00 -0.00000000000E+00 -0.19589009893E+04  0.19589009893E+04  0.00000000000E+00 0. -1.
         23    2    1    2    0    0 -0.50713105888E+03  0.30558073472E+03 -0.18258850019E+04  0.19218388305E+04  0.95115477720E+02 0.  0.
         13    1    3    3    0    0 -0.38742889360E+03  0.18825654383E+03 -0.13698477783E+04  0.14359751424E+04  0.00000000000E+00 0. -1.
        -13    1    3    3    0    0 -0.11970216528E+03  0.11732419090E+03 -0.45603722360E+03  0.48586368814E+03  0.00000000000E+00 0.  1.
         22    1    1    2    0    0  0.50713105888E+03 -0.30558073472E+03  0.94555040673E+03  0.11156285529E+04  0.00000000000E+00 0.  1.
<mgrwt>
<rscale>  0 0.29070981E+04</rscale>
<asrwt>0</asrwt>
<pdfrwt beam="1">  1        2 0.16593329E+00 0.29070981E+04</pdfrwt>
<pdfrwt beam="2">  1       -2 0.30136938E+00 0.29070981E+04</pdfrwt>
<totfact> 0.60403976E-01</totfact>
</mgrwt>
</event>
<event>
 6    1  0.1934315E-005  0.1422760E+04  0.7818608E-02  0.8937507E-01
         -2   -1    0    0    0  501 -0.00000000000E+00  0.00000000000E+00  0.13222423185E+03  0.13222423185E+03  0.00000000000E+00 0. -1.
          2   -1    0    0  501    0  0.00000000000E+00 -0.00000000000E+00 -0.38272952578E+04  0.38272952578E+04  0.00000000000E+00 0.  1.
         23    2    1    2    0    0  0.80810293091E+02 -0.59492336025E+03 -0.29015166397E+04  0.29644352360E+04  0.92808133540E+02 0.  0.
         13    1    3    3    0    0  0.46657401044E+02 -0.93050437780E+02 -0.45859309677E+03  0.47025836031E+03  0.00000000000E+00 0. -1.
        -13    1    3    3    0    0  0.34152892046E+02 -0.50187292247E+03 -0.24429235429E+04  0.24941768756E+04  0.00000000000E+00 0.  1.
         22    1    1    2    0    0 -0.80810293091E+02  0.59492336025E+03 -0.79355438627E+03  0.99508425373E+03  0.00000000000E+00 0. -1.
<mgrwt>
<rscale>  0 0.14227595E+04</rscale>
<asrwt>0</asrwt>
<pdfrwt beam="1">  1        2 0.58881476E+00 0.14227595E+04</pdfrwt>
<pdfrwt beam="2">  1       -2 0.20342186E-01 0.14227595E+04</pdfrwt>
<totfact> 0.96569083E+00</totfact>
</mgrwt>
</event>
<event>
 6    1  0.1934315E-005  0.1008289E+04  0.7818608E-02  0.9299501E-01
          4   -1    0    0  501    0  0.00000000000E+00  0.00000000000E+00  0.42661296348E+03  0.42661296348E+03  0.00000000000E+00 0.  1.
         -4   -1    0    0    0  501 -0.00000000000E+00 -0.00000000000E+00 -0.59576584755E+03  0.59576584755E+03  0.00000000000E+00 0. -1.
         23    2    1    2    0    0 -0.20892663167E+03 -0.35254090281E+03 -0.37567452979E+03  0.56348163765E+03  0.91895473568E+02 0.  0.
         11    1    3    3    0    0 -0.20961073699E+03 -0.32954242069E+03 -0.32599027962E+03  0.50872834647E+03  0.00000000000E+00 0.  1.
        -11    1    3    3    0    0  0.68410532297E+00 -0.22998482122E+02 -0.49684250177E+02  0.54753291186E+02  0.00000000000E+00 0. -1.
         22    1    1    2    0    0  0.20892663167E+03  0.35254090281E+03  0.20652164572E+03  0.45889717337E+03  0.00000000000E+00 0.  1.
<mgrwt>
<rscale>  0 0.10082885E+04</rscale>
<asrwt>0</asrwt>
<pdfrwt beam="1">  1        4 0.65632764E-01 0.10082885E+04</pdfrwt>
<pdfrwt beam="2">  1       -4 0.91656284E-01 0.10082885E+04</pdfrwt>
<totfact> 0.43405311E+00</totfact>
</mgrwt>
</event>
<event>
 6    1  0.1934315E-005  0.4610328E+04  0.7818608E-02  0.7891601E-01
         -1   -1    0    0    0  501 -0.00000000000E+00  0.00000000000E+00  0.26820115839E+04  0.26820115839E+04  0.00000000000E+00 0.  1.
          1   -1    0    0  501    0  0.00000000000E+00 -0.00000000000E+00 -0.19812670150E+04  0.19812670150E+04  0.00000000000E+00 0. -1.
         23    2    1    2    0    0 -0.18282872004E+03 -0.51345219585E+03 -0.19137674359E+04  0.19925609947E+04  0.10360511773E+03 0.  0.
         13    1    3    3    0    0 -0.69807706769E+01 -0.14610377969E+03 -0.44869273091E+03  0.47193242352E+03  0.00000000000E+00 0.  1.
        -13    1    3    3    0    0 -0.17584794936E+03 -0.36734841616E+03 -0.14650747050E+04  0.15206285712E+04  0.00000000000E+00 0. -1.
         22    1    1    2    0    0  0.18282872004E+03  0.51345219585E+03  0.26145120048E+04  0.26707176042E+04  0.00000000000E+00 0.  1.
<mgrwt>
<rscale>  0 0.46103280E+04</rscale>
<asrwt>0</asrwt>
<pdfrwt beam="1">  1        1 0.30481031E+00 0.46103280E+04</pdfrwt>
<pdfrwt beam="2">  1       -1 0.41261717E+00 0.46103280E+04</pdfrwt>
<totfact> 0.13396921E-02</totfact>
</mgrwt>
</event>
<event>
 6    1  0.1934315E-005  0.1908582E+04  0.7818608E-02  0.8650596E-01
          2   -1    0    0  501    0  0.00000000000E+00  0.00000000000E+00  0.97326047122E+03  0.97326047122E+03  0.00000000000E+00 0.  1.
         -2   -1    0    0    0  501 -0.00000000000E+00 -0.00000000000E+00 -0.93569097259E+03  0.93569097259E+03  0.00000000000E+00 0. -1.
         23    2    1    2    0    0  0.13710622162E+02  0.34804772691E+03  0.90512097584E+03  0.97408740718E+03  0.90978539020E+02 0.  0.
         13    1    3    3    0    0  0.12942444130E+02  0.15290652963E+03  0.28099867704E+03  0.32016897126E+03  0.00000000000E+00 0.  1.
        -13    1    3    3    0    0  0.76817803141E+00  0.19514119728E+03  0.62412229880E+03  0.65391843592E+03  0.00000000000E+00 0. -1.
         22    1    1    2    0    0 -0.13710622162E+02 -0.34804772691E+03 -0.86755147721E+03  0.93486403663E+03  0.00000000000E+00 0. -1.
<mgrwt>
<rscale>  0 0.19085817E+04</rscale>
<asrwt>0</asrwt>
<pdfrwt beam="1">  1        2 0.14973238E+00 0.19085817E+04</pdfrwt>
<pdfrwt beam="2">  1       -2 0.14395246E+00 0.19085817E+04</pdfrwt>
<totfact> 0.81926504E+00</totfact>
</mgrwt>
</event>
<event>
 6    1  0.1934315E-005  0.7833897E+03  0.7818608E-02  0.9584376E-01
          2   -1    0    0  501    0  0.00000000000E+00  0.00000000000E+00  0.16566062270E+04  0.16566062270E+04  0.00000000000E+00 0.  1.
         -2   -1    0    0    0  501 -0.00000000000E+00 -0.00000000000E+00 -0.92613944767E+02  0.92613944767E+02  0.00000000000E+00 0. -1.
         23    2    1    2    0    0  0.37450342151E+03 -0.42698858647E+02  0.60356837764E+03  0.71747888551E+03  0.91679656506E+02 0.  0.
         11    1    3    3    0    0  0.24649771509E+03 -0.36152174424E+00  0.32410075519E+03  0.40718859728E+03  0.00000000000E+00 0.  1.
        -11    1    3    3    0    0  0.12800570642E+03 -0.42337336903E+02  0.27946762245E+03  0.31029028823E+03  0.00000000000E+00 0. -1.
         22    1    1    2    0    0 -0.37450342151E+03  0.42698858647E+02  0.96042390460E+03  0.10317412863E+04  0.00000000000E+00 0.  1.
<mgrwt>
<rscale>  0 0.78338965E+03</rscale>
<asrwt>0</asrwt>
<pdfrwt beam="1">  1        2 0.25486248E+00 0.78338965E+03</pdfrwt>
<pdfrwt beam="2">  1       -2 0.14248300E-01 0.78338965E+03</pdfrwt>
<totfact> 0.40155314E+02</totfact>
</mgrwt>
</event>
<event>
 6    1  0.1934315E-005  0.1898908E+04  0.7818608E-02  0.8655400E-01
         -1   -1    0    0    0  501 -0.00000000000E+00  0.00000000000E+00  0.34184238325E+03  0.34184238325E+03  0.00000000000E+00 0. -1.
          1   -1    0    0  501    0  0.00000000000E+00 -0.00000000000E+00 -0.26370707279E+04  0.26370707279E+04  0.00000000000E+00 0.  1.
         23    2    1    2    0    0 -0.28170271454E+02 -0.70216231130E+03 -0.15435522211E+03  0.72565697780E+03  0.94483010299E+02 0.  0.
         13    1    3    3    0    0  0.32470142266E+02 -0.17578027404E+03 -0.27970735809E+02  0.18092920423E+03  0.00000000000E+00 0.  1.
        -13    1    3    3    0    0 -0.60640413720E+02 -0.52638203726E+03 -0.12638448630E+03  0.54472777357E+03  0.00000000000E+00 0. -1.
         22    1    1    2    0    0  0.28170271454E+02  0.70216231130E+03 -0.21408731225E+04  0.22532561333E+04  0.00000000000E+00 0.  1.
<mgrwt>
<rscale>  0 0.18989076E+04</rscale>
<asrwt>0</asrwt>
<pdfrwt beam="1">  1        1 0.40570316E+00 0.18989076E+04</pdfrwt>
<pdfrwt beam="2">  1       -1 0.52591139E-01 0.18989076E+04</pdfrwt>
<totfact> 0.37093682E+00</totfact>
</mgrwt>
</event>
<event>
 6    1  0.1934315E-005  0.9396371E+03  0.7818608E-02  0.9377346E-01
          1   -1    0    0  501    0  0.00000000000E+00  0.00000000000E+00  0.12022041662E+04  0.12022041662E+04  0.00000000000E+00 0.  1.
         -1   -1    0    0    0  501 -0.00000000000E+00 -0.00000000000E+00 -0.18360398394E+03  0.18360398394E+03  0.00000000000E+00 0. -1.
         23    2    1    2    0    0  0.24652398984E+03  0.44157007484E+02  0.10927825240E+04  0.11246052813E+04  0.88540810345E+02 0.  0.
         11    1    3    3    0    0  0.16496430580E+03  0.53021513184E+02  0.87254418656E+03  0.88958297002E+03  0.00000000000E+00 0. -1.
        -11    1    3    3    0    0  0.81559684042E+02 -0.88645057004E+01  0.22023833742E+03  0.23502231126E+03  0.00000000000E+00 0.  1.
         22    1    1    2    0    0 -0.24652398984E+03 -0.44157007484E+02 -0.74182341712E+02  0.26120286886E+03  0.00000000000E+00 0. -1.
<mgrwt>
<rscale>  0 0.93963711E+03</rscale>
<asrwt>0</asrwt>
<pdfrwt beam="1">  1        1 0.18495448E+00 0.93963711E+03</pdfrwt>
<pdfrwt beam="2">  1       -1 0.28246767E-01 0.93963711E+03</pdfrwt>
<totfact> 0.12127835E+02</totfact>
</mgrwt>
</event>
<event>
 6    1  0.1934315E-005  0.1481405E+04  0.7818608E-02  0.8896913E-01
          2   -1    0    0  501    0  0.00000000000E+00  0.00000000000E+00  0.13650494297E+04  0.13650494297E+04  0.00000000000E+00 0.  1.
         -2   -1    0    0    0  501 -0.00000000000E+00 -0.00000000000E+00 -0.40191976948E+03  0.40191976948E+03  0.00000000000E+00 0. -1.
         23    2    1    2    0    0 -0.14394067497E+03  0.47652652209E+03 -0.16615951407E+03  0.53283367854E+03  0.92229608575E+02 0.  0.
         13    1    3    3    0    0 -0.71264522390E+02  0.26091456675E+03 -0.13776986501E+03  0.30353843085E+03  0.00000000000E+00 0. -1.
        -13    1    3    3    0    0 -0.72676152582E+02  0.21561195534E+03 -0.28389649057E+02  0.22929524769E+03  0.00000000000E+00 0.  1.
         22    1    1    2    0    0  0.14394067497E+03 -0.47652652209E+03  0.11292891743E+04  0.12341355206E+04  0.00000000000E+00 0.  1.
<mgrwt>
<rscale>  0 0.14814052E+04</rscale>
<asrwt>0</asrwt>
<pdfrwt beam="1">  1        2 0.21000760E+00 0.14814052E+04</pdfrwt>
<pdfrwt beam="2">  1       -2 0.61833811E-01 0.14814052E+04</pdfrwt>
<totfact> 0.35623039E+01</totfact>
</mgrwt>
</event>
<event>
 6    1  0.1934315E-005  0.1000822E+04  0.7818608E-02  0.9307644E-01
         -2   -1    0    0    0  501 -0.00000000000E+00  0.00000000000E+00  0.22821757848E+03  0.22821757848E+03  0.00000000000E+00 0. -1.
          2   -1    0    0  501    0  0.00000000000E+00 -0.00000000000E+00 -0.10972473241E+04  0.10972473241E+04  0.00000000000E+00 0.  1.
         23    2    1    2    0    0 -0.23722452940E+03 -0.12987596022E+03 -0.98911121492E+03  0.10295547783E+04  0.92188956040E+02 0.  0.
         13    1    3    3    0    0 -0.13443689280E+02 -0.28669348114E+02 -0.52795919807E+02  0.61563572436E+02  0.00000000000E+00 0. -1.
        -13    1    3    3    0    0 -0.22378084012E+03 -0.10120661210E+03 -0.93631529512E+03  0.96799120585E+03  0.00000000000E+00 0.  1.
         22    1    1    2    0    0  0.23722452940E+03  0.12987596022E+03  0.12008146930E+03  0.29591012429E+03  0.00000000000E+00 0. -1.
<mgrwt>
<rscale>  0 0.10008219E+04</rscale>
<asrwt>0</asrwt>
<pdfrwt beam="1">  1        2 0.16880728E+00 0.10008219E+04</pdfrwt>
<pdfrwt beam="2">  1       -2 0.35110397E-01 0.10008219E+04</pdfrwt>
<totfact> 0.16606037E+02</totfact>
</mgrwt>
</event>
<event>
 6    1  0.1934315E-005  0.5620119E+04  0.7818608E-02  0.7739374E-01
          2   -1    0    0  501    0  0.00000000000E+00  0.00000000000E+00  0.36789809634E+04  0.36789809634E+04  0.00000000000E+00 0.  1.
         -2   -1    0    0    0  501 -0.00000000000E+00 -0.00000000000E+00 -0.21463642743E+04  0.21463642743E+04  0.00000000000E+00 0. -1.
         23    2    1    2    0    0 -0.19064896406E+04  0.19792141055E+04  0.13711719012E+04  0.30725183915E+04  0.90915665162E+02 0.  0.
         13    1    3    3    0    0 -0.80053646600E+03  0.85674543087E+03  0.53895336168E+03  0.12904813415E+04  0.00000000000E+00 0.  1.
        -13    1    3    3    0    0 -0.11059531746E+04  0.11224686747E+04  0.83221853947E+03  0.17820370500E+04  0.00000000000E+00 0. -1.
         22    1    1    2    0    0  0.19064896406E+04 -0.19792141055E+04  0.16144478801E+03  0.27528268462E+04  0.00000000000E+00 0. -1.
<mgrwt>
<rscale>  0 0.56201186E+04</rscale>
<asrwt>0</asrwt>
<pdfrwt beam="1">  1        2 0.56599707E+00 0.56201186E+04</pdfrwt>
<pdfrwt beam="2">  1       -2 0.33020989E+00 0.56201186E+04</pdfrwt>
<totfact> 0.86526016E-03</totfact>
</mgrwt>
</event>
<event>
 6    1  0.1934315E-005  0.3353790E+04  0.7818608E-02  0.8149342E-01
          1   -1    0    0  501    0  0.00000000000E+00  0.00000000000E+00  0.20420627411E+04  0.20420627411E+04  0.00000000000E+00 0.  1.
         -1   -1    0    0    0  501 -0.00000000000E+00 -0.00000000000E+00 -0.13770274121E+04  0.13770274121E+04  0.00000000000E+00 0. -1.
         23    2    1    2    0    0  0.10775664057E+03  0.10144883093E+04  0.16879232364E+04  0.19744110557E+04  0.91739531285E+02 0.  0.
         13    1    3    3    0    0  0.24732593351E+02  0.46382398173E+03  0.84249129523E+03  0.96204780013E+03  0.00000000000E+00 0.  1.
        -13    1    3    3    0    0  0.83024047218E+02  0.55066432758E+03  0.84543194121E+03  0.10123632556E+04  0.00000000000E+00 0. -1.
         22    1    1    2    0    0 -0.10775664057E+03 -0.10144883093E+04 -0.10228879075E+04  0.14446790974E+04  0.00000000000E+00 0. -1.
<mgrwt>
<rscale>  0 0.33537897E+04</rscale>
<asrwt>0</asrwt>
<pdfrwt beam="1">  1        1 0.31416350E+00 0.33537897E+04</pdfrwt>
<pdfrwt beam="2">  1       -1 0.21185037E+00 0.33537897E+04</pdfrwt>
<totfact> 0.28783417E-01</totfact>
</mgrwt>
</event>
<event>
 6    1  0.1934315E-005  0.8438688E+03  0.7818608E-02  0.9498603E-01
          2   -1    0    0  501    0  0.00000000000E+00  0.00000000000E+00  0.59692062206E+03  0.59692062206E+03  0.00000000000E+00 0. -1.
         -2   -1    0    0    0  501 -0.00000000000E+00 -0.00000000000E+00 -0.29824508425E+03  0.29824508425E+03  0.00000000000E+00 0.  1.
         23    2    1    2    0    0  0.23931883137E+03  0.14080305841E+02 -0.21473533465E+03  0.32854194928E+03  0.66005987791E+02 0.  0.
         13    1    3    3    0    0  0.96038825441E+02 -0.24814224408E+02 -0.10057004705E+03  0.14125698598E+03  0.00000000000E+00 0. -1.
        -13    1    3    3    0    0  0.14328000593E+03  0.38894530249E+02 -0.11416528760E+03  0.18728496330E+03  0.00000000000E+00 0.  1.
         22    1    1    2    0    0 -0.23931883137E+03 -0.14080305841E+02  0.51341087247E+03  0.56662375703E+03  0.00000000000E+00 0. -1.
<mgrwt>
<rscale>  0 0.84386881E+03</rscale>
<asrwt>0</asrwt>
<pdfrwt beam="1">  1        2 0.91833942E-01 0.84386881E+03</pdfrwt>
<pdfrwt beam="2">  1       -2 0.45883859E-01 0.84386881E+03</pdfrwt>
<totfact> 0.22594661E+02</totfact>
</mgrwt>
</event>
<event>
 6    1  0.1934315E-005  0.2937400E+04  0.7818608E-02  0.8261836E-01
         -2   -1    0    0    0  501 -0.00000000000E+00  0.00000000000E+00  0.15537137566E+04  0.15537137566E+04  0.00000000000E+00 0. -1.
          2   -1    0    0  501    0  0.00000000000E+00 -0.00000000000E+00 -0.13883382246E+04  0.13883382246E+04  0.00000000000E+00 0.  1.
         23    2    1    2    0    0 -0.52306412973E+03  0.94830921993E+03 -0.90859506334E+03  0.14168309153E+04  0.94754382375E+02 0.  0.
         11    1    3    3    0    0 -0.32104582817E+03  0.59832766256E+03 -0.62760958516E+03  0.92464058258E+03  0.00000000000E+00 0. -1.
        -11    1    3    3    0    0 -0.20201830155E+03  0.34998155737E+03 -0.28098547818E+03  0.49219033270E+03  0.00000000000E+00 0.  1.
         22    1    1    2    0    0  0.52306412973E+03 -0.94830921993E+03  0.10739705953E+04  0.15252210659E+04  0.00000000000E+00 0. -1.
<mgrwt>
<rscale>  0 0.29374003E+04</rscale>
<asrwt>0</asrwt>
<pdfrwt beam="1">  1        2 0.21359050E+00 0.29374003E+04</pdfrwt>
<pdfrwt beam="2">  1       -2 0.23903289E+00 0.29374003E+04</pdfrwt>
<totfact> 0.94966455E-01</totfact>
</mgrwt>
</event>
<event>
 6    1  0.1934315E-005  0.7910647E+03  0.7818608E-02  0.9573041E-01
          2   -1    0    0  501    0  0.00000000000E+00  0.00000000000E+00  0.46948516573E+03  0.46948516573E+03  0.00000000000E+00 0.  1.
         -2   -1    0    0    0  501 -0.00000000000E+00 -0.00000000000E+00 -0.33322846965E+03  0.33322846965E+03  0.00000000000E+00 0. -1.
         23    2    1    2    0    0  0.29716896596E+03 -0.24847029119E+03  0.20452706226E+02  0.39841492898E+03  0.90935485433E+02 0.  0.
         13    1    3    3    0    0  0.97612083498E+02 -0.11611057304E+03 -0.27597167842E+02  0.15417972529E+03  0.00000000000E+00 0.  1.
        -13    1    3    3    0    0  0.19955688246E+03 -0.13235971815E+03  0.48049874069E+02  0.24423520369E+03  0.00000000000E+00 0. -1.
         22    1    1    2    0    0 -0.29716896596E+03  0.24847029119E+03  0.11580398985E+03  0.40429870640E+03  0.00000000000E+00 0.  1.
<mgrwt>
<rscale>  0 0.79106466E+03</rscale>
<asrwt>0</asrwt>
<pdfrwt beam="1">  1        2 0.72228488E-01 0.79106466E+03</pdfrwt>
<pdfrwt beam="2">  1       -2 0.51265918E-01 0.79106466E+03</pdfrwt>
<totfact> 0.23993332E+02</totfact>
</mgrwt>
</event>
<event>
 6    1  0.1934315E-005  0.3166224E+04  0.7818608E-02  0.8197795E-01
          2   -1    0    0  501    0  0.00000000000E+00  0.00000000000E+00  0.13765189289E+04  0.13765189289E+04  0.00000000000E+00 0.  1.
         -2   -1    0    0    0  501 -0.00000000000E+00 -0.00000000000E+00 -0.18207111175E+04  0.18207111175E+04  0.00000000000E+00 0. -1.
         23    2    1    2    0    0 -0.73031936507E+03 -0.11645568902E+04 -0.10127030307E+04  0.17096939282E+04  0.89032433829E+02 0.  0.
         13    1    3    3    0    0 -0.52803897930E+03 -0.79180419108E+03 -0.66122804341E+03  0.11588794441E+04  0.00000000000E+00 0. -1.
        -13    1    3    3    0    0 -0.20228038576E+03 -0.37275269908E+03 -0.35147498728E+03  0.55081448403E+03  0.00000000000E+00 0.  1.
         22    1    1    2    0    0  0.73031936507E+03  0.11645568902E+04  0.56851084203E+03  0.14875361182E+04  0.00000000000E+00 0.  1.
<mgrwt>
<rscale>  0 0.31662238E+04</rscale>
<asrwt>0</asrwt>
<pdfrwt beam="1">  1        2 0.21177214E+00 0.31662238E+04</pdfrwt>
<pdfrwt beam="2">  1       -2 0.28010940E+00 0.31662238E+04</pdfrwt>
<totfact> 0.52996263E-01</totfact>
</mgrwt>
</event>
<event>
 6    1  0.1934315E-005  0.1783405E+04  0.7818608E-02  0.8715175E-01
         -2   -1    0    0    0  501 -0.00000000000E+00  0.00000000000E+00  0.22981638913E+03  0.22981638913E+03  0.00000000000E+00 0. -1.
          2   -1    0    0  501    0  0.00000000000E+00 -0.00000000000E+00 -0.34598634966E+04  0.34598634966E+04  0.00000000000E+00 0.  1.
         23    2    1    2    0    0  0.59222976401E+03  0.11689924221E+02 -0.25651656129E+03  0.65772397300E+03  0.12620352899E+03 0.  0.
         13    1    3    3    0    0  0.33694340992E+03  0.57283295042E+02 -0.10578732196E+03  0.35777534133E+03  0.00000000000E+00 0.  1.
        -13    1    3    3    0    0  0.25528635409E+03 -0.45593370820E+02 -0.15072923933E+03  0.29994863167E+03  0.00000000000E+00 0. -1.
         22    1    1    2    0    0 -0.59222976401E+03 -0.11689924221E+02 -0.29735305462E+04  0.30319559128E+04  0.00000000000E+00 0.  1.
<mgrwt>
<rscale>  0 0.17834050E+04</rscale>
<asrwt>0</asrwt>
<pdfrwt beam="1">  1        2 0.53228667E+00 0.17834050E+04</pdfrwt>
<pdfrwt beam="2">  1       -2 0.35356369E-01 0.17834050E+04</pdfrwt>
<totfact> 0.62085115E+00</totfact>
</mgrwt>
</event>
<event>
 6    1  0.1934315E-005  0.2023036E+04  0.7818608E-02  0.8595926E-01
         -2   -1    0    0    0  501 -0.00000000000E+00  0.00000000000E+00  0.19583575898E+04  0.19583575898E+04  0.00000000000E+00 0. -1.
          2   -1    0    0  501    0  0.00000000000E+00 -0.00000000000E+00 -0.52246268098E+03  0.52246268098E+03  0.00000000000E+00 0.  1.
         23    2    1    2    0    0  0.10030301728E+04 -0.47167358162E+02  0.84686983820E+03  0.13166704433E+04  0.90212228440E+02 0.  0.
         11    1    3    3    0    0  0.45721024308E+03 -0.61134506239E+02  0.41567190699E+03  0.62093620324E+03  0.00000000000E+00 0. -1.
        -11    1    3    3    0    0  0.54581992967E+03  0.13967148077E+02  0.43119793121E+03  0.69573424002E+03  0.00000000000E+00 0.  1.
         22    1    1    2    0    0 -0.10030301728E+04  0.47167358162E+02  0.58902507065E+03  0.11641498276E+04  0.00000000000E+00 0.  1.
<mgrwt>
<rscale>  0 0.20230361E+04</rscale>
<asrwt>0</asrwt>
<pdfrwt beam="1">  1        2 0.80378875E-01 0.20230361E+04</pdfrwt>
<pdfrwt beam="2">  1       -2 0.30128578E+00 0.20230361E+04</pdfrwt>
<totfact> 0.16947861E+00</totfact>
</mgrwt>
</event>
<event>
 6    1  0.1934315E-005  0.1529044E+04  0.7818608E-02  0.8865365E-01
          2   -1    0    0  501    0  0.00000000000E+00  0.00000000000E+00  0.16057079410E+04  0.16057079410E+04  0.00000000000E+00 0.  1.
         -2   -1    0    0    0  501 -0.00000000000E+00 -0.00000000000E+00 -0.36401018162E+03  0.36401018162E+03  0.00000000000E+00 0. -1.
         23    2    1    2    0    0  0.83843854479E+02  0.64230880931E+03  0.10684769863E+03  0.66301423157E+03  0.92633914479E+02 0.  0.
         11    1    3    3    0    0  0.40042652760E+02  0.51716712559E+03  0.59002926842E+02  0.52205995365E+03  0.00000000000E+00 0. -1.
        -11    1    3    3    0    0  0.43801201720E+02  0.12514168372E+03  0.47844771784E+02  0.14095427792E+03  0.00000000000E+00 0.  1.
         22    1    1    2    0    0 -0.83843854479E+02 -0.64230880931E+03  0.11348500607E+04  0.13067038910E+04  0.00000000000E+00 0.  1.
<mgrwt>
<rscale>  0 0.15290442E+04</rscale>
<asrwt>0</asrwt>
<pdfrwt beam="1">  1        2 0.24703199E+00 0.15290442E+04</pdfrwt>
<pdfrwt beam="2">  1       -2 0.56001567E-01 0.15290442E+04</pdfrwt>
<totfact> 0.31950404E+01</totfact>
</mgrwt>
</event>
<event>
 6    1  0.1934315E-005  0.1917720E+04  0.7818608E-02  0.8646086E-01
          2   -1    0    0  501    0  0.00000000000E+00  0.00000000000E+00  0.33434188602E+04  0.33434188602E+04  0.00000000000E+00 0.  1.
         -2   -1    0    0    0  501 -0.00000000000E+00 -0.00000000000E+00 -0.27499167460E+03  0.27499167460E+03  0.00000000000E+00 0. -1.
         23    2    1    2    0    0  0.41946414360E+03  0.51533721536E+03  0.28364525707E+04  0.29146102540E+04  0.89258801334E+02 0.  0.
         11    1    3    3    0    0  0.22984763974E+03  0.26605382318E+03  0.16871852609E+04  0.17234293368E+04  0.00000000000E+00 0.  1.
        -11    1    3    3    0    0  0.18961650386E+03  0.24928339218E+03  0.11492673099E+04  0.11911809173E+04  0.00000000000E+00 0. -1.
         22    1    1    2    0    0 -0.41946414360E+03 -0.51533721536E+03  0.23197461491E+03  0.70380028081E+03  0.00000000000E+00 0. -1.
<mgrwt>
<rscale>  0 0.19177198E+04</rscale>
<asrwt>0</asrwt>
<pdfrwt beam="1">  1        2 0.51437210E+00 0.19177198E+04</pdfrwt>
<pdfrwt beam="2">  1       -2 0.42306414E-01 0.19177198E+04</pdfrwt>
<totfact> 0.51860784E+00</totfact>
</mgrwt>
</event>
<event>
 6    1  0.1934315E-005  0.2504051E+04  0.7818608E-02  0.8401544E-01
          2   -1    0    0  501    0  0.00000000000E+00  0.00000000000E+00  0.10201101717E+04  0.10201101717E+04  0.00000000000E+00 0.  1.
         -2   -1    0    0    0  501 -0.00000000000E+00 -0.00000000000E+00 -0.15366652043E+04  0.15366652043E+04  0.00000000000E+00 0. -1.
         23    2    1    2    0    0  0.19578917201E+03 -0.48613526681E+03  0.90028514687E+03  0.10461142653E+04  0.95816558287E+02 0.  0.
         13    1    3    3    0    0  0.10351249823E+03 -0.14755900710E+03  0.26803396287E+03  0.32300263639E+03  0.00000000000E+00 0. -1.
        -13    1    3    3    0    0  0.92276673775E+02 -0.33857625971E+03  0.63225118400E+03  0.72311162889E+03  0.00000000000E+00 0.  1.
         22    1    1    2    0    0 -0.19578917201E+03  0.48613526681E+03 -0.14168401794E+04  0.15106611107E+04  0.00000000000E+00 0. -1.
<mgrwt>
<rscale>  0 0.25040510E+04</rscale>
<asrwt>0</asrwt>
<pdfrwt beam="1">  1        2 0.15694003E+00 0.25040510E+04</pdfrwt>
<pdfrwt beam="2">  1       -2 0.23641003E+00 0.25040510E+04</pdfrwt>
<totfact> 0.16997118E+00</totfact>
</mgrwt>
</event>
<event>
 6    1  0.1934315E-005  0.8814175E+03  0.7818608E-02  0.9449113E-01
         -2   -1    0    0    0  501 -0.00000000000E+00  0.00000000000E+00  0.68610269245E+02  0.68610269245E+02  0.00000000000E+00 0. -1.
          2   -1    0    0  501    0  0.00000000000E+00 -0.00000000000E+00 -0.28308330199E+04  0.28308330199E+04  0.00000000000E+00 0.  1.
         23    2    1    2    0    0  0.20699094599E+03 -0.18493978497E+02 -0.26566871344E+04  0.26663659516E+04  0.91288438255E+02 0.  0.
         13    1    3    3    0    0  0.15369150102E+03 -0.20467000155E+02 -0.14023321694E+04  0.14108775598E+04  0.00000000000E+00 0.  1.
        -13    1    3    3    0    0  0.53299444973E+02  0.19730216577E+01 -0.12543549650E+04  0.12554883918E+04  0.00000000000E+00 0. -1.
         22    1    1    2    0    0 -0.20699094599E+03  0.18493978497E+02 -0.10553561625E+03  0.23307733751E+03  0.00000000000E+00 0. -1.
<mgrwt>
<rscale>  0 0.88141753E+03</rscale>
<asrwt>0</asrwt>
<pdfrwt beam="1">  1        2 0.43551283E+00 0.88141753E+03</pdfrwt>
<pdfrwt beam="2">  1       -2 0.10555425E-01 0.88141753E+03</pdfrwt>
<totfact> 0.14395899E+02</totfact>
</mgrwt>
</event>
<event>
 6    1  0.1934315E-005  0.1882759E+04  0.7818608E-02  0.8663486E-01
         -2   -1    0    0    0  501 -0.00000000000E+00  0.00000000000E+00  0.60833339013E+03  0.60833339013E+03  0.00000000000E+00 0.  1.
          2   -1    0    0  501    0  0.00000000000E+00 -0.00000000000E+00 -0.14567598952E+04  0.14567598952E+04  0.00000000000E+00 0. -1.
         23    2    1    2    0    0  0.54809191719E+03  0.38670491805E+03  0.29591318753E+03  0.73864736657E+03  0.89943728296E+02 0.  0.
         13    1    3    3    0    0  0.24408924255E+03  0.15347222420E+03  0.81753759703E+02  0.29969477666E+03  0.00000000000E+00 0. -1.
        -13    1    3    3    0    0  0.30400267464E+03  0.23323269385E+03  0.21415942783E+03  0.43895258992E+03  0.00000000000E+00 0.  1.
         22    1    1    2    0    0 -0.54809191719E+03 -0.38670491805E+03 -0.11443396926E+04  0.13264459188E+04  0.00000000000E+00 0. -1.
<mgrwt>
<rscale>  0 0.18827593E+04</rscale>
<asrwt>0</asrwt>
<pdfrwt beam="1">  1        2 0.22411691E+00 0.18827593E+04</pdfrwt>
<pdfrwt beam="2">  1       -2 0.93589752E-01 0.18827593E+04</pdfrwt>
<totfact> 0.12157911E+01</totfact>
</mgrwt>
</event>
<event>
 6    1  0.1934315E-005  0.2576902E+04  0.7818608E-02  0.8376089E-01
         -2   -1    0    0    0  501 -0.00000000000E+00  0.00000000000E+00  0.48362152085E+03  0.48362152085E+03  0.00000000000E+00 0. -1.
          2   -1    0    0  501    0  0.00000000000E+00 -0.00000000000E+00 -0.34326564508E+04  0.34326564508E+04  0.00000000000E+00 0.  1.
         23    2    1    2    0    0  0.10630679449E+04  0.68740086114E+03 -0.11253917018E+04  0.16962986873E+04  0.91045893866E+02 0.  0.
         13    1    3    3    0    0  0.71834445445E+03  0.42573948696E+03 -0.70292398459E+03  0.10915012570E+04  0.00000000000E+00 0. -1.
        -13    1    3    3    0    0  0.34472349043E+03  0.26166137418E+03 -0.42246771725E+03  0.60479743031E+03  0.00000000000E+00 0.  1.
         22    1    1    2    0    0 -0.10630679449E+04 -0.68740086114E+03 -0.18236432281E+04  0.22199792843E+04  0.00000000000E+00 0.  1.
<mgrwt>
<rscale>  0 0.25769024E+04</rscale>
<asrwt>0</asrwt>
<pdfrwt beam="1">  1        2 0.52810100E+00 0.25769024E+04</pdfrwt>
<pdfrwt beam="2">  1       -2 0.74403309E-01 0.25769024E+04</pdfrwt>
<totfact> 0.13051539E+00</totfact>
</mgrwt>
</event>
<event>
 6    1  0.1934315E-005  0.2782969E+04  0.7818608E-02  0.8308576E-01
          2   -1    0    0  501    0  0.00000000000E+00  0.00000000000E+00  0.27787068690E+04  0.27787068690E+04  0.00000000000E+00 0.  1.
         -2   -1    0    0    0  501 -0.00000000000E+00 -0.00000000000E+00 -0.69680919411E+03  0.69680919411E+03  0.00000000000E+00 0. -1.
         23    2    1    2    0    0 -0.85015868191E+03 -0.37717087264E+03  0.23320786382E+04  0.25123867021E+04  0.92024531546E+02 0.  0.
         13    1    3    3    0    0 -0.29856345742E+03 -0.85070294435E+02  0.77411022058E+03  0.83404060255E+03  0.00000000000E+00 0. -1.
        -13    1    3    3    0    0 -0.55159522449E+03 -0.29210057821E+03  0.15579684177E+04  0.16783460996E+04  0.00000000000E+00 0.  1.
         22    1    1    2    0    0  0.85015868191E+03  0.37717087264E+03 -0.25018096335E+03  0.96312936100E+03  0.00000000000E+00 0. -1.
<mgrwt>
<rscale>  0 0.27829686E+04</rscale>
<asrwt>0</asrwt>
<pdfrwt beam="1">  1        2 0.42749336E+00 0.27829686E+04</pdfrwt>
<pdfrwt beam="2">  1       -2 0.10720142E+00 0.27829686E+04</pdfrwt>
<totfact> 0.14508556E+00</totfact>
</mgrwt>
</event>
<event>
 6    1  0.1934315E-005  0.2943030E+04  0.7818608E-02  0.8260189E-01
          1   -1    0    0  501    0  0.00000000000E+00  0.00000000000E+00  0.20434312286E+04  0.20434312286E+04  0.00000000000E+00 0.  1.
         -1   -1    0    0    0  501 -0.00000000000E+00 -0.00000000000E+00 -0.10596671790E+04  0.10596671790E+04  0.00000000000E+00 0. -1.
         23    2    1    2    0    0  0.12447886600E+04 -0.53062014710E+02  0.13150754721E+04  0.18138809534E+04  0.91794500372E+02 0.  0.
         11    1    3    3    0    0  0.49770777062E+03 -0.64814322297E+02  0.54487111295E+03  0.74080932165E+03  0.00000000000E+00 0. -1.
        -11    1    3    3    0    0  0.74708088937E+03  0.11752307587E+02  0.77020435919E+03  0.10730716318E+04  0.00000000000E+00 0.  1.
         22    1    1    2    0    0 -0.12447886600E+04  0.53062014710E+02 -0.33131142258E+03  0.12892174542E+04  0.00000000000E+00 0. -1.
<mgrwt>
<rscale>  0 0.29430304E+04</rscale>
<asrwt>0</asrwt>
<pdfrwt beam="1">  1        1 0.31437403E+00 0.29430304E+04</pdfrwt>
<pdfrwt beam="2">  1       -1 0.16302572E+00 0.29430304E+04</pdfrwt>
<totfact> 0.66018782E-01</totfact>
</mgrwt>
</event>
<event>
 6    1  0.1934315E-005  0.5111926E+03  0.7818608E-02  0.1010898E+00
          2   -1    0    0  501    0  0.00000000000E+00  0.00000000000E+00  0.78368100800E+03  0.78368100800E+03  0.00000000000E+00 0.  1.
         -2   -1    0    0    0  501 -0.00000000000E+00 -0.00000000000E+00 -0.83362336744E+02  0.83362336744E+02  0.00000000000E+00 0. -1.
         23    2    1    2    0    0 -0.97967061965E+02 -0.22240999333E+03  0.45452516528E+03  0.52138716016E+03  0.78661900156E+02 0.  0.
         11    1    3    3    0    0 -0.10373410223E+03 -0.14827638898E+03  0.31462736508E+03  0.36295596200E+03  0.00000000000E+00 0.  1.
        -11    1    3    3    0    0  0.57670402632E+01 -0.74133604351E+02  0.13989780020E+03  0.15843119815E+03  0.00000000000E+00 0. -1.
         22    1    1    2    0    0  0.97967061965E+02  0.22240999333E+03  0.24579350597E+03  0.34565618458E+03  0.00000000000E+00 0. -1.
<mgrwt>
<rscale>  0 0.51119265E+03</rscale>
<asrwt>0</asrwt>
<pdfrwt beam="1">  1        2 0.12056630E+00 0.51119265E+03</pdfrwt>
<pdfrwt beam="2">  1       -2 0.12824975E-01 0.51119265E+03</pdfrwt>
<totfact> 0.16178254E+03</totfact>
</mgrwt>
</event>
<event>
 6    1  0.1934315E-005  0.1707329E+04  0.7818608E-02  0.8757195E-01
          2   -1    0    0  501    0  0.00000000000E+00  0.00000000000E+00  0.57820535653E+03  0.57820535653E+03  0.00000000000E+00 0.  1.
         -2   -1    0    0    0  501 -0.00000000000E+00 -0.00000000000E+00 -0.12603538151E+04  0.12603538151E+04  0.00000000000E+00 0. -1.
         23    2    1    2    0    0 -0.22647521613E+03 -0.33045768591E+03  0.46679273901E+03  0.62177686521E+03  0.90651548401E+02 0.  0.
         11    1    3    3    0    0 -0.14156121484E+03 -0.13163184966E+03  0.24453733691E+03  0.31171305801E+03  0.00000000000E+00 0.  1.
        -11    1    3    3    0    0 -0.84914001290E+02 -0.19882583625E+03  0.22225540210E+03  0.31006380721E+03  0.00000000000E+00 0. -1.
         22    1    1    2    0    0  0.22647521613E+03  0.33045768591E+03 -0.11489411975E+04  0.12167823064E+04  0.00000000000E+00 0. -1.
<mgrwt>
<rscale>  0 0.17073293E+04</rscale>
<asrwt>0</asrwt>
<pdfrwt beam="1">  1        2 0.88954670E-01 0.17073293E+04</pdfrwt>
<pdfrwt beam="2">  1       -2 0.19390059E+00 0.17073293E+04</pdfrwt>
<totfact> 0.71919646E+00</totfact>
</mgrwt>
</event>
<event>
 6    1  0.1934315E-005  0.2518315E+04  0.7818608E-02  0.8396490E-01
         -2   -1    0    0    0  501 -0.00000000000E+00  0.00000000000E+00  0.83567606226E+03  0.83567606226E+03  0.00000000000E+00 0. -1.
          2   -1    0    0  501    0  0.00000000000E+00 -0.00000000000E+00 -0.18972397500E+04  0.18972397500E+04  0.00000000000E+00 0.  1.
         23    2    1    2    0    0 -0.60822387250E+02 -0.11830893766E+04 -0.98873713948E+03  0.15460276365E+04  0.95919163468E+02 0.  0.
         11    1    3    3    0    0 -0.30114374977E+02 -0.60618256591E+03 -0.56882912188E+03  0.83182374858E+03  0.00000000000E+00 0. -1.
        -11    1    3    3    0    0 -0.30708012274E+02 -0.57690681067E+03 -0.41990801760E+03  0.71420388788E+03  0.00000000000E+00 0.  1.
         22    1    1    2    0    0  0.60822387250E+02  0.11830893766E+04 -0.72826548293E+02  0.11868881758E+04  0.00000000000E+00 0. -1.
<mgrwt>
<rscale>  0 0.25183152E+04</rscale>
<asrwt>0</asrwt>
<pdfrwt beam="1">  1        2 0.29188304E+00 0.25183152E+04</pdfrwt>
<pdfrwt beam="2">  1       -2 0.12856555E+00 0.25183152E+04</pdfrwt>
<totfact> 0.30313923E+00</totfact>
</mgrwt>
</event>
<event>
 6    1  0.1934315E-005  0.1191949E+04  0.7818608E-02  0.9119933E-01
         -2   -1    0    0    0  501 -0.00000000000E+00  0.00000000000E+00  0.20801778734E+03  0.20801778734E+03  0.00000000000E+00 0. -1.
          2   -1    0    0  501    0  0.00000000000E+00 -0.00000000000E+00 -0.17074767917E+04  0.17074767917E+04  0.00000000000E+00 0.  1.
         23    2    1    2    0    0 -0.10969022495E+03  0.21800899469E+03 -0.16216943926E+04  0.16425452113E+04  0.92207379992E+02 0.  0.
         11    1    3    3    0    0 -0.52664154425E+02  0.15057718006E+03 -0.12678858979E+04  0.12778817044E+04  0.00000000000E+00 0. -1.
        -11    1    3    3    0    0 -0.57026070525E+02  0.67431814630E+02 -0.35380849469E+03  0.36466350689E+03  0.00000000000E+00 0.  1.
         22    1    1    2    0    0  0.10969022495E+03 -0.21800899469E+03  0.12223538824E+03  0.27294936775E+03  0.00000000000E+00 0. -1.
<mgrwt>
<rscale>  0 0.11919489E+04</rscale>
<asrwt>0</asrwt>
<pdfrwt beam="1">  1        2 0.26268873E+00 0.11919489E+04</pdfrwt>
<pdfrwt beam="2">  1       -2 0.32002737E-01 0.11919489E+04</pdfrwt>
<totfact> 0.87087514E+01</totfact>
</mgrwt>
</event>
<event>
 6    1  0.1934315E-005  0.3196660E+04  0.7818608E-02  0.8189700E-01
          2   -1    0    0  501    0  0.00000000000E+00  0.00000000000E+00  0.28598385867E+04  0.28598385867E+04  0.00000000000E+00 0.  1.
         -2   -1    0    0    0  501 -0.00000000000E+00 -0.00000000000E+00 -0.89328796552E+03  0.89328796552E+03  0.00000000000E+00 0. -1.
         23    2    1    2    0    0  0.29771770493E+02 -0.15018962083E+04  0.34799103719E+03  0.15448888599E+04  0.94895989464E+02 0.  0.
         13    1    3    3    0    0  0.34701811458E+02 -0.18241024418E+03  0.41201112326E+02  0.19019790892E+03  0.00000000000E+00 0.  1.
        -13    1    3    3    0    0 -0.49300409654E+01 -0.13194859641E+04  0.30678992486E+03  0.13546909510E+04  0.00000000000E+00 0. -1.
         22    1    1    2    0    0 -0.29771770493E+02  0.15018962083E+04  0.16185595840E+04  0.22082376923E+04  0.00000000000E+00 0.  1.
<mgrwt>
<rscale>  0 0.31966604E+04</rscale>
<asrwt>0</asrwt>
<pdfrwt beam="1">  1        2 0.43997516E+00 0.31966604E+04</pdfrwt>
<pdfrwt beam="2">  1       -2 0.13742892E+00 0.31966604E+04</pdfrwt>
<totfact> 0.67459408E-01</totfact>
</mgrwt>
</event>
<event>
 6    1  0.1934315E-005  0.2024623E+04  0.7818608E-02  0.8595194E-01
          2   -1    0    0  501    0  0.00000000000E+00  0.00000000000E+00  0.20955800488E+04  0.20955800488E+04  0.00000000000E+00 0.  1.
         -2   -1    0    0    0  501 -0.00000000000E+00 -0.00000000000E+00 -0.48901717640E+03  0.48901717640E+03  0.00000000000E+00 0. -1.
         23    2    1    2    0    0 -0.44961301897E+02  0.38204939908E+03 -0.38694568851E+03  0.55431161860E+03  0.97729947547E+02 0.  0.
         13    1    3    3    0    0 -0.42752141821E+02  0.15683382755E+03 -0.22196770603E+03  0.27512589412E+03  0.00000000000E+00 0. -1.
        -13    1    3    3    0    0 -0.22091600763E+01  0.22521557154E+03 -0.16497798248E+03  0.27918572448E+03  0.00000000000E+00 0.  1.
         22    1    1    2    0    0  0.44961301897E+02 -0.38204939908E+03  0.19935085609E+04  0.20302856066E+04  0.00000000000E+00 0.  1.
<mgrwt>
<rscale>  0 0.20246231E+04</rscale>
<asrwt>0</asrwt>
<pdfrwt beam="1">  1        2 0.32239693E+00 0.20246231E+04</pdfrwt>
<pdfrwt beam="2">  1       -2 0.75233413E-01 0.20246231E+04</pdfrwt>
<totfact> 0.86886280E+00</totfact>
</mgrwt>
</event>
<event>
 6    1  0.1934315E-005  0.1915809E+04  0.7818608E-02  0.8647027E-01
          2   -1    0    0  501    0  0.00000000000E+00  0.00000000000E+00  0.18062264890E+04  0.18062264890E+04  0.00000000000E+00 0.  1.
         -2   -1    0    0    0  501 -0.00000000000E+00 -0.00000000000E+00 -0.50800996576E+03  0.50800996576E+03  0.00000000000E+00 0. -1.
         23    2    1    2    0    0  0.35623199565E+03  0.13745674283E+02 -0.42007160958E+03  0.55935632048E+03  0.96587565444E+02 0.  0.
         13    1    3    3    0    0  0.24870360069E+03  0.39010723630E+02 -0.33942012009E+03  0.42258884921E+03  0.00000000000E+00 0. -1.
        -13    1    3    3    0    0  0.10752839495E+03 -0.25265049348E+02 -0.80651489498E+02  0.13676747127E+03  0.00000000000E+00 0.  1.
         22    1    1    2    0    0 -0.35623199565E+03 -0.13745674283E+02  0.17182881328E+04  0.17548801343E+04  0.00000000000E+00 0.  1.
<mgrwt>
<rscale>  0 0.19158090E+04</rscale>
<asrwt>0</asrwt>
<pdfrwt beam="1">  1        2 0.27788099E+00 0.19158090E+04</pdfrwt>
<pdfrwt beam="2">  1       -2 0.78155381E-01 0.19158090E+04</pdfrwt>
<totfact> 0.11662531E+01</totfact>
</mgrwt>
</event>
<event>
 6    1  0.1934315E-005  0.1397368E+04  0.7818608E-02  0.8955726E-01
         -2   -1    0    0    0  501 -0.00000000000E+00  0.00000000000E+00  0.31319105969E+03  0.31319105969E+03  0.00000000000E+00 0. -1.
          2   -1    0    0  501    0  0.00000000000E+00 -0.00000000000E+00 -0.15586634655E+04  0.15586634655E+04  0.00000000000E+00 0.  1.
         23    2    1    2    0    0  0.48049822958E+03  0.22007249870E+03 -0.12315565634E+04  0.13431730483E+04  0.89843283334E+02 0.  0.
         11    1    3    3    0    0  0.38446915785E+03  0.17655705838E+03 -0.88482298804E+03  0.98076533807E+03  0.00000000000E+00 0. -1.
        -11    1    3    3    0    0  0.96029071728E+02  0.43515440322E+02 -0.34673357534E+03  0.36240771023E+03  0.00000000000E+00 0.  1.
         22    1    1    2    0    0 -0.48049822958E+03 -0.22007249870E+03 -0.13915842393E+02  0.52868147686E+03  0.00000000000E+00 0. -1.
<mgrwt>
<rscale>  0 0.13973682E+04</rscale>
<asrwt>0</asrwt>
<pdfrwt beam="1">  1        2 0.23979438E+00 0.13973682E+04</pdfrwt>
<pdfrwt beam="2">  1       -2 0.48183240E-01 0.13973682E+04</pdfrwt>
<totfact> 0.46716919E+01</totfact>
</mgrwt>
</event>
<event>
 6    1  0.1934315E-005  0.1636930E+04  0.7818608E-02  0.8798176E-01
          2   -1    0    0  501    0  0.00000000000E+00  0.00000000000E+00  0.91337459698E+03  0.91337459698E+03  0.00000000000E+00 0.  1.
         -2   -1    0    0    0  501 -0.00000000000E+00 -0.00000000000E+00 -0.73341770802E+03  0.73341770802E+03  0.00000000000E+00 0. -1.
         23    2    1    2    0    0 -0.57153385948E+03 -0.55278464775E+03 -0.93794306549E+02  0.80586333276E+03  0.91632526065E+02 0.  0.
         11    1    3    3    0    0 -0.17947547016E+03 -0.21173872312E+03  0.14345567913E+01  0.27757303401E+03  0.00000000000E+00 0.  1.
        -11    1    3    3    0    0 -0.39205838932E+03 -0.34104592463E+03 -0.95228863340E+02  0.52829029875E+03  0.00000000000E+00 0. -1.
         22    1    1    2    0    0  0.57153385948E+03  0.55278464775E+03  0.27375119551E+03  0.84092897224E+03  0.00000000000E+00 0.  1.
<mgrwt>
<rscale>  0 0.16369302E+04</rscale>
<asrwt>0</asrwt>
<pdfrwt beam="1">  1        2 0.14051917E+00 0.16369302E+04</pdfrwt>
<pdfrwt beam="2">  1       -2 0.11283349E+00 0.16369302E+04</pdfrwt>
<totfact> 0.16962704E+01</totfact>
</mgrwt>
</event>
<event>
 6    1  0.1934315E-005  0.1448895E+04  0.7818608E-02  0.8919167E-01
          2   -1    0    0  501    0  0.00000000000E+00  0.00000000000E+00  0.14195968075E+04  0.14195968075E+04  0.00000000000E+00 0.  1.
         -2   -1    0    0    0  501 -0.00000000000E+00 -0.00000000000E+00 -0.36969955652E+03  0.36969955652E+03  0.00000000000E+00 0. -1.
         23    2    1    2    0    0 -0.68391230277E+00 -0.71516568002E+03  0.64494551092E+03  0.96743972849E+03  0.92317379733E+02 0.  0.
         13    1    3    3    0    0 -0.24373731769E+02 -0.25809775434E+03  0.18429287891E+03  0.31807608337E+03  0.00000000000E+00 0.  1.
        -13    1    3    3    0    0  0.23689819467E+02 -0.45706792568E+03  0.46065263201E+03  0.64936364513E+03  0.00000000000E+00 0. -1.
         22    1    1    2    0    0  0.68391230277E+00  0.71516568002E+03  0.40495174009E+03  0.82185663556E+03  0.00000000000E+00 0. -1.
<mgrwt>
<rscale>  0 0.14488952E+04</rscale>
<asrwt>0</asrwt>
<pdfrwt beam="1">  1        2 0.21839951E+00 0.14488952E+04</pdfrwt>
<pdfrwt beam="2">  1       -2 0.56876855E-01 0.14488952E+04</pdfrwt>
<totfact> 0.39636885E+01</totfact>
</mgrwt>
</event>
<event>
 6    1  0.1934315E-005  0.9134346E+03  0.7818608E-02  0.9408942E-01
          2   -1    0    0  501    0  0.00000000000E+00  0.00000000000E+00  0.12697583312E+04  0.12697583312E+04  0.00000000000E+00 0.  1.
         -2   -1    0    0    0  501 -0.00000000000E+00 -0.00000000000E+00 -0.16427590855E+03  0.16427590855E+03  0.00000000000E+00 0. -1.
         23    2    1    2    0    0 -0.22154947348E+03 -0.32704555978E+03  0.90381557731E+03  0.99051142874E+03  0.90483839995E+02 0.  0.
         13    1    3    3    0    0 -0.14643730145E+03 -0.27588257480E+03  0.73911904329E+03  0.80240391231E+03  0.00000000000E+00 0.  1.
        -13    1    3    3    0    0 -0.75112172024E+02 -0.51162984975E+02  0.16469653402E+03  0.18810751642E+03  0.00000000000E+00 0. -1.
         22    1    1    2    0    0  0.22154947348E+03  0.32704555978E+03  0.20166684530E+03  0.44352281098E+03  0.00000000000E+00 0.  1.
<mgrwt>
<rscale>  0 0.91343462E+03</rscale>
<asrwt>0</asrwt>
<pdfrwt beam="1">  1        2 0.19534743E+00 0.91343462E+03</pdfrwt>
<pdfrwt beam="2">  1       -2 0.25273218E-01 0.91343462E+03</pdfrwt>
<totfact> 0.24237963E+02</totfact>
</mgrwt>
</event>
<event>
 6    1  0.1934315E-005  0.1491337E+04  0.7818608E-02  0.8890234E-01
          2   -1    0    0  501    0  0.00000000000E+00  0.00000000000E+00  0.39470052747E+04  0.39470052747E+04  0.00000000000E+00 0.  1.
         -2   -1    0    0    0  501 -0.00000000000E+00 -0.00000000000E+00 -0.14087180332E+03  0.14087180332E+03  0.00000000000E+00 0. -1.
         23    2    1    2    0    0 -0.40222364967E+03 -0.37109989832E+03  0.53294454044E+03  0.76925314987E+03  0.90672633760E+02 0.  0.
         13    1    3    3    0    0 -0.30359696432E+02 -0.12967308618E+02  0.62974199132E+02  0.71102827064E+02  0.00000000000E+00 0. -1.
        -13    1    3    3    0    0 -0.37186395324E+03 -0.35813258970E+03  0.46997034131E+03  0.69815032281E+03  0.00000000000E+00 0.  1.
         22    1    1    2    0    0  0.40222364967E+03  0.37109989832E+03  0.32731889309E+04  0.33186239281E+04  0.00000000000E+00 0.  1.
<mgrwt>
<rscale>  0 0.14913373E+04</rscale>
<asrwt>0</asrwt>
<pdfrwt beam="1">  1        2 0.60723150E+00 0.14913373E+04</pdfrwt>
<pdfrwt beam="2">  1       -2 0.21672588E-01 0.14913373E+04</pdfrwt>
<totfact> 0.69227673E+00</totfact>
</mgrwt>
</event>
<event>
 6    1  0.1934315E-005  0.5244220E+04  0.7818608E-02  0.7791900E-01
          2   -1    0    0  501    0  0.00000000000E+00  0.00000000000E+00  0.24464310077E+04  0.24464310077E+04  0.00000000000E+00 0.  1.
         -2   -1    0    0    0  501 -0.00000000000E+00 -0.00000000000E+00 -0.28104047083E+04  0.28104047083E+04  0.00000000000E+00 0. -1.
         23    2    1    2    0    0 -0.96914132454E+03 -0.30168100738E+02 -0.26232917055E+04  0.27982461064E+04  0.91525286672E+02 0.  0.
         13    1    3    3    0    0 -0.64804946129E+03 -0.50590383175E+02 -0.16651211000E+04  0.17874998654E+04  0.00000000000E+00 0.  1.
        -13    1    3    3    0    0 -0.32109186325E+03  0.20422282437E+02 -0.95817060551E+03  0.10107462409E+04  0.00000000000E+00 0. -1.
         22    1    1    2    0    0  0.96914132454E+03  0.30168100738E+02  0.22593180050E+04  0.24585896097E+04  0.00000000000E+00 0.  1.
<mgrwt>
<rscale>  0 0.52442201E+04</rscale>
<asrwt>0</asrwt>
<pdfrwt beam="1">  1        2 0.37637400E+00 0.52442201E+04</pdfrwt>
<pdfrwt beam="2">  1       -2 0.43236995E+00 0.52442201E+04</pdfrwt>
<totfact> 0.12150862E-02</totfact>
</mgrwt>
</event>
<event>
 6    1  0.1934315E-005  0.2304200E+04  0.7818608E-02  0.8476267E-01
          2   -1    0    0  501    0  0.00000000000E+00  0.00000000000E+00  0.10092624016E+04  0.10092624016E+04  0.00000000000E+00 0.  1.
         -2   -1    0    0    0  501 -0.00000000000E+00 -0.00000000000E+00 -0.13151527002E+04  0.13151527002E+04  0.00000000000E+00 0. -1.
         23    2    1    2    0    0 -0.13222206956E+03 -0.11392012152E+04 -0.63319533230E+02  0.11521938512E+04  0.90990236384E+02 0.  0.
         13    1    3    3    0    0 -0.21942933629E+02 -0.30216484141E+03 -0.54825817566E+02  0.30788139599E+03  0.00000000000E+00 0. -1.
        -13    1    3    3    0    0 -0.11027913593E+03 -0.83703637376E+03 -0.84937156647E+01  0.84431245521E+03  0.00000000000E+00 0.  1.
         22    1    1    2    0    0  0.13222206956E+03  0.11392012152E+04 -0.24257076537E+03  0.11722212507E+04  0.00000000000E+00 0. -1.
<mgrwt>
<rscale>  0 0.23041998E+04</rscale>
<asrwt>0</asrwt>
<pdfrwt beam="1">  1        2 0.15527114E+00 0.23041998E+04</pdfrwt>
<pdfrwt beam="2">  1       -2 0.20233118E+00 0.23041998E+04</pdfrwt>
<totfact> 0.28906980E+00</totfact>
</mgrwt>
</event>
<event>
 6    1  0.1934315E-005  0.2027483E+04  0.7818608E-02  0.8593878E-01
          2   -1    0    0  501    0  0.00000000000E+00  0.00000000000E+00  0.15246893534E+04  0.15246893534E+04  0.00000000000E+00 0.  1.
         -2   -1    0    0    0  501 -0.00000000000E+00 -0.00000000000E+00 -0.67402029631E+03  0.67402029631E+03  0.00000000000E+00 0. -1.
         23    2    1    2    0    0 -0.73548946531E+03 -0.50290228415E+03  0.94581010106E+03  0.13026587141E+04  0.92236202505E+02 0.  0.
         11    1    3    3    0    0 -0.57325841806E+03 -0.39692170151E+03  0.68216754675E+03  0.97546123083E+03  0.00000000000E+00 0. -1.
        -11    1    3    3    0    0 -0.16223104725E+03 -0.10598058264E+03  0.26364255430E+03  0.32719748322E+03  0.00000000000E+00 0.  1.
         22    1    1    2    0    0  0.73548946531E+03  0.50290228415E+03 -0.95141043999E+02  0.89605093563E+03  0.00000000000E+00 0. -1.
<mgrwt>
<rscale>  0 0.20274827E+04</rscale>
<asrwt>0</asrwt>
<pdfrwt beam="1">  1        2 0.23456759E+00 0.20274827E+04</pdfrwt>
<pdfrwt beam="2">  1       -2 0.10369543E+00 0.20274827E+04</pdfrwt>
<totfact> 0.86327648E+00</totfact>
</mgrwt>
</event>
<event>
 6    1  0.1934315E-005  0.3541591E+04  0.7818608E-02  0.8104003E-01
         -2   -1    0    0    0  501 -0.00000000000E+00  0.00000000000E+00  0.14373435938E+04  0.14373435938E+04  0.00000000000E+00 0. -1.
          2   -1    0    0  501    0  0.00000000000E+00 -0.00000000000E+00 -0.21816060040E+04  0.21816060040E+04  0.00000000000E+00 0.  1.
         23    2    1    2    0    0  0.58039928756E+03  0.12682985339E+04 -0.14851760383E+04  0.20395834248E+04  0.93317618801E+02 0.  0.
         13    1    3    3    0    0  0.12796330480E+03  0.37181373318E+03 -0.39338828922E+03  0.55621435225E+03  0.00000000000E+00 0. -1.
        -13    1    3    3    0    0  0.45243598276E+03  0.89648480073E+03 -0.10917877491E+04  0.14833690726E+04  0.00000000000E+00 0.  1.
         22    1    1    2    0    0 -0.58039928756E+03 -0.12682985339E+04  0.74091362802E+03  0.15793661730E+04  0.00000000000E+00 0. -1.
<mgrwt>
<rscale>  0 0.35415914E+04</rscale>
<asrwt>0</asrwt>
<pdfrwt beam="1">  1        2 0.33563169E+00 0.35415914E+04</pdfrwt>
<pdfrwt beam="2">  1       -2 0.22112979E+00 0.35415914E+04</pdfrwt>
<totfact> 0.42105479E-01</totfact>
</mgrwt>
</event>
<event>
 6    1  0.1934315E-005  0.2241360E+04  0.7818608E-02  0.8501408E-01
          2   -1    0    0  501    0  0.00000000000E+00  0.00000000000E+00  0.17237660678E+04  0.17237660678E+04  0.00000000000E+00 0.  1.
         -2   -1    0    0    0  501 -0.00000000000E+00 -0.00000000000E+00 -0.72859285714E+03  0.72859285714E+03  0.00000000000E+00 0. -1.
         23    2    1    2    0    0  0.80945087457E+03 -0.24175559275E+03 -0.30424166951E+03  0.90247650495E+03  0.90798477711E+02 0.  0.
         13    1    3    3    0    0  0.22680406266E+03 -0.10184549648E+03 -0.11634901338E+03  0.27449896340E+03  0.00000000000E+00 0. -1.
        -13    1    3    3    0    0  0.58264681191E+03 -0.13991009627E+03 -0.18789265613E+03  0.62797754155E+03  0.00000000000E+00 0.  1.
         22    1    1    2    0    0 -0.80945087457E+03  0.24175559275E+03  0.12994148801E+04  0.15498824199E+04  0.00000000000E+00 0.  1.
<mgrwt>
<rscale>  0 0.22413600E+04</rscale>
<asrwt>0</asrwt>
<pdfrwt beam="1">  1        2 0.26519478E+00 0.22413600E+04</pdfrwt>
<pdfrwt beam="2">  1       -2 0.11209121E+00 0.22413600E+04</pdfrwt>
<totfact> 0.54394769E+00</totfact>
</mgrwt>
</event>
<event>
 6    1  0.1934315E-005  0.1939238E+04  0.7818608E-02  0.8635568E-01
         -2   -1    0    0    0  501 -0.00000000000E+00  0.00000000000E+00  0.51349809919E+03  0.51349809919E+03  0.00000000000E+00 0. -1.
          2   -1    0    0  501    0  0.00000000000E+00 -0.00000000000E+00 -0.18308942121E+04  0.18308942121E+04  0.00000000000E+00 0.  1.
         23    2    1    2    0    0 -0.88796810949E+03  0.14259011476E+02 -0.11242197736E+04  0.14355426092E+04  0.90674145041E+02 0.  0.
         13    1    3    3    0    0 -0.33771890000E+03  0.44872361791E+02 -0.46128437359E+03  0.57345519231E+03  0.00000000000E+00 0.  1.
        -13    1    3    3    0    0 -0.55024920949E+03 -0.30613350315E+02 -0.66293539999E+03  0.86208741687E+03  0.00000000000E+00 0. -1.
         22    1    1    2    0    0  0.88796810949E+03 -0.14259011476E+02 -0.19317633929E+03  0.90884970206E+03  0.00000000000E+00 0. -1.
<mgrwt>
<rscale>  0 0.19392377E+04</rscale>
<asrwt>0</asrwt>
<pdfrwt beam="1">  1        2 0.28167603E+00 0.19392377E+04</pdfrwt>
<pdfrwt beam="2">  1       -2 0.78999709E-01 0.19392377E+04</pdfrwt>
<totfact> 0.11010818E+01</totfact>
</mgrwt>
</event>
<event>
 6    1  0.1934315E-005  0.1918728E+04  0.7818608E-02  0.8645590E-01
         -2   -1    0    0    0  501 -0.00000000000E+00  0.00000000000E+00  0.31739823704E+03  0.31739823704E+03  0.00000000000E+00 0. -1.
          2   -1    0    0  501    0  0.00000000000E+00 -0.00000000000E+00 -0.28997616565E+04  0.28997616565E+04  0.00000000000E+00 0.  1.
         23    2    1    2    0    0  0.58736658989E+03 -0.23450248677E+03 -0.89319110766E+02  0.64514495340E+03  0.90791960707E+02 0.  0.
         13    1    3    3    0    0  0.12590552647E+03 -0.75481961338E+02 -0.51579008170E+02  0.15559602234E+03  0.00000000000E+00 0. -1.
        -13    1    3    3    0    0  0.46146106342E+03 -0.15902052544E+03 -0.37740102596E+02  0.48954893106E+03  0.00000000000E+00 0.  1.
         22    1    1    2    0    0 -0.58736658989E+03  0.23450248677E+03 -0.24930443087E+04  0.25720149401E+04  0.00000000000E+00 0.  1.
<mgrwt>
<rscale>  0 0.19187280E+04</rscale>
<asrwt>0</asrwt>
<pdfrwt beam="1">  1        2 0.44611717E+00 0.19187280E+04</pdfrwt>
<pdfrwt beam="2">  1       -2 0.48830499E-01 0.19187280E+04</pdfrwt>
<totfact> 0.74816636E+00</totfact>
</mgrwt>
</event>
<event>
 6    1  0.1934315E-005  0.4971542E+04  0.7818608E-02  0.7832912E-01
         -2   -1    0    0    0  501 -0.00000000000E+00  0.00000000000E+00  0.25950337460E+04  0.25950337460E+04  0.00000000000E+00 0. -1.
          2   -1    0    0  501    0  0.00000000000E+00 -0.00000000000E+00 -0.23811086832E+04  0.23811086832E+04  0.00000000000E+00 0.  1.
         23    2    1    2    0    0  0.43567523003E+02 -0.14825373978E+04  0.21025948559E+04  0.25747076805E+04  0.91647405668E+02 0.  0.
         11    1    3    3    0    0  0.72167033645E+02 -0.10471446249E+04  0.14944648755E+04  0.18262379939E+04  0.00000000000E+00 0.  1.
        -11    1    3    3    0    0 -0.28599510642E+02 -0.43539277289E+03  0.60812998039E+03  0.74846968659E+03  0.00000000000E+00 0. -1.
         22    1    1    2    0    0 -0.43567523003E+02  0.14825373978E+04 -0.18886697931E+04  0.24014347487E+04  0.00000000000E+00 0.  1.
<mgrwt>
<rscale>  0 0.49715420E+04</rscale>
<asrwt>0</asrwt>
<pdfrwt beam="1">  1        2 0.36632441E+00 0.49715420E+04</pdfrwt>
<pdfrwt beam="2">  1       -2 0.39923596E+00 0.49715420E+04</pdfrwt>
<totfact> 0.22344525E-02</totfact>
</mgrwt>
</event>
<event>
 6    1  0.1934315E-005  0.3231725E+04  0.7818608E-02  0.8180489E-01
         -2   -1    0    0    0  501 -0.00000000000E+00  0.00000000000E+00  0.13347247478E+04  0.13347247478E+04  0.00000000000E+00 0. -1.
          2   -1    0    0  501    0  0.00000000000E+00 -0.00000000000E+00 -0.19562172792E+04  0.19562172792E+04  0.00000000000E+00 0.  1.
         23    2    1    2    0    0  0.13070235256E+04 -0.42728476250E+03 -0.11727036335E+04  0.18094844867E+04  0.90097340519E+02 0.  0.
         11    1    3    3    0    0  0.12375177508E+04 -0.39665651693E+03 -0.11313428493E+04  0.17229983223E+04  0.00000000000E+00 0. -1.
        -11    1    3    3    0    0  0.69505774854E+02 -0.30628245571E+02 -0.41360784130E+02  0.86486164377E+02  0.00000000000E+00 0.  1.
         22    1    1    2    0    0 -0.13070235256E+04  0.42728476250E+03  0.55121110207E+03  0.14814575404E+04  0.00000000000E+00 0. -1.
<mgrwt>
<rscale>  0 0.32317250E+04</rscale>
<asrwt>0</asrwt>
<pdfrwt beam="1">  1        2 0.30095650E+00 0.32317250E+04</pdfrwt>
<pdfrwt beam="2">  1       -2 0.20534227E+00 0.32317250E+04</pdfrwt>
<totfact> 0.72845622E-01</totfact>
</mgrwt>
</event>
<event>
 6    1  0.1934315E-005  0.1645021E+04  0.7818608E-02  0.8793357E-01
          2   -1    0    0  501    0  0.00000000000E+00  0.00000000000E+00  0.22956744640E+04  0.22956744640E+04  0.00000000000E+00 0.  1.
         -2   -1    0    0    0  501 -0.00000000000E+00 -0.00000000000E+00 -0.29469505260E+03  0.29469505260E+03  0.00000000000E+00 0. -1.
         23    2    1    2    0    0  0.17510653109E+03 -0.47162318389E+03  0.20232073951E+04  0.20867974681E+04  0.90910858497E+02 0.  0.
         11    1    3    3    0    0  0.10965990952E+03 -0.18105797453E+03  0.75768033721E+03  0.78669357395E+03  0.00000000000E+00 0. -1.
        -11    1    3    3    0    0  0.65446621574E+02 -0.29056520936E+03  0.12655270579E+04  0.13001038941E+04  0.00000000000E+00 0.  1.
         22    1    1    2    0    0 -0.17510653109E+03  0.47162318389E+03 -0.22227983727E+02  0.50357204854E+03  0.00000000000E+00 0. -1.
<mgrwt>
<rscale>  0 0.16450215E+04</rscale>
<asrwt>0</asrwt>
<pdfrwt beam="1">  1        2 0.35318068E+00 0.16450215E+04</pdfrwt>
<pdfrwt beam="2">  1       -2 0.45337702E-01 0.16450215E+04</pdfrwt>
<totfact> 0.20120810E+01</totfact>
</mgrwt>
</event>
<event>
 6    1  0.1934315E-005  0.8217979E+03  0.7818608E-02  0.9528991E-01
         -2   -1    0    0    0  501 -0.00000000000E+00  0.00000000000E+00  0.70514958937E+02  0.70514958937E+02  0.00000000000E+00 0. -1.
          2   -1    0    0  501    0  0.00000000000E+00 -0.00000000000E+00 -0.23943567417E+04  0.23943567417E+04  0.00000000000E+00 0.  1.
         23    2    1    2    0    0 -0.28428482468E+03  0.28946599603E+03 -0.11406001434E+04  0.12140043209E+04  0.90715929100E+02 0.  0.
         13    1    3    3    0    0 -0.27929847782E+03  0.25301851867E+03 -0.10694109302E+04  0.11338720157E+04  0.00000000000E+00 0.  1.
        -13    1    3    3    0    0 -0.49863468676E+01  0.36447477352E+02 -0.71189213194E+02  0.80132305193E+02  0.00000000000E+00 0. -1.
         22    1    1    2    0    0  0.28428482468E+03 -0.28946599603E+03 -0.11832416394E+04  0.12508673797E+04  0.00000000000E+00 0. -1.
<mgrwt>
<rscale>  0 0.82179795E+03</rscale>
<asrwt>0</asrwt>
<pdfrwt beam="1">  1        2 0.36836252E+00 0.82179795E+03</pdfrwt>
<pdfrwt beam="2">  1       -2 0.10848457E-01 0.82179795E+03</pdfrwt>
<totfact> 0.24739488E+02</totfact>
</mgrwt>
</event>
<event>
 6    1  0.1934315E-005  0.3826732E+04  0.7818608E-02  0.8040442E-01
          2   -1    0    0  501    0  0.00000000000E+00  0.00000000000E+00  0.13377277416E+04  0.13377277416E+04  0.00000000000E+00 0.  1.
         -2   -1    0    0    0  501 -0.00000000000E+00 -0.00000000000E+00 -0.27367080374E+04  0.27367080374E+04  0.00000000000E+00 0. -1.
         23    2    1    2    0    0 -0.61149619181E+03 -0.17327796914E+04 -0.12613956477E+04  0.22317793848E+04  0.11518329292E+03 0.  0.
         11    1    3    3    0    0 -0.37760225353E+03 -0.10853802854E+04 -0.72095116744E+03  0.13566150565E+04  0.00000000000E+00 0. -1.
        -11    1    3    3    0    0 -0.23389393828E+03 -0.64739940601E+03 -0.54044448028E+03  0.87516432830E+03  0.00000000000E+00 0.  1.
         22    1    1    2    0    0  0.61149619181E+03  0.17327796914E+04 -0.13758464800E+03  0.18426563942E+04  0.00000000000E+00 0. -1.
<mgrwt>
<rscale>  0 0.38267324E+04</rscale>
<asrwt>0</asrwt>
<pdfrwt beam="1">  1        2 0.20580427E+00 0.38267324E+04</pdfrwt>
<pdfrwt beam="2">  1       -2 0.42103200E+00 0.38267324E+04</pdfrwt>
<totfact> 0.67827353E-02</totfact>
</mgrwt>
</event>
<event>
 6    1  0.1934315E-005  0.2953378E+04  0.7818608E-02  0.8257171E-01
         -2   -1    0    0    0  501 -0.00000000000E+00  0.00000000000E+00  0.52575287328E+03  0.52575287328E+03  0.00000000000E+00 0. -1.
          2   -1    0    0  501    0  0.00000000000E+00 -0.00000000000E+00 -0.41475951796E+04  0.41475951796E+04  0.00000000000E+00 0.  1.
         23    2    1    2    0    0  0.13405709114E+04 -0.18811896224E+03 -0.27404465608E+04  0.30579912586E+04  0.93509746422E+02 0.  0.
         13    1    3    3    0    0  0.56576453272E+03 -0.12606969860E+03 -0.11669268594E+04  0.13029586988E+04  0.00000000000E+00 0. -1.
        -13    1    3    3    0    0  0.77480637871E+03 -0.62049263636E+02 -0.15735197014E+04  0.17550325599E+04  0.00000000000E+00 0.  1.
         22    1    1    2    0    0 -0.13405709114E+04  0.18811896224E+03 -0.88139574550E+03  0.16153567942E+04  0.00000000000E+00 0. -1.
<mgrwt>
<rscale>  0 0.29533778E+04</rscale>
<asrwt>0</asrwt>
<pdfrwt beam="1">  1        2 0.63809158E+00 0.29533778E+04</pdfrwt>
<pdfrwt beam="2">  1       -2 0.80885056E-01 0.29533778E+04</pdfrwt>
<totfact> 0.29883543E-01</totfact>
</mgrwt>
</event>
<event>
 6    1  0.1934315E-005  0.1427435E+04  0.7818608E-02  0.8934196E-01
          2   -1    0    0  501    0  0.00000000000E+00  0.00000000000E+00  0.10519030904E+04  0.10519030904E+04  0.00000000000E+00 0.  1.
         -2   -1    0    0    0  501 -0.00000000000E+00 -0.00000000000E+00 -0.48425809282E+03  0.48425809282E+03  0.00000000000E+00 0. -1.
         23    2    1    2    0    0  0.26367218861E+03 -0.52302477284E+03 -0.14839657188E+03  0.61107012542E+03  0.91143949799E+02 0.  0.
         13    1    3    3    0    0  0.17879025123E+03 -0.33920641827E+03 -0.52431983773E+02  0.38700912270E+03  0.00000000000E+00 0. -1.
        -13    1    3    3    0    0  0.84881937384E+02 -0.18381835457E+03 -0.95964588102E+02  0.22406100272E+03  0.00000000000E+00 0.  1.
         22    1    1    2    0    0 -0.26367218861E+03  0.52302477284E+03  0.71604156950E+03  0.92509105784E+03  0.00000000000E+00 0.  1.
<mgrwt>
<rscale>  0 0.14274349E+04</rscale>
<asrwt>0</asrwt>
<pdfrwt beam="1">  1        2 0.16183124E+00 0.14274349E+04</pdfrwt>
<pdfrwt beam="2">  1       -2 0.74501245E-01 0.14274349E+04</pdfrwt>
<totfact> 0.36756416E+01</totfact>
</mgrwt>
</event>
<event>
 6    1  0.1934315E-005  0.1422714E+04  0.7818608E-02  0.8937539E-01
         -2   -1    0    0    0  501 -0.00000000000E+00  0.00000000000E+00  0.12118947001E+04  0.12118947001E+04  0.00000000000E+00 0. -1.
          2   -1    0    0  501    0  0.00000000000E+00 -0.00000000000E+00 -0.41755199091E+03  0.41755199091E+03  0.00000000000E+00 0.  1.
         23    2    1    2    0    0 -0.17822727327E+03  0.33194673294E+03 -0.28825197378E+03  0.48316363607E+03  0.91674993237E+02 0.  0.
         11    1    3    3    0    0 -0.89183780819E+02  0.78287120285E+02 -0.80264621001E+02  0.14326559024E+03  0.00000000000E+00 0. -1.
        -11    1    3    3    0    0 -0.89043492454E+02  0.25365961265E+03 -0.20798735278E+03  0.33989804582E+03  0.00000000000E+00 0.  1.
         22    1    1    2    0    0  0.17822727327E+03 -0.33194673294E+03  0.10825946830E+04  0.11462830549E+04  0.00000000000E+00 0. -1.
<mgrwt>
<rscale>  0 0.14227144E+04</rscale>
<asrwt>0</asrwt>
<pdfrwt beam="1">  1        2 0.64238768E-01 0.14227144E+04</pdfrwt>
<pdfrwt beam="2">  1       -2 0.18644534E+00 0.14227144E+04</pdfrwt>
<totfact> 0.12042407E+01</totfact>
</mgrwt>
</event>
<event>
 6    1  0.1934315E-005  0.7320535E+04  0.7818608E-02  0.7545252E-01
         -2   -1    0    0    0  501 -0.00000000000E+00  0.00000000000E+00  0.45674088619E+04  0.45674088619E+04  0.00000000000E+00 0. -1.
          2   -1    0    0  501    0  0.00000000000E+00 -0.00000000000E+00 -0.29332953403E+04  0.29332953403E+04  0.00000000000E+00 0.  1.
         23    2    1    2    0    0 -0.95166784360E+03  0.34665987638E+04  0.11443753293E+03  0.35978342601E+04  0.91305752423E+02 0.  0.
         11    1    3    3    0    0 -0.66625752891E+03  0.23174540103E+04  0.10840039168E+03  0.24137611376E+04  0.00000000000E+00 0.  1.
        -11    1    3    3    0    0 -0.28541031469E+03  0.11491447535E+04  0.60371412528E+01  0.11840731225E+04  0.00000000000E+00 0. -1.
         22    1    1    2    0    0  0.95166784360E+03 -0.34665987638E+04  0.15196759887E+04  0.39028699420E+04  0.00000000000E+00 0. -1.
<mgrwt>
<rscale>  0 0.73205353E+04</rscale>
<asrwt>0</asrwt>
<pdfrwt beam="1">  1        2 0.45127621E+00 0.73205353E+04</pdfrwt>
<pdfrwt beam="2">  1       -2 0.70267828E+00 0.73205353E+04</pdfrwt>
<totfact> 0.26678059E-04</totfact>
</mgrwt>
</event>
<event>
 6    1  0.1934315E-005  0.2313802E+04  0.7818608E-02  0.8472499E-01
          2   -1    0    0  501    0  0.00000000000E+00  0.00000000000E+00  0.26891780462E+04  0.26891780462E+04  0.00000000000E+00 0.  1.
         -2   -1    0    0    0  501 -0.00000000000E+00 -0.00000000000E+00 -0.49770603431E+03  0.49770603431E+03  0.00000000000E+00 0. -1.
         23    2    1    2    0    0  0.48868400034E+03  0.14988140334E+03 -0.32919888191E+03  0.61490852812E+03  0.92000580681E+02 0.  0.
         13    1    3    3    0    0  0.32132983749E+03  0.10721937059E+03 -0.16575973492E+03  0.37712749516E+03  0.00000000000E+00 0. -1.
        -13    1    3    3    0    0  0.16735416286E+03  0.42662032750E+02 -0.16343914699E+03  0.23778103296E+03  0.00000000000E+00 0.  1.
         22    1    1    2    0    0 -0.48868400034E+03 -0.14988140334E+03  0.25206708938E+04  0.25719755524E+04  0.00000000000E+00 0.  1.
<mgrwt>
<rscale>  0 0.23138022E+04</rscale>
<asrwt>0</asrwt>
<pdfrwt beam="1">  1        2 0.41371969E+00 0.23138022E+04</pdfrwt>
<pdfrwt beam="2">  1       -2 0.76570161E-01 0.23138022E+04</pdfrwt>
<totfact> 0.37224789E+00</totfact>
</mgrwt>
</event>
<event>
 6    1  0.1934315E-005  0.2219086E+04  0.7818608E-02  0.8510526E-01
         -2   -1    0    0    0  501 -0.00000000000E+00  0.00000000000E+00  0.87053863794E+03  0.87053863794E+03  0.00000000000E+00 0. -1.
          2   -1    0    0  501    0  0.00000000000E+00 -0.00000000000E+00 -0.14141660817E+04  0.14141660817E+04  0.00000000000E+00 0.  1.
         23    2    1    2    0    0  0.97057699307E+03  0.46055827178E+03 -0.54968734494E+03  0.12103815171E+04  0.93453830729E+02 0.  0.
         13    1    3    3    0    0  0.45111748990E+03  0.16665589444E+03 -0.26550393687E+03  0.54933916421E+03  0.00000000000E+00 0. -1.
        -13    1    3    3    0    0  0.51945950318E+03  0.29390237733E+03 -0.28418340807E+03  0.66104235286E+03  0.00000000000E+00 0.  1.
         22    1    1    2    0    0 -0.97057699307E+03 -0.46055827178E+03  0.60599011790E+01  0.10743232026E+04  0.00000000000E+00 0. -1.
<mgrwt>
<rscale>  0 0.22190865E+04</rscale>
<asrwt>0</asrwt>
<pdfrwt beam="1">  1        2 0.21756401E+00 0.22190865E+04</pdfrwt>
<pdfrwt beam="2">  1       -2 0.13392902E+00 0.22190865E+04</pdfrwt>
<totfact> 0.52196731E+00</totfact>
</mgrwt>
</event>
<event>
 6    1  0.1934315E-005  0.2256264E+04  0.7818608E-02  0.8495368E-01
          2   -1    0    0  501    0  0.00000000000E+00  0.00000000000E+00  0.15955675930E+04  0.15955675930E+04  0.00000000000E+00 0.  1.
         -2   -1    0    0    0  501 -0.00000000000E+00 -0.00000000000E+00 -0.79763591451E+03  0.79763591451E+03  0.00000000000E+00 0. -1.
         23    2    1    2    0    0  0.35443248183E+03 -0.25143180269E+03 -0.70371412663E+03  0.82994394505E+03  0.68942326032E+02 0.  0.
         13    1    3    3    0    0  0.12395072391E+03 -0.12014233709E+03 -0.23836862868E+03  0.29430862417E+03  0.00000000000E+00 0. -1.
        -13    1    3    3    0    0  0.23048175792E+03 -0.13128946560E+03 -0.46534549795E+03  0.53563532088E+03  0.00000000000E+00 0.  1.
         22    1    1    2    0    0 -0.35443248183E+03  0.25143180269E+03  0.15016458052E+04  0.15632595625E+04  0.00000000000E+00 0.  1.
<mgrwt>
<rscale>  0 0.22562642E+04</rscale>
<asrwt>0</asrwt>
<pdfrwt beam="1">  1        2 0.24547194E+00 0.22562642E+04</pdfrwt>
<pdfrwt beam="2">  1       -2 0.12271322E+00 0.22562642E+04</pdfrwt>
<totfact> 0.51255340E+00</totfact>
</mgrwt>
</event>
<event>
 6    1  0.1934315E-005  0.4400786E+04  0.7818608E-02  0.7928240E-01
         -2   -1    0    0    0  501 -0.00000000000E+00  0.00000000000E+00  0.11153253877E+04  0.11153253877E+04  0.00000000000E+00 0. -1.
          2   -1    0    0  501    0  0.00000000000E+00 -0.00000000000E+00 -0.43410919279E+04  0.43410919279E+04  0.00000000000E+00 0.  1.
         23    2    1    2    0    0  0.90057952240E+03  0.33964198645E+03  0.83848788535E+03  0.12797482850E+04  0.91069116755E+02 0.  0.
         11    1    3    3    0    0  0.38873626193E+03  0.16894254167E+03  0.42230999808E+03  0.59833368466E+03  0.00000000000E+00 0.  1.
        -11    1    3    3    0    0  0.51184326047E+03  0.17069944479E+03  0.41617788727E+03  0.68141460037E+03  0.00000000000E+00 0. -1.
         22    1    1    2    0    0 -0.90057952240E+03 -0.33964198645E+03 -0.40642544256E+04  0.41766690306E+04  0.00000000000E+00 0.  1.
<mgrwt>
<rscale>  0 0.44007863E+04</rscale>
<asrwt>0</asrwt>
<pdfrwt beam="1">  1        2 0.66786030E+00 0.44007863E+04</pdfrwt>
<pdfrwt beam="2">  1       -2 0.17158852E+00 0.44007863E+04</pdfrwt>
<totfact> 0.27421276E-02</totfact>
</mgrwt>
</event>
<event>
 6    1  0.1934315E-005  0.3109093E+04  0.7818608E-02  0.8213247E-01
          2   -1    0    0  501    0  0.00000000000E+00  0.00000000000E+00  0.26332290513E+04  0.26332290513E+04  0.00000000000E+00 0.  1.
         -2   -1    0    0    0  501 -0.00000000000E+00 -0.00000000000E+00 -0.91773794235E+03  0.91773794235E+03  0.00000000000E+00 0. -1.
         23    2    1    2    0    0 -0.12291108050E+04  0.44902869580E+03  0.18140797520E+04  0.22386942091E+04  0.92337827437E+02 0.  0.
         13    1    3    3    0    0 -0.43776412647E+03  0.12199822154E+03  0.67334602130E+03  0.81235205477E+03  0.00000000000E+00 0. -1.
        -13    1    3    3    0    0 -0.79134667856E+03  0.32703047426E+03  0.11407337307E+04  0.14263421543E+04  0.00000000000E+00 0.  1.
         22    1    1    2    0    0  0.12291108050E+04 -0.44902869580E+03 -0.98588643033E+02  0.13122727846E+04  0.00000000000E+00 0.  1.
<mgrwt>
<rscale>  0 0.31090926E+04</rscale>
<asrwt>0</asrwt>
<pdfrwt beam="1">  1        2 0.40511216E+00 0.31090926E+04</pdfrwt>
<pdfrwt beam="2">  1       -2 0.14119045E+00 0.31090926E+04</pdfrwt>
<totfact> 0.86681887E-01</totfact>
</mgrwt>
</event>
<event>
 6    1  0.1934315E-005  0.7461160E+03  0.7818608E-02  0.9641463E-01
          2   -1    0    0  501    0  0.00000000000E+00  0.00000000000E+00  0.19640509660E+04  0.19640509660E+04  0.00000000000E+00 0.  1.
         -2   -1    0    0    0  501 -0.00000000000E+00 -0.00000000000E+00 -0.70859806664E+02  0.70859806664E+02  0.00000000000E+00 0. -1.
         23    2    1    2    0    0  0.36269299821E+03 -0.54786822363E+02  0.10260220933E+04  0.10933535541E+04  0.90293141147E+02 0.  0.
         13    1    3    3    0    0  0.15444835839E+03  0.21367155018E+02  0.43638860838E+03  0.46340680643E+03  0.00000000000E+00 0.  1.
        -13    1    3    3    0    0  0.20824463982E+03 -0.76153977381E+02  0.58963348494E+03  0.62994674763E+03  0.00000000000E+00 0. -1.
         22    1    1    2    0    0 -0.36269299821E+03  0.54786822363E+02  0.86716906602E+03  0.94155721861E+03  0.00000000000E+00 0.  1.
<mgrwt>
<rscale>  0 0.74611600E+03</rscale>
<asrwt>0</asrwt>
<pdfrwt beam="1">  1        2 0.30216165E+00 0.74611600E+03</pdfrwt>
<pdfrwt beam="2">  1       -2 0.10901510E-01 0.74611600E+03</pdfrwt>
<totfact> 0.42661033E+02</totfact>
</mgrwt>
</event>
<event>
 6    1  0.1934315E-005  0.3178417E+04  0.7818608E-02  0.8194541E-01
          2   -1    0    0  501    0  0.00000000000E+00  0.00000000000E+00  0.20017150644E+04  0.20017150644E+04  0.00000000000E+00 0.  1.
         -2   -1    0    0    0  501 -0.00000000000E+00 -0.00000000000E+00 -0.12617098292E+04  0.12617098292E+04  0.00000000000E+00 0. -1.
         23    2    1    2    0    0  0.10448904317E+04 -0.91361423039E+03 -0.42171783383E+03  0.14534283563E+04  0.90117030803E+02 0.  0.
         11    1    3    3    0    0  0.39980827897E+03 -0.35469930477E+03 -0.20824144307E+03  0.57360505171E+03  0.00000000000E+00 0. -1.
        -11    1    3    3    0    0  0.64508215272E+03 -0.55891492562E+03 -0.21347639076E+03  0.87982330456E+03  0.00000000000E+00 0.  1.
         22    1    1    2    0    0 -0.10448904317E+04  0.91361423039E+03  0.11617230690E+04  0.18099965374E+04  0.00000000000E+00 0.  1.
<mgrwt>
<rscale>  0 0.31784169E+04</rscale>
<asrwt>0</asrwt>
<pdfrwt beam="1">  1        2 0.30795616E+00 0.31784169E+04</pdfrwt>
<pdfrwt beam="2">  1       -2 0.19410920E+00 0.31784169E+04</pdfrwt>
<totfact> 0.81825424E-01</totfact>
</mgrwt>
</event>
<event>
 6    1  0.1934315E-005  0.1409971E+04  0.7818608E-02  0.8946632E-01
         -2   -1    0    0    0  501 -0.00000000000E+00  0.00000000000E+00  0.19192979078E+03  0.19192979078E+03  0.00000000000E+00 0. -1.
          2   -1    0    0  501    0  0.00000000000E+00 -0.00000000000E+00 -0.25895124274E+04  0.25895124274E+04  0.00000000000E+00 0.  1.
         23    2    1    2    0    0  0.60734601474E+03 -0.88149672450E+02 -0.18764054127E+04  0.19762930114E+04  0.90538653782E+02 0.  0.
         13    1    3    3    0    0  0.21571438663E+03 -0.34653370154E+02 -0.81151255007E+03  0.84040833622E+03  0.00000000000E+00 0. -1.
        -13    1    3    3    0    0  0.39163162811E+03 -0.53496302297E+02 -0.10648928626E+04  0.11358846752E+04  0.00000000000E+00 0.  1.
         22    1    1    2    0    0 -0.60734601474E+03  0.88149672450E+02 -0.52117722390E+03  0.80514920672E+03  0.00000000000E+00 0. -1.
<mgrwt>
<rscale>  0 0.14099710E+04</rscale>
<asrwt>0</asrwt>
<pdfrwt beam="1">  1        2 0.39838651E+00 0.14099710E+04</pdfrwt>
<pdfrwt beam="2">  1       -2 0.29527662E-01 0.14099710E+04</pdfrwt>
<totfact> 0.31849423E+01</totfact>
</mgrwt>
</event>
<event>
 6    1  0.1934315E-005  0.3805694E+04  0.7818608E-02  0.8044934E-01
         -2   -1    0    0    0  501 -0.00000000000E+00  0.00000000000E+00  0.13439478476E+04  0.13439478476E+04  0.00000000000E+00 0. -1.
          2   -1    0    0  501    0  0.00000000000E+00 -0.00000000000E+00 -0.26941720419E+04  0.26941720419E+04  0.00000000000E+00 0.  1.
         23    2    1    2    0    0  0.77363555717E+03  0.45155402540E+03  0.11045453765E+04  0.14250170100E+04  0.90774318289E+02 0.  0.
         13    1    3    3    0    0  0.37579476125E+03  0.18067422854E+03  0.46453071158E+03  0.62422244548E+03  0.00000000000E+00 0.  1.
        -13    1    3    3    0    0  0.39784079592E+03  0.27087979686E+03  0.64001466495E+03  0.80079456454E+03  0.00000000000E+00 0. -1.
         22    1    1    2    0    0 -0.77363555717E+03 -0.45155402540E+03 -0.24547695708E+04  0.26131028795E+04  0.00000000000E+00 0.  1.
<mgrwt>
<rscale>  0 0.38056940E+04</rscale>
<asrwt>0</asrwt>
<pdfrwt beam="1">  1        2 0.41448800E+00 0.38056940E+04</pdfrwt>
<pdfrwt beam="2">  1       -2 0.20676121E+00 0.38056940E+04</pdfrwt>
<totfact> 0.25772198E-01</totfact>
</mgrwt>
</event>
<event>
 6    1  0.1934315E-005  0.2176851E+04  0.7818608E-02  0.8528126E-01
         -2   -1    0    0    0  501 -0.00000000000E+00  0.00000000000E+00  0.49854072617E+03  0.49854072617E+03  0.00000000000E+00 0. -1.
          2   -1    0    0  501    0  0.00000000000E+00 -0.00000000000E+00 -0.23762743591E+04  0.23762743591E+04  0.00000000000E+00 0.  1.
         23    2    1    2    0    0 -0.94451719576E+03 -0.46598124482E+03 -0.12931208487E+04  0.16702307748E+04  0.90873857894E+02 0.  0.
         11    1    3    3    0    0 -0.22213445770E+03 -0.78035944772E+02 -0.24998258036E+03  0.34340153823E+03  0.00000000000E+00 0. -1.
        -11    1    3    3    0    0 -0.72238273806E+03 -0.38794530005E+03 -0.10431382684E+04  0.13268292366E+04  0.00000000000E+00 0.  1.
         22    1    1    2    0    0  0.94451719576E+03  0.46598124482E+03 -0.58461278423E+03  0.12045843105E+04  0.00000000000E+00 0.  1.
<mgrwt>
<rscale>  0 0.21768505E+04</rscale>
<asrwt>0</asrwt>
<pdfrwt beam="1">  1        2 0.36558067E+00 0.21768505E+04</pdfrwt>
<pdfrwt beam="2">  1       -2 0.76698574E-01 0.21768505E+04</pdfrwt>
<totfact> 0.57066771E+00</totfact>
</mgrwt>
</event>
<event>
 6    1  0.1934315E-005  0.2814148E+04  0.7818608E-02  0.8298889E-01
         -1   -1    0    0    0  501 -0.00000000000E+00  0.00000000000E+00  0.91753189678E+03  0.91753189678E+03  0.00000000000E+00 0.  1.
          1   -1    0    0  501    0  0.00000000000E+00 -0.00000000000E+00 -0.21578071511E+04  0.21578071511E+04  0.00000000000E+00 0. -1.
         23    2    1    2    0    0 -0.10033720284E+04  0.31005291815E+03 -0.16417299309E+04  0.19510374439E+04  0.91551635571E+02 0.  0.
         13    1    3    3    0    0 -0.70213295410E+02  0.39728122441E+02 -0.16033359737E+03  0.17948563455E+03  0.00000000000E+00 0. -1.
        -13    1    3    3    0    0 -0.93315873304E+03  0.27032479571E+03 -0.14813963335E+04  0.17715518093E+04  0.00000000000E+00 0.  1.
         22    1    1    2    0    0  0.10033720284E+04 -0.31005291815E+03  0.40145467652E+03  0.11243016040E+04  0.00000000000E+00 0.  1.
<mgrwt>
<rscale>  0 0.28141477E+04</rscale>
<asrwt>0</asrwt>
<pdfrwt beam="1">  1        1 0.33197033E+00 0.28141477E+04</pdfrwt>
<pdfrwt beam="2">  1       -1 0.14115876E+00 0.28141477E+04</pdfrwt>
<totfact> 0.82544556E-01</totfact>
</mgrwt>
</event>
<event>
 6    1  0.2205802E-005  0.4633840E+04  0.7818608E-02  0.7887615E-01
          2   -1    0    0  501    0  0.00000000000E+00  0.00000000000E+00  0.20945196340E+04  0.20945196340E+04  0.00000000000E+00 0.  1.
         -2   -1    0    0    0  501 -0.00000000000E+00 -0.00000000000E+00 -0.25629350268E+04  0.25629350268E+04  0.00000000000E+00 0. -1.
         23    2    1    2    0    0 -0.10437559220E+04 -0.12079012440E+04 -0.19208059069E+04  0.24992401104E+04  0.90851293352E+02 0.  0.
         13    1    3    3    0    0 -0.53908244794E+03 -0.69241820433E+03 -0.10633591399E+04  0.13786897823E+04  0.00000000000E+00 0. -1.
        -13    1    3    3    0    0 -0.50467347409E+03 -0.51548303963E+03 -0.85744676697E+03  0.11205503281E+04  0.00000000000E+00 0.  1.
         22    1    1    2    0    0  0.10437559220E+04  0.12079012440E+04  0.14523905142E+04  0.21582145504E+04  0.00000000000E+00 0.  1.
<mgrwt>
<rscale>  0 0.46338398E+04</rscale>
<asrwt>0</asrwt>
<pdfrwt beam="1">  1        2 0.32223379E+00 0.46338398E+04</pdfrwt>
<pdfrwt beam="2">  1       -2 0.39429770E+00 0.46338398E+04</pdfrwt>
<totfact> 0.35878499E-02</totfact>
</mgrwt>
</event>
<event>
 6    1  0.1934315E-005  0.4648755E+04  0.7818608E-02  0.7885100E-01
          2   -1    0    0  501    0  0.00000000000E+00  0.00000000000E+00  0.30426500225E+04  0.30426500225E+04  0.00000000000E+00 0.  1.
         -2   -1    0    0    0  501 -0.00000000000E+00 -0.00000000000E+00 -0.17756658777E+04  0.17756658777E+04  0.00000000000E+00 0. -1.
         23    2    1    2    0    0  0.20555957686E+04 -0.10173090770E+04  0.24843671260E+03  0.23087680139E+04  0.91089076416E+02 0.  0.
         11    1    3    3    0    0  0.62310107839E+03 -0.26247963729E+03  0.67500438577E+02  0.67949011993E+03  0.00000000000E+00 0.  1.
        -11    1    3    3    0    0  0.14324946903E+04 -0.75482943966E+03  0.18093627402E+03  0.16292778940E+04  0.00000000000E+00 0. -1.
         22    1    1    2    0    0 -0.20555957686E+04  0.10173090770E+04  0.10185474322E+04  0.25095478863E+04  0.00000000000E+00 0.  1.
<mgrwt>
<rscale>  0 0.46487546E+04</rscale>
<asrwt>0</asrwt>
<pdfrwt beam="1">  1        2 0.46810000E+00 0.46487546E+04</pdfrwt>
<pdfrwt beam="2">  1       -2 0.27317937E+00 0.46487546E+04</pdfrwt>
<totfact> 0.56757872E-02</totfact>
</mgrwt>
</event>
<event>
 6    1  0.1934315E-005  0.6161131E+03  0.7818608E-02  0.9872529E-01
          2   -1    0    0  501    0  0.00000000000E+00  0.00000000000E+00  0.91876024144E+03  0.91876024144E+03  0.00000000000E+00 0.  1.
         -2   -1    0    0    0  501 -0.00000000000E+00 -0.00000000000E+00 -0.10329010064E+03  0.10329010064E+03  0.00000000000E+00 0. -1.
         23    2    1    2    0    0  0.16975854740E+03  0.21087455849E+03  0.63611846777E+03  0.69731496297E+03  0.91188862808E+02 0.  0.
         13    1    3    3    0    0  0.11765153639E+03  0.84742974829E+02  0.26790519216E+03  0.30462509382E+03  0.00000000000E+00 0.  1.
        -13    1    3    3    0    0  0.52107011011E+02  0.12613158366E+03  0.36821327561E+03  0.39268986914E+03  0.00000000000E+00 0. -1.
         22    1    1    2    0    0 -0.16975854740E+03 -0.21087455849E+03  0.17935167302E+03  0.32473537911E+03  0.00000000000E+00 0. -1.
<mgrwt>
<rscale>  0 0.61611310E+03</rscale>
<asrwt>0</asrwt>
<pdfrwt beam="1">  1        2 0.14134772E+00 0.61611310E+03</pdfrwt>
<pdfrwt beam="2">  1       -2 0.15890785E-01 0.61611310E+03</pdfrwt>
<totfact> 0.91082631E+02</totfact>
</mgrwt>
</event>
<event>
 6    1  0.1934315E-005  0.2325298E+04  0.7818608E-02  0.8468013E-01
         -2   -1    0    0    0  501 -0.00000000000E+00  0.00000000000E+00  0.13609641437E+04  0.13609641437E+04  0.00000000000E+00 0. -1.
          2   -1    0    0  501    0  0.00000000000E+00 -0.00000000000E+00 -0.99323163008E+03  0.99323163008E+03  0.00000000000E+00 0.  1.
         23    2    1    2    0    0  0.84771680673E+03 -0.77267464122E+03  0.27937882883E+01  0.11505221640E+04  0.89685890714E+02 0.  0.
         11    1    3    3    0    0  0.60529577209E+03 -0.53307550516E+03 -0.36658254502E+02  0.80740094967E+03  0.00000000000E+00 0. -1.
        -11    1    3    3    0    0  0.24242103464E+03 -0.23959913606E+03  0.39452042790E+02  0.34312121432E+03  0.00000000000E+00 0.  1.
         22    1    1    2    0    0 -0.84771680673E+03  0.77267464122E+03  0.36493872529E+03  0.12036736097E+04  0.00000000000E+00 0. -1.
<mgrwt>
<rscale>  0 0.23252979E+04</rscale>
<asrwt>0</asrwt>
<pdfrwt beam="1">  1        2 0.15280487E+00 0.23252979E+04</pdfrwt>
<pdfrwt beam="2">  1       -2 0.20937910E+00 0.23252979E+04</pdfrwt>
<totfact> 0.26596829E+00</totfact>
</mgrwt>
</event>
<event>
 6    1  0.1934315E-005  0.4784706E+04  0.7818608E-02  0.7862605E-01
          2   -1    0    0  501    0  0.00000000000E+00  0.00000000000E+00  0.46974278524E+04  0.46974278524E+04  0.00000000000E+00 0.  1.
         -2   -1    0    0    0  501 -0.00000000000E+00 -0.00000000000E+00 -0.12184014819E+04  0.12184014819E+04  0.00000000000E+00 0. -1.
         23    2    1    2    0    0  0.20021214115E+04 -0.10255993864E+04  0.27437427833E+04  0.35491890572E+04  0.90962931578E+02 0.  0.
         11    1    3    3    0    0  0.19173255321E+04 -0.98770570737E+03  0.26561226907E+04  0.34215036911E+04  0.00000000000E+00 0.  1.
        -11    1    3    3    0    0  0.84795879446E+02 -0.37893678989E+02  0.87620092629E+02  0.12768536608E+03  0.00000000000E+00 0. -1.
         22    1    1    2    0    0 -0.20021214115E+04  0.10255993864E+04  0.73528358710E+03  0.23666402771E+04  0.00000000000E+00 0. -1.
<mgrwt>
<rscale>  0 0.47847061E+04</rscale>
<asrwt>0</asrwt>
<pdfrwt beam="1">  1        2 0.72268120E+00 0.47847061E+04</pdfrwt>
<pdfrwt beam="2">  1       -2 0.18744638E+00 0.47847061E+04</pdfrwt>
<totfact> 0.91148616E-03</totfact>
</mgrwt>
</event>
<event>
 6    1  0.1934315E-005  0.7313306E+04  0.7818608E-02  0.7545960E-01
          2   -1    0    0  501    0  0.00000000000E+00  0.00000000000E+00  0.38099837265E+04  0.38099837265E+04  0.00000000000E+00 0.  1.
         -2   -1    0    0    0  501 -0.00000000000E+00 -0.00000000000E+00 -0.35094928306E+04  0.35094928306E+04  0.00000000000E+00 0. -1.
         23    2    1    2    0    0  0.24903549037E+04 -0.24924070849E+04 -0.82766734533E+03  0.36199223082E+04  0.69596404400E+02 0.  0.
         11    1    3    3    0    0  0.19088840551E+04 -0.18688403555E+04 -0.62249317362E+03  0.27429729057E+04  0.00000000000E+00 0. -1.
        -11    1    3    3    0    0  0.58147084854E+03 -0.62356672942E+03 -0.20517417171E+03  0.87694940246E+03  0.00000000000E+00 0.  1.
         22    1    1    2    0    0 -0.24903549037E+04  0.24924070849E+04  0.11281582413E+04  0.36995542489E+04  0.00000000000E+00 0.  1.
<mgrwt>
<rscale>  0 0.73133058E+04</rscale>
<asrwt>0</asrwt>
<pdfrwt beam="1">  1        2 0.58615134E+00 0.73133058E+04</pdfrwt>
<pdfrwt beam="2">  1       -2 0.53992197E+00 0.73133058E+04</pdfrwt>
<totfact> 0.28939857E-04</totfact>
</mgrwt>
</event>
<event>
 6    1  0.1934315E-005  0.2970315E+04  0.7818608E-02  0.8252259E-01
          2   -1    0    0  501    0  0.00000000000E+00  0.00000000000E+00  0.14704795815E+04  0.14704795815E+04  0.00000000000E+00 0.  1.
         -2   -1    0    0    0  501 -0.00000000000E+00 -0.00000000000E+00 -0.14999821745E+04  0.14999821745E+04  0.00000000000E+00 0. -1.
         23    2    1    2    0    0  0.14468776009E+04  0.27384407033E+02  0.31278197671E+03  0.14833963828E+04  0.91801773938E+02 0.  0.
         13    1    3    3    0    0  0.37387617150E+03 -0.43373239329E+01  0.12051680933E+03  0.39284412345E+03  0.00000000000E+00 0. -1.
        -13    1    3    3    0    0  0.10730014294E+04  0.31721730966E+02  0.19226516738E+03  0.10905522593E+04  0.00000000000E+00 0.  1.
         22    1    1    2    0    0 -0.14468776009E+04 -0.27384407033E+02 -0.34228456970E+03  0.14870653733E+04  0.00000000000E+00 0.  1.
<mgrwt>
<rscale>  0 0.29703152E+04</rscale>
<asrwt>0</asrwt>
<pdfrwt beam="1">  1        2 0.22622763E+00 0.29703152E+04</pdfrwt>
<pdfrwt beam="2">  1       -2 0.23076649E+00 0.29703152E+04</pdfrwt>
<totfact> 0.95726506E-01</totfact>
</mgrwt>
</event>
<event>
 6    1  0.1934315E-005  0.8378218E+03  0.7818608E-02  0.9506829E-01
          1   -1    0    0  501    0  0.00000000000E+00  0.00000000000E+00  0.21149376898E+04  0.21149376898E+04  0.00000000000E+00 0.  1.
         -1   -1    0    0    0  501 -0.00000000000E+00 -0.00000000000E+00 -0.82974710361E+02  0.82974710361E+02  0.00000000000E+00 0. -1.
         23    2    1    2    0    0  0.27156321521E+03  0.63825814301E+02  0.18302558654E+04  0.18536652879E+04  0.91750489767E+02 0.  0.
         13    1    3    3    0    0  0.11987273957E+03  0.18234684051E+00  0.55186017733E+03  0.56472928228E+03  0.00000000000E+00 0. -1.
        -13    1    3    3    0    0  0.15169047563E+03  0.63643467461E+02  0.12783956881E+04  0.12889360056E+04  0.00000000000E+00 0.  1.
         22    1    1    2    0    0 -0.27156321521E+03 -0.63825814301E+02  0.20170711400E+03  0.34424711221E+03  0.00000000000E+00 0. -1.
<mgrwt>
<rscale>  0 0.83782180E+03</rscale>
<asrwt>0</asrwt>
<pdfrwt beam="1">  1        1 0.32537499E+00 0.83782180E+03</pdfrwt>
<pdfrwt beam="2">  1       -1 0.12765342E-01 0.83782180E+03</pdfrwt>
<totfact> 0.10892410E+02</totfact>
</mgrwt>
</event>
<event>
 6    1  0.1934315E-005  0.2010698E+04  0.7818608E-02  0.8601635E-01
         -2   -1    0    0    0  501 -0.00000000000E+00  0.00000000000E+00  0.82792531077E+03  0.82792531077E+03  0.00000000000E+00 0.  1.
          2   -1    0    0  501    0  0.00000000000E+00 -0.00000000000E+00 -0.12207944595E+04  0.12207944595E+04  0.00000000000E+00 0. -1.
         23    2    1    2    0    0  0.88213202065E+02 -0.52773460786E+03  0.66821703336E+03  0.86036406967E+03  0.86179715495E+02 0.  0.
         13    1    3    3    0    0  0.52728703426E+02 -0.14908874452E+03  0.15345380753E+03  0.22035389934E+03  0.00000000000E+00 0. -1.
        -13    1    3    3    0    0  0.35484498639E+02 -0.37864586333E+03  0.51476322583E+03  0.64001017033E+03  0.00000000000E+00 0.  1.
         22    1    1    2    0    0 -0.88213202065E+02  0.52773460786E+03 -0.10610861821E+04  0.11883557006E+04  0.00000000000E+00 0. -1.
<mgrwt>
<rscale>  0 0.20106980E+04</rscale>
<asrwt>0</asrwt>
<pdfrwt beam="1">  1        2 0.18781453E+00 0.20106980E+04</pdfrwt>
<pdfrwt beam="2">  1       -2 0.12737312E+00 0.20106980E+04</pdfrwt>
<totfact> 0.78150555E+00</totfact>
</mgrwt>
</event>
<event>
 6    1  0.1934315E-005  0.3077477E+04  0.7818608E-02  0.8221946E-01
         -2   -1    0    0    0  501 -0.00000000000E+00  0.00000000000E+00  0.15832912250E+04  0.15832912250E+04  0.00000000000E+00 0. -1.
          2   -1    0    0  501    0  0.00000000000E+00 -0.00000000000E+00 -0.14954399380E+04  0.14954399380E+04  0.00000000000E+00 0.  1.
         23    2    1    2    0    0  0.11485782497E+04  0.99777549618E+03 -0.17710000430E+03  0.15343908109E+04  0.90569379355E+02 0.  0.
         11    1    3    3    0    0  0.75363254012E+03  0.68267800999E+03 -0.80934100600E+02  0.10200792124E+04  0.00000000000E+00 0.  1.
        -11    1    3    3    0    0  0.39494570959E+03  0.31509748619E+03 -0.96165903699E+02  0.51431159851E+03  0.00000000000E+00 0. -1.
         22    1    1    2    0    0 -0.11485782497E+04 -0.99777549618E+03  0.26495129122E+03  0.15443403521E+04  0.00000000000E+00 0.  1.
<mgrwt>
<rscale>  0 0.30774775E+04</rscale>
<asrwt>0</asrwt>
<pdfrwt beam="1">  1        2 0.23006768E+00 0.30774775E+04</pdfrwt>
<pdfrwt beam="2">  1       -2 0.24358327E+00 0.30774775E+04</pdfrwt>
<totfact> 0.76456728E-01</totfact>
</mgrwt>
</event>
<event>
 6    1  0.1934315E-005  0.2111001E+04  0.7818608E-02  0.8556413E-01
         -2   -1    0    0    0  501 -0.00000000000E+00  0.00000000000E+00  0.65729806990E+03  0.65729806990E+03  0.00000000000E+00 0. -1.
          2   -1    0    0  501    0  0.00000000000E+00 -0.00000000000E+00 -0.16949404040E+04  0.16949404040E+04  0.00000000000E+00 0.  1.
         23    2    1    2    0    0  0.93041498708E+03 -0.33581908689E+03 -0.11637340797E+03  0.10005051638E+04  0.94980553019E+02 0.  0.
         11    1    3    3    0    0  0.58804619793E+03 -0.22251409790E+03 -0.11881930037E+03  0.63986629916E+03  0.00000000000E+00 0.  1.
        -11    1    3    3    0    0  0.34236878914E+03 -0.11330498899E+03  0.24458923981E+01  0.36063886465E+03  0.00000000000E+00 0. -1.
         22    1    1    2    0    0 -0.93041498708E+03  0.33581908689E+03 -0.92126892608E+03  0.13517333100E+04  0.00000000000E+00 0.  1.
<mgrwt>
<rscale>  0 0.21110008E+04</rscale>
<asrwt>0</asrwt>
<pdfrwt beam="1">  1        2 0.26076006E+00 0.21110008E+04</pdfrwt>
<pdfrwt beam="2">  1       -2 0.10112278E+00 0.21110008E+04</pdfrwt>
<totfact> 0.73104690E+00</totfact>
</mgrwt>
</event>
<event>
 6    1  0.1934315E-005  0.1295957E+04  0.7818608E-02  0.9032778E-01
         -2   -1    0    0    0  501 -0.00000000000E+00  0.00000000000E+00  0.70765552613E+03  0.70765552613E+03  0.00000000000E+00 0. -1.
          2   -1    0    0  501    0  0.00000000000E+00 -0.00000000000E+00 -0.59333365191E+03  0.59333365191E+03  0.00000000000E+00 0.  1.
         23    2    1    2    0    0 -0.61974241992E+03  0.13723079269E+03 -0.58779691832E+02  0.64305520744E+03  0.84569439657E+02 0.  0.
         11    1    3    3    0    0 -0.28135090451E+02  0.25419015358E+02 -0.86497131172E+01  0.38891222576E+02  0.00000000000E+00 0. -1.
        -11    1    3    3    0    0 -0.59160732947E+03  0.11181177733E+03 -0.50129978715E+02  0.60416398486E+03  0.00000000000E+00 0.  1.
         22    1    1    2    0    0  0.61974241992E+03 -0.13723079269E+03  0.17310156605E+03  0.65793397061E+03  0.00000000000E+00 0. -1.
<mgrwt>
<rscale>  0 0.12959565E+04</rscale>
<asrwt>0</asrwt>
<pdfrwt beam="1">  1        2 0.91282100E-01 0.12959565E+04</pdfrwt>
<pdfrwt beam="2">  1       -2 0.10887008E+00 0.12959565E+04</pdfrwt>
<totfact> 0.33205220E+01</totfact>
</mgrwt>
</event>
<event>
 6    1  0.1934315E-005  0.1179222E+04  0.7818608E-02  0.9131241E-01
          2   -1    0    0  501    0  0.00000000000E+00  0.00000000000E+00  0.31055695913E+04  0.31055695913E+04  0.00000000000E+00 0.  1.
         -2   -1    0    0    0  501 -0.00000000000E+00 -0.00000000000E+00 -0.11194109634E+03  0.11194109634E+03  0.00000000000E+00 0. -1.
         23    2    1    2    0    0  0.25008295790E+02 -0.49773043725E+03  0.23473045627E+04  0.24013638697E+04  0.91371339127E+02 0.  0.
         13    1    3    3    0    0 -0.63397072525E+01 -0.32633529929E+03  0.16980883737E+04  0.17291729365E+04  0.00000000000E+00 0. -1.
        -13    1    3    3    0    0  0.31348003042E+02 -0.17139513795E+03  0.64921618901E+03  0.67219093320E+03  0.00000000000E+00 0.  1.
         22    1    1    2    0    0 -0.25008295790E+02  0.49773043725E+03  0.64632393224E+03  0.81614681792E+03  0.00000000000E+00 0. -1.
<mgrwt>
<rscale>  0 0.11792215E+04</rscale>
<asrwt>0</asrwt>
<pdfrwt beam="1">  1        2 0.47777987E+00 0.11792215E+04</pdfrwt>
<pdfrwt beam="2">  1       -2 0.17221710E-01 0.11792215E+04</pdfrwt>
<totfact> 0.41620719E+01</totfact>
</mgrwt>
</event>
<event>
 6    1  0.1934315E-005  0.6515953E+03  0.7818608E-02  0.9803790E-01
          2   -1    0    0  501    0  0.00000000000E+00  0.00000000000E+00  0.43316283809E+03  0.43316283809E+03  0.00000000000E+00 0.  1.
         -2   -1    0    0    0  501 -0.00000000000E+00 -0.00000000000E+00 -0.24504437156E+03  0.24504437156E+03  0.00000000000E+00 0. -1.
         23    2    1    2    0    0 -0.16682858420E+03 -0.25703316966E+03  0.38273403546E+01  0.32063058011E+03  0.94294716495E+02 0.  0.
         13    1    3    3    0    0 -0.95862745699E+02 -0.12184806081E+03 -0.43072920701E+02  0.16090957844E+03  0.00000000000E+00 0. -1.
        -13    1    3    3    0    0 -0.70965838500E+02 -0.13518510884E+03  0.46900261056E+02  0.15972100167E+03  0.00000000000E+00 0.  1.
         22    1    1    2    0    0  0.16682858420E+03  0.25703316966E+03  0.18429112617E+03  0.35757662954E+03  0.00000000000E+00 0.  1.
<mgrwt>
<rscale>  0 0.65159532E+03</rscale>
<asrwt>0</asrwt>
<pdfrwt beam="1">  1        2 0.66640437E-01 0.65159532E+03</pdfrwt>
<pdfrwt beam="2">  1       -2 0.37699134E-01 0.65159532E+03</pdfrwt>
<totfact> 0.48599059E+02</totfact>
</mgrwt>
</event>
<event>
 6    1  0.1934315E-005  0.2895127E+04  0.7818608E-02  0.8274329E-01
          2   -1    0    0  501    0  0.00000000000E+00  0.00000000000E+00  0.17491442302E+04  0.17491442302E+04  0.00000000000E+00 0.  1.
         -2   -1    0    0    0  501 -0.00000000000E+00 -0.00000000000E+00 -0.11979803207E+04  0.11979803207E+04  0.00000000000E+00 0. -1.
         23    2    1    2    0    0 -0.77398465196E+03  0.71789284122E+03  0.12820339541E+04  0.16631489299E+04  0.89615460373E+02 0.  0.
         13    1    3    3    0    0 -0.13038949631E+03  0.10371248345E+03  0.25230412752E+03  0.30234925621E+03  0.00000000000E+00 0.  1.
        -13    1    3    3    0    0 -0.64359515564E+03  0.61418035777E+03  0.10297298266E+04  0.13607996737E+04  0.00000000000E+00 0. -1.
         22    1    1    2    0    0  0.77398465196E+03 -0.71789284122E+03 -0.73087004459E+03  0.12839756209E+04  0.00000000000E+00 0. -1.
<mgrwt>
<rscale>  0 0.28951272E+04</rscale>
<asrwt>0</asrwt>
<pdfrwt beam="1">  1        2 0.26909911E+00 0.28951272E+04</pdfrwt>
<pdfrwt beam="2">  1       -2 0.18430466E+00 0.28951272E+04</pdfrwt>
<totfact> 0.13469882E+00</totfact>
</mgrwt>
</event>
<event>
 6    1  0.1934315E-005  0.2558141E+04  0.7818608E-02  0.8382560E-01
         -2   -1    0    0    0  501 -0.00000000000E+00  0.00000000000E+00  0.69909877610E+03  0.69909877610E+03  0.00000000000E+00 0. -1.
          2   -1    0    0  501    0  0.00000000000E+00 -0.00000000000E+00 -0.23401870364E+04  0.23401870364E+04  0.00000000000E+00 0.  1.
         23    2    1    2    0    0 -0.66611846701E+03 -0.10870342204E+04 -0.91941140316E+03  0.15743029817E+04  0.88064417424E+02 0.  0.
         13    1    3    3    0    0 -0.51461078149E+03 -0.87977593393E+03 -0.76865465688E+03  0.12765813456E+04  0.00000000000E+00 0. -1.
        -13    1    3    3    0    0 -0.15150768552E+03 -0.20725828645E+03 -0.15075674628E+03  0.29772163613E+03  0.00000000000E+00 0.  1.
         22    1    1    2    0    0  0.66611846701E+03  0.10870342204E+04 -0.72167685711E+03  0.14649828308E+04  0.00000000000E+00 0.  1.
<mgrwt>
<rscale>  0 0.25581414E+04</rscale>
<asrwt>0</asrwt>
<pdfrwt beam="1">  1        2 0.36002878E+00 0.25581414E+04</pdfrwt>
<pdfrwt beam="2">  1       -2 0.10755366E+00 0.25581414E+04</pdfrwt>
<totfact> 0.26481381E+00</totfact>
</mgrwt>
</event>
<event>
 6    1  0.1934315E-005  0.2448548E+04  0.7818608E-02  0.8421548E-01
          2   -1    0    0  501    0  0.00000000000E+00  0.00000000000E+00  0.17011844710E+04  0.17011844710E+04  0.00000000000E+00 0.  1.
         -2   -1    0    0    0  501 -0.00000000000E+00 -0.00000000000E+00 -0.88106102414E+03  0.88106102414E+03  0.00000000000E+00 0. -1.
         23    2    1    2    0    0  0.11573387395E+04  0.21811838532E+03  0.63487832222E+02  0.11824219200E+04  0.84156426203E+02 0.  0.
         13    1    3    3    0    0  0.94759875589E+03  0.15022691171E+03  0.68873545692E+02  0.96190181020E+03  0.00000000000E+00 0.  1.
        -13    1    3    3    0    0  0.20973998365E+03  0.67891473611E+02 -0.53857134696E+01  0.22052010983E+03  0.00000000000E+00 0. -1.
         22    1    1    2    0    0 -0.11573387395E+04 -0.21811838532E+03  0.75663561462E+03  0.13998235751E+04  0.00000000000E+00 0.  1.
<mgrwt>
<rscale>  0 0.24485484E+04</rscale>
<asrwt>0</asrwt>
<pdfrwt beam="1">  1        2 0.26172069E+00 0.24485484E+04</pdfrwt>
<pdfrwt beam="2">  1       -2 0.13554785E+00 0.24485484E+04</pdfrwt>
<totfact> 0.34248329E+00</totfact>
</mgrwt>
</event>
<event>
 6    1  0.1934315E-005  0.2042222E+04  0.7818608E-02  0.8587131E-01
         -2   -1    0    0    0  501 -0.00000000000E+00  0.00000000000E+00  0.48723502458E+03  0.48723502458E+03  0.00000000000E+00 0. -1.
          2   -1    0    0  501    0  0.00000000000E+00 -0.00000000000E+00 -0.21399694268E+04  0.21399694268E+04  0.00000000000E+00 0.  1.
         23    2    1    2    0    0  0.13217575102E+03 -0.99441893338E+03 -0.60174953900E+03  0.11743078181E+04  0.10274677506E+03 0.  0.
         11    1    3    3    0    0  0.17301682868E+02 -0.51811892293E+03 -0.30362615348E+03  0.60077900064E+03  0.00000000000E+00 0. -1.
        -11    1    3    3    0    0  0.11487406816E+03 -0.47630001045E+03 -0.29812338552E+03  0.57352881748E+03  0.00000000000E+00 0.  1.
         22    1    1    2    0    0 -0.13217575102E+03  0.99441893338E+03 -0.10509848633E+04  0.14528966333E+04  0.00000000000E+00 0. -1.
<mgrwt>
<rscale>  0 0.20422224E+04</rscale>
<asrwt>0</asrwt>
<pdfrwt beam="1">  1        2 0.32922607E+00 0.20422224E+04</pdfrwt>
<pdfrwt beam="2">  1       -2 0.74959234E-01 0.20422224E+04</pdfrwt>
<totfact> 0.82605154E+00</totfact>
</mgrwt>
</event>
<event>
 6    1  0.1934315E-005  0.1648894E+04  0.7818608E-02  0.8791061E-01
         -2   -1    0    0    0  501 -0.00000000000E+00  0.00000000000E+00  0.40132983230E+03  0.40132983230E+03  0.00000000000E+00 0. -1.
          2   -1    0    0  501    0  0.00000000000E+00 -0.00000000000E+00 -0.16936505166E+04  0.16936505166E+04  0.00000000000E+00 0.  1.
         23    2    1    2    0    0  0.74713186503E+03 -0.31241729386E+03 -0.46980419139E+03  0.94070829676E+03  0.91681689039E+02 0.  0.
         11    1    3    3    0    0  0.40174665099E+03 -0.12197777557E+03 -0.26212469309E+03  0.49496293199E+03  0.00000000000E+00 0. -1.
        -11    1    3    3    0    0  0.34538521404E+03 -0.19043951829E+03 -0.20767949830E+03  0.44574536478E+03  0.00000000000E+00 0.  1.
         22    1    1    2    0    0 -0.74713186503E+03  0.31241729386E+03 -0.82251649291E+03  0.11542720521E+04  0.00000000000E+00 0. -1.
<mgrwt>
<rscale>  0 0.16488935E+04</rscale>
<asrwt>0</asrwt>
<pdfrwt beam="1">  1        2 0.26056162E+00 0.16488935E+04</pdfrwt>
<pdfrwt beam="2">  1       -2 0.61743052E-01 0.16488935E+04</pdfrwt>
<totfact> 0.23017416E+01</totfact>
</mgrwt>
</event>
<event>
 6    1  0.1934315E-005  0.1027861E+04  0.7818608E-02  0.9278504E-01
          2   -1    0    0  501    0  0.00000000000E+00  0.00000000000E+00  0.13241089686E+04  0.13241089686E+04  0.00000000000E+00 0.  1.
         -2   -1    0    0    0  501 -0.00000000000E+00 -0.00000000000E+00 -0.19947352919E+03  0.19947352919E+03  0.00000000000E+00 0. -1.
         23    2    1    2    0    0 -0.23560561276E+03  0.26833770088E+03  0.27007201193E+02  0.36932824685E+03  0.90326289214E+02 0.  0.
         11    1    3    3    0    0 -0.14804100065E+03  0.11889837865E+03 -0.16955989267E+02  0.19063175992E+03  0.00000000000E+00 0. -1.
        -11    1    3    3    0    0 -0.87564612107E+02  0.14943932223E+03  0.43963190459E+02  0.17869648692E+03  0.00000000000E+00 0.  1.
         22    1    1    2    0    0  0.23560561276E+03 -0.26833770088E+03  0.10976282382E+04  0.11542542510E+04  0.00000000000E+00 0.  1.
<mgrwt>
<rscale>  0 0.10278613E+04</rscale>
<asrwt>0</asrwt>
<pdfrwt beam="1">  1        2 0.20370907E+00 0.10278613E+04</pdfrwt>
<pdfrwt beam="2">  1       -2 0.30688236E-01 0.10278613E+04</pdfrwt>
<totfact> 0.15662398E+02</totfact>
</mgrwt>
</event>
<event>
 6    1  0.1934315E-005  0.1228692E+04  0.7818608E-02  0.9088107E-01
          2   -1    0    0  501    0  0.00000000000E+00  0.00000000000E+00  0.76483892254E+03  0.76483892254E+03  0.00000000000E+00 0.  1.
         -2   -1    0    0    0  501 -0.00000000000E+00 -0.00000000000E+00 -0.49346455099E+03  0.49346455099E+03  0.00000000000E+00 0. -1.
         23    2    1    2    0    0  0.12061208826E+03 -0.51183099996E+03 -0.18192565300E+03  0.56404187974E+03  0.92347444631E+02 0.  0.
         11    1    3    3    0    0  0.37726918211E+02 -0.25085683134E+03 -0.13107504312E+03  0.28554007970E+03  0.00000000000E+00 0. -1.
        -11    1    3    3    0    0  0.82885170050E+02 -0.26097416862E+03 -0.50850609881E+02  0.27850180004E+03  0.00000000000E+00 0.  1.
         22    1    1    2    0    0 -0.12061208826E+03  0.51183099996E+03  0.45330002455E+03  0.69426159379E+03  0.00000000000E+00 0. -1.
<mgrwt>
<rscale>  0 0.12286918E+04</rscale>
<asrwt>0</asrwt>
<pdfrwt beam="1">  1        2 0.11766753E+00 0.12286918E+04</pdfrwt>
<pdfrwt beam="2">  1       -2 0.75917623E-01 0.12286918E+04</pdfrwt>
<totfact> 0.55981346E+01</totfact>
</mgrwt>
</event>
<event>
 6    1  0.1934315E-005  0.2250338E+04  0.7818608E-02  0.8497763E-01
          2   -1    0    0  501    0  0.00000000000E+00  0.00000000000E+00  0.14337697835E+04  0.14337697835E+04  0.00000000000E+00 0.  1.
         -2   -1    0    0    0  501 -0.00000000000E+00 -0.00000000000E+00 -0.88299096675E+03  0.88299096675E+03  0.00000000000E+00 0. -1.
         23    2    1    2    0    0  0.28712604773E+03  0.58927489048E+03 -0.66326420671E+03  0.93705544596E+03  0.92017591080E+02 0.  0.
         11    1    3    3    0    0  0.18599575363E+03  0.46732596362E+03 -0.52006768677E+03  0.72350423320E+03  0.00000000000E+00 0.  1.
        -11    1    3    3    0    0  0.10113029410E+03  0.12194892686E+03 -0.14319651994E+03  0.21355121276E+03  0.00000000000E+00 0. -1.
         22    1    1    2    0    0 -0.28712604773E+03 -0.58927489048E+03  0.12140430234E+04  0.13797053042E+04  0.00000000000E+00 0.  1.
<mgrwt>
<rscale>  0 0.22503384E+04</rscale>
<asrwt>0</asrwt>
<pdfrwt beam="1">  1        2 0.22057997E+00 0.22503384E+04</pdfrwt>
<pdfrwt beam="2">  1       -2 0.13584476E+00 0.22503384E+04</pdfrwt>
<totfact> 0.48929531E+00</totfact>
</mgrwt>
</event>
<event>
 6    1  0.1934315E-005  0.2607725E+04  0.7818608E-02  0.8365582E-01
          2   -1    0    0  501    0  0.00000000000E+00  0.00000000000E+00  0.25379937165E+04  0.25379937165E+04  0.00000000000E+00 0.  1.
         -2   -1    0    0    0  501 -0.00000000000E+00 -0.00000000000E+00 -0.66984296530E+03  0.66984296530E+03  0.00000000000E+00 0. -1.
         23    2    1    2    0    0  0.76509927260E+03  0.70675645693E+03  0.18967948920E+04  0.21658663976E+04  0.90910965348E+02 0.  0.
         11    1    3    3    0    0  0.54416362491E+03  0.51143499237E+03  0.14406416449E+04  0.16226916378E+04  0.00000000000E+00 0.  1.
        -11    1    3    3    0    0  0.22093564769E+03  0.19532146457E+03  0.45615324702E+03  0.54317475982E+03  0.00000000000E+00 0. -1.
         22    1    1    2    0    0 -0.76509927260E+03 -0.70675645693E+03 -0.28644140789E+02  0.10419702842E+04  0.00000000000E+00 0.  1.
<mgrwt>
<rscale>  0 0.26077249E+04</rscale>
<asrwt>0</asrwt>
<pdfrwt beam="1">  1        2 0.39046057E+00 0.26077249E+04</pdfrwt>
<pdfrwt beam="2">  1       -2 0.10305277E+00 0.26077249E+04</pdfrwt>
<totfact> 0.22480725E+00</totfact>
</mgrwt>
</event>
<event>
 6    1  0.1934315E-005  0.2165104E+04  0.7818608E-02  0.8533095E-01
         -2   -1    0    0    0  501 -0.00000000000E+00  0.00000000000E+00  0.98985526113E+03  0.98985526113E+03  0.00000000000E+00 0. -1.
          2   -1    0    0  501    0  0.00000000000E+00 -0.00000000000E+00 -0.11839296007E+04  0.11839296007E+04  0.00000000000E+00 0.  1.
         23    2    1    2    0    0 -0.24971096307E+03  0.73256240929E+03 -0.85441502806E+03  0.11564092805E+04  0.90852271820E+02 0.  0.
         13    1    3    3    0    0 -0.21998305296E+03  0.67734785470E+03 -0.74740763352E+03  0.10323811459E+04  0.00000000000E+00 0.  1.
        -13    1    3    3    0    0 -0.29727910110E+02  0.55214554592E+02 -0.10700739454E+03  0.12402813457E+03  0.00000000000E+00 0. -1.
         22    1    1    2    0    0  0.24971096307E+03 -0.73256240929E+03  0.66034068849E+03  0.10173755813E+04  0.00000000000E+00 0. -1.
<mgrwt>
<rscale>  0 0.21651041E+04</rscale>
<asrwt>0</asrwt>
<pdfrwt beam="1">  1        2 0.18214302E+00 0.21651041E+04</pdfrwt>
<pdfrwt beam="2">  1       -2 0.15228542E+00 0.21651041E+04</pdfrwt>
<totfact> 0.51094705E+00</totfact>
</mgrwt>
</event>
<event>
 6    1  0.1934315E-005  0.1576604E+04  0.7818608E-02  0.8835052E-01
          2   -1    0    0  501    0  0.00000000000E+00  0.00000000000E+00  0.57895015961E+03  0.57895015961E+03  0.00000000000E+00 0.  1.
         -2   -1    0    0    0  501 -0.00000000000E+00 -0.00000000000E+00 -0.10733561059E+04  0.10733561059E+04  0.00000000000E+00 0. -1.
         23    2    1    2    0    0  0.40533072809E+03  0.30854000044E+03 -0.87448770145E+03  0.10167340261E+04  0.97618691018E+02 0.  0.
         11    1    3    3    0    0  0.16264260428E+03  0.68743030278E+02 -0.26998940363E+03  0.32260269530E+03  0.00000000000E+00 0. -1.
        -11    1    3    3    0    0  0.24268812380E+03  0.23979697016E+03 -0.60449829782E+03  0.69413133080E+03  0.00000000000E+00 0.  1.
         22    1    1    2    0    0 -0.40533072809E+03 -0.30854000044E+03  0.38008175512E+03  0.63557223946E+03  0.00000000000E+00 0.  1.
<mgrwt>
<rscale>  0 0.15766036E+04</rscale>
<asrwt>0</asrwt>
<pdfrwt beam="1">  1        2 0.89069256E-01 0.15766036E+04</pdfrwt>
<pdfrwt beam="2">  1       -2 0.16513171E+00 0.15766036E+04</pdfrwt>
<totfact> 0.11480568E+01</totfact>
</mgrwt>
</event>
<event>
 6    1  0.1934315E-005  0.1511687E+04  0.7818608E-02  0.8876718E-01
          2   -1    0    0  501    0  0.00000000000E+00  0.00000000000E+00  0.14960424181E+04  0.14960424181E+04  0.00000000000E+00 0.  1.
         -2   -1    0    0    0  501 -0.00000000000E+00 -0.00000000000E+00 -0.38187384549E+03  0.38187384549E+03  0.00000000000E+00 0. -1.
         23    2    1    2    0    0  0.70744684994E+03 -0.25844316115E+03  0.54639381211E+03  0.93470786047E+03  0.88649159431E+02 0.  0.
         11    1    3    3    0    0  0.42644216387E+03 -0.10972384268E+03  0.32515709574E+03  0.54737498818E+03  0.00000000000E+00 0. -1.
        -11    1    3    3    0    0  0.28100468608E+03 -0.14871931848E+03  0.22123671637E+03  0.38733287229E+03  0.00000000000E+00 0.  1.
         22    1    1    2    0    0 -0.70744684994E+03  0.25844316115E+03  0.56777476048E+03  0.94320840310E+03  0.00000000000E+00 0.  1.
<mgrwt>
<rscale>  0 0.15116871E+04</rscale>
<asrwt>0</asrwt>
<pdfrwt beam="1">  1        2 0.23016037E+00 0.15116871E+04</pdfrwt>
<pdfrwt beam="2">  1       -2 0.58749823E-01 0.15116871E+04</pdfrwt>
<totfact> 0.33347407E+01</totfact>
</mgrwt>
</event>
<event>
 6    1  0.1934315E-005  0.2429745E+04  0.7818608E-02  0.8428451E-01
         -2   -1    0    0    0  501 -0.00000000000E+00  0.00000000000E+00  0.48639442773E+03  0.48639442773E+03  0.00000000000E+00 0. -1.
          2   -1    0    0  501    0  0.00000000000E+00 -0.00000000000E+00 -0.30343987770E+04  0.30343987770E+04  0.00000000000E+00 0.  1.
         23    2    1    2    0    0 -0.11741053855E+04 -0.14251565228E+03 -0.16668411055E+04  0.20459091993E+04  0.92471688554E+02 0.  0.
         11    1    3    3    0    0 -0.38754547005E+03 -0.66604258005E+01 -0.57360665244E+03  0.69228638897E+03  0.00000000000E+00 0.  1.
        -11    1    3    3    0    0 -0.78655991546E+03 -0.13585522648E+03 -0.10932344531E+04  0.13536228103E+04  0.00000000000E+00 0. -1.
         22    1    1    2    0    0  0.11741053855E+04  0.14251565228E+03 -0.88116324373E+03  0.14748840054E+04  0.00000000000E+00 0.  1.
<mgrwt>
<rscale>  0 0.24297446E+04</rscale>
<asrwt>0</asrwt>
<pdfrwt beam="1">  1        2 0.46683058E+00 0.24297446E+04</pdfrwt>
<pdfrwt beam="2">  1       -2 0.74829912E-01 0.24297446E+04</pdfrwt>
<totfact> 0.23857654E+00</totfact>
</mgrwt>
</event>
<event>
 6    1  0.1934315E-005  0.2932893E+04  0.7818608E-02  0.8263157E-01
          2   -1    0    0  501    0  0.00000000000E+00  0.00000000000E+00  0.20158446841E+04  0.20158446841E+04  0.00000000000E+00 0.  1.
         -2   -1    0    0    0  501 -0.00000000000E+00 -0.00000000000E+00 -0.10667815007E+04  0.10667815007E+04  0.00000000000E+00 0. -1.
         23    2    1    2    0    0 -0.12103607363E+04 -0.54647227032E+03 -0.17489739495E+03  0.13428295197E+04  0.94852337208E+02 0.  0.
         11    1    3    3    0    0 -0.31699491136E+03 -0.13818218966E+03 -0.39828760213E+01  0.34582648058E+03  0.00000000000E+00 0. -1.
        -11    1    3    3    0    0 -0.89336582498E+03 -0.40829008067E+03 -0.17091451893E+03  0.99700303911E+03  0.00000000000E+00 0.  1.
         22    1    1    2    0    0  0.12103607363E+04  0.54647227032E+03  0.11239605783E+04  0.17397966651E+04  0.00000000000E+00 0. -1.
<mgrwt>
<rscale>  0 0.29328933E+04</rscale>
<asrwt>0</asrwt>
<pdfrwt beam="1">  1        2 0.31012995E+00 0.29328933E+04</pdfrwt>
<pdfrwt beam="2">  1       -2 0.16412023E+00 0.29328933E+04</pdfrwt>
<totfact> 0.13240850E+00</totfact>
</mgrwt>
</event>
<event>
 6    1  0.1934315E-005  0.3148821E+04  0.7818608E-02  0.8202466E-01
          2   -1    0    0  501    0  0.00000000000E+00  0.00000000000E+00  0.11762337007E+04  0.11762337007E+04  0.00000000000E+00 0.  1.
         -2   -1    0    0    0  501 -0.00000000000E+00 -0.00000000000E+00 -0.21073777611E+04  0.21073777611E+04  0.00000000000E+00 0. -1.
         23    2    1    2    0    0  0.12347201489E+04 -0.95482187143E+03 -0.26150444721E+03  0.15851898816E+04  0.90684797375E+02 0.  0.
         11    1    3    3    0    0  0.72907692247E+03 -0.58393138066E+03 -0.19847613578E+03  0.95494596322E+03  0.00000000000E+00 0. -1.
        -11    1    3    3    0    0  0.50564322648E+03 -0.37089049077E+03 -0.63028311425E+02  0.63024391839E+03  0.00000000000E+00 0.  1.
         22    1    1    2    0    0 -0.12347201489E+04  0.95482187143E+03 -0.66963961316E+03  0.16984215801E+04  0.00000000000E+00 0.  1.
<mgrwt>
<rscale>  0 0.31488212E+04</rscale>
<asrwt>0</asrwt>
<pdfrwt beam="1">  1        2 0.18095903E+00 0.31488212E+04</pdfrwt>
<pdfrwt beam="2">  1       -2 0.32421196E+00 0.31488212E+04</pdfrwt>
<totfact> 0.37315262E-01</totfact>
</mgrwt>
</event>
<event>
 6    1  0.1934315E-005  0.5152636E+04  0.7818608E-02  0.7805384E-01
          2   -1    0    0  501    0  0.00000000000E+00  0.00000000000E+00  0.36192826652E+04  0.36192826652E+04  0.00000000000E+00 0.  1.
         -2   -1    0    0    0  501 -0.00000000000E+00 -0.00000000000E+00 -0.18339030242E+04  0.18339030242E+04  0.00000000000E+00 0. -1.
         23    2    1    2    0    0  0.12529584918E+04  0.21522934897E+04  0.15876190539E+04  0.29549099845E+04  0.93201439736E+02 0.  0.
         13    1    3    3    0    0  0.10113431500E+04  0.17934760625E+04  0.12866824646E+04  0.24279462759E+04  0.00000000000E+00 0. -1.
        -13    1    3    3    0    0  0.24161534178E+03  0.35881742715E+03  0.30093658934E+03  0.52696370863E+03  0.00000000000E+00 0.  1.
         22    1    1    2    0    0 -0.12529584918E+04 -0.21522934897E+04  0.19776058705E+03  0.24982757049E+04  0.00000000000E+00 0. -1.
<mgrwt>
<rscale>  0 0.51526356E+04</rscale>
<asrwt>0</asrwt>
<pdfrwt beam="1">  1        2 0.55681272E+00 0.51526356E+04</pdfrwt>
<pdfrwt beam="2">  1       -2 0.28213893E+00 0.51526356E+04</pdfrwt>
<totfact> 0.19604170E-02</totfact>
</mgrwt>
</event>
<event>
 6    1  0.1934315E-005  0.7470628E+03  0.7818608E-02  0.9639970E-01
          2   -1    0    0  501    0  0.00000000000E+00  0.00000000000E+00  0.38760427486E+03  0.38760427486E+03  0.00000000000E+00 0.  1.
         -2   -1    0    0    0  501 -0.00000000000E+00 -0.00000000000E+00 -0.35996944013E+03  0.35996944013E+03  0.00000000000E+00 0. -1.
         23    2    1    2    0    0  0.29133740453E+03  0.22453144362E+03 -0.16777634675E+01  0.37858715580E+03  0.89630168987E+02 0.  0.
         11    1    3    3    0    0  0.35103784540E+02  0.56335285799E+02  0.24985742789E+02  0.70924096454E+02  0.00000000000E+00 0. -1.
        -11    1    3    3    0    0  0.25623361999E+03  0.16819615782E+03 -0.26663506256E+02  0.30766305934E+03  0.00000000000E+00 0.  1.
         22    1    1    2    0    0 -0.29133740453E+03 -0.22453144362E+03  0.29312598206E+02  0.36898655919E+03  0.00000000000E+00 0. -1.
<mgrwt>
<rscale>  0 0.74706277E+03</rscale>
<asrwt>0</asrwt>
<pdfrwt beam="1">  1        2 0.59631427E-01 0.74706277E+03</pdfrwt>
<pdfrwt beam="2">  1       -2 0.55379914E-01 0.74706277E+03</pdfrwt>
<totfact> 0.25474156E+02</totfact>
</mgrwt>
</event>
<event>
 6    1  0.1934315E-005  0.3116846E+04  0.7818608E-02  0.8211130E-01
         -1   -1    0    0    0  501 -0.00000000000E+00  0.00000000000E+00  0.12749241642E+04  0.12749241642E+04  0.00000000000E+00 0.  1.
          1   -1    0    0  501    0  0.00000000000E+00 -0.00000000000E+00 -0.19049627021E+04  0.19049627021E+04  0.00000000000E+00 0. -1.
         23    2    1    2    0    0 -0.13840072874E+04 -0.44538002290E+03  0.25346239614E+03  0.14785892919E+04  0.90241739380E+02 0.  0.
         11    1    3    3    0    0 -0.98731876275E+03 -0.28225326270E+03  0.15487481556E+03  0.10384851718E+04  0.00000000000E+00 0.  1.
        -11    1    3    3    0    0 -0.39668852464E+03 -0.16312676020E+03  0.98587580579E+02  0.44010412009E+03  0.00000000000E+00 0. -1.
         22    1    1    2    0    0  0.13840072874E+04  0.44538002290E+03 -0.88350093408E+03  0.17012975745E+04  0.00000000000E+00 0.  1.
<mgrwt>
<rscale>  0 0.31168465E+04</rscale>
<asrwt>0</asrwt>
<pdfrwt beam="1">  1        1 0.29307118E+00 0.31168465E+04</pdfrwt>
<pdfrwt beam="2">  1       -1 0.19614218E+00 0.31168465E+04</pdfrwt>
<totfact> 0.46628533E-01</totfact>
</mgrwt>
</event>
<event>
 6    1  0.1934315E-005  0.2116576E+04  0.7818608E-02  0.8553976E-01
         -2   -1    0    0    0  501 -0.00000000000E+00  0.00000000000E+00  0.84593876163E+03  0.84593876163E+03  0.00000000000E+00 0.  1.
          2   -1    0    0  501    0  0.00000000000E+00 -0.00000000000E+00 -0.13239418308E+04  0.13239418308E+04  0.00000000000E+00 0. -1.
         23    2    1    2    0    0  0.42787172095E+03 -0.96257799869E+03 -0.15393102903E+03  0.10677674856E+04  0.82474410712E+02 0.  0.
         11    1    3    3    0    0  0.12204360369E+03 -0.29976809087E+03 -0.84502423962E+02  0.33450890745E+03  0.00000000000E+00 0. -1.
        -11    1    3    3    0    0  0.30582811726E+03 -0.66280990781E+03 -0.69428605066E+02  0.73325857813E+03  0.00000000000E+00 0.  1.
         22    1    1    2    0    0 -0.42787172095E+03  0.96257799869E+03 -0.32407204019E+03  0.11021131069E+04  0.00000000000E+00 0. -1.
<mgrwt>
<rscale>  0 0.21165762E+04</rscale>
<asrwt>0</asrwt>
<pdfrwt beam="1">  1        2 0.20368336E+00 0.21165762E+04</pdfrwt>
<pdfrwt beam="2">  1       -2 0.13014443E+00 0.21165762E+04</pdfrwt>
<totfact> 0.63817674E+00</totfact>
</mgrwt>
</event>
<event>
 6    1  0.1934315E-005  0.9770106E+03  0.7818608E-02  0.9334125E-01
          2   -1    0    0  501    0  0.00000000000E+00  0.00000000000E+00  0.41409975364E+03  0.41409975364E+03  0.00000000000E+00 0.  1.
         -2   -1    0    0    0  501 -0.00000000000E+00 -0.00000000000E+00 -0.57628001631E+03  0.57628001631E+03  0.00000000000E+00 0. -1.
         23    2    1    2    0    0 -0.13743415746E+03  0.73000046667E+02 -0.54656038235E+03  0.57569286293E+03  0.92069899709E+02 0.  0.
         13    1    3    3    0    0 -0.12339427849E+03  0.93953402560E+02 -0.45411801821E+03  0.47987140390E+03  0.00000000000E+00 0.  1.
        -13    1    3    3    0    0 -0.14039878974E+02 -0.20953355893E+02 -0.92442364133E+02  0.95821459033E+02  0.00000000000E+00 0. -1.
         22    1    1    2    0    0  0.13743415746E+03 -0.73000046667E+02  0.38438011968E+03  0.41468690702E+03  0.00000000000E+00 0.  1.
<mgrwt>
<rscale>  0 0.97701057E+03</rscale>
<asrwt>0</asrwt>
<pdfrwt beam="1">  1        2 0.63707654E-01 0.97701057E+03</pdfrwt>
<pdfrwt beam="2">  1       -2 0.88658464E-01 0.97701057E+03</pdfrwt>
<totfact> 0.83663253E+01</totfact>
</mgrwt>
</event>
<event>
 6    1  0.1934315E-005  0.3145057E+04  0.7818608E-02  0.8203480E-01
         -2   -1    0    0    0  501 -0.00000000000E+00  0.00000000000E+00  0.90938754018E+03  0.90938754018E+03  0.00000000000E+00 0. -1.
          2   -1    0    0  501    0  0.00000000000E+00 -0.00000000000E+00 -0.27192433216E+04  0.27192433216E+04  0.00000000000E+00 0.  1.
         23    2    1    2    0    0  0.10367740572E+04  0.66197776310E+03  0.22208983248E+03  0.12533586705E+04  0.92027488834E+02 0.  0.
         13    1    3    3    0    0  0.75857016603E+03  0.51609058749E+03  0.19564899424E+03  0.93811338346E+03  0.00000000000E+00 0. -1.
        -13    1    3    3    0    0  0.27820389121E+03  0.14588717562E+03  0.26440838239E+02  0.31524528707E+03  0.00000000000E+00 0.  1.
         22    1    1    2    0    0 -0.10367740572E+04 -0.66197776310E+03 -0.20319456139E+04  0.23752721912E+04  0.00000000000E+00 0. -1.
<mgrwt>
<rscale>  0 0.31450571E+04</rscale>
<asrwt>0</asrwt>
<pdfrwt beam="1">  1        2 0.41834512E+00 0.31450571E+04</pdfrwt>
<pdfrwt beam="2">  1       -2 0.13990578E+00 0.31450571E+04</pdfrwt>
<totfact> 0.78676252E-01</totfact>
</mgrwt>
</event>
<event>
 6    1  0.1934315E-005  0.3497437E+04  0.7818608E-02  0.8114398E-01
          2   -1    0    0  501    0  0.00000000000E+00  0.00000000000E+00  0.34292324955E+04  0.34292324955E+04  0.00000000000E+00 0.  1.
         -2   -1    0    0    0  501 -0.00000000000E+00 -0.00000000000E+00 -0.89174939366E+03  0.89174939366E+03  0.00000000000E+00 0. -1.
         23    2    1    2    0    0  0.10166062847E+04  0.11959703476E+04  0.22185949605E+04  0.27192568637E+04  0.91437853276E+02 0.  0.
         13    1    3    3    0    0  0.58444790615E+03  0.64616599438E+03  0.12939349474E+04  0.15599286828E+04  0.00000000000E+00 0.  1.
        -13    1    3    3    0    0  0.43215837859E+03  0.54980435326E+03  0.92466001314E+03  0.11593281809E+04  0.00000000000E+00 0. -1.
         22    1    1    2    0    0 -0.10166062847E+04 -0.11959703476E+04  0.31888814128E+03  0.16017250255E+04  0.00000000000E+00 0. -1.
<mgrwt>
<rscale>  0 0.34974368E+04</rscale>
<asrwt>0</asrwt>
<pdfrwt beam="1">  1        2 0.52757422E+00 0.34974368E+04</pdfrwt>
<pdfrwt beam="2">  1       -2 0.13719222E+00 0.34974368E+04</pdfrwt>
<totfact> 0.28281743E-01</totfact>
</mgrwt>
</event>
<event>
 6    1  0.1934315E-005  0.1667663E+04  0.7818608E-02  0.8780025E-01
          2   -1    0    0  501    0  0.00000000000E+00  0.00000000000E+00  0.25337089226E+04  0.25337089226E+04  0.00000000000E+00 0.  1.
         -2   -1    0    0    0  501 -0.00000000000E+00 -0.00000000000E+00 -0.27441003466E+03  0.27441003466E+03  0.00000000000E+00 0. -1.
         23    2    1    2    0    0  0.44874559147E+03  0.62932790107E+03  0.61789279974E+03  0.99383117433E+03  0.92101455810E+02 0.  0.
         11    1    3    3    0    0  0.34220258498E+03  0.44998581181E+03  0.49701132068E+03  0.75273507483E+03  0.00000000000E+00 0. -1.
        -11    1    3    3    0    0  0.10654300649E+03  0.17934208926E+03  0.12088147906E+03  0.24109609949E+03  0.00000000000E+00 0.  1.
         22    1    1    2    0    0 -0.44874559147E+03 -0.62932790107E+03  0.16414060882E+04  0.18142877829E+04  0.00000000000E+00 0.  1.
<mgrwt>
<rscale>  0 0.16676632E+04</rscale>
<asrwt>0</asrwt>
<pdfrwt beam="1">  1        2 0.38980136E+00 0.16676632E+04</pdfrwt>
<pdfrwt beam="2">  1       -2 0.42216930E-01 0.16676632E+04</pdfrwt>
<totfact> 0.16914174E+01</totfact>
</mgrwt>
</event>
<event>
 6    1  0.1934315E-005  0.1667441E+04  0.7818608E-02  0.8780155E-01
          2   -1    0    0  501    0  0.00000000000E+00  0.00000000000E+00  0.10379337993E+04  0.10379337993E+04  0.00000000000E+00 0.  1.
         -2   -1    0    0    0  501 -0.00000000000E+00 -0.00000000000E+00 -0.66968625249E+03  0.66968625249E+03  0.00000000000E+00 0. -1.
         23    2    1    2    0    0 -0.30376534313E+03  0.13141716553E+03 -0.59619609327E+03  0.68796550737E+03  0.91120264602E+02 0.  0.
         11    1    3    3    0    0 -0.25246114689E+03  0.69389367744E+02 -0.43318182577E+03  0.50616006285E+03  0.00000000000E+00 0. -1.
        -11    1    3    3    0    0 -0.51304196237E+02  0.62027797786E+02 -0.16301426750E+03  0.18180544452E+03  0.00000000000E+00 0.  1.
         22    1    1    2    0    0  0.30376534313E+03 -0.13141716553E+03  0.96444364007E+03  0.10196545444E+04  0.00000000000E+00 0.  1.
<mgrwt>
<rscale>  0 0.16674411E+04</rscale>
<asrwt>0</asrwt>
<pdfrwt beam="1">  1        2 0.15968212E+00 0.16674411E+04</pdfrwt>
<pdfrwt beam="2">  1       -2 0.10302865E+00 0.16674411E+04</pdfrwt>
<totfact> 0.17485408E+01</totfact>
</mgrwt>
</event>
<event>
 6    1  0.1934315E-005  0.9747800E+03  0.7818608E-02  0.9336646E-01
          2   -1    0    0  501    0  0.00000000000E+00  0.00000000000E+00  0.14485762987E+04  0.14485762987E+04  0.00000000000E+00 0.  1.
         -2   -1    0    0    0  501 -0.00000000000E+00 -0.00000000000E+00 -0.16398792835E+03  0.16398792835E+03  0.00000000000E+00 0. -1.
         23    2    1    2    0    0 -0.27281233430E+03  0.37007699902E+03  0.89286216532E+03  0.10085501754E+04  0.92666363931E+02 0.  0.
         13    1    3    3    0    0 -0.47610516205E+02  0.76160548230E+02  0.26300111463E+03  0.27791505295E+03  0.00000000000E+00 0.  1.
        -13    1    3    3    0    0 -0.22520181810E+03  0.29391645079E+03  0.62986105069E+03  0.73063512241E+03  0.00000000000E+00 0. -1.
         22    1    1    2    0    0  0.27281233430E+03 -0.37007699902E+03  0.39172620507E+03  0.60401405173E+03  0.00000000000E+00 0. -1.
<mgrwt>
<rscale>  0 0.97478003E+03</rscale>
<asrwt>0</asrwt>
<pdfrwt beam="1">  1        2 0.22285788E+00 0.97478003E+03</pdfrwt>
<pdfrwt beam="2">  1       -2 0.25228913E-01 0.97478003E+03</pdfrwt>
<totfact> 0.19128788E+02</totfact>
</mgrwt>
</event>
<event>
 6    1  0.1934315E-005  0.1128864E+04  0.7818608E-02  0.9177507E-01
          2   -1    0    0  501    0  0.00000000000E+00  0.00000000000E+00  0.31596354524E+04  0.31596354524E+04  0.00000000000E+00 0.  1.
         -2   -1    0    0    0  501 -0.00000000000E+00 -0.00000000000E+00 -0.10082915780E+03  0.10082915780E+03  0.00000000000E+00 0. -1.
         23    2    1    2    0    0  0.30957220150E+02  0.45578709480E+03  0.59859311875E+03  0.75819582051E+03  0.88583041003E+02 0.  0.
         11    1    3    3    0    0 -0.93154930547E+00  0.23543344320E+03  0.37407851321E+03  0.44200057467E+03  0.00000000000E+00 0. -1.
        -11    1    3    3    0    0  0.31888769456E+02  0.22035365160E+03  0.22451460554E+03  0.31619524584E+03  0.00000000000E+00 0.  1.
         22    1    1    2    0    0 -0.30957220150E+02 -0.45578709480E+03  0.24602131758E+04  0.25022687897E+04  0.00000000000E+00 0.  1.
<mgrwt>
<rscale>  0 0.11288638E+04</rscale>
<asrwt>0</asrwt>
<pdfrwt beam="1">  1        2 0.48609769E+00 0.11288638E+04</pdfrwt>
<pdfrwt beam="2">  1       -2 0.15512180E-01 0.11288638E+04</pdfrwt>
<totfact> 0.46253847E+01</totfact>
</mgrwt>
</event>
<event>
 6    1  0.1934315E-005  0.2432106E+04  0.7818608E-02  0.8427580E-01
         -2   -1    0    0    0  501 -0.00000000000E+00  0.00000000000E+00  0.63973651655E+03  0.63973651655E+03  0.00000000000E+00 0. -1.
          2   -1    0    0  501    0  0.00000000000E+00 -0.00000000000E+00 -0.23115531928E+04  0.23115531928E+04  0.00000000000E+00 0.  1.
         23    2    1    2    0    0  0.57493990889E+03  0.34195845826E+03  0.39272562638E+03  0.78107626239E+03  0.91406914628E+02 0.  0.
         11    1    3    3    0    0  0.13836271150E+03  0.64212631726E+02  0.50391685052E+02  0.16064502460E+03  0.00000000000E+00 0.  1.
        -11    1    3    3    0    0  0.43657719739E+03  0.27774582654E+03  0.34233394133E+03  0.62043123779E+03  0.00000000000E+00 0. -1.
         22    1    1    2    0    0 -0.57493990889E+03 -0.34195845826E+03 -0.20645423026E+04  0.21702134470E+04  0.00000000000E+00 0.  1.
<mgrwt>
<rscale>  0 0.24321061E+04</rscale>
<asrwt>0</asrwt>
<pdfrwt beam="1">  1        2 0.35562358E+00 0.24321061E+04</pdfrwt>
<pdfrwt beam="2">  1       -2 0.98421001E-01 0.24321061E+04</pdfrwt>
<totfact> 0.34345632E+00</totfact>
</mgrwt>
</event>
<event>
 6    1  0.1934315E-005  0.2544692E+04  0.7818608E-02  0.8387235E-01
         -2   -1    0    0    0  501 -0.00000000000E+00  0.00000000000E+00  0.83513382323E+03  0.83513382323E+03  0.00000000000E+00 0. -1.
          2   -1    0    0  501    0  0.00000000000E+00 -0.00000000000E+00 -0.19384489843E+04  0.19384489843E+04  0.00000000000E+00 0.  1.
         23    2    1    2    0    0 -0.53387578444E+02  0.12668388500E+04 -0.45888338208E+03  0.13512525986E+04  0.87055854033E+02 0.  0.
         13    1    3    3    0    0 -0.11224318172E+02  0.10123267848E+04 -0.34916895351E+03  0.10709110433E+04  0.00000000000E+00 0.  1.
        -13    1    3    3    0    0 -0.42163260271E+02  0.25451206516E+03 -0.10971442857E+03  0.28034155537E+03  0.00000000000E+00 0. -1.
         22    1    1    2    0    0  0.53387578444E+02 -0.12668388500E+04 -0.64443177895E+03  0.14223302089E+04  0.00000000000E+00 0.  1.
<mgrwt>
<rscale>  0 0.25446920E+04</rscale>
<asrwt>0</asrwt>
<pdfrwt beam="1">  1        2 0.29822292E+00 0.25446920E+04</pdfrwt>
<pdfrwt beam="2">  1       -2 0.12848213E+00 0.25446920E+04</pdfrwt>
<totfact> 0.28741942E+00</totfact>
</mgrwt>
</event>
<event>
 6    1  0.1934315E-005  0.2730623E+04  0.7818608E-02  0.8325137E-01
          2   -1    0    0  501    0  0.00000000000E+00  0.00000000000E+00  0.11943893859E+04  0.11943893859E+04  0.00000000000E+00 0.  1.
         -2   -1    0    0    0  501 -0.00000000000E+00 -0.00000000000E+00 -0.15606927735E+04  0.15606927735E+04  0.00000000000E+00 0. -1.
         23    2    1    2    0    0  0.83529592131E+02  0.70846369527E+03  0.98938389130E+03  0.12231598381E+04  0.91331839968E+02 0.  0.
         13    1    3    3    0    0  0.40583082456E+01  0.29916337455E+03  0.35845762043E+03  0.46691226176E+03  0.00000000000E+00 0.  1.
        -13    1    3    3    0    0  0.79471283886E+02  0.40930032073E+03  0.63092627086E+03  0.75624757638E+03  0.00000000000E+00 0. -1.
         22    1    1    2    0    0 -0.83529592131E+02 -0.70846369527E+03 -0.13556872789E+04  0.15319223212E+04  0.00000000000E+00 0. -1.
<mgrwt>
<rscale>  0 0.27306226E+04</rscale>
<asrwt>0</asrwt>
<pdfrwt beam="1">  1        2 0.18375221E+00 0.27306226E+04</pdfrwt>
<pdfrwt beam="2">  1       -2 0.24010658E+00 0.27306226E+04</pdfrwt>
<totfact> 0.12354457E+00</totfact>
</mgrwt>
</event>
<event>
 6    1  0.1934315E-005  0.1081943E+04  0.7818608E-02  0.9222973E-01
          2   -1    0    0  501    0  0.00000000000E+00  0.00000000000E+00  0.20932964216E+04  0.20932964216E+04  0.00000000000E+00 0.  1.
         -2   -1    0    0    0  501 -0.00000000000E+00 -0.00000000000E+00 -0.13980338470E+03  0.13980338470E+03  0.00000000000E+00 0. -1.
         23    2    1    2    0    0  0.11726983992E+03 -0.30077811544E+03  0.97536421735E+02  0.34927533267E+03  0.90885721475E+02 0.  0.
         13    1    3    3    0    0  0.25444409996E+02 -0.17610751555E+03  0.73779833285E+02  0.19262590385E+03  0.00000000000E+00 0.  1.
        -13    1    3    3    0    0  0.91825429920E+02 -0.12467059989E+03  0.23756588450E+02  0.15664942882E+03  0.00000000000E+00 0. -1.
         22    1    1    2    0    0 -0.11726983992E+03  0.30077811544E+03  0.18559566152E+04  0.18838244736E+04  0.00000000000E+00 0.  1.
<mgrwt>
<rscale>  0 0.10819426E+04</rscale>
<asrwt>0</asrwt>
<pdfrwt beam="1">  1        2 0.32204558E+00 0.10819426E+04</pdfrwt>
<pdfrwt beam="2">  1       -2 0.21508214E-01 0.10819426E+04</pdfrwt>
<totfact> 0.11110363E+02</totfact>
</mgrwt>
</event>
<event>
 6    1  0.1934315E-005  0.4960018E+04  0.7818608E-02  0.7834705E-01
          2   -1    0    0  501    0  0.00000000000E+00  0.00000000000E+00  0.21618757659E+04  0.21618757659E+04  0.00000000000E+00 0.  1.
         -2   -1    0    0    0  501 -0.00000000000E+00 -0.00000000000E+00 -0.28449574714E+04  0.28449574714E+04  0.00000000000E+00 0. -1.
         23    2    1    2    0    0  0.38234099921E+03 -0.93609074840E+03  0.19433184679E+04  0.21925076698E+04  0.90292222490E+02 0.  0.
         11    1    3    3    0    0  0.19100418365E+03 -0.40939679941E+03  0.78354594951E+03  0.90445154239E+03  0.00000000000E+00 0.  1.
        -11    1    3    3    0    0  0.19133681557E+03 -0.52669394900E+03  0.11597725184E+04  0.12880561274E+04  0.00000000000E+00 0. -1.
         22    1    1    2    0    0 -0.38234099921E+03  0.93609074840E+03 -0.26264001734E+04  0.28143255675E+04  0.00000000000E+00 0. -1.
<mgrwt>
<rscale>  0 0.49600180E+04</rscale>
<asrwt>0</asrwt>
<pdfrwt beam="1">  1        2 0.33259627E+00 0.49600180E+04</pdfrwt>
<pdfrwt beam="2">  1       -2 0.43768576E+00 0.49600180E+04</pdfrwt>
<totfact> 0.16624230E-02</totfact>
</mgrwt>
</event>
<event>
 6    1  0.1934315E-005  0.2272073E+04  0.7818608E-02  0.8489015E-01
         -2   -1    0    0    0  501 -0.00000000000E+00  0.00000000000E+00  0.35019841543E+03  0.35019841543E+03  0.00000000000E+00 0. -1.
          2   -1    0    0  501    0  0.00000000000E+00 -0.00000000000E+00 -0.36852780352E+04  0.36852780352E+04  0.00000000000E+00 0.  1.
         23    2    1    2    0    0 -0.34025276698E+03  0.82495020295E+03 -0.42642158720E+03  0.99300930485E+03  0.88979361024E+02 0.  0.
         11    1    3    3    0    0 -0.24890418292E+03  0.64531024085E+03 -0.29200210841E+03  0.75076216643E+03  0.00000000000E+00 0.  1.
        -11    1    3    3    0    0 -0.91348584060E+02  0.17963996210E+03 -0.13441947879E+03  0.24224713842E+03  0.00000000000E+00 0. -1.
         22    1    1    2    0    0  0.34025276698E+03 -0.82495020295E+03 -0.29086580326E+04  0.30424671458E+04  0.00000000000E+00 0.  1.
<mgrwt>
<rscale>  0 0.22720726E+04</rscale>
<asrwt>0</asrwt>
<pdfrwt beam="1">  1        2 0.56696584E+00 0.22720726E+04</pdfrwt>
<pdfrwt beam="2">  1       -2 0.53876681E-01 0.22720726E+04</pdfrwt>
<totfact> 0.17718055E+00</totfact>
</mgrwt>
</event>
<event>
 6    1  0.1934315E-005  0.2012576E+04  0.7818608E-02  0.8600763E-01
          2   -1    0    0  501    0  0.00000000000E+00  0.00000000000E+00  0.71364590021E+03  0.71364590021E+03  0.00000000000E+00 0.  1.
         -2   -1    0    0    0  501 -0.00000000000E+00 -0.00000000000E+00 -0.14189332474E+04  0.14189332474E+04  0.00000000000E+00 0. -1.
         23    2    1    2    0    0 -0.81662536824E+02 -0.63738627201E+03  0.46437562306E+03  0.79802248203E+03  0.90912776199E+02 0.  0.
         13    1    3    3    0    0 -0.58471567562E+02 -0.26338171858E+03  0.24108611034E+03  0.36181675817E+03  0.00000000000E+00 0. -1.
        -13    1    3    3    0    0 -0.23190969262E+02 -0.37400455343E+03  0.22328951272E+03  0.43620572386E+03  0.00000000000E+00 0.  1.
         22    1    1    2    0    0  0.81662536824E+02  0.63738627201E+03 -0.11696629702E+04  0.13345566655E+04  0.00000000000E+00 0. -1.
<mgrwt>
<rscale>  0 0.20125764E+04</rscale>
<asrwt>0</asrwt>
<pdfrwt beam="1">  1        2 0.10979168E+00 0.20125764E+04</pdfrwt>
<pdfrwt beam="2">  1       -2 0.21829742E+00 0.20125764E+04</pdfrwt>
<totfact> 0.37576599E+00</totfact>
</mgrwt>
</event>
<event>
 6    1  0.1934315E-005  0.2707878E+04  0.7818608E-02  0.8332453E-01
          2   -1    0    0  501    0  0.00000000000E+00  0.00000000000E+00  0.20049654448E+04  0.20049654448E+04  0.00000000000E+00 0.  1.
         -2   -1    0    0    0  501 -0.00000000000E+00 -0.00000000000E+00 -0.91430556921E+03  0.91430556921E+03  0.00000000000E+00 0. -1.
         23    2    1    2    0    0 -0.54808191454E+03 -0.71063419469E+03 -0.54630737310E+03  0.10524404065E+04  0.61516824648E+02 0.  0.
         13    1    3    3    0    0 -0.26298273170E+03 -0.30766860847E+03 -0.21944560891E+03  0.46040880213E+03  0.00000000000E+00 0. -1.
        -13    1    3    3    0    0 -0.28509918284E+03 -0.40296558622E+03 -0.32686176419E+03  0.59203160441E+03  0.00000000000E+00 0.  1.
         22    1    1    2    0    0  0.54808191454E+03  0.71063419469E+03  0.16369672487E+04  0.18668306075E+04  0.00000000000E+00 0.  1.
<mgrwt>
<rscale>  0 0.27078782E+04</rscale>
<asrwt>0</asrwt>
<pdfrwt beam="1">  1        2 0.30845622E+00 0.27078782E+04</pdfrwt>
<pdfrwt beam="2">  1       -2 0.14066240E+00 0.27078782E+04</pdfrwt>
<totfact> 0.20650736E+00</totfact>
</mgrwt>
</event>
<event>
 6    1  0.1934315E-005  0.2547026E+04  0.7818608E-02  0.8386421E-01
         -2   -1    0    0    0  501 -0.00000000000E+00  0.00000000000E+00  0.79299334473E+03  0.79299334473E+03  0.00000000000E+00 0. -1.
          2   -1    0    0  501    0  0.00000000000E+00 -0.00000000000E+00 -0.20452067121E+04  0.20452067121E+04  0.00000000000E+00 0.  1.
         23    2    1    2    0    0  0.79612550480E+03  0.28890840543E+03 -0.16843488878E+04  0.18873977671E+04  0.89192317517E+02 0.  0.
         13    1    3    3    0    0  0.55128771581E+03  0.24314027356E+03 -0.11882769892E+04  0.13323053483E+04  0.00000000000E+00 0. -1.
        -13    1    3    3    0    0  0.24483778900E+03  0.45768131872E+02 -0.49607189863E+03  0.55509241881E+03  0.00000000000E+00 0.  1.
         22    1    1    2    0    0 -0.79612550480E+03 -0.28890840543E+03  0.43213552040E+03  0.95080228971E+03  0.00000000000E+00 0. -1.
<mgrwt>
<rscale>  0 0.25470260E+04</rscale>
<asrwt>0</asrwt>
<pdfrwt beam="1">  1        2 0.31464718E+00 0.25470260E+04</pdfrwt>
<pdfrwt beam="2">  1       -2 0.12199898E+00 0.25470260E+04</pdfrwt>
<totfact> 0.28542941E+00</totfact>
</mgrwt>
</event>
<event>
 6    1  0.1934315E-005  0.1802872E+04  0.7818608E-02  0.8704774E-01
          2   -1    0    0  501    0  0.00000000000E+00  0.00000000000E+00  0.14165032945E+04  0.14165032945E+04  0.00000000000E+00 0.  1.
         -2   -1    0    0    0  501 -0.00000000000E+00 -0.00000000000E+00 -0.57365696230E+03  0.57365696230E+03  0.00000000000E+00 0. -1.
         23    2    1    2    0    0 -0.75116432797E+03 -0.22386788182E+03 -0.64175491777E+02  0.79138869170E+03  0.88390562129E+02 0.  0.
         13    1    3    3    0    0 -0.47877974616E+02 -0.24450125901E+02 -0.25105600384E+02  0.59332961164E+02  0.00000000000E+00 0.  1.
        -13    1    3    3    0    0 -0.70328635336E+03 -0.19941775592E+03 -0.39069891393E+02  0.73205573053E+03  0.00000000000E+00 0. -1.
         22    1    1    2    0    0  0.75116432797E+03  0.22386788182E+03  0.90702182395E+03  0.11987715651E+04  0.00000000000E+00 0.  1.
<mgrwt>
<rscale>  0 0.18028721E+04</rscale>
<asrwt>0</asrwt>
<pdfrwt beam="1">  1        2 0.21792358E+00 0.18028721E+04</pdfrwt>
<pdfrwt beam="2">  1       -2 0.88254918E-01 0.18028721E+04</pdfrwt>
<totfact> 0.14776428E+01</totfact>
</mgrwt>
</event>
<event>
 6    1  0.1934315E-005  0.1098797E+04  0.7818608E-02  0.9206365E-01
          2   -1    0    0  501    0  0.00000000000E+00  0.00000000000E+00  0.24143960354E+04  0.24143960354E+04  0.00000000000E+00 0.  1.
         -2   -1    0    0    0  501 -0.00000000000E+00 -0.00000000000E+00 -0.12501622099E+03  0.12501622099E+03  0.00000000000E+00 0. -1.
         23    2    1    2    0    0  0.10658942568E+03  0.50726644538E+03  0.75838770695E+03  0.92305295680E+03  0.90522343732E+02 0.  0.
         11    1    3    3    0    0  0.46451412516E+02  0.76613184568E+02  0.10275698492E+03  0.13633162408E+03  0.00000000000E+00 0. -1.
        -11    1    3    3    0    0  0.60138013169E+02  0.43065326081E+03  0.65563072204E+03  0.78672133272E+03  0.00000000000E+00 0.  1.
         22    1    1    2    0    0 -0.10658942568E+03 -0.50726644538E+03  0.15309921074E+04  0.16163592995E+04  0.00000000000E+00 0. -1.
<mgrwt>
<rscale>  0 0.10987969E+04</rscale>
<asrwt>0</asrwt>
<pdfrwt beam="1">  1        2 0.37144551E+00 0.10987969E+04</pdfrwt>
<pdfrwt beam="2">  1       -2 0.19233267E-01 0.10987969E+04</pdfrwt>
<totfact> 0.89325115E+01</totfact>
</mgrwt>
</event>
<event>
 6    1  0.1934315E-005  0.4165842E+04  0.7818608E-02  0.7971902E-01
          2   -1    0    0  501    0  0.00000000000E+00  0.00000000000E+00  0.12130102514E+04  0.12130102514E+04  0.00000000000E+00 0.  1.
         -2   -1    0    0    0  501 -0.00000000000E+00 -0.00000000000E+00 -0.35766881131E+04  0.35766881131E+04  0.00000000000E+00 0. -1.
         23    2    1    2    0    0  0.82280569634E+03 -0.66926045437E+03 -0.32421918701E+04  0.34124890004E+04  0.91401780372E+02 0.  0.
         11    1    3    3    0    0  0.48559660304E+03 -0.37641205750E+03 -0.17386466199E+04  0.18440125181E+04  0.00000000000E+00 0. -1.
        -11    1    3    3    0    0  0.33720909330E+03 -0.29284839687E+03 -0.15035452502E+04  0.15684764823E+04  0.00000000000E+00 0.  1.
         22    1    1    2    0    0 -0.82280569634E+03  0.66926045437E+03  0.87851400844E+03  0.13772093642E+04  0.00000000000E+00 0.  1.
<mgrwt>
<rscale>  0 0.41658417E+04</rscale>
<asrwt>0</asrwt>
<pdfrwt beam="1">  1        2 0.18661696E+00 0.41658417E+04</pdfrwt>
<pdfrwt beam="2">  1       -2 0.55025971E+00 0.41658417E+04</pdfrwt>
<totfact> 0.12354712E-02</totfact>
</mgrwt>
</event>
<event>
 6    1  0.1934315E-005  0.1854682E+04  0.7818608E-02  0.8677749E-01
         -2   -1    0    0    0  501 -0.00000000000E+00  0.00000000000E+00  0.32424866857E+03  0.32424866857E+03  0.00000000000E+00 0. -1.
          2   -1    0    0  501    0  0.00000000000E+00 -0.00000000000E+00 -0.26521672452E+04  0.26521672452E+04  0.00000000000E+00 0.  1.
         23    2    1    2    0    0 -0.54966758791E+03  0.63695445259E+03 -0.17820553241E+04  0.19735140630E+04  0.10578821659E+03 0.  0.
         11    1    3    3    0    0 -0.40344640406E+02  0.88535117575E+02 -0.16289945232E+03  0.18974295407E+03  0.00000000000E+00 0.  1.
        -11    1    3    3    0    0 -0.50932294751E+03  0.54841933501E+03 -0.16191558718E+04  0.17837711089E+04  0.00000000000E+00 0. -1.
         22    1    1    2    0    0  0.54966758791E+03 -0.63695445259E+03 -0.54586325255E+03  0.10029018508E+04  0.00000000000E+00 0.  1.
<mgrwt>
<rscale>  0 0.18546824E+04</rscale>
<asrwt>0</asrwt>
<pdfrwt beam="1">  1        2 0.40802574E+00 0.18546824E+04</pdfrwt>
<pdfrwt beam="2">  1       -2 0.49884409E-01 0.18546824E+04</pdfrwt>
<totfact> 0.10147959E+01</totfact>
</mgrwt>
</event>
<event>
 6    1  0.1934315E-005  0.2231549E+04  0.7818608E-02  0.8505410E-01
         -2   -1    0    0    0  501 -0.00000000000E+00  0.00000000000E+00  0.42352894703E+03  0.42352894703E+03  0.00000000000E+00 0. -1.
          2   -1    0    0  501    0  0.00000000000E+00 -0.00000000000E+00 -0.29394750617E+04  0.29394750617E+04  0.00000000000E+00 0.  1.
         23    2    1    2    0    0  0.34449900104E+03 -0.92238343192E+03 -0.20451020044E+04  0.22715989815E+04  0.90823826094E+02 0.  0.
         11    1    3    3    0    0  0.27698792313E+03 -0.81790334379E+03 -0.18179047615E+04  0.20125769330E+04  0.00000000000E+00 0. -1.
        -11    1    3    3    0    0  0.67511077910E+02 -0.10448008813E+03 -0.22719724288E+03  0.25902204853E+03  0.00000000000E+00 0.  1.
         22    1    1    2    0    0 -0.34449900104E+03  0.92238343192E+03 -0.47084411028E+03  0.10914050272E+04  0.00000000000E+00 0. -1.
<mgrwt>
<rscale>  0 0.22315490E+04</rscale>
<asrwt>0</asrwt>
<pdfrwt beam="1">  1        2 0.45222695E+00 0.22315490E+04</pdfrwt>
<pdfrwt beam="2">  1       -2 0.65158297E-01 0.22315490E+04</pdfrwt>
<totfact> 0.37638754E+00</totfact>
</mgrwt>
</event>
<event>
 6    1  0.1934315E-005  0.2091112E+04  0.7818608E-02  0.8565169E-01
          1   -1    0    0  501    0  0.00000000000E+00  0.00000000000E+00  0.89944777629E+03  0.89944777629E+03  0.00000000000E+00 0.  1.
         -1   -1    0    0    0  501 -0.00000000000E+00 -0.00000000000E+00 -0.12153984055E+04  0.12153984055E+04  0.00000000000E+00 0. -1.
         23    2    1    2    0    0 -0.13288004081E+03 -0.27047148274E+03 -0.11686571328E+04  0.12104567139E+04  0.92919503208E+02 0.  0.
         13    1    3    3    0    0 -0.87790109256E+02 -0.19463808410E+03 -0.64510666892E+03  0.67952461423E+03  0.00000000000E+00 0.  1.
        -13    1    3    3    0    0 -0.45089931556E+02 -0.75833398634E+02 -0.52355046387E+03  0.53093209970E+03  0.00000000000E+00 0. -1.
         22    1    1    2    0    0  0.13288004081E+03  0.27047148274E+03  0.85270650361E+03  0.90438946783E+03  0.00000000000E+00 0.  1.
<mgrwt>
<rscale>  0 0.20911120E+04</rscale>
<asrwt>0</asrwt>
<pdfrwt beam="1">  1        1 0.13837658E+00 0.20911120E+04</pdfrwt>
<pdfrwt beam="2">  1       -1 0.18698437E+00 0.20911120E+04</pdfrwt>
<totfact> 0.31109218E+00</totfact>
</mgrwt>
</event>
<event>
 6    1  0.1934315E-005  0.4152790E+04  0.7818608E-02  0.7974414E-01
          2   -1    0    0  501    0  0.00000000000E+00  0.00000000000E+00  0.34235635582E+04  0.34235635582E+04  0.00000000000E+00 0.  1.
         -2   -1    0    0    0  501 -0.00000000000E+00 -0.00000000000E+00 -0.12593358979E+04  0.12593358979E+04  0.00000000000E+00 0. -1.
         23    2    1    2    0    0  0.12178133844E+04  0.23899620824E+03  0.29581882112E+04  0.32096167326E+04  0.10282728363E+03 0.  0.
         13    1    3    3    0    0  0.43119623648E+03  0.66915420848E+02  0.11606617619E+04  0.12399772553E+04  0.00000000000E+00 0.  1.
        -13    1    3    3    0    0  0.78661714794E+03  0.17208078740E+03  0.17975264493E+04  0.19696394774E+04  0.00000000000E+00 0. -1.
         22    1    1    2    0    0 -0.12178133844E+04 -0.23899620824E+03 -0.79396055097E+03  0.14732827235E+04  0.00000000000E+00 0. -1.
<mgrwt>
<rscale>  0 0.41527901E+04</rscale>
<asrwt>0</asrwt>
<pdfrwt beam="1">  1        2 0.52670208E+00 0.41527901E+04</pdfrwt>
<pdfrwt beam="2">  1       -2 0.19374399E+00 0.41527901E+04</pdfrwt>
<totfact> 0.10455957E-01</totfact>
</mgrwt>
</event>
<event>
 6    1  0.1934315E-005  0.1848956E+04  0.7818608E-02  0.8680690E-01
         -2   -1    0    0    0  501 -0.00000000000E+00  0.00000000000E+00  0.33154569308E+03  0.33154569308E+03  0.00000000000E+00 0. -1.
          2   -1    0    0  501    0  0.00000000000E+00 -0.00000000000E+00 -0.25778045923E+04  0.25778045923E+04  0.00000000000E+00 0.  1.
         23    2    1    2    0    0 -0.89965475947E+03 -0.62679909258E+02 -0.14288169816E+04  0.16921737386E+04  0.92879155329E+02 0.  0.
         11    1    3    3    0    0 -0.36071295815E+03  0.82427538480E+01 -0.62855953663E+03  0.72475435305E+03  0.00000000000E+00 0. -1.
        -11    1    3    3    0    0 -0.53894180132E+03 -0.70922663106E+02 -0.80025744499E+03  0.96741938559E+03  0.00000000000E+00 0.  1.
         22    1    1    2    0    0  0.89965475947E+03  0.62679909258E+02 -0.81744191758E+03  0.12171765467E+04  0.00000000000E+00 0. -1.
<mgrwt>
<rscale>  0 0.18489565E+04</rscale>
<asrwt>0</asrwt>
<pdfrwt beam="1">  1        2 0.39658533E+00 0.18489565E+04</pdfrwt>
<pdfrwt beam="2">  1       -2 0.51007028E-01 0.18489565E+04</pdfrwt>
<totfact> 0.10726749E+01</totfact>
</mgrwt>
</event>
<event>
 6    1  0.1934315E-005  0.1770782E+04  0.7818608E-02  0.8721993E-01
         -2   -1    0    0    0  501 -0.00000000000E+00  0.00000000000E+00  0.45607661519E+03  0.45607661519E+03  0.00000000000E+00 0.  1.
          2   -1    0    0  501    0  0.00000000000E+00 -0.00000000000E+00 -0.17188278293E+04  0.17188278293E+04  0.00000000000E+00 0. -1.
         23    2    1    2    0    0 -0.41402088586E+03 -0.27820458154E+03  0.26178377955E+03  0.57084146879E+03  0.92293835846E+02 0.  0.
         11    1    3    3    0    0 -0.84619905921E+02 -0.96783183125E+02  0.92846673218E+02  0.15858126542E+03  0.00000000000E+00 0. -1.
        -11    1    3    3    0    0 -0.32940097994E+03 -0.18142139842E+03  0.16893710633E+03  0.41226020337E+03  0.00000000000E+00 0.  1.
         22    1    1    2    0    0  0.41402088586E+03  0.27820458154E+03 -0.15245349937E+04  0.16040629757E+04  0.00000000000E+00 0. -1.
<mgrwt>
<rscale>  0 0.17707819E+04</rscale>
<asrwt>0</asrwt>
<pdfrwt beam="1">  1        2 0.26443505E+00 0.17707819E+04</pdfrwt>
<pdfrwt beam="2">  1       -2 0.70165634E-01 0.17707819E+04</pdfrwt>
<totfact> 0.16750827E+01</totfact>
</mgrwt>
</event>
<event>
 6    1  0.1934315E-005  0.1418419E+04  0.7818608E-02  0.8940593E-01
         -2   -1    0    0    0  501 -0.00000000000E+00  0.00000000000E+00  0.36124501268E+03  0.36124501268E+03  0.00000000000E+00 0. -1.
          2   -1    0    0  501    0  0.00000000000E+00 -0.00000000000E+00 -0.13923469103E+04  0.13923469103E+04  0.00000000000E+00 0.  1.
         23    2    1    2    0    0 -0.51268646728E+03 -0.31155344899E+03 -0.55958394029E+02  0.60868239908E+03  0.86313126371E+02 0.  0.
         11    1    3    3    0    0 -0.12164794338E+03 -0.56867253995E+02  0.20358927988E+02  0.13581823388E+03  0.00000000000E+00 0.  1.
        -11    1    3    3    0    0 -0.39103852389E+03 -0.25468619500E+03 -0.76317322017E+02  0.47286416520E+03  0.00000000000E+00 0. -1.
         22    1    1    2    0    0  0.51268646728E+03  0.31155344899E+03 -0.97514350360E+03  0.11449095239E+04  0.00000000000E+00 0.  1.
<mgrwt>
<rscale>  0 0.14184194E+04</rscale>
<asrwt>0</asrwt>
<pdfrwt beam="1">  1        2 0.21420722E+00 0.14184194E+04</pdfrwt>
<pdfrwt beam="2">  1       -2 0.55576156E-01 0.14184194E+04</pdfrwt>
<totfact> 0.43218284E+01</totfact>
</mgrwt>
</event>
<event>
 6    1  0.1934315E-005  0.9460602E+03  0.7818608E-02  0.9369767E-01
          2   -1    0    0  501    0  0.00000000000E+00  0.00000000000E+00  0.44103726583E+03  0.44103726583E+03  0.00000000000E+00 0.  1.
         -2   -1    0    0    0  501 -0.00000000000E+00 -0.00000000000E+00 -0.50734373040E+03  0.50734373040E+03  0.00000000000E+00 0. -1.
         23    2    1    2    0    0  0.21632975805E+03  0.40470404693E+03  0.63491642881E+02  0.47148323096E+03  0.87643131753E+02 0.  0.
         11    1    3    3    0    0  0.68904722572E+02  0.16042908085E+03 -0.15916177449E+02  0.17532448625E+03  0.00000000000E+00 0. -1.
        -11    1    3    3    0    0  0.14742503548E+03  0.24427496609E+03  0.79407820330E+02  0.29615874472E+03  0.00000000000E+00 0.  1.
         22    1    1    2    0    0 -0.21632975805E+03 -0.40470404693E+03 -0.12979810745E+03  0.47689776527E+03  0.00000000000E+00 0. -1.
<mgrwt>
<rscale>  0 0.94606023E+03</rscale>
<asrwt>0</asrwt>
<pdfrwt beam="1">  1        2 0.67851887E-01 0.94606023E+03</pdfrwt>
<pdfrwt beam="2">  1       -2 0.78052882E-01 0.94606023E+03</pdfrwt>
<totfact> 0.10416482E+02</totfact>
</mgrwt>
</event>
<event>
 6    1  0.1934315E-005  0.3332682E+04  0.7818608E-02  0.8154629E-01
          2   -1    0    0  501    0  0.00000000000E+00  0.00000000000E+00  0.36004673739E+04  0.36004673739E+04  0.00000000000E+00 0.  1.
         -2   -1    0    0    0  501 -0.00000000000E+00 -0.00000000000E+00 -0.77120322057E+03  0.77120322057E+03  0.00000000000E+00 0. -1.
         23    2    1    2    0    0  0.82266851978E+03 -0.57914822429E+03 -0.32414610038E+03  0.10616566387E+04  0.99236913341E+02 0.  0.
         13    1    3    3    0    0  0.20570788726E+03 -0.17486616456E+03 -0.12564826354E+03  0.29779421841E+03  0.00000000000E+00 0. -1.
        -13    1    3    3    0    0  0.61696063253E+03 -0.40428205973E+03 -0.19849783684E+03  0.76386242029E+03  0.00000000000E+00 0.  1.
         22    1    1    2    0    0 -0.82266851978E+03  0.57914822429E+03  0.31534102537E+04  0.33100139558E+04  0.00000000000E+00 0.  1.
<mgrwt>
<rscale>  0 0.33326818E+04</rscale>
<asrwt>0</asrwt>
<pdfrwt beam="1">  1        2 0.55391805E+00 0.33326818E+04</pdfrwt>
<pdfrwt beam="2">  1       -2 0.11864665E+00 0.33326818E+04</pdfrwt>
<totfact> 0.31335933E-01</totfact>
</mgrwt>
</event>
<event>
 6    1  0.1934315E-005  0.1915801E+04  0.7818608E-02  0.8647031E-01
         -2   -1    0    0    0  501 -0.00000000000E+00  0.00000000000E+00  0.48454163915E+03  0.48454163915E+03  0.00000000000E+00 0. -1.
          2   -1    0    0  501    0  0.00000000000E+00 -0.00000000000E+00 -0.18936925567E+04  0.18936925567E+04  0.00000000000E+00 0.  1.
         23    2    1    2    0    0  0.31042341803E+03  0.85834413521E+03 -0.10580335236E+04  0.14002767442E+04  0.90678941289E+02 0.  0.
         13    1    3    3    0    0  0.21905618132E+03  0.59352998860E+03 -0.66776543739E+03  0.91987724035E+03  0.00000000000E+00 0.  1.
        -13    1    3    3    0    0  0.91367236718E+02  0.26481414660E+03 -0.39026808625E+03  0.48039950389E+03  0.00000000000E+00 0. -1.
         22    1    1    2    0    0 -0.31042341803E+03 -0.85834413521E+03 -0.35111739393E+03  0.97795745164E+03  0.00000000000E+00 0.  1.
<mgrwt>
<rscale>  0 0.19158005E+04</rscale>
<asrwt>0</asrwt>
<pdfrwt beam="1">  1        2 0.29133731E+00 0.19158005E+04</pdfrwt>
<pdfrwt beam="2">  1       -2 0.74544869E-01 0.19158005E+04</pdfrwt>
<totfact> 0.11587894E+01</totfact>
</mgrwt>
</event>
<event>
 6    1  0.1934315E-005  0.5499774E+03  0.7818608E-02  0.1001499E+00
         -2   -1    0    0    0  501 -0.00000000000E+00  0.00000000000E+00  0.78932466577E+02  0.78932466577E+02  0.00000000000E+00 0.  1.
          2   -1    0    0  501    0  0.00000000000E+00 -0.00000000000E+00 -0.95801882535E+03  0.95801882535E+03  0.00000000000E+00 0. -1.
         23    2    1    2    0    0 -0.12364220280E+03  0.17213877472E+03 -0.14327933419E+03  0.27122867276E+03  0.90093691485E+02 0.  0.
         13    1    3    3    0    0 -0.48404915889E+02  0.12639463770E+03 -0.11814980066E+03  0.17966083523E+03  0.00000000000E+00 0. -1.
        -13    1    3    3    0    0 -0.75237286913E+02  0.45744137021E+02 -0.25129533534E+02  0.91567837527E+02  0.00000000000E+00 0.  1.
         22    1    1    2    0    0  0.12364220280E+03 -0.17213877472E+03 -0.73580702458E+03  0.76572261916E+03  0.00000000000E+00 0. -1.
<mgrwt>
<rscale>  0 0.54997741E+03</rscale>
<asrwt>0</asrwt>
<pdfrwt beam="1">  1        2 0.14738752E+00 0.54997741E+03</pdfrwt>
<pdfrwt beam="2">  1       -2 0.12143456E-01 0.54997741E+03</pdfrwt>
<totfact> 0.13476528E+03</totfact>
</mgrwt>
</event>
<event>
 6    1  0.1934315E-005  0.2373697E+04  0.7818608E-02  0.8449417E-01
          2   -1    0    0  501    0  0.00000000000E+00  0.00000000000E+00  0.10593299264E+04  0.10593299264E+04  0.00000000000E+00 0. -1.
         -2   -1    0    0    0  501 -0.00000000000E+00 -0.00000000000E+00 -0.13297175197E+04  0.13297175197E+04  0.00000000000E+00 0.  1.
         23    2    1    2    0    0  0.40718292148E+03 -0.73749376784E+03 -0.97422173549E+03  0.12912872314E+04  0.92842527474E+02 0.  0.
         13    1    3    3    0    0  0.22495518903E+03 -0.31339012151E+03 -0.45637621465E+03  0.59757631699E+03  0.00000000000E+00 0. -1.
        -13    1    3    3    0    0  0.18222773245E+03 -0.42410364633E+03 -0.51784552084E+03  0.69371091440E+03  0.00000000000E+00 0.  1.
         22    1    1    2    0    0 -0.40718292148E+03  0.73749376784E+03  0.70383414226E+03  0.10977602147E+04  0.00000000000E+00 0. -1.
<mgrwt>
<rscale>  0 0.23736972E+04</rscale>
<asrwt>0</asrwt>
<pdfrwt beam="1">  1        2 0.16297384E+00 0.23736972E+04</pdfrwt>
<pdfrwt beam="2">  1       -2 0.20457193E+00 0.23736972E+04</pdfrwt>
<totfact> 0.25834495E+00</totfact>
</mgrwt>
</event>
<event>
 6    1  0.1990109E-005  0.5322273E+04  0.7818608E-02  0.7780629E-01
          2   -1    0    0  501    0  0.00000000000E+00  0.00000000000E+00  0.25758649861E+04  0.25758649861E+04  0.00000000000E+00 0.  1.
         -2   -1    0    0    0  501 -0.00000000000E+00 -0.00000000000E+00 -0.27492308475E+04  0.27492308475E+04  0.00000000000E+00 0. -1.
         23    2    1    2    0    0  0.19441540403E+04 -0.13751047213E+04  0.11000897683E+04  0.26246630594E+04  0.89502792952E+02 0.  0.
         11    1    3    3    0    0  0.77613173459E+03 -0.52717235978E+03  0.47752804690E+03  0.10527697763E+04  0.00000000000E+00 0. -1.
        -11    1    3    3    0    0  0.11680223057E+04 -0.84793236155E+03  0.62256172141E+03  0.15718932831E+04  0.00000000000E+00 0.  1.
         22    1    1    2    0    0 -0.19441540403E+04  0.13751047213E+04 -0.12734556297E+04  0.27004327742E+04  0.00000000000E+00 0. -1.
<mgrwt>
<rscale>  0 0.53222730E+04</rscale>
<asrwt>0</asrwt>
<pdfrwt beam="1">  1        2 0.39628692E+00 0.53222730E+04</pdfrwt>
<pdfrwt beam="2">  1       -2 0.42295859E+00 0.53222730E+04</pdfrwt>
<totfact> 0.11717389E-02</totfact>
</mgrwt>
</event>
<event>
 6    1  0.1934315E-005  0.3303122E+04  0.7818608E-02  0.8162101E-01
          2   -1    0    0  501    0  0.00000000000E+00  0.00000000000E+00  0.29328842231E+04  0.29328842231E+04  0.00000000000E+00 0.  1.
         -2   -1    0    0    0  501 -0.00000000000E+00 -0.00000000000E+00 -0.93002433286E+03  0.93002433286E+03  0.00000000000E+00 0. -1.
         23    2    1    2    0    0 -0.11084445840E+04 -0.10539855651E+03  0.24267239210E+04  0.26715148476E+04  0.90798352982E+02 0.  0.
         13    1    3    3    0    0 -0.14830272392E+03 -0.15561662108E+02  0.25670161221E+03  0.29686963631E+03  0.00000000000E+00 0. -1.
        -13    1    3    3    0    0 -0.96014186013E+03 -0.89836894400E+02  0.21700223088E+04  0.23746452113E+04  0.00000000000E+00 0.  1.
         22    1    1    2    0    0  0.11084445840E+04  0.10539855651E+03 -0.42386403075E+03  0.11913937083E+04  0.00000000000E+00 0. -1.
<mgrwt>
<rscale>  0 0.33031220E+04</rscale>
<asrwt>0</asrwt>
<pdfrwt beam="1">  1        2 0.45121295E+00 0.33031220E+04</pdfrwt>
<pdfrwt beam="2">  1       -2 0.14308067E+00 0.33031220E+04</pdfrwt>
<totfact> 0.54288467E-01</totfact>
</mgrwt>
</event>
<event>
 6    1  0.1934315E-005  0.4759742E+04  0.7818608E-02  0.7866677E-01
          2   -1    0    0  501    0  0.00000000000E+00  0.00000000000E+00  0.37432880737E+04  0.37432880737E+04  0.00000000000E+00 0.  1.
         -2   -1    0    0    0  501 -0.00000000000E+00 -0.00000000000E+00 -0.15130508536E+04  0.15130508536E+04  0.00000000000E+00 0. -1.
         23    2    1    2    0    0 -0.19366184261E+04 -0.86670168393E+03  0.23039735051E+04  0.31333458098E+04  0.88878085996E+02 0.  0.
         11    1    3    3    0    0 -0.75050721507E+03 -0.31913643355E+03  0.94558811515E+03  0.12486977323E+04  0.00000000000E+00 0. -1.
        -11    1    3    3    0    0 -0.11861112111E+04 -0.54756525038E+03  0.13583853899E+04  0.18846480775E+04  0.00000000000E+00 0.  1.
         22    1    1    2    0    0  0.19366184261E+04  0.86670168393E+03 -0.73736284999E+02  0.21229931175E+04  0.00000000000E+00 0. -1.
<mgrwt>
<rscale>  0 0.47597417E+04</rscale>
<asrwt>0</asrwt>
<pdfrwt beam="1">  1        2 0.57589047E+00 0.47597417E+04</pdfrwt>
<pdfrwt beam="2">  1       -2 0.23277706E+00 0.47597417E+04</pdfrwt>
<totfact> 0.32937932E-02</totfact>
</mgrwt>
</event>
<event>
 6    1  0.1934315E-005  0.2827771E+04  0.7818608E-02  0.8294698E-01
          2   -1    0    0  501    0  0.00000000000E+00  0.00000000000E+00  0.36784014243E+04  0.36784014243E+04  0.00000000000E+00 0.  1.
         -2   -1    0    0    0  501 -0.00000000000E+00 -0.00000000000E+00 -0.54346223820E+03  0.54346223820E+03  0.00000000000E+00 0. -1.
         23    2    1    2    0    0 -0.12827308143E+04 -0.58342358028E+03  0.14296738121E+04  0.20096902037E+04  0.95425835258E+02 0.  0.
         11    1    3    3    0    0 -0.86030673411E+03 -0.41444725167E+03  0.10233866965E+04  0.13997194475E+04  0.00000000000E+00 0.  1.
        -11    1    3    3    0    0 -0.42242408016E+03 -0.16897632860E+03  0.40628711560E+03  0.60997075621E+03  0.00000000000E+00 0. -1.
         22    1    1    2    0    0  0.12827308143E+04  0.58342358028E+03  0.17052653740E+04  0.22121734587E+04  0.00000000000E+00 0. -1.
<mgrwt>
<rscale>  0 0.28277710E+04</rscale>
<asrwt>0</asrwt>
<pdfrwt beam="1">  1        2 0.56590790E+00 0.28277710E+04</pdfrwt>
<pdfrwt beam="2">  1       -2 0.83609577E-01 0.28277710E+04</pdfrwt>
<totfact> 0.65757773E-01</totfact>
</mgrwt>
</event>
<event>
 6    1  0.1934315E-005  0.1962886E+04  0.7818608E-02  0.8624172E-01
          2   -1    0    0  501    0  0.00000000000E+00  0.00000000000E+00  0.41744766084E+04  0.41744766084E+04  0.00000000000E+00 0.  1.
         -2   -1    0    0    0  501 -0.00000000000E+00 -0.00000000000E+00 -0.23074274712E+03  0.23074274712E+03  0.00000000000E+00 0. -1.
         23    2    1    2    0    0  0.87407127125E+03  0.43292836690E+03  0.21751534834E+04  0.23854906333E+04  0.88573853159E+02 0.  0.
         13    1    3    3    0    0  0.14632468782E+03  0.10785832114E+03  0.37242273818E+03  0.41441890355E+03  0.00000000000E+00 0.  1.
        -13    1    3    3    0    0  0.72774658343E+03  0.32507004575E+03  0.18027307452E+04  0.19710717298E+04  0.00000000000E+00 0. -1.
         22    1    1    2    0    0 -0.87407127125E+03 -0.43292836690E+03  0.17685803780E+04  0.20197287222E+04  0.00000000000E+00 0.  1.
<mgrwt>
<rscale>  0 0.19628858E+04</rscale>
<asrwt>0</asrwt>
<pdfrwt beam="1">  1        2 0.64222712E+00 0.19628858E+04</pdfrwt>
<pdfrwt beam="2">  1       -2 0.35498887E-01 0.19628858E+04</pdfrwt>
<totfact> 0.17225314E+00</totfact>
</mgrwt>
</event>
<event>
 6    1  0.1934315E-005  0.3013795E+04  0.7818608E-02  0.8239803E-01
         -2   -1    0    0    0  501 -0.00000000000E+00  0.00000000000E+00  0.10179679980E+04  0.10179679980E+04  0.00000000000E+00 0. -1.
          2   -1    0    0  501    0  0.00000000000E+00 -0.00000000000E+00 -0.22306593955E+04  0.22306593955E+04  0.00000000000E+00 0.  1.
         23    2    1    2    0    0 -0.10540849625E+03  0.10697746831E+04  0.52941129267E+03  0.12015683795E+04  0.89226846295E+02 0.  0.
         13    1    3    3    0    0 -0.10189934999E+03  0.81189761958E+03  0.43672330529E+03  0.92751736781E+03  0.00000000000E+00 0.  1.
        -13    1    3    3    0    0 -0.35091462648E+01  0.25787706354E+03  0.92687987379E+02  0.27405101170E+03  0.00000000000E+00 0. -1.
         22    1    1    2    0    0  0.10540849625E+03 -0.10697746831E+04 -0.17421026902E+04  0.20470590140E+04  0.00000000000E+00 0.  1.
<mgrwt>
<rscale>  0 0.30137949E+04</rscale>
<asrwt>0</asrwt>
<pdfrwt beam="1">  1        2 0.34317836E+00 0.30137949E+04</pdfrwt>
<pdfrwt beam="2">  1       -2 0.15661046E+00 0.30137949E+04</pdfrwt>
<totfact> 0.11327429E+00</totfact>
</mgrwt>
</event>
<event>
 6    1  0.1934315E-005  0.1136434E+04  0.7818608E-02  0.9170391E-01
          2   -1    0    0  501    0  0.00000000000E+00  0.00000000000E+00  0.16561774144E+04  0.16561774144E+04  0.00000000000E+00 0.  1.
         -2   -1    0    0    0  501 -0.00000000000E+00 -0.00000000000E+00 -0.19494915856E+03  0.19494915856E+03  0.00000000000E+00 0. -1.
         23    2    1    2    0    0 -0.48114805607E+03  0.19856386569E+03  0.10914767935E+04  0.12126540172E+04  0.90978645802E+02 0.  0.
         11    1    3    3    0    0 -0.28748628399E+03  0.13707798178E+03  0.56925230948E+03  0.65229359066E+03  0.00000000000E+00 0. -1.
        -11    1    3    3    0    0 -0.19366177208E+03  0.61485883908E+02  0.52222448402E+03  0.56036042650E+03  0.00000000000E+00 0.  1.
         22    1    1    2    0    0  0.48114805607E+03 -0.19856386569E+03  0.36975146237E+03  0.63847255582E+03  0.00000000000E+00 0. -1.
<mgrwt>
<rscale>  0 0.11364337E+04</rscale>
<asrwt>0</asrwt>
<pdfrwt beam="1">  1        2 0.25479652E+00 0.11364337E+04</pdfrwt>
<pdfrwt beam="2">  1       -2 0.29992179E-01 0.11364337E+04</pdfrwt>
<totfact> 0.10541470E+02</totfact>
</mgrwt>
</event>
<event>
 6    1  0.1934315E-005  0.3002761E+04  0.7818608E-02  0.8242943E-01
         -1   -1    0    0    0  501 -0.00000000000E+00  0.00000000000E+00  0.90427141869E+03  0.90427141869E+03  0.00000000000E+00 0. -1.
          1   -1    0    0  501    0  0.00000000000E+00 -0.00000000000E+00 -0.24927731409E+04  0.24927731409E+04  0.00000000000E+00 0.  1.
         23    2    1    2    0    0 -0.56027092806E+03  0.32140847274E+03 -0.23265472917E+04  0.24162702829E+04  0.91284500997E+02 0.  0.
         11    1    3    3    0    0 -0.31334698087E+03  0.22955087656E+03 -0.13421910068E+04  0.13972675599E+04  0.00000000000E+00 0. -1.
        -11    1    3    3    0    0 -0.24692394719E+03  0.91857596181E+02 -0.98435628495E+03  0.10190027230E+04  0.00000000000E+00 0.  1.
         22    1    1    2    0    0  0.56027092806E+03 -0.32140847274E+03  0.73804556951E+03  0.98077427671E+03  0.00000000000E+00 0. -1.
<mgrwt>
<rscale>  0 0.30027611E+04</rscale>
<asrwt>0</asrwt>
<pdfrwt beam="1">  1        1 0.38350356E+00 0.30027611E+04</pdfrwt>
<pdfrwt beam="2">  1       -1 0.13911868E+00 0.30027611E+04</pdfrwt>
<totfact> 0.49672448E-01</totfact>
</mgrwt>
</event>
<event>
 6    1  0.1934315E-005  0.8455321E+03  0.7818608E-02  0.9496353E-01
          2   -1    0    0  501    0  0.00000000000E+00  0.00000000000E+00  0.13749062424E+04  0.13749062424E+04  0.00000000000E+00 0.  1.
         -2   -1    0    0    0  501 -0.00000000000E+00 -0.00000000000E+00 -0.12999515204E+03  0.12999515204E+03  0.00000000000E+00 0. -1.
         23    2    1    2    0    0 -0.93625460593E+02 -0.19536630588E+03  0.12656442064E+04  0.12872696357E+04  0.90962286080E+02 0.  0.
         11    1    3    3    0    0 -0.89339870669E+02 -0.20516985680E+03  0.11880578858E+04  0.12089490571E+04  0.00000000000E+00 0.  1.
        -11    1    3    3    0    0 -0.42855899241E+01  0.98035509137E+01  0.77586320557E+02  0.78320578580E+02  0.00000000000E+00 0. -1.
         22    1    1    2    0    0  0.93625460593E+02  0.19536630588E+03 -0.20733115960E+02  0.21763175881E+03  0.00000000000E+00 0. -1.
<mgrwt>
<rscale>  0 0.84553213E+03</rscale>
<asrwt>0</asrwt>
<pdfrwt beam="1">  1        2 0.21152403E+00 0.84553213E+03</pdfrwt>
<pdfrwt beam="2">  1       -2 0.19999255E-01 0.84553213E+03</pdfrwt>
<totfact> 0.32106264E+02</totfact>
</mgrwt>
</event>
<event>
 6    1  0.1934315E-005  0.8507564E+03  0.7818608E-02  0.9489322E-01
         -2   -1    0    0    0  501 -0.00000000000E+00  0.00000000000E+00  0.51521335978E+03  0.51521335978E+03  0.00000000000E+00 0. -1.
          2   -1    0    0  501    0  0.00000000000E+00 -0.00000000000E+00 -0.35120714813E+03  0.35120714813E+03  0.00000000000E+00 0.  1.
         23    2    1    2    0    0 -0.91371104825E+02 -0.40134312933E+03  0.17020640588E+03  0.45476114791E+03  0.91719653224E+02 0.  0.
         13    1    3    3    0    0  0.12531626340E+02 -0.13324264128E+03  0.45524445132E+02  0.14136165753E+03  0.00000000000E+00 0. -1.
        -13    1    3    3    0    0 -0.10390273117E+03 -0.26810048805E+03  0.12468196075E+03  0.31339949038E+03  0.00000000000E+00 0.  1.
         22    1    1    2    0    0  0.91371104825E+02  0.40134312933E+03 -0.62001942249E+01  0.41165935999E+03  0.00000000000E+00 0.  1.
<mgrwt>
<rscale>  0 0.85075640E+03</rscale>
<asrwt>0</asrwt>
<pdfrwt beam="1">  1        2 0.54031869E-01 0.85075640E+03</pdfrwt>
<pdfrwt beam="2">  1       -2 0.79263594E-01 0.85075640E+03</pdfrwt>
<totfact> 0.13068949E+02</totfact>
</mgrwt>
</event>
<event>
 6    1  0.1934315E-005  0.1394507E+04  0.7818608E-02  0.8957805E-01
         -2   -1    0    0    0  501 -0.00000000000E+00  0.00000000000E+00  0.17610166910E+03  0.17610166910E+03  0.00000000000E+00 0. -1.
          2   -1    0    0  501    0  0.00000000000E+00 -0.00000000000E+00 -0.27606902547E+04  0.27606902547E+04  0.00000000000E+00 0.  1.
         23    2    1    2    0    0  0.33097763465E+03  0.29403728875E+03 -0.17448378381E+03  0.48636149682E+03  0.10049275079E+03 0.  0.
         11    1    3    3    0    0  0.10865904239E+03  0.13514733876E+03 -0.25955086716E+02  0.17534325534E+03  0.00000000000E+00 0. -1.
        -11    1    3    3    0    0  0.22231859227E+03  0.15888995000E+03 -0.14852869709E+03  0.31101824149E+03  0.00000000000E+00 0.  1.
         22    1    1    2    0    0 -0.33097763465E+03 -0.29403728875E+03 -0.24101048018E+04  0.24504304270E+04  0.00000000000E+00 0.  1.
<mgrwt>
<rscale>  0 0.13945066E+04</rscale>
<asrwt>0</asrwt>
<pdfrwt beam="1">  1        2 0.42472161E+00 0.13945066E+04</pdfrwt>
<pdfrwt beam="2">  1       -2 0.27092562E-01 0.13945066E+04</pdfrwt>
<totfact> 0.29642892E+01</totfact>
</mgrwt>
</event>
<event>
 6    1  0.1934315E-005  0.2271484E+04  0.7818608E-02  0.8489250E-01
          2   -1    0    0  501    0  0.00000000000E+00  0.00000000000E+00  0.16371495221E+04  0.16371495221E+04  0.00000000000E+00 0.  1.
         -2   -1    0    0    0  501 -0.00000000000E+00 -0.00000000000E+00 -0.78789997888E+03  0.78789997888E+03  0.00000000000E+00 0. -1.
         23    2    1    2    0    0  0.78660979655E+03 -0.81571773889E+03  0.46613296734E+03  0.12288351756E+04  0.92766070800E+02 0.  0.
         11    1    3    3    0    0  0.39998802449E+03 -0.44732846005E+03  0.20288387569E+03  0.63344694957E+03  0.00000000000E+00 0. -1.
        -11    1    3    3    0    0  0.38662177206E+03 -0.36838927885E+03  0.26324909165E+03  0.59538822599E+03  0.00000000000E+00 0.  1.
         22    1    1    2    0    0 -0.78660979655E+03  0.81571773889E+03  0.38311657585E+03  0.11962143254E+04  0.00000000000E+00 0. -1.
<mgrwt>
<rscale>  0 0.22714842E+04</rscale>
<asrwt>0</asrwt>
<pdfrwt beam="1">  1        2 0.25186916E+00 0.22714842E+04</pdfrwt>
<pdfrwt beam="2">  1       -2 0.12121538E+00 0.22714842E+04</pdfrwt>
<totfact> 0.50033398E+00</totfact>
</mgrwt>
</event>
<event>
 6    1  0.1934315E-005  0.3058333E+04  0.7818608E-02  0.8227267E-01
          2   -1    0    0  501    0  0.00000000000E+00  0.00000000000E+00  0.30017430512E+04  0.30017430512E+04  0.00000000000E+00 0. -1.
         -2   -1    0    0    0  501 -0.00000000000E+00 -0.00000000000E+00 -0.77899760174E+03  0.77899760174E+03  0.00000000000E+00 0.  1.
         23    2    1    2    0    0 -0.14342374428E+04 -0.46293292638E+03  0.80309490167E+03  0.17102934514E+04  0.93799424222E+02 0.  0.
         11    1    3    3    0    0 -0.71436415962E+03 -0.25102004856E+03  0.45167816397E+03  0.88166908822E+03  0.00000000000E+00 0.  1.
        -11    1    3    3    0    0 -0.71987328319E+03 -0.21191287782E+03  0.35141673770E+03  0.82862436313E+03  0.00000000000E+00 0. -1.
         22    1    1    2    0    0  0.14342374428E+04  0.46293292638E+03  0.14196505478E+04  0.20704472016E+04  0.00000000000E+00 0. -1.
<mgrwt>
<rscale>  0 0.30583333E+04</rscale>
<asrwt>0</asrwt>
<pdfrwt beam="1">  1        2 0.46180662E+00 0.30583333E+04</pdfrwt>
<pdfrwt beam="2">  1       -2 0.11984579E+00 0.30583333E+04</pdfrwt>
<totfact> 0.78769038E-01</totfact>
</mgrwt>
</event>
<event>
 6    1  0.1934315E-005  0.2997064E+04  0.7818608E-02  0.8244570E-01
          1   -1    0    0  501    0  0.00000000000E+00  0.00000000000E+00  0.41856185650E+04  0.41856185650E+04  0.00000000000E+00 0.  1.
         -1   -1    0    0    0  501 -0.00000000000E+00 -0.00000000000E+00 -0.53650324354E+03  0.53650324354E+03  0.00000000000E+00 0. -1.
         23    2    1    2    0    0  0.13029076458E+04  0.44072363004E+03  0.89470511664E+03  0.16433913514E+04  0.91827209856E+02 0.  0.
         13    1    3    3    0    0  0.61657459626E+03  0.23880507827E+03  0.47250391748E+03  0.81268201050E+03  0.00000000000E+00 0. -1.
        -13    1    3    3    0    0  0.68633304953E+03  0.20191855176E+03  0.42220119916E+03  0.83070934086E+03  0.00000000000E+00 0.  1.
         22    1    1    2    0    0 -0.13029076458E+04 -0.44072363004E+03  0.27544102048E+04  0.30787304572E+04  0.00000000000E+00 0.  1.
<mgrwt>
<rscale>  0 0.29970639E+04</rscale>
<asrwt>0</asrwt>
<pdfrwt beam="1">  1        1 0.64394130E+00 0.29970639E+04</pdfrwt>
<pdfrwt beam="2">  1       -1 0.82538963E-01 0.29970639E+04</pdfrwt>
<totfact> 0.80951852E-02</totfact>
</mgrwt>
</event>
<event>
 6    1  0.1934315E-005  0.1777207E+04  0.7818608E-02  0.8718516E-01
          2   -1    0    0  501    0  0.00000000000E+00  0.00000000000E+00  0.11582480427E+04  0.11582480427E+04  0.00000000000E+00 0.  1.
         -2   -1    0    0    0  501 -0.00000000000E+00 -0.00000000000E+00 -0.68173293289E+03  0.68173293289E+03  0.00000000000E+00 0. -1.
         23    2    1    2    0    0 -0.79835500930E+03 -0.38179526362E+03  0.29727488063E+03  0.93706048963E+03  0.81065790319E+02 0.  0.
         11    1    3    3    0    0 -0.68206566336E+03 -0.35379847229E+03  0.26957016917E+03  0.81428189482E+03  0.00000000000E+00 0.  1.
        -11    1    3    3    0    0 -0.11628934594E+03 -0.27996791333E+02  0.27704711459E+02  0.12277859480E+03  0.00000000000E+00 0. -1.
         22    1    1    2    0    0  0.79835500930E+03  0.38179526362E+03  0.17924022917E+03  0.90292048596E+03  0.00000000000E+00 0.  1.
<mgrwt>
<rscale>  0 0.17772066E+04</rscale>
<asrwt>0</asrwt>
<pdfrwt beam="1">  1        2 0.17819201E+00 0.17772066E+04</pdfrwt>
<pdfrwt beam="2">  1       -2 0.10488199E+00 0.17772066E+04</pdfrwt>
<totfact> 0.13993290E+01</totfact>
</mgrwt>
</event>
<event>
 6    1  0.1934315E-005  0.2554369E+04  0.7818608E-02  0.8383868E-01
         -2   -1    0    0    0  501 -0.00000000000E+00  0.00000000000E+00  0.39223788408E+03  0.39223788408E+03  0.00000000000E+00 0. -1.
          2   -1    0    0  501    0  0.00000000000E+00 -0.00000000000E+00 -0.41587008652E+04  0.41587008652E+04  0.00000000000E+00 0.  1.
         23    2    1    2    0    0 -0.93963569817E+03  0.39749738406E+03 -0.52171942140E+03  0.11495742901E+04  0.91708659823E+02 0.  0.
         13    1    3    3    0    0 -0.31423410504E+03  0.16703331678E+03 -0.14782944546E+03  0.38535275609E+03  0.00000000000E+00 0. -1.
        -13    1    3    3    0    0 -0.62540159313E+03  0.23046406728E+03 -0.37388997594E+03  0.76422153405E+03  0.00000000000E+00 0.  1.
         22    1    1    2    0    0  0.93963569817E+03 -0.39749738406E+03 -0.32447435597E+04  0.34013644592E+04  0.00000000000E+00 0.  1.
<mgrwt>
<rscale>  0 0.25543688E+04</rscale>
<asrwt>0</asrwt>
<pdfrwt beam="1">  1        2 0.63980013E+00 0.25543688E+04</pdfrwt>
<pdfrwt beam="2">  1       -2 0.60344290E-01 0.25543688E+04</pdfrwt>
<totfact> 0.57544777E-01</totfact>
</mgrwt>
</event>
<event>
 6    1  0.1934315E-005  0.1911907E+04  0.7818608E-02  0.8648952E-01
          2   -1    0    0  501    0  0.00000000000E+00  0.00000000000E+00  0.15702696296E+04  0.15702696296E+04  0.00000000000E+00 0. -1.
         -2   -1    0    0    0  501 -0.00000000000E+00 -0.00000000000E+00 -0.58196847152E+03  0.58196847152E+03  0.00000000000E+00 0.  1.
         23    2    1    2    0    0 -0.70678956242E+03 -0.35586711635E+03 -0.10413800592E+03  0.80330659170E+03  0.90905808124E+02 0.  0.
         13    1    3    3    0    0 -0.57157372294E+03 -0.26621333264E+03 -0.50997388861E+02  0.63258737965E+03  0.00000000000E+00 0. -1.
        -13    1    3    3    0    0 -0.13521583948E+03 -0.89653783718E+02 -0.53140617058E+02  0.17071921205E+03  0.00000000000E+00 0.  1.
         22    1    1    2    0    0  0.70678956242E+03  0.35586711635E+03  0.10924391640E+04  0.13489315094E+04  0.00000000000E+00 0. -1.
<mgrwt>
<rscale>  0 0.19119073E+04</rscale>
<asrwt>0</asrwt>
<pdfrwt beam="1">  1        2 0.24157994E+00 0.19119073E+04</pdfrwt>
<pdfrwt beam="2">  1       -2 0.89533611E-01 0.19119073E+04</pdfrwt>
<totfact> 0.11597304E+01</totfact>
</mgrwt>
</event>
<event>
 6    1  0.1934315E-005  0.1454815E+04  0.7818608E-02  0.8915069E-01
         -2   -1    0    0    0  501 -0.00000000000E+00  0.00000000000E+00  0.25885397308E+03  0.25885397308E+03  0.00000000000E+00 0. -1.
          2   -1    0    0  501    0  0.00000000000E+00 -0.00000000000E+00 -0.20440944757E+04  0.20440944757E+04  0.00000000000E+00 0.  1.
         23    2    1    2    0    0 -0.18399736517E+03 -0.49326145857E+03 -0.10801236611E+03  0.54503601672E+03  0.90750710089E+02 0.  0.
         11    1    3    3    0    0 -0.22752092985E+02 -0.10416852808E+02 -0.23926142141E+01  0.25137485165E+02  0.00000000000E+00 0.  1.
        -11    1    3    3    0    0 -0.16124527218E+03 -0.48284460577E+03 -0.10561975190E+03  0.51989853155E+03  0.00000000000E+00 0. -1.
         22    1    1    2    0    0  0.18399736517E+03  0.49326145857E+03 -0.16772281365E+04  0.17579124320E+04  0.00000000000E+00 0.  1.
<mgrwt>
<rscale>  0 0.14548154E+04</rscale>
<asrwt>0</asrwt>
<pdfrwt beam="1">  1        2 0.31447608E+00 0.14548154E+04</pdfrwt>
<pdfrwt beam="2">  1       -2 0.39823687E-01 0.14548154E+04</pdfrwt>
<totfact> 0.36537717E+01</totfact>
</mgrwt>
</event>
<event>
 6    1  0.1934315E-005  0.1276666E+04  0.7818608E-02  0.9048277E-01
         -2   -1    0    0    0  501 -0.00000000000E+00  0.00000000000E+00  0.34541139242E+03  0.34541139242E+03  0.00000000000E+00 0. -1.
          2   -1    0    0  501    0  0.00000000000E+00 -0.00000000000E+00 -0.11796628364E+04  0.11796628364E+04  0.00000000000E+00 0.  1.
         23    2    1    2    0    0 -0.73730106349E+02  0.23816928213E+03  0.27862042028E+03  0.38461619723E+03  0.90219427195E+02 0.  0.
         13    1    3    3    0    0 -0.71286002897E+02  0.13674671556E+03  0.11610120864E+03  0.19303069464E+03  0.00000000000E+00 0. -1.
        -13    1    3    3    0    0 -0.24441034521E+01  0.10142256657E+03  0.16251921164E+03  0.19158550260E+03  0.00000000000E+00 0.  1.
         22    1    1    2    0    0  0.73730106349E+02 -0.23816928213E+03 -0.11128718643E+04  0.11404580316E+04  0.00000000000E+00 0.  1.
<mgrwt>
<rscale>  0 0.12766659E+04</rscale>
<asrwt>0</asrwt>
<pdfrwt beam="1">  1        2 0.18148659E+00 0.12766659E+04</pdfrwt>
<pdfrwt beam="2">  1       -2 0.53140213E-01 0.12766659E+04</pdfrwt>
<totfact> 0.63847619E+01</totfact>
</mgrwt>
</event>
<event>
 6    1  0.1934315E-005  0.9345108E+03  0.7818608E-02  0.9383441E-01
         -2   -1    0    0    0  501 -0.00000000000E+00  0.00000000000E+00  0.29339094332E+03  0.29339094332E+03  0.00000000000E+00 0. -1.
          2   -1    0    0  501    0  0.00000000000E+00 -0.00000000000E+00 -0.74415249139E+03  0.74415249139E+03  0.00000000000E+00 0.  1.
         23    2    1    2    0    0  0.43977794170E+02 -0.36598226562E+03 -0.53830817025E+03  0.65867475536E+03  0.90552095872E+02 0.  0.
         11    1    3    3    0    0 -0.19559308335E+02 -0.17703915824E+03 -0.21949985515E+03  0.28267581521E+03  0.00000000000E+00 0. -1.
        -11    1    3    3    0    0  0.63537102506E+02 -0.18894310738E+03 -0.31880831510E+03  0.37599894015E+03  0.00000000000E+00 0.  1.
         22    1    1    2    0    0 -0.43977794170E+02  0.36598226562E+03  0.87546622181E+02  0.37886867934E+03  0.00000000000E+00 0. -1.
<mgrwt>
<rscale>  0 0.93451078E+03</rscale>
<asrwt>0</asrwt>
<pdfrwt beam="1">  1        2 0.11448500E+00 0.93451078E+03</pdfrwt>
<pdfrwt beam="2">  1       -2 0.45137068E-01 0.93451078E+03</pdfrwt>
<totfact> 0.17656274E+02</totfact>
</mgrwt>
</event>
<event>
 6    1  0.1934315E-005  0.1501453E+04  0.7818608E-02  0.8883487E-01
         -2   -1    0    0    0  501 -0.00000000000E+00  0.00000000000E+00  0.44383753464E+03  0.44383753464E+03  0.00000000000E+00 0. -1.
          2   -1    0    0  501    0  0.00000000000E+00 -0.00000000000E+00 -0.12698118952E+04  0.12698118952E+04  0.00000000000E+00 0.  1.
         23    2    1    2    0    0 -0.59123878634E+03  0.76565195922E+02 -0.92929262927E+03  0.11085872873E+04  0.99777007057E+02 0.  0.
         13    1    3    3    0    0 -0.52634920020E+03  0.96127128822E+02 -0.84873635736E+03  0.10033131663E+04  0.00000000000E+00 0. -1.
        -13    1    3    3    0    0 -0.64889586140E+02 -0.19561932900E+02 -0.80556271906E+02  0.10527412100E+03  0.00000000000E+00 0.  1.
         22    1    1    2    0    0  0.59123878634E+03 -0.76565195922E+02  0.10331826868E+03  0.60506214254E+03  0.00000000000E+00 0. -1.
<mgrwt>
<rscale>  0 0.15014529E+04</rscale>
<asrwt>0</asrwt>
<pdfrwt beam="1">  1        2 0.19535567E+00 0.15014529E+04</pdfrwt>
<pdfrwt beam="2">  1       -2 0.68282699E-01 0.15014529E+04</pdfrwt>
<totfact> 0.32644644E+01</totfact>
</mgrwt>
</event>
<event>
 6    1  0.1934315E-005  0.1712296E+04  0.7818608E-02  0.8754382E-01
         -2   -1    0    0    0  501 -0.00000000000E+00  0.00000000000E+00  0.45815130902E+03  0.45815130902E+03  0.00000000000E+00 0. -1.
          2   -1    0    0  501    0  0.00000000000E+00 -0.00000000000E+00 -0.15998857848E+04  0.15998857848E+04  0.00000000000E+00 0.  1.
         23    2    1    2    0    0  0.12529895012E+03 -0.64851501695E+03 -0.12233547572E+04  0.13925046570E+04  0.78745183054E+02 0.  0.
         11    1    3    3    0    0  0.60806694098E+02 -0.48023162221E+03 -0.85846188436E+03  0.98553369903E+03  0.00000000000E+00 0. -1.
        -11    1    3    3    0    0  0.64492256024E+02 -0.16828339474E+03 -0.36489287282E+03  0.40697095802E+03  0.00000000000E+00 0.  1.
         22    1    1    2    0    0 -0.12529895012E+03  0.64851501695E+03  0.81620281378E+02  0.66553243681E+03  0.00000000000E+00 0. -1.
<mgrwt>
<rscale>  0 0.17122964E+04</rscale>
<asrwt>0</asrwt>
<pdfrwt beam="1">  1        2 0.24613628E+00 0.17122964E+04</pdfrwt>
<pdfrwt beam="2">  1       -2 0.70484815E-01 0.17122964E+04</pdfrwt>
<totfact> 0.19412862E+01</totfact>
</mgrwt>
</event>
<event>
 6    1  0.1934315E-005  0.2368006E+03  0.7818608E-02  0.1121943E+00
         -2   -1    0    0    0  501 -0.00000000000E+00  0.00000000000E+00  0.15259224465E+02  0.15259224465E+02  0.00000000000E+00 0. -1.
          2   -1    0    0  501    0  0.00000000000E+00 -0.00000000000E+00 -0.91869883738E+03  0.91869883738E+03  0.00000000000E+00 0.  1.
         23    2    1    2    0    0  0.71516182484E+02 -0.66037166941E+02 -0.65848975386E+03  0.67037523762E+03  0.79490449132E+02 0.  0.
         11    1    3    3    0    0  0.32517822402E+02 -0.25116178610E+02 -0.50733839899E+03  0.50899949145E+03  0.00000000000E+00 0. -1.
        -11    1    3    3    0    0  0.38998360081E+02 -0.40920988331E+02 -0.15115135487E+03  0.16137574618E+03  0.00000000000E+00 0.  1.
         22    1    1    2    0    0 -0.71516182484E+02  0.66037166941E+02 -0.24494985905E+03  0.26358282422E+03  0.00000000000E+00 0.  1.
<mgrwt>
<rscale>  0 0.23680061E+03</rscale>
<asrwt>0</asrwt>
<pdfrwt beam="1">  1        2 0.14133830E+00 0.23680061E+03</pdfrwt>
<pdfrwt beam="2">  1       -2 0.23475728E-02 0.23680061E+03</pdfrwt>
<totfact> 0.17823456E+04</totfact>
</mgrwt>
</event>
<event>
 6    1  0.1934315E-005  0.3388557E+04  0.7818608E-02  0.8140721E-01
         -2   -1    0    0    0  501 -0.00000000000E+00  0.00000000000E+00  0.34612551000E+04  0.34612551000E+04  0.00000000000E+00 0. -1.
          2   -1    0    0  501    0  0.00000000000E+00 -0.00000000000E+00 -0.82934622048E+03  0.82934622048E+03  0.00000000000E+00 0.  1.
         23    2    1    2    0    0  0.12024922260E+04  0.11885335358E+04  0.14311629496E+04  0.22168630758E+04  0.87492795643E+02 0.  0.
         11    1    3    3    0    0  0.85957872442E+03  0.82646540954E+03  0.10560897250E+04  0.15928735555E+04  0.00000000000E+00 0. -1.
        -11    1    3    3    0    0  0.34291350153E+03  0.36206812628E+03  0.37507322463E+03  0.62398952029E+03  0.00000000000E+00 0.  1.
         22    1    1    2    0    0 -0.12024922260E+04 -0.11885335358E+04  0.12007459299E+04  0.20737382447E+04  0.00000000000E+00 0. -1.
<mgrwt>
<rscale>  0 0.33885565E+04</rscale>
<asrwt>0</asrwt>
<pdfrwt beam="1">  1        2 0.12759173E+00 0.33885565E+04</pdfrwt>
<pdfrwt beam="2">  1       -2 0.53250078E+00 0.33885565E+04</pdfrwt>
<totfact> 0.28743733E-02</totfact>
</mgrwt>
</event>
<event>
 6    1  0.1934315E-005  0.2351662E+04  0.7818608E-02  0.8457826E-01
         -2   -1    0    0    0  501 -0.00000000000E+00  0.00000000000E+00  0.56275218696E+03  0.56275218696E+03  0.00000000000E+00 0. -1.
          2   -1    0    0  501    0  0.00000000000E+00 -0.00000000000E+00 -0.24568151611E+04  0.24568151611E+04  0.00000000000E+00 0.  1.
         23    2    1    2    0    0 -0.20362238497E+03 -0.10672959915E+04 -0.37759572446E+03  0.11540229963E+04  0.92777882767E+02 0.  0.
         11    1    3    3    0    0 -0.52174282365E+02 -0.48098916641E+03 -0.19393584713E+03  0.52123300620E+03  0.00000000000E+00 0. -1.
        -11    1    3    3    0    0 -0.15144810260E+03 -0.58630682512E+03 -0.18365987732E+03  0.63278999005E+03  0.00000000000E+00 0.  1.
         22    1    1    2    0    0  0.20362238497E+03  0.10672959915E+04 -0.15164672497E+04  0.18655443518E+04  0.00000000000E+00 0.  1.
<mgrwt>
<rscale>  0 0.23516616E+04</rscale>
<asrwt>0</asrwt>
<pdfrwt beam="1">  1        2 0.37797157E+00 0.23516616E+04</pdfrwt>
<pdfrwt beam="2">  1       -2 0.86577259E-01 0.23516616E+04</pdfrwt>
<totfact> 0.38456353E+00</totfact>
</mgrwt>
</event>
<event>
 6    1  0.1934315E-005  0.2984267E+04  0.7818608E-02  0.8248238E-01
          2   -1    0    0  501    0  0.00000000000E+00  0.00000000000E+00  0.20883751153E+04  0.20883751153E+04  0.00000000000E+00 0.  1.
         -2   -1    0    0    0  501 -0.00000000000E+00 -0.00000000000E+00 -0.10661215888E+04  0.10661215888E+04  0.00000000000E+00 0. -1.
         23    2    1    2    0    0  0.38276361904E+03  0.12116343577E+03 -0.10053687974E+04  0.10875083504E+04  0.10353466585E+03 0.  0.
         13    1    3    3    0    0  0.21142143011E+03  0.10095273503E+03 -0.47234118714E+03  0.52725389794E+03  0.00000000000E+00 0.  1.
        -13    1    3    3    0    0  0.17134218893E+03  0.20210700740E+02 -0.53302761028E+03  0.56025445241E+03  0.00000000000E+00 0. -1.
         22    1    1    2    0    0 -0.38276361904E+03 -0.12116343577E+03  0.20276223239E+04  0.20669883538E+04  0.00000000000E+00 0.  1.
<mgrwt>
<rscale>  0 0.29842666E+04</rscale>
<asrwt>0</asrwt>
<pdfrwt beam="1">  1        2 0.32128848E+00 0.29842666E+04</pdfrwt>
<pdfrwt beam="2">  1       -2 0.16401871E+00 0.29842666E+04</pdfrwt>
<totfact> 0.12032311E+00</totfact>
</mgrwt>
</event>
<event>
 6    1  0.1934315E-005  0.1107371E+04  0.7818608E-02  0.9198037E-01
         -2   -1    0    0    0  501 -0.00000000000E+00  0.00000000000E+00  0.24968691645E+03  0.24968691645E+03  0.00000000000E+00 0. -1.
          2   -1    0    0  501    0  0.00000000000E+00 -0.00000000000E+00 -0.12278085430E+04  0.12278085430E+04  0.00000000000E+00 0.  1.
         23    2    1    2    0    0 -0.14218020549E+03  0.52801765027E+03 -0.41665359478E+03  0.69374537138E+03  0.93083685118E+02 0.  0.
         13    1    3    3    0    0 -0.83243081462E+02  0.42276470747E+03 -0.35491881209E+03  0.55823540883E+03  0.00000000000E+00 0.  1.
        -13    1    3    3    0    0 -0.58937124029E+02  0.10525294280E+03 -0.61734782696E+02  0.13550996255E+03  0.00000000000E+00 0. -1.
         22    1    1    2    0    0  0.14218020549E+03 -0.52801765027E+03 -0.56146803173E+03  0.78375008803E+03  0.00000000000E+00 0.  1.
<mgrwt>
<rscale>  0 0.11073712E+04</rscale>
<asrwt>0</asrwt>
<pdfrwt beam="1">  1        2 0.18889362E+00 0.11073712E+04</pdfrwt>
<pdfrwt beam="2">  1       -2 0.38413372E-01 0.11073712E+04</pdfrwt>
<totfact> 0.11571358E+02</totfact>
</mgrwt>
</event>
<event>
 6    1  0.1934315E-005  0.1678317E+04  0.7818608E-02  0.8773828E-01
          2   -1    0    0  501    0  0.00000000000E+00  0.00000000000E+00  0.23081980486E+04  0.23081980486E+04  0.00000000000E+00 0.  1.
         -2   -1    0    0    0  501 -0.00000000000E+00 -0.00000000000E+00 -0.30508083732E+03  0.30508083732E+03  0.00000000000E+00 0. -1.
         23    2    1    2    0    0 -0.48209978697E+03  0.59747555928E+03  0.48739629582E+03  0.91421822128E+03  0.94034878700E+02 0.  0.
         11    1    3    3    0    0 -0.29768909503E+03  0.43308334659E+03  0.35173026372E+03  0.63237185327E+03  0.00000000000E+00 0. -1.
        -11    1    3    3    0    0 -0.18441069194E+03  0.16439221269E+03  0.13566603209E+03  0.28184636801E+03  0.00000000000E+00 0.  1.
         22    1    1    2    0    0  0.48209978697E+03 -0.59747555928E+03  0.15157209155E+04  0.16990606646E+04  0.00000000000E+00 0.  1.
<mgrwt>
<rscale>  0 0.16783170E+04</rscale>
<asrwt>0</asrwt>
<pdfrwt beam="1">  1        2 0.35510738E+00 0.16783170E+04</pdfrwt>
<pdfrwt beam="2">  1       -2 0.46935515E-01 0.16783170E+04</pdfrwt>
<totfact> 0.18412729E+01</totfact>
</mgrwt>
</event>
<event>
 6    1  0.1934315E-005  0.4178958E+04  0.7818608E-02  0.7969387E-01
         -2   -1    0    0    0  501 -0.00000000000E+00  0.00000000000E+00  0.17481862728E+04  0.17481862728E+04  0.00000000000E+00 0. -1.
          2   -1    0    0  501    0  0.00000000000E+00 -0.00000000000E+00 -0.24974017268E+04  0.24974017268E+04  0.00000000000E+00 0.  1.
         23    2    1    2    0    0  0.19219351332E+04  0.59544490098E+02  0.45317898238E+03  0.19777404334E+04  0.93305033461E+02 0.  0.
         11    1    3    3    0    0  0.16999503821E+04  0.82496395272E+02  0.40117496584E+03  0.17485932374E+04  0.00000000000E+00 0. -1.
        -11    1    3    3    0    0  0.22198475118E+03 -0.22951905174E+02  0.52004016536E+02  0.22914719602E+03  0.00000000000E+00 0.  1.
         22    1    1    2    0    0 -0.19219351332E+04 -0.59544490098E+02 -0.12023944365E+04  0.22678475662E+04  0.00000000000E+00 0. -1.
<mgrwt>
<rscale>  0 0.41789584E+04</rscale>
<asrwt>0</asrwt>
<pdfrwt beam="1">  1        2 0.38421565E+00 0.41789584E+04</pdfrwt>
<pdfrwt beam="2">  1       -2 0.26895174E+00 0.41789584E+04</pdfrwt>
<totfact> 0.13360673E-01</totfact>
</mgrwt>
</event>
<event>
 6    1  0.1934315E-005  0.2445630E+04  0.7818608E-02  0.8422615E-01
         -2   -1    0    0    0  501 -0.00000000000E+00  0.00000000000E+00  0.16845092274E+04  0.16845092274E+04  0.00000000000E+00 0. -1.
          2   -1    0    0  501    0  0.00000000000E+00 -0.00000000000E+00 -0.88766314276E+03  0.88766314276E+03  0.00000000000E+00 0.  1.
         23    2    1    2    0    0 -0.28112822257E+03  0.44460799032E+03  0.15579822546E+04  0.16469493636E+04  0.91783212741E+02 0.  0.
         11    1    3    3    0    0 -0.25586815799E+03  0.40806111122E+03  0.13263281753E+04  0.14110736385E+04  0.00000000000E+00 0. -1.
        -11    1    3    3    0    0 -0.25260064577E+02  0.36546879093E+02  0.23165407935E+03  0.23587572515E+03  0.00000000000E+00 0.  1.
         22    1    1    2    0    0  0.28112822257E+03 -0.44460799032E+03 -0.76113616997E+03  0.92522300653E+03  0.00000000000E+00 0.  1.
<mgrwt>
<rscale>  0 0.24456302E+04</rscale>
<asrwt>0</asrwt>
<pdfrwt beam="1">  1        2 0.13656356E+00 0.24456302E+04</pdfrwt>
<pdfrwt beam="2">  1       -2 0.25915527E+00 0.24456302E+04</pdfrwt>
<totfact> 0.15119327E+00</totfact>
</mgrwt>
</event>
<event>
 6    1  0.3691258E-005  0.4464771E+04  0.7818608E-02  0.7916834E-01
         -2   -1    0    0    0  501 -0.00000000000E+00  0.00000000000E+00  0.21411598361E+04  0.21411598361E+04  0.00000000000E+00 0. -1.
          2   -1    0    0  501    0  0.00000000000E+00 -0.00000000000E+00 -0.23274977342E+04  0.23274977342E+04  0.00000000000E+00 0.  1.
         23    2    1    2    0    0  0.18345262550E+04 -0.54026169604E+03 -0.12444686839E+04  0.22830203542E+04  0.78168740209E+02 0.  0.
         11    1    3    3    0    0  0.94943736713E+03 -0.27325325933E+03 -0.59683456543E+03  0.11542574047E+04  0.00000000000E+00 0. -1.
        -11    1    3    3    0    0  0.88508888782E+03 -0.26700843671E+03 -0.64763411852E+03  0.11287629495E+04  0.00000000000E+00 0.  1.
         22    1    1    2    0    0 -0.18345262550E+04  0.54026169604E+03  0.10581307859E+04  0.21856372161E+04  0.00000000000E+00 0. -1.
<mgrwt>
<rscale>  0 0.44647708E+04</rscale>
<asrwt>0</asrwt>
<pdfrwt beam="1">  1        2 0.35807657E+00 0.44647708E+04</pdfrwt>
<pdfrwt beam="2">  1       -2 0.32940921E+00 0.44647708E+04</pdfrwt>
<totfact> 0.69569806E-02</totfact>
</mgrwt>
</event>
<event>
 6    1  0.2952766E-005  0.3325831E+04  0.7818608E-02  0.8156354E-01
          2   -1    0    0  501    0  0.00000000000E+00  0.00000000000E+00  0.18532361017E+04  0.18532361017E+04  0.00000000000E+00 0.  1.
         -2   -1    0    0    0  501 -0.00000000000E+00 -0.00000000000E+00 -0.14921401587E+04  0.14921401587E+04  0.00000000000E+00 0. -1.
         23    2    1    2    0    0 -0.15078912892E+04 -0.79598002373E+02 -0.51619090101E+03  0.15990360334E+04  0.10193727361E+03 0.  0.
         13    1    3    3    0    0 -0.70034348471E+03 -0.62410531238E+02 -0.28682166539E+03  0.75936996170E+03  0.00000000000E+00 0. -1.
        -13    1    3    3    0    0 -0.80754780448E+03 -0.17187471135E+02 -0.22936923562E+03  0.83966607169E+03  0.00000000000E+00 0.  1.
         22    1    1    2    0    0  0.15078912892E+04  0.79598002373E+02  0.87728684396E+03  0.17463402270E+04  0.00000000000E+00 0.  1.
<mgrwt>
<rscale>  0 0.33258310E+04</rscale>
<asrwt>0</asrwt>
<pdfrwt beam="1">  1        2 0.28511324E+00 0.33258310E+04</pdfrwt>
<pdfrwt beam="2">  1       -2 0.22956003E+00 0.33258310E+04</pdfrwt>
<totfact> 0.57813474E-01</totfact>
</mgrwt>
</event>
<event>
 6    1  0.1934315E-005  0.1332657E+04  0.7818608E-02  0.9004061E-01
         -2   -1    0    0    0  501 -0.00000000000E+00  0.00000000000E+00  0.15458117856E+03  0.15458117856E+03  0.00000000000E+00 0. -1.
          2   -1    0    0  501    0  0.00000000000E+00 -0.00000000000E+00 -0.28722370911E+04  0.28722370911E+04  0.00000000000E+00 0.  1.
         23    2    1    2    0    0 -0.34677588919E+03  0.55004975875E+03 -0.10690096790E+04  0.12545760013E+04  0.91493140577E+02 0.  0.
         11    1    3    3    0    0 -0.96594831773E+02  0.23291776642E+03 -0.43613426994E+03  0.50378006000E+03  0.00000000000E+00 0. -1.
        -11    1    3    3    0    0 -0.25018105742E+03  0.31713199232E+03 -0.63287540905E+03  0.75079594127E+03  0.00000000000E+00 0.  1.
         22    1    1    2    0    0  0.34677588919E+03 -0.55004975875E+03 -0.16486462335E+04  0.17722422684E+04  0.00000000000E+00 0.  1.
<mgrwt>
<rscale>  0 0.13326572E+04</rscale>
<asrwt>0</asrwt>
<pdfrwt beam="1">  1        2 0.44188263E+00 0.13326572E+04</pdfrwt>
<pdfrwt beam="2">  1       -2 0.23781719E-01 0.13326572E+04</pdfrwt>
<totfact> 0.32372290E+01</totfact>
</mgrwt>
</event>
<event>
 6    1  0.1934315E-005  0.1844541E+04  0.7818608E-02  0.8682965E-01
          2   -1    0    0  501    0  0.00000000000E+00  0.00000000000E+00  0.10255291658E+04  0.10255291658E+04  0.00000000000E+00 0.  1.
         -2   -1    0    0    0  501 -0.00000000000E+00 -0.00000000000E+00 -0.82940867838E+03  0.82940867838E+03  0.00000000000E+00 0. -1.
         23    2    1    2    0    0 -0.27729693854E+03  0.46884712613E+03  0.84396471191E+03  0.10085257938E+04  0.90203226517E+02 0.  0.
         13    1    3    3    0    0 -0.11090974081E+03  0.20585513623E+03  0.44337402162E+03  0.50125625260E+03  0.00000000000E+00 0.  1.
        -13    1    3    3    0    0 -0.16638719773E+03  0.26299198990E+03  0.40059069028E+03  0.50726954123E+03  0.00000000000E+00 0. -1.
         22    1    1    2    0    0  0.27729693854E+03 -0.46884712613E+03 -0.64784422448E+03  0.84641205036E+03  0.00000000000E+00 0. -1.
<mgrwt>
<rscale>  0 0.18445409E+04</rscale>
<asrwt>0</asrwt>
<pdfrwt beam="1">  1        2 0.15777372E+00 0.18445409E+04</pdfrwt>
<pdfrwt beam="2">  1       -2 0.12760134E+00 0.18445409E+04</pdfrwt>
<totfact> 0.10389349E+01</totfact>
</mgrwt>
</event>
<event>
 6    1  0.1934315E-005  0.8430326E+03  0.7818608E-02  0.9499736E-01
         -1   -1    0    0    0  501 -0.00000000000E+00  0.00000000000E+00  0.13045113123E+03  0.13045113123E+03  0.00000000000E+00 0.  1.
          1   -1    0    0  501    0  0.00000000000E+00 -0.00000000000E+00 -0.13620119254E+04  0.13620119254E+04  0.00000000000E+00 0. -1.
         23    2    1    2    0    0  0.36479717035E+03 -0.16828688177E+02 -0.26812250353E+03  0.46213615699E+03  0.91213872082E+02 0.  0.
         11    1    3    3    0    0  0.71154296510E+02 -0.99470037264E+01 -0.12849815551E+02  0.72986262781E+02  0.00000000000E+00 0.  1.
        -11    1    3    3    0    0  0.29364287384E+03 -0.68816844505E+01 -0.25527268798E+03  0.38914989421E+03  0.00000000000E+00 0. -1.
         22    1    1    2    0    0 -0.36479717035E+03  0.16828688177E+02 -0.96343829065E+03  0.10303268996E+04  0.00000000000E+00 0. -1.
<mgrwt>
<rscale>  0 0.84303261E+03</rscale>
<asrwt>0</asrwt>
<pdfrwt beam="1">  1        1 0.20954029E+00 0.84303261E+03</pdfrwt>
<pdfrwt beam="2">  1       -1 0.20069405E-01 0.84303261E+03</pdfrwt>
<totfact> 0.16794506E+02</totfact>
</mgrwt>
</event>
<event>
 6    1  0.1934315E-005  0.1588059E+04  0.7818608E-02  0.8827918E-01
          2   -1    0    0  501    0  0.00000000000E+00  0.00000000000E+00  0.56852974447E+03  0.56852974447E+03  0.00000000000E+00 0.  1.
         -2   -1    0    0    0  501 -0.00000000000E+00 -0.00000000000E+00 -0.11089701728E+04  0.11089701728E+04  0.00000000000E+00 0. -1.
         23    2    1    2    0    0 -0.13618802312E+03  0.52142652905E+03 -0.88345783455E+03  0.10386777638E+04  0.88999711935E+02 0.  0.
         11    1    3    3    0    0 -0.13338295672E+03  0.44696258550E+03 -0.80571049852E+03  0.93098655920E+03  0.00000000000E+00 0. -1.
        -11    1    3    3    0    0 -0.28050663970E+01  0.74463943554E+02 -0.77747336028E+02  0.10769120459E+03  0.00000000000E+00 0.  1.
         22    1    1    2    0    0  0.13618802312E+03 -0.52142652905E+03  0.34301740621E+03  0.63882215350E+03  0.00000000000E+00 0.  1.
<mgrwt>
<rscale>  0 0.15880586E+04</rscale>
<asrwt>0</asrwt>
<pdfrwt beam="1">  1        2 0.87466115E-01 0.15880586E+04</pdfrwt>
<pdfrwt beam="2">  1       -2 0.17061080E+00 0.15880586E+04</pdfrwt>
<totfact> 0.10707725E+01</totfact>
</mgrwt>
</event>
<event>
 6    1  0.1934315E-005  0.2247480E+04  0.7818608E-02  0.8498922E-01
         -2   -1    0    0    0  501 -0.00000000000E+00  0.00000000000E+00  0.12952521169E+04  0.12952521169E+04  0.00000000000E+00 0. -1.
          2   -1    0    0  501    0  0.00000000000E+00 -0.00000000000E+00 -0.97493885343E+03  0.97493885343E+03  0.00000000000E+00 0.  1.
         23    2    1    2    0    0 -0.15193261431E+03 -0.94515904320E+02  0.12791219817E+04  0.12948290202E+04  0.91718984587E+02 0.  0.
         13    1    3    3    0    0 -0.30924098291E+02 -0.61738987552E+01  0.52624934479E+03  0.52719331347E+03  0.00000000000E+00 0. -1.
        -13    1    3    3    0    0 -0.12100851602E+03 -0.88342005564E+02  0.75287263689E+03  0.76763570675E+03  0.00000000000E+00 0.  1.
         22    1    1    2    0    0  0.15193261431E+03  0.94515904320E+02 -0.95880871825E+03  0.97536195007E+03  0.00000000000E+00 0.  1.
<mgrwt>
<rscale>  0 0.22474800E+04</rscale>
<asrwt>0</asrwt>
<pdfrwt beam="1">  1        2 0.14999059E+00 0.22474800E+04</pdfrwt>
<pdfrwt beam="2">  1       -2 0.19926956E+00 0.22474800E+04</pdfrwt>
<totfact> 0.32007447E+00</totfact>
</mgrwt>
</event>
<event>
 6    1  0.1934315E-005  0.1357731E+04  0.7818608E-02  0.8984996E-01
          2   -1    0    0  501    0  0.00000000000E+00  0.00000000000E+00  0.31018687897E+04  0.31018687897E+04  0.00000000000E+00 0.  1.
         -2   -1    0    0    0  501 -0.00000000000E+00 -0.00000000000E+00 -0.14857441548E+03  0.14857441548E+03  0.00000000000E+00 0. -1.
         23    2    1    2    0    0  0.32164389006E+03  0.40766041522E+03  0.44724859059E+03  0.69116454202E+03  0.89639925291E+02 0.  0.
         11    1    3    3    0    0  0.11515994250E+03  0.20051238500E+03  0.15979134772E+03  0.28106992671E+03  0.00000000000E+00 0.  1.
        -11    1    3    3    0    0  0.20648394756E+03  0.20714803022E+03  0.28745724288E+03  0.41009461531E+03  0.00000000000E+00 0. -1.
         22    1    1    2    0    0 -0.32164389006E+03 -0.40766041522E+03  0.25060457837E+04  0.25592786632E+04  0.00000000000E+00 0.  1.
<mgrwt>
<rscale>  0 0.13577310E+04</rscale>
<asrwt>0</asrwt>
<pdfrwt beam="1">  1        2 0.47721053E+00 0.13577310E+04</pdfrwt>
<pdfrwt beam="2">  1       -2 0.22857605E-01 0.13577310E+04</pdfrwt>
<totfact> 0.24992574E+01</totfact>
</mgrwt>
</event>
<event>
 6    1  0.1934315E-005  0.1095052E+04  0.7818608E-02  0.9210028E-01
         -2   -1    0    0    0  501 -0.00000000000E+00  0.00000000000E+00  0.15313591561E+03  0.15313591561E+03  0.00000000000E+00 0. -1.
          2   -1    0    0  501    0  0.00000000000E+00 -0.00000000000E+00 -0.19576383378E+04  0.19576383378E+04  0.00000000000E+00 0.  1.
         23    2    1    2    0    0 -0.93443650464E+02 -0.51967596983E+03 -0.11584134509E+04  0.12763727983E+04  0.91711327920E+02 0.  0.
         13    1    3    3    0    0 -0.82705511235E+01 -0.29800914363E+03 -0.62264974907E+03  0.69034090254E+03  0.00000000000E+00 0.  1.
        -13    1    3    3    0    0 -0.85173099340E+02 -0.22166682620E+03 -0.53576370182E+03  0.58603189578E+03  0.00000000000E+00 0. -1.
         22    1    1    2    0    0  0.93443650464E+02  0.51967596983E+03 -0.64608897134E+03  0.83440145513E+03  0.00000000000E+00 0. -1.
<mgrwt>
<rscale>  0 0.10950520E+04</rscale>
<asrwt>0</asrwt>
<pdfrwt beam="1">  1        2 0.30117512E+00 0.10950520E+04</pdfrwt>
<pdfrwt beam="2">  1       -2 0.23559373E-01 0.10950520E+04</pdfrwt>
<totfact> 0.11209020E+02</totfact>
</mgrwt>
</event>
<event>
 6    1  0.1934315E-005  0.9412552E+03  0.7818608E-02  0.9375431E-01
         -1   -1    0    0    0  501 -0.00000000000E+00  0.00000000000E+00  0.13186030120E+03  0.13186030120E+03  0.00000000000E+00 0. -1.
          1   -1    0    0  501    0  0.00000000000E+00 -0.00000000000E+00 -0.16797347915E+04  0.16797347915E+04  0.00000000000E+00 0.  1.
         23    2    1    2    0    0 -0.39882083792E+03  0.64486338587E+02 -0.33281688333E+03  0.53113363804E+03  0.90107241670E+02 0.  0.
         13    1    3    3    0    0 -0.14252713695E+03  0.51719995233E+02 -0.16724538225E+03  0.22574312959E+03  0.00000000000E+00 0. -1.
        -13    1    3    3    0    0 -0.25629370097E+03  0.12766343355E+02 -0.16557150109E+03  0.30539050845E+03  0.00000000000E+00 0.  1.
         22    1    1    2    0    0  0.39882083792E+03 -0.64486338587E+02 -0.12150576070E+04  0.12804614547E+04  0.00000000000E+00 0.  1.
<mgrwt>
<rscale>  0 0.94125520E+03</rscale>
<asrwt>0</asrwt>
<pdfrwt beam="1">  1        1 0.25842074E+00 0.94125520E+03</pdfrwt>
<pdfrwt beam="2">  1       -1 0.20286200E-01 0.94125520E+03</pdfrwt>
<totfact> 0.99059534E+01</totfact>
</mgrwt>
</event>
<event>
 6    1  0.1934315E-005  0.3436001E+04  0.7818608E-02  0.8129126E-01
          2   -1    0    0  501    0  0.00000000000E+00  0.00000000000E+00  0.37530079180E+04  0.37530079180E+04  0.00000000000E+00 0.  1.
         -2   -1    0    0    0  501 -0.00000000000E+00 -0.00000000000E+00 -0.78644292212E+03  0.78644292212E+03  0.00000000000E+00 0. -1.
         23    2    1    2    0    0 -0.11246355427E+04 -0.45381781598E+03  0.30897301078E+04  0.33204654592E+04  0.91120869393E+02 0.  0.
         11    1    3    3    0    0 -0.56560962758E+03 -0.22407374501E+03  0.16738553055E+04  0.17809870515E+04  0.00000000000E+00 0. -1.
        -11    1    3    3    0    0 -0.55902591514E+03 -0.22974407097E+03  0.14158748023E+04  0.15394784077E+04  0.00000000000E+00 0.  1.
         22    1    1    2    0    0  0.11246355427E+04  0.45381781598E+03 -0.12316511191E+03  0.12189853809E+04  0.00000000000E+00 0. -1.
<mgrwt>
<rscale>  0 0.34360015E+04</rscale>
<asrwt>0</asrwt>
<pdfrwt beam="1">  1        2 0.57738582E+00 0.34360015E+04</pdfrwt>
<pdfrwt beam="2">  1       -2 0.12099122E+00 0.34360015E+04</pdfrwt>
<totfact> 0.22856826E-01</totfact>
</mgrwt>
</event>
<event>
 6    1  0.1934315E-005  0.1853926E+04  0.7818608E-02  0.8678137E-01
         -2   -1    0    0    0  501 -0.00000000000E+00  0.00000000000E+00  0.61672095611E+03  0.61672095611E+03  0.00000000000E+00 0. -1.
          2   -1    0    0  501    0  0.00000000000E+00 -0.00000000000E+00 -0.13932723427E+04  0.13932723427E+04  0.00000000000E+00 0.  1.
         23    2    1    2    0    0 -0.29366841506E+03 -0.80266750639E+03 -0.20013944874E+01  0.85654457691E+03  0.56110095561E+02 0.  0.
         11    1    3    3    0    0 -0.27517949078E+03 -0.71786727107E+03 -0.13979647794E+02  0.76892951664E+03  0.00000000000E+00 0.  1.
        -11    1    3    3    0    0 -0.18488924285E+02 -0.84800235327E+02  0.11978253306E+02  0.87615060263E+02  0.00000000000E+00 0. -1.
         22    1    1    2    0    0  0.29366841506E+03  0.80266750639E+03 -0.77454999215E+03  0.11534487219E+04  0.00000000000E+00 0.  1.
<mgrwt>
<rscale>  0 0.18539258E+04</rscale>
<asrwt>0</asrwt>
<pdfrwt beam="1">  1        2 0.21434959E+00 0.18539258E+04</pdfrwt>
<pdfrwt beam="2">  1       -2 0.94880147E-01 0.18539258E+04</pdfrwt>
<totfact> 0.12830101E+01</totfact>
</mgrwt>
</event>
<event>
 6    1  0.1934315E-005  0.3171476E+04  0.7818608E-02  0.8196391E-01
         -2   -1    0    0    0  501 -0.00000000000E+00  0.00000000000E+00  0.10320978772E+04  0.10320978772E+04  0.00000000000E+00 0. -1.
          2   -1    0    0  501    0  0.00000000000E+00 -0.00000000000E+00 -0.24363630836E+04  0.24363630836E+04  0.00000000000E+00 0.  1.
         23    2    1    2    0    0 -0.45110489978E+03 -0.11665519113E+04 -0.17664517378E+04  0.21663403535E+04  0.91322467724E+02 0.  0.
         11    1    3    3    0    0 -0.30437327848E+03 -0.87867756513E+03 -0.13490139391E+04  0.16384614625E+04  0.00000000000E+00 0. -1.
        -11    1    3    3    0    0 -0.14673162130E+03 -0.28787434614E+03 -0.41743779872E+03  0.52787889108E+03  0.00000000000E+00 0.  1.
         22    1    1    2    0    0  0.45110489978E+03  0.11665519113E+04  0.36218653144E+03  0.13021206073E+04  0.00000000000E+00 0. -1.
<mgrwt>
<rscale>  0 0.31714761E+04</rscale>
<asrwt>0</asrwt>
<pdfrwt beam="1">  1        2 0.37482509E+00 0.31714761E+04</pdfrwt>
<pdfrwt beam="2">  1       -2 0.15878429E+00 0.31714761E+04</pdfrwt>
<totfact> 0.82229295E-01</totfact>
</mgrwt>
</event>
<event>
 6    1  0.1934315E-005  0.2498765E+04  0.7818608E-02  0.8403426E-01
          2   -1    0    0  501    0  0.00000000000E+00  0.00000000000E+00  0.31057760735E+04  0.31057760735E+04  0.00000000000E+00 0.  1.
         -2   -1    0    0    0  501 -0.00000000000E+00 -0.00000000000E+00 -0.50259790977E+03  0.50259790977E+03  0.00000000000E+00 0. -1.
         23    2    1    2    0    0  0.93776001603E+03 -0.40558191238E+03  0.26907861213E+03  0.10604510543E+04  0.90898865228E+02 0.  0.
         13    1    3    3    0    0  0.40125019817E+03 -0.13726094633E+03  0.80578925789E+02  0.43166567179E+03  0.00000000000E+00 0. -1.
        -13    1    3    3    0    0  0.53650981786E+03 -0.26832096606E+03  0.18849968634E+03  0.62878538249E+03  0.00000000000E+00 0.  1.
         22    1    1    2    0    0 -0.93776001603E+03  0.40558191238E+03  0.23340995516E+04  0.25479229290E+04  0.00000000000E+00 0.  1.
<mgrwt>
<rscale>  0 0.24987649E+04</rscale>
<asrwt>0</asrwt>
<pdfrwt beam="1">  1        2 0.47781169E+00 0.24987649E+04</pdfrwt>
<pdfrwt beam="2">  1       -2 0.77322757E-01 0.24987649E+04</pdfrwt>
<totfact> 0.19863163E+00</totfact>
</mgrwt>
</event>
<event>
 6    1  0.1934315E-005  0.1362930E+04  0.7818608E-02  0.8981097E-01
         -2   -1    0    0    0  501 -0.00000000000E+00  0.00000000000E+00  0.11532069812E+03  0.11532069812E+03  0.00000000000E+00 0. -1.
          2   -1    0    0  501    0  0.00000000000E+00 -0.00000000000E+00 -0.40269862433E+04  0.40269862433E+04  0.00000000000E+00 0.  1.
         23    2    1    2    0    0  0.60930187939E+03  0.57320833152E+02 -0.10768062026E+04  0.12421410927E+04  0.94172384178E+02 0.  0.
         11    1    3    3    0    0  0.49101382466E+03  0.21452751648E+02 -0.91359776294E+03  0.10374081497E+04  0.00000000000E+00 0.  1.
        -11    1    3    3    0    0  0.11828805474E+03  0.35868081504E+02 -0.16320843969E+03  0.20473294300E+03  0.00000000000E+00 0. -1.
         22    1    1    2    0    0 -0.60930187939E+03 -0.57320833152E+02 -0.28348593426E+04  0.29001658488E+04  0.00000000000E+00 0.  1.
<mgrwt>
<rscale>  0 0.13629305E+04</rscale>
<asrwt>0</asrwt>
<pdfrwt beam="1">  1        2 0.61953634E+00 0.13629305E+04</pdfrwt>
<pdfrwt beam="2">  1       -2 0.17741646E-01 0.13629305E+04</pdfrwt>
<totfact> 0.86232362E+00</totfact>
</mgrwt>
</event>
<event>
 6    1  0.1934315E-005  0.1389320E+04  0.7818608E-02  0.8961585E-01
         -2   -1    0    0    0  501 -0.00000000000E+00  0.00000000000E+00  0.30281667483E+03  0.30281667483E+03  0.00000000000E+00 0. -1.
          2   -1    0    0  501    0  0.00000000000E+00 -0.00000000000E+00 -0.15935474868E+04  0.15935474868E+04  0.00000000000E+00 0.  1.
         23    2    1    2    0    0 -0.29962979795E+03 -0.37197352208E+03 -0.13309540948E+04  0.14170310526E+04  0.91629059648E+02 0.  0.
         13    1    3    3    0    0 -0.33217462266E+02 -0.39634588096E+02 -0.24778395139E+03  0.25312286925E+03  0.00000000000E+00 0. -1.
        -13    1    3    3    0    0 -0.26641233568E+03 -0.33233893399E+03 -0.10831701434E+04  0.11639081833E+04  0.00000000000E+00 0.  1.
         22    1    1    2    0    0  0.29962979795E+03  0.37197352208E+03  0.40223282820E+02  0.47933310905E+03  0.00000000000E+00 0. -1.
<mgrwt>
<rscale>  0 0.13893203E+04</rscale>
<asrwt>0</asrwt>
<pdfrwt beam="1">  1        2 0.24516115E+00 0.13893203E+04</pdfrwt>
<pdfrwt beam="2">  1       -2 0.46587181E-01 0.13893203E+04</pdfrwt>
<totfact> 0.47834489E+01</totfact>
</mgrwt>
</event>
<event>
 6    1  0.1934315E-005  0.4240045E+04  0.7818608E-02  0.7957798E-01
          1   -1    0    0  501    0  0.00000000000E+00  0.00000000000E+00  0.16291399735E+04  0.16291399735E+04  0.00000000000E+00 0.  1.
         -1   -1    0    0    0  501 -0.00000000000E+00 -0.00000000000E+00 -0.27588142210E+04  0.27588142210E+04  0.00000000000E+00 0. -1.
         23    2    1    2    0    0  0.56743392459E+03  0.20097253196E+04 -0.93749757409E+03  0.22908349816E+04  0.89700015250E+02 0.  0.
         13    1    3    3    0    0  0.20155776088E+03  0.80603759352E+03 -0.33348273136E+03  0.89528367865E+03  0.00000000000E+00 0.  1.
        -13    1    3    3    0    0  0.36587616370E+03  0.12036877260E+04 -0.60401484273E+03  0.13955513030E+04  0.00000000000E+00 0. -1.
         22    1    1    2    0    0 -0.56743392459E+03 -0.20097253196E+04 -0.19217667339E+03  0.20971192128E+04  0.00000000000E+00 0. -1.
<mgrwt>
<rscale>  0 0.42400446E+04</rscale>
<asrwt>0</asrwt>
<pdfrwt beam="1">  1        1 0.25063692E+00 0.42400446E+04</pdfrwt>
<pdfrwt beam="2">  1       -1 0.42443295E+00 0.42400446E+04</pdfrwt>
<totfact> 0.19868896E-02</totfact>
</mgrwt>
</event>
<event>
 6    1  0.1934315E-005  0.6843426E+03  0.7818608E-02  0.9744389E-01
         -2   -1    0    0    0  501 -0.00000000000E+00  0.00000000000E+00  0.27398127831E+03  0.27398127831E+03  0.00000000000E+00 0. -1.
          2   -1    0    0  501    0  0.00000000000E+00 -0.00000000000E+00 -0.42733285128E+03  0.42733285128E+03  0.00000000000E+00 0.  1.
         23    2    1    2    0    0  0.55008125134E+02  0.33247288356E+03 -0.79291271947E+02  0.35627929031E+03  0.84164807134E+02 0.  0.
         11    1    3    3    0    0 -0.17499002106E+02  0.97541596878E+02 -0.41428827957E+01  0.99185390427E+02  0.00000000000E+00 0.  1.
        -11    1    3    3    0    0  0.72507127240E+02  0.23493128668E+03 -0.75148389152E+02  0.25709389988E+03  0.00000000000E+00 0. -1.
         22    1    1    2    0    0 -0.55008125134E+02 -0.33247288356E+03 -0.74060301029E+02  0.34503483929E+03  0.00000000000E+00 0.  1.
<mgrwt>
<rscale>  0 0.68434261E+03</rscale>
<asrwt>0</asrwt>
<pdfrwt beam="1">  1        2 0.65743515E-01 0.68434261E+03</pdfrwt>
<pdfrwt beam="2">  1       -2 0.42150966E-01 0.68434261E+03</pdfrwt>
<totfact> 0.39687342E+02</totfact>
</mgrwt>
</event>
<event>
 6    1  0.2505973E-005  0.5000662E+04  0.7818608E-02  0.7828405E-01
          2   -1    0    0  501    0  0.00000000000E+00  0.00000000000E+00  0.21803846573E+04  0.21803846573E+04  0.00000000000E+00 0.  1.
         -2   -1    0    0    0  501 -0.00000000000E+00 -0.00000000000E+00 -0.28672256689E+04  0.28672256689E+04  0.00000000000E+00 0. -1.
         23    2    1    2    0    0 -0.17277788577E+04 -0.10488388746E+04  0.11409738510E+04  0.23225066697E+04  0.83265455752E+02 0.  0.
         11    1    3    3    0    0 -0.70371230021E+03 -0.38090833145E+03  0.44030210022E+03  0.91332803411E+03  0.00000000000E+00 0.  1.
        -11    1    3    3    0    0 -0.10240665575E+04 -0.66793054316E+03  0.70067175082E+03  0.14091786356E+04  0.00000000000E+00 0. -1.
         22    1    1    2    0    0  0.17277788577E+04  0.10488388746E+04 -0.18278148627E+04  0.27251036564E+04  0.00000000000E+00 0. -1.
<mgrwt>
<rscale>  0 0.50006619E+04</rscale>
<asrwt>0</asrwt>
<pdfrwt beam="1">  1        2 0.33544380E+00 0.50006619E+04</pdfrwt>
<pdfrwt beam="2">  1       -2 0.44111164E+00 0.50006619E+04</pdfrwt>
<totfact> 0.15359022E-02</totfact>
</mgrwt>
</event>
<event>
 6    1  0.1934315E-005  0.2373518E+04  0.7818608E-02  0.8449485E-01
         -2   -1    0    0    0  501 -0.00000000000E+00  0.00000000000E+00  0.94031939677E+03  0.94031939677E+03  0.00000000000E+00 0. -1.
          2   -1    0    0  501    0  0.00000000000E+00 -0.00000000000E+00 -0.14977858279E+04  0.14977858279E+04  0.00000000000E+00 0.  1.
         23    2    1    2    0    0 -0.63661875032E+03 -0.58188408434E+03  0.55549191089E+03  0.10300751142E+04  0.92795242260E+02 0.  0.
         13    1    3    3    0    0 -0.34734218318E+03 -0.31739990715E+03  0.35762431141E+03  0.59100291149E+03  0.00000000000E+00 0. -1.
        -13    1    3    3    0    0 -0.28927656714E+03 -0.26448417719E+03  0.19786759947E+03  0.43907220272E+03  0.00000000000E+00 0.  1.
         22    1    1    2    0    0  0.63661875032E+03  0.58188408434E+03 -0.11129583420E+04  0.14080301104E+04  0.00000000000E+00 0.  1.
<mgrwt>
<rscale>  0 0.23735181E+04</rscale>
<asrwt>0</asrwt>
<pdfrwt beam="1">  1        2 0.23042859E+00 0.23735181E+04</pdfrwt>
<pdfrwt beam="2">  1       -2 0.14466452E+00 0.23735181E+04</pdfrwt>
<totfact> 0.37828641E+00</totfact>
</mgrwt>
</event>
<event>
 6    1  0.1934315E-005  0.1555240E+04  0.7818608E-02  0.8848527E-01
         -2   -1    0    0    0  501 -0.00000000000E+00  0.00000000000E+00  0.82456798121E+03  0.82456798121E+03  0.00000000000E+00 0. -1.
          2   -1    0    0  501    0  0.00000000000E+00 -0.00000000000E+00 -0.73334540822E+03  0.73334540822E+03  0.00000000000E+00 0.  1.
         23    2    1    2    0    0  0.74467390548E+03  0.63801027515E+02 -0.15920685856E+03  0.76967186756E+03  0.91859475696E+02 0.  0.
         11    1    3    3    0    0  0.17240491635E+03  0.12391843133E+02  0.21796836050E+01  0.17286342580E+03  0.00000000000E+00 0.  1.
        -11    1    3    3    0    0  0.57226898914E+03  0.51409184382E+02 -0.16138654216E+03  0.59680844176E+03  0.00000000000E+00 0. -1.
         22    1    1    2    0    0 -0.74467390548E+03 -0.63801027515E+02  0.25042943155E+03  0.78824152188E+03  0.00000000000E+00 0. -1.
<mgrwt>
<rscale>  0 0.15552404E+04</rscale>
<asrwt>0</asrwt>
<pdfrwt beam="1">  1        2 0.11282237E+00 0.15552404E+04</pdfrwt>
<pdfrwt beam="2">  1       -2 0.12685661E+00 0.15552404E+04</pdfrwt>
<totfact> 0.17158770E+01</totfact>
</mgrwt>
</event>
<event>
 6    1  0.2596398E-005  0.4237548E+04  0.7818608E-02  0.7958268E-01
         -2   -1    0    0    0  501 -0.00000000000E+00  0.00000000000E+00  0.23796034781E+04  0.23796034781E+04  0.00000000000E+00 0. -1.
          2   -1    0    0  501    0  0.00000000000E+00 -0.00000000000E+00 -0.18865337652E+04  0.18865337652E+04  0.00000000000E+00 0.  1.
         23    2    1    2    0    0 -0.13708868830E+04  0.12238341585E+04 -0.81314543339E+03  0.20115200026E+04  0.88917554706E+02 0.  0.
         11    1    3    3    0    0 -0.10809278775E+04  0.92023626535E+03 -0.60923100805E+03  0.15447984599E+04  0.00000000000E+00 0. -1.
        -11    1    3    3    0    0 -0.28995900551E+03  0.30359789320E+03 -0.20391442534E+03  0.46672154278E+03  0.00000000000E+00 0.  1.
         22    1    1    2    0    0  0.13708868830E+04 -0.12238341585E+04  0.13062151463E+04  0.22546172407E+04  0.00000000000E+00 0. -1.
<mgrwt>
<rscale>  0 0.42375475E+04</rscale>
<asrwt>0</asrwt>
<pdfrwt beam="1">  1        2 0.29023596E+00 0.42375475E+04</pdfrwt>
<pdfrwt beam="2">  1       -2 0.36609284E+00 0.42375475E+04</pdfrwt>
<totfact> 0.73509414E-02</totfact>
</mgrwt>
</event>
<event>
 6    1  0.1934315E-005  0.1626154E+04  0.7818608E-02  0.8804640E-01
          1   -1    0    0  501    0  0.00000000000E+00  0.00000000000E+00  0.11374408250E+04  0.11374408250E+04  0.00000000000E+00 0.  1.
         -1   -1    0    0    0  501 -0.00000000000E+00 -0.00000000000E+00 -0.58121184853E+03  0.58121184853E+03  0.00000000000E+00 0. -1.
         23    2    1    2    0    0  0.76710374645E+03 -0.14680037229E+03  0.49835662352E+02  0.78782900833E+03  0.90512131758E+02 0.  0.
         11    1    3    3    0    0  0.13134027605E+03 -0.36397574920E+02 -0.23835568917E+02  0.13835890256E+03  0.00000000000E+00 0. -1.
        -11    1    3    3    0    0  0.63576347040E+03 -0.11040279737E+03  0.73671231269E+02  0.64947010577E+03  0.00000000000E+00 0.  1.
         22    1    1    2    0    0 -0.76710374645E+03  0.14680037229E+03  0.50639331412E+03  0.93082366521E+03  0.00000000000E+00 0. -1.
<mgrwt>
<rscale>  0 0.16261538E+04</rscale>
<asrwt>0</asrwt>
<pdfrwt beam="1">  1        1 0.17499090E+00 0.16261538E+04</pdfrwt>
<pdfrwt beam="2">  1       -1 0.89417208E-01 0.16261538E+04</pdfrwt>
<totfact> 0.13946783E+01</totfact>
</mgrwt>
</event>
<event>
 6    1  0.1934315E-005  0.2884556E+04  0.7818608E-02  0.8277488E-01
         -2   -1    0    0    0  501 -0.00000000000E+00  0.00000000000E+00  0.62371042110E+03  0.62371042110E+03  0.00000000000E+00 0. -1.
          2   -1    0    0  501    0  0.00000000000E+00 -0.00000000000E+00 -0.33351457151E+04  0.33351457151E+04  0.00000000000E+00 0.  1.
         23    2    1    2    0    0 -0.99993126810E+03 -0.80221094770E+03 -0.22597116405E+04  0.25996434212E+04  0.91892728533E+02 0.  0.
         11    1    3    3    0    0 -0.89795524362E+03 -0.68279509816E+03 -0.19961530008E+04  0.22928496611E+04  0.00000000000E+00 0.  1.
        -11    1    3    3    0    0 -0.10197602448E+03 -0.11941584954E+03 -0.26355863963E+03  0.30679376006E+03  0.00000000000E+00 0. -1.
         22    1    1    2    0    0  0.99993126810E+03  0.80221094770E+03 -0.45172365351E+03  0.13592127150E+04  0.00000000000E+00 0. -1.
<mgrwt>
<rscale>  0 0.28845555E+04</rscale>
<asrwt>0</asrwt>
<pdfrwt beam="1">  1        2 0.51309933E+00 0.28845555E+04</pdfrwt>
<pdfrwt beam="2">  1       -2 0.95955451E-01 0.28845555E+04</pdfrwt>
<totfact> 0.82961066E-01</totfact>
</mgrwt>
</event>
<event>
 6    1  0.1934315E-005  0.5835993E+04  0.7818608E-02  0.7711076E-01
         -2   -1    0    0    0  501 -0.00000000000E+00  0.00000000000E+00  0.26987618119E+04  0.26987618119E+04  0.00000000000E+00 0. -1.
          2   -1    0    0  501    0  0.00000000000E+00 -0.00000000000E+00 -0.31550410654E+04  0.31550410654E+04  0.00000000000E+00 0.  1.
         23    2    1    2    0    0 -0.21907726299E+04  0.32602959630E+03  0.16762391424E+04  0.27791622930E+04  0.90473060785E+02 0.  0.
         13    1    3    3    0    0 -0.65600819963E+03  0.64405265975E+02  0.46731757105E+03  0.80801021558E+03  0.00000000000E+00 0.  1.
        -13    1    3    3    0    0 -0.15347644302E+04  0.26162433033E+03  0.12089215714E+04  0.19711520774E+04  0.00000000000E+00 0. -1.
         22    1    1    2    0    0  0.21907726299E+04 -0.32602959630E+03 -0.21325183959E+04  0.30746405843E+04  0.00000000000E+00 0.  1.
<mgrwt>
<rscale>  0 0.58359933E+04</rscale>
<asrwt>0</asrwt>
<pdfrwt beam="1">  1        2 0.48539093E+00 0.58359933E+04</pdfrwt>
<pdfrwt beam="2">  1       -2 0.41519412E+00 0.58359933E+04</pdfrwt>
<totfact> 0.55831044E-03</totfact>
</mgrwt>
</event>
<event>
 6    1  0.1934315E-005  0.8899696E+03  0.7818608E-02  0.9438207E-01
          2   -1    0    0  501    0  0.00000000000E+00  0.00000000000E+00  0.10175411038E+04  0.10175411038E+04  0.00000000000E+00 0.  1.
         -2   -1    0    0    0  501 -0.00000000000E+00 -0.00000000000E+00 -0.19459802866E+03  0.19459802866E+03  0.00000000000E+00 0. -1.
         23    2    1    2    0    0  0.11794012049E+03  0.27615665886E+03  0.85441690646E+03  0.91020706340E+03  0.90974040145E+02 0.  0.
         11    1    3    3    0    0 -0.67126070057E+00  0.51077957270E+02  0.23666992129E+03  0.24211992886E+03  0.00000000000E+00 0. -1.
        -11    1    3    3    0    0  0.11861138119E+03  0.22507870159E+03  0.61774698517E+03  0.66808713454E+03  0.00000000000E+00 0.  1.
         22    1    1    2    0    0 -0.11794012049E+03 -0.27615665886E+03 -0.31473831330E+02  0.30193206903E+03  0.00000000000E+00 0. -1.
<mgrwt>
<rscale>  0 0.88996965E+03</rscale>
<asrwt>0</asrwt>
<pdfrwt beam="1">  1        2 0.15654478E+00 0.88996965E+03</pdfrwt>
<pdfrwt beam="2">  1       -2 0.29938159E-01 0.88996965E+03</pdfrwt>
<totfact> 0.25303698E+02</totfact>
</mgrwt>
</event>
<event>
 6    1  0.1934315E-005  0.4518208E+04  0.7818608E-02  0.7907457E-01
          2   -1    0    0  501    0  0.00000000000E+00  0.00000000000E+00  0.18725548721E+04  0.18725548721E+04  0.00000000000E+00 0.  1.
         -2   -1    0    0    0  501 -0.00000000000E+00 -0.00000000000E+00 -0.27254485386E+04  0.27254485386E+04  0.00000000000E+00 0. -1.
         23    2    1    2    0    0 -0.10531683787E+04 -0.16991677572E+04 -0.14952959706E+04  0.24982378473E+04  0.94591759044E+02 0.  0.
         13    1    3    3    0    0 -0.23627345884E+03 -0.35852462630E+03 -0.36816131784E+03  0.56560393471E+03  0.00000000000E+00 0. -1.
        -13    1    3    3    0    0 -0.81689491983E+03 -0.13406431309E+04 -0.11271346528E+04  0.19326339126E+04  0.00000000000E+00 0.  1.
         22    1    1    2    0    0  0.10531683787E+04  0.16991677572E+04  0.64240230418E+03  0.20997655634E+04  0.00000000000E+00 0.  1.
<mgrwt>
<rscale>  0 0.45182085E+04</rscale>
<asrwt>0</asrwt>
<pdfrwt beam="1">  1        2 0.28808537E+00 0.45182085E+04</pdfrwt>
<pdfrwt beam="2">  1       -2 0.41929977E+00 0.45182085E+04</pdfrwt>
<totfact> 0.32989364E-02</totfact>
</mgrwt>
</event>
<event>
 6    1  0.1934315E-005  0.3242287E+04  0.7818608E-02  0.8177738E-01
          2   -1    0    0  501    0  0.00000000000E+00  0.00000000000E+00  0.14511770352E+04  0.14511770352E+04  0.00000000000E+00 0. -1.
         -2   -1    0    0    0  501 -0.00000000000E+00 -0.00000000000E+00 -0.18110168286E+04  0.18110168286E+04  0.00000000000E+00 0.  1.
         23    2    1    2    0    0 -0.65688427746E+03  0.11084436576E+04  0.80761059402E+03  0.15234918471E+04  0.92995917329E+02 0.  0.
         11    1    3    3    0    0 -0.29168775033E+03  0.57025213484E+03  0.37235340323E+03  0.74088885663E+03  0.00000000000E+00 0. -1.
        -11    1    3    3    0    0 -0.36519652712E+03  0.53819152274E+03  0.43525719079E+03  0.78260299048E+03  0.00000000000E+00 0.  1.
         22    1    1    2    0    0  0.65688427746E+03 -0.11084436576E+04 -0.11674503873E+04  0.17387020167E+04  0.00000000000E+00 0.  1.
<mgrwt>
<rscale>  0 0.32422869E+04</rscale>
<asrwt>0</asrwt>
<pdfrwt beam="1">  1        2 0.22325801E+00 0.32422869E+04</pdfrwt>
<pdfrwt beam="2">  1       -2 0.27861797E+00 0.32422869E+04</pdfrwt>
<totfact> 0.48745058E-01</totfact>
</mgrwt>
</event>
<event>
 6    1  0.1934315E-005  0.1539965E+04  0.7818608E-02  0.8858303E-01
         -2   -1    0    0    0  501 -0.00000000000E+00  0.00000000000E+00  0.30517317563E+03  0.30517317563E+03  0.00000000000E+00 0. -1.
          2   -1    0    0  501    0  0.00000000000E+00 -0.00000000000E+00 -0.19427419965E+04  0.19427419965E+04  0.00000000000E+00 0.  1.
         23    2    1    2    0    0  0.10796880769E+03  0.67304450740E+03 -0.13352201221E+04  0.15022202560E+04  0.95951813658E+02 0.  0.
         13    1    3    3    0    0  0.34436828001E+01  0.20821333860E+03 -0.48042174233E+03  0.52361216929E+03  0.00000000000E+00 0. -1.
        -13    1    3    3    0    0  0.10452512489E+03  0.46483116879E+03 -0.85479837978E+03  0.97860808666E+03  0.00000000000E+00 0.  1.
         22    1    1    2    0    0 -0.10796880769E+03 -0.67304450740E+03 -0.30234869878E+03  0.74569491619E+03  0.00000000000E+00 0. -1.
<mgrwt>
<rscale>  0 0.15399646E+04</rscale>
<asrwt>0</asrwt>
<pdfrwt beam="1">  1        2 0.29888339E+00 0.15399646E+04</pdfrwt>
<pdfrwt beam="2">  1       -2 0.46949718E-01 0.15399646E+04</pdfrwt>
<totfact> 0.29787684E+01</totfact>
</mgrwt>
</event>
<event>
 6    1  0.1934315E-005  0.2584945E+04  0.7818608E-02  0.8373333E-01
          2   -1    0    0  501    0  0.00000000000E+00  0.00000000000E+00  0.27338042974E+04  0.27338042974E+04  0.00000000000E+00 0.  1.
         -2   -1    0    0    0  501 -0.00000000000E+00 -0.00000000000E+00 -0.61104759165E+03  0.61104759165E+03  0.00000000000E+00 0. -1.
         23    2    1    2    0    0  0.23688004971E+03  0.21942675486E+03  0.26799938575E+04  0.27008227733E+04  0.88409940846E+02 0.  0.
         13    1    3    3    0    0  0.22598641066E+03  0.16841772294E+03  0.23241359550E+04  0.23411626010E+04  0.00000000000E+00 0. -1.
        -13    1    3    3    0    0  0.10893639051E+02  0.51009031921E+02  0.35585790253E+03  0.35966017225E+03  0.00000000000E+00 0.  1.
         22    1    1    2    0    0 -0.23688004971E+03 -0.21942675486E+03 -0.55723715174E+03  0.64402911579E+03  0.00000000000E+00 0. -1.
<mgrwt>
<rscale>  0 0.25849445E+04</rscale>
<asrwt>0</asrwt>
<pdfrwt beam="1">  1        2 0.42058527E+00 0.25849445E+04</pdfrwt>
<pdfrwt beam="2">  1       -2 0.94007324E-01 0.25849445E+04</pdfrwt>
<totfact> 0.21438778E+00</totfact>
</mgrwt>
</event>
<event>
 6    1  0.1934315E-005  0.1601170E+04  0.7818608E-02  0.8819830E-01
         -2   -1    0    0    0  501 -0.00000000000E+00  0.00000000000E+00  0.49350267716E+03  0.49350267716E+03  0.00000000000E+00 0. -1.
          2   -1    0    0  501    0  0.00000000000E+00 -0.00000000000E+00 -0.12987488179E+04  0.12987488179E+04  0.00000000000E+00 0.  1.
         23    2    1    2    0    0  0.37825036273E+03 -0.61658472471E+03 -0.27235820749E+02  0.72991909997E+03  0.93755228727E+02 0.  0.
         11    1    3    3    0    0  0.85865845069E+02 -0.22326458885E+03 -0.14952555308E+02  0.23967394287E+03  0.00000000000E+00 0.  1.
        -11    1    3    3    0    0  0.29238451766E+03 -0.39332013586E+03 -0.12283265441E+02  0.49024515709E+03  0.00000000000E+00 0. -1.
         22    1    1    2    0    0 -0.37825036273E+03  0.61658472471E+03 -0.77801031995E+03  0.10623323951E+04  0.00000000000E+00 0. -1.
<mgrwt>
<rscale>  0 0.16011696E+04</rscale>
<asrwt>0</asrwt>
<pdfrwt beam="1">  1        2 0.19980751E+00 0.16011696E+04</pdfrwt>
<pdfrwt beam="2">  1       -2 0.75923490E-01 0.16011696E+04</pdfrwt>
<totfact> 0.24674932E+01</totfact>
</mgrwt>
</event>
<event>
 6    1  0.1934315E-005  0.3461270E+04  0.7818608E-02  0.8123030E-01
         -2   -1    0    0    0  501 -0.00000000000E+00  0.00000000000E+00  0.73491303775E+03  0.73491303775E+03  0.00000000000E+00 0. -1.
          2   -1    0    0  501    0  0.00000000000E+00 -0.00000000000E+00 -0.40754446557E+04  0.40754446557E+04  0.00000000000E+00 0.  1.
         23    2    1    2    0    0  0.13615074511E+04  0.95598263635E+03 -0.10144203279E+04  0.19505676532E+04  0.89778770525E+02 0.  0.
         13    1    3    3    0    0  0.79958333070E+03  0.53381711092E+03 -0.54117046206E+03  0.11032495999E+04  0.00000000000E+00 0. -1.
        -13    1    3    3    0    0  0.56192412045E+03  0.42216552543E+03 -0.47324986586E+03  0.84731805335E+03  0.00000000000E+00 0.  1.
         22    1    1    2    0    0 -0.13615074511E+04 -0.95598263635E+03 -0.23261112900E+04  0.28597900402E+04  0.00000000000E+00 0.  1.
<mgrwt>
<rscale>  0 0.34612699E+04</rscale>
<asrwt>0</asrwt>
<pdfrwt beam="1">  1        2 0.62699147E+00 0.34612699E+04</pdfrwt>
<pdfrwt beam="2">  1       -2 0.11306355E+00 0.34612699E+04</pdfrwt>
<totfact> 0.14987898E-01</totfact>
</mgrwt>
</event>
<event>
 6    1  0.1934315E-005  0.5859578E+04  0.7818608E-02  0.7708060E-01
         -2   -1    0    0    0  501 -0.00000000000E+00  0.00000000000E+00  0.30234003691E+04  0.30234003691E+04  0.00000000000E+00 0. -1.
          2   -1    0    0  501    0  0.00000000000E+00 -0.00000000000E+00 -0.28390760690E+04  0.28390760690E+04  0.00000000000E+00 0.  1.
         23    2    1    2    0    0 -0.20427584616E+04 -0.17434386216E+04 -0.10775978466E+04  0.28951733084E+04  0.91493207962E+02 0.  0.
         11    1    3    3    0    0 -0.11511389908E+04 -0.99379666327E+03 -0.65808174279E+03  0.16570529153E+04  0.00000000000E+00 0. -1.
        -11    1    3    3    0    0 -0.89161947084E+03 -0.74964195831E+03 -0.41951610378E+03  0.12381203931E+04  0.00000000000E+00 0.  1.
         22    1    1    2    0    0  0.20427584616E+04  0.17434386216E+04  0.12619221466E+04  0.29673031297E+04  0.00000000000E+00 0. -1.
<mgrwt>
<rscale>  0 0.58595780E+04</rscale>
<asrwt>0</asrwt>
<pdfrwt beam="1">  1        2 0.43678093E+00 0.58595780E+04</pdfrwt>
<pdfrwt beam="2">  1       -2 0.46513852E+00 0.58595780E+04</pdfrwt>
<totfact> 0.41346160E-03</totfact>
</mgrwt>
</event>
<event>
 6    1  0.1934315E-005  0.1478997E+04  0.7818608E-02  0.8898541E-01
         -2   -1    0    0    0  501 -0.00000000000E+00  0.00000000000E+00  0.32425177393E+03  0.32425177393E+03  0.00000000000E+00 0.  1.
          2   -1    0    0  501    0  0.00000000000E+00 -0.00000000000E+00 -0.16865221964E+04  0.16865221964E+04  0.00000000000E+00 0. -1.
         23    2    1    2    0    0 -0.24796361201E+03  0.68497357322E+03 -0.53115906828E+03  0.90559487537E+03  0.85424666178E+02 0.  0.
         13    1    3    3    0    0 -0.67643409961E+02  0.10327435041E+03 -0.72259843974E+02  0.14304792000E+03  0.00000000000E+00 0. -1.
        -13    1    3    3    0    0 -0.18032020205E+03  0.58169922281E+03 -0.45889922431E+03  0.76254695538E+03  0.00000000000E+00 0.  1.
         22    1    1    2    0    0  0.24796361201E+03 -0.68497357322E+03 -0.83111135424E+03  0.11051790950E+04  0.00000000000E+00 0. -1.
<mgrwt>
<rscale>  0 0.14789967E+04</rscale>
<asrwt>0</asrwt>
<pdfrwt beam="1">  1        2 0.25946496E+00 0.14789967E+04</pdfrwt>
<pdfrwt beam="2">  1       -2 0.49884888E-01 0.14789967E+04</pdfrwt>
<totfact> 0.36706894E+01</totfact>
</mgrwt>
</event>
<event>
 6    1  0.1934315E-005  0.2502107E+04  0.7818608E-02  0.8402235E-01
         -2   -1    0    0    0  501 -0.00000000000E+00  0.00000000000E+00  0.20579360671E+04  0.20579360671E+04  0.00000000000E+00 0. -1.
          2   -1    0    0  501    0  0.00000000000E+00 -0.00000000000E+00 -0.76053637499E+03  0.76053637499E+03  0.00000000000E+00 0.  1.
         23    2    1    2    0    0 -0.17282516079E+03  0.39915075903E+03 -0.66979170279E+03  0.80376853113E+03  0.90736221447E+02 0.  0.
         11    1    3    3    0    0 -0.73603169173E+02  0.10500264433E+03 -0.14099367366E+03  0.19058383415E+03  0.00000000000E+00 0. -1.
        -11    1    3    3    0    0 -0.99221991614E+02  0.29414811470E+03 -0.52879802913E+03  0.61318469698E+03  0.00000000000E+00 0.  1.
         22    1    1    2    0    0  0.17282516079E+03 -0.39915075903E+03  0.19671913949E+04  0.20147039109E+04  0.00000000000E+00 0. -1.
<mgrwt>
<rscale>  0 0.25021073E+04</rscale>
<asrwt>0</asrwt>
<pdfrwt beam="1">  1        2 0.11700560E+00 0.25021073E+04</pdfrwt>
<pdfrwt beam="2">  1       -2 0.31660555E+00 0.25021073E+04</pdfrwt>
<totfact> 0.82537739E-01</totfact>
</mgrwt>
</event>
<event>
 6    1  0.1934315E-005  0.4505019E+04  0.7818608E-02  0.7909759E-01
          2   -1    0    0  501    0  0.00000000000E+00  0.00000000000E+00  0.29573085335E+04  0.29573085335E+04  0.00000000000E+00 0.  1.
         -2   -1    0    0    0  501 -0.00000000000E+00 -0.00000000000E+00 -0.17156814036E+04  0.17156814036E+04  0.00000000000E+00 0. -1.
         23    2    1    2    0    0  0.15702280260E+03 -0.52365617367E+03 -0.16446251171E+04  0.17354188346E+04  0.89525453119E+02 0.  0.
         11    1    3    3    0    0  0.55899768062E+02 -0.10819907801E+03 -0.46520999015E+03  0.48088684686E+03  0.00000000000E+00 0. -1.
        -11    1    3    3    0    0  0.10112303454E+03 -0.41545709567E+03 -0.11794151270E+04  0.12545319877E+04  0.00000000000E+00 0.  1.
         22    1    1    2    0    0 -0.15702280260E+03  0.52365617367E+03  0.28862522470E+04  0.29375711025E+04  0.00000000000E+00 0.  1.
<mgrwt>
<rscale>  0 0.45050191E+04</rscale>
<asrwt>0</asrwt>
<pdfrwt beam="1">  1        2 0.45497054E+00 0.45050191E+04</pdfrwt>
<pdfrwt beam="2">  1       -2 0.26395099E+00 0.45050191E+04</pdfrwt>
<totfact> 0.73969836E-02</totfact>
</mgrwt>
</event>
<event>
 6    1  0.1934315E-005  0.1310250E+04  0.7818608E-02  0.9021476E-01
          2   -1    0    0  501    0  0.00000000000E+00  0.00000000000E+00  0.21942581918E+04  0.21942581918E+04  0.00000000000E+00 0.  1.
         -2   -1    0    0    0  501 -0.00000000000E+00 -0.00000000000E+00 -0.19559637921E+03  0.19559637921E+03  0.00000000000E+00 0. -1.
         23    2    1    2    0    0  0.60482576843E+03 -0.23718376235E+03  0.89898577720E+03  0.11126084201E+04  0.87474119180E+02 0.  0.
         13    1    3    3    0    0  0.35999851802E+03 -0.96217492061E+02  0.49232097391E+03  0.61744366553E+03  0.00000000000E+00 0.  1.
        -13    1    3    3    0    0  0.24482725041E+03 -0.14096627029E+03  0.40666480329E+03  0.49516475454E+03  0.00000000000E+00 0. -1.
         22    1    1    2    0    0 -0.60482576843E+03  0.23718376235E+03  0.10996760354E+04  0.12772461509E+04  0.00000000000E+00 0.  1.
<mgrwt>
<rscale>  0 0.13102503E+04</rscale>
<asrwt>0</asrwt>
<pdfrwt beam="1">  1        2 0.33757816E+00 0.13102503E+04</pdfrwt>
<pdfrwt beam="2">  1       -2 0.30091752E-01 0.13102503E+04</pdfrwt>
<totfact> 0.52060289E+01</totfact>
</mgrwt>
</event>
<event>
 6    1  0.1934315E-005  0.1782752E+04  0.7818608E-02  0.8715526E-01
          2   -1    0    0  501    0  0.00000000000E+00  0.00000000000E+00  0.14985094018E+04  0.14985094018E+04  0.00000000000E+00 0.  1.
         -2   -1    0    0    0  501 -0.00000000000E+00 -0.00000000000E+00 -0.53022763668E+03  0.53022763668E+03  0.00000000000E+00 0. -1.
         23    2    1    2    0    0  0.43726752390E+03  0.59744960953E+03 -0.74873243536E+02  0.74954929015E+03  0.89828794889E+02 0.  0.
         13    1    3    3    0    0  0.12922039271E+03  0.12115614283E+03  0.19247347857E+01  0.17714521004E+03  0.00000000000E+00 0. -1.
        -13    1    3    3    0    0  0.30804713119E+03  0.47629346669E+03 -0.76797978322E+02  0.57240408011E+03  0.00000000000E+00 0.  1.
         22    1    1    2    0    0 -0.43726752390E+03 -0.59744960953E+03  0.10431550087E+04  0.12791877483E+04  0.00000000000E+00 0.  1.
<mgrwt>
<rscale>  0 0.17827519E+04</rscale>
<asrwt>0</asrwt>
<pdfrwt beam="1">  1        2 0.23053991E+00 0.17827519E+04</pdfrwt>
<pdfrwt beam="2">  1       -2 0.81573483E-01 0.17827519E+04</pdfrwt>
<totfact> 0.15905676E+01</totfact>
</mgrwt>
</event>
<event>
 6    1  0.1934315E-005  0.2152499E+04  0.7818608E-02  0.8538463E-01
          2   -1    0    0  501    0  0.00000000000E+00  0.00000000000E+00  0.63530347455E+03  0.63530347455E+03  0.00000000000E+00 0.  1.
         -2   -1    0    0    0  501 -0.00000000000E+00 -0.00000000000E+00 -0.18232443016E+04  0.18232443016E+04  0.00000000000E+00 0. -1.
         23    2    1    2    0    0 -0.93521205836E+03  0.46766025528E+03 -0.87675014122E+03  0.13675998620E+04  0.91163939452E+02 0.  0.
         13    1    3    3    0    0 -0.29515117964E+03  0.10625450045E+03 -0.28772859409E+03  0.42566651450E+03  0.00000000000E+00 0. -1.
        -13    1    3    3    0    0 -0.64006087872E+03  0.36140575483E+03 -0.58902154713E+03  0.94193334747E+03  0.00000000000E+00 0.  1.
         22    1    1    2    0    0  0.93521205836E+03 -0.46766025528E+03 -0.31119068579E+03  0.10909479141E+04  0.00000000000E+00 0.  1.
<mgrwt>
<rscale>  0 0.21524994E+04</rscale>
<asrwt>0</asrwt>
<pdfrwt beam="1">  1        2 0.97738995E-01 0.21524994E+04</pdfrwt>
<pdfrwt beam="2">  1       -2 0.28049913E+00 0.21524994E+04</pdfrwt>
<totfact> 0.17752405E+00</totfact>
</mgrwt>
</event>
<event>
 6    1  0.1934315E-005  0.1754825E+04  0.7818608E-02  0.8730699E-01
         -2   -1    0    0    0  501 -0.00000000000E+00  0.00000000000E+00  0.29649830406E+03  0.29649830406E+03  0.00000000000E+00 0. -1.
          2   -1    0    0  501    0  0.00000000000E+00 -0.00000000000E+00 -0.25964837713E+04  0.25964837713E+04  0.00000000000E+00 0.  1.
         23    2    1    2    0    0 -0.76104736151E+03  0.11071700808E+03 -0.18408382644E+04  0.19972882124E+04  0.94991289435E+02 0.  0.
         11    1    3    3    0    0 -0.24639476318E+03  0.51994070440E+01 -0.50726620519E+03  0.56396490678E+03  0.00000000000E+00 0. -1.
        -11    1    3    3    0    0 -0.51465259833E+03  0.10551760103E+03 -0.13335720593E+04  0.14333233056E+04  0.00000000000E+00 0.  1.
         22    1    1    2    0    0  0.76104736151E+03 -0.11071700808E+03 -0.45914720275E+03  0.89569386295E+03  0.00000000000E+00 0. -1.
<mgrwt>
<rscale>  0 0.17548254E+04</rscale>
<asrwt>0</asrwt>
<pdfrwt beam="1">  1        2 0.39945902E+00 0.17548254E+04</pdfrwt>
<pdfrwt beam="2">  1       -2 0.45615126E-01 0.17548254E+04</pdfrwt>
<totfact> 0.13227127E+01</totfact>
</mgrwt>
</event>
<event>
 6    1  0.1934315E-005  0.3391997E+04  0.7818608E-02  0.8139873E-01
          2   -1    0    0  501    0  0.00000000000E+00  0.00000000000E+00  0.31336084525E+04  0.31336084525E+04  0.00000000000E+00 0.  1.
         -2   -1    0    0    0  501 -0.00000000000E+00 -0.00000000000E+00 -0.91792279359E+03  0.91792279359E+03  0.00000000000E+00 0. -1.
         23    2    1    2    0    0 -0.17295546846E+03  0.73251161735E+03 -0.70508045156E+03  0.10353479732E+04  0.91214685339E+02 0.  0.
         11    1    3    3    0    0 -0.40179342752E+02  0.16531418006E+03 -0.21440547078E+03  0.27370214397E+03  0.00000000000E+00 0. -1.
        -11    1    3    3    0    0 -0.13277612570E+03  0.56719743729E+03 -0.49067498078E+03  0.76164582923E+03  0.00000000000E+00 0.  1.
         22    1    1    2    0    0  0.17295546846E+03 -0.73251161735E+03  0.29207661105E+04  0.30161832729E+04  0.00000000000E+00 0.  1.
<mgrwt>
<rscale>  0 0.33919968E+04</rscale>
<asrwt>0</asrwt>
<pdfrwt beam="1">  1        2 0.48209360E+00 0.33919968E+04</pdfrwt>
<pdfrwt beam="2">  1       -2 0.14121889E+00 0.33919968E+04</pdfrwt>
<totfact> 0.41643470E-01</totfact>
</mgrwt>
</event>
<event>
 6    1  0.1934315E-005  0.3217274E+04  0.7818608E-02  0.8184270E-01
          2   -1    0    0  501    0  0.00000000000E+00  0.00000000000E+00  0.24655982814E+04  0.24655982814E+04  0.00000000000E+00 0.  1.
         -2   -1    0    0    0  501 -0.00000000000E+00 -0.00000000000E+00 -0.10495276868E+04  0.10495276868E+04  0.00000000000E+00 0. -1.
         23    2    1    2    0    0 -0.40393811635E+03 -0.13940490914E+04 -0.46164585273E+02  0.14548661321E+04  0.89249214628E+02 0.  0.
         11    1    3    3    0    0 -0.29121857573E+03 -0.11221488670E+04 -0.21894107656E+02  0.11595282189E+04  0.00000000000E+00 0.  1.
        -11    1    3    3    0    0 -0.11271954061E+03 -0.27190022441E+03 -0.24270477617E+02  0.29533791317E+03  0.00000000000E+00 0. -1.
         22    1    1    2    0    0  0.40393811635E+03  0.13940490914E+04  0.14622351799E+04  0.20602598361E+04  0.00000000000E+00 0.  1.
<mgrwt>
<rscale>  0 0.32172744E+04</rscale>
<asrwt>0</asrwt>
<pdfrwt beam="1">  1        2 0.37932281E+00 0.32172744E+04</pdfrwt>
<pdfrwt beam="2">  1       -2 0.16146580E+00 0.32172744E+04</pdfrwt>
<totfact> 0.75281946E-01</totfact>
</mgrwt>
</event>
<event>
 6    1  0.1934315E-005  0.5303146E+03  0.7818608E-02  0.1006156E+00
          2   -1    0    0  501    0  0.00000000000E+00  0.00000000000E+00  0.11666348846E+04  0.11666348846E+04  0.00000000000E+00 0.  1.
         -2   -1    0    0    0  501 -0.00000000000E+00 -0.00000000000E+00 -0.60265978471E+02  0.60265978471E+02  0.00000000000E+00 0. -1.
         23    2    1    2    0    0  0.15681322957E+03 -0.16891141852E+03  0.30073292174E+03  0.38894454225E+03  0.87841393694E+02 0.  0.
         13    1    3    3    0    0  0.11985757430E+03 -0.16641782593E+03  0.22378820708E+03  0.30354883056E+03  0.00000000000E+00 0. -1.
        -13    1    3    3    0    0  0.36955655271E+02 -0.24935925973E+01  0.76944714664E+02  0.85395711691E+02  0.00000000000E+00 0.  1.
         22    1    1    2    0    0 -0.15681322957E+03  0.16891141852E+03  0.80563598443E+03  0.83795632087E+03  0.00000000000E+00 0.  1.
<mgrwt>
<rscale>  0 0.53031460E+03</rscale>
<asrwt>0</asrwt>
<pdfrwt beam="1">  1        2 0.17948227E+00 0.53031460E+03</pdfrwt>
<pdfrwt beam="2">  1       -2 0.92716898E-02 0.53031460E+03</pdfrwt>
<totfact> 0.15561658E+03</totfact>
</mgrwt>
</event>
<event>
 6    1  0.1934315E-005  0.3649577E+04  0.7818608E-02  0.8079229E-01
          2   -1    0    0  501    0  0.00000000000E+00  0.00000000000E+00  0.14606142659E+04  0.14606142659E+04  0.00000000000E+00 0.  1.
         -2   -1    0    0    0  501 -0.00000000000E+00 -0.00000000000E+00 -0.22797624633E+04  0.22797624633E+04  0.00000000000E+00 0. -1.
         23    2    1    2    0    0 -0.75562392372E+03 -0.16527222426E+04 -0.56597777393E+03  0.19055596841E+04  0.91479744332E+02 0.  0.
         11    1    3    3    0    0 -0.23401446942E+03 -0.41542209810E+03 -0.14504820911E+03  0.49837463264E+03  0.00000000000E+00 0.  1.
        -11    1    3    3    0    0 -0.52160945430E+03 -0.12373001445E+04 -0.42092956482E+03  0.14071850515E+04  0.00000000000E+00 0. -1.
         22    1    1    2    0    0  0.75562392372E+03  0.16527222426E+04 -0.25317042345E+03  0.18348170450E+04  0.00000000000E+00 0.  1.
<mgrwt>
<rscale>  0 0.36495773E+04</rscale>
<asrwt>0</asrwt>
<pdfrwt beam="1">  1        2 0.22470989E+00 0.36495773E+04</pdfrwt>
<pdfrwt beam="2">  1       -2 0.35073269E+00 0.36495773E+04</pdfrwt>
<totfact> 0.16691093E-01</totfact>
</mgrwt>
</event>
<event>
 6    1  0.1934315E-005  0.2567635E+04  0.7818608E-02  0.8379279E-01
          2   -1    0    0  501    0  0.00000000000E+00  0.00000000000E+00  0.10729502746E+04  0.10729502746E+04  0.00000000000E+00 0.  1.
         -2   -1    0    0    0  501 -0.00000000000E+00 -0.00000000000E+00 -0.15361269863E+04  0.15361269863E+04  0.00000000000E+00 0. -1.
         23    2    1    2    0    0 -0.93094208629E+03 -0.49768064115E+03 -0.97142488833E+03  0.14374734893E+04  0.91238863962E+02 0.  0.
         11    1    3    3    0    0 -0.26757519044E+03 -0.12638793539E+03 -0.22163538017E+03  0.36971967015E+03  0.00000000000E+00 0. -1.
        -11    1    3    3    0    0 -0.66336689584E+03 -0.37129270576E+03 -0.74978950815E+03  0.10677538192E+04  0.00000000000E+00 0.  1.
         22    1    1    2    0    0  0.93094208629E+03  0.49768064115E+03  0.50824817654E+03  0.11716037716E+04  0.00000000000E+00 0.  1.
<mgrwt>
<rscale>  0 0.25676354E+04</rscale>
<asrwt>0</asrwt>
<pdfrwt beam="1">  1        2 0.16506927E+00 0.25676354E+04</pdfrwt>
<pdfrwt beam="2">  1       -2 0.23632723E+00 0.25676354E+04</pdfrwt>
<totfact> 0.15678206E+00</totfact>
</mgrwt>
</event>
<event>
 6    1  0.1934315E-005  0.1207739E+04  0.7818608E-02  0.9106110E-01
          2   -1    0    0  501    0  0.00000000000E+00  0.00000000000E+00  0.31777842668E+03  0.31777842668E+03  0.00000000000E+00 0.  1.
         -2   -1    0    0    0  501 -0.00000000000E+00 -0.00000000000E+00 -0.11475232757E+04  0.11475232757E+04  0.00000000000E+00 0. -1.
         23    2    1    2    0    0 -0.20764590834E+03 -0.23807951956E+03  0.20203268685E+03  0.38624490851E+03  0.92570199905E+02 0.  0.
         13    1    3    3    0    0 -0.12343025630E+03 -0.18396312026E+03  0.17565763933E+03  0.28272436054E+03  0.00000000000E+00 0.  1.
        -13    1    3    3    0    0 -0.84215652035E+02 -0.54116399296E+02  0.26375047526E+02  0.10352054797E+03  0.00000000000E+00 0. -1.
         22    1    1    2    0    0  0.20764590834E+03  0.23807951956E+03 -0.10317775359E+04  0.10790567939E+04  0.00000000000E+00 0. -1.
<mgrwt>
<rscale>  0 0.12077386E+04</rscale>
<asrwt>0</asrwt>
<pdfrwt beam="1">  1        2 0.48888988E-01 0.12077386E+04</pdfrwt>
<pdfrwt beam="2">  1       -2 0.17654204E+00 0.12077386E+04</pdfrwt>
<totfact> 0.19437556E+01</totfact>
</mgrwt>
</event>
<event>
 6    1  0.1943925E-005  0.6261096E+04  0.7818608E-02  0.7658846E-01
         -2   -1    0    0    0  501 -0.00000000000E+00  0.00000000000E+00  0.33052272312E+04  0.33052272312E+04  0.00000000000E+00 0. -1.
          2   -1    0    0  501    0  0.00000000000E+00 -0.00000000000E+00 -0.29651002166E+04  0.29651002166E+04  0.00000000000E+00 0.  1.
         23    2    1    2    0    0  0.94801831353E+03 -0.18754749039E+04 -0.21528283844E+04  0.30098103938E+04  0.90242540310E+02 0.  0.
         11    1    3    3    0    0  0.37841104546E+03 -0.68366655477E+03 -0.84667288326E+03  0.11521500982E+04  0.00000000000E+00 0. -1.
        -11    1    3    3    0    0  0.56960726807E+03 -0.11918083492E+04 -0.13061555011E+04  0.18576602957E+04  0.00000000000E+00 0.  1.
         22    1    1    2    0    0 -0.94801831353E+03  0.18754749039E+04  0.24929553990E+04  0.32605170540E+04  0.00000000000E+00 0. -1.
<mgrwt>
<rscale>  0 0.62610957E+04</rscale>
<asrwt>0</asrwt>
<pdfrwt beam="1">  1        2 0.45616927E+00 0.62610957E+04</pdfrwt>
<pdfrwt beam="2">  1       -2 0.50849650E+00 0.62610957E+04</pdfrwt>
<totfact> 0.17910238E-03</totfact>
</mgrwt>
</event>
<event>
 6    1  0.1934315E-005  0.1765272E+04  0.7818608E-02  0.8724989E-01
          2   -1    0    0  501    0  0.00000000000E+00  0.00000000000E+00  0.54607929562E+03  0.54607929562E+03  0.00000000000E+00 0.  1.
         -2   -1    0    0    0  501 -0.00000000000E+00 -0.00000000000E+00 -0.14266168707E+04  0.14266168707E+04  0.00000000000E+00 0. -1.
         23    2    1    2    0    0 -0.16147157116E+02 -0.33979106922E+03  0.46559652452E+03  0.58424533337E+03  0.94041397854E+02 0.  0.
         11    1    3    3    0    0 -0.22212413881E+02 -0.19332687887E+03  0.33745254791E+03  0.38954190469E+03  0.00000000000E+00 0.  1.
        -11    1    3    3    0    0  0.60652567654E+01 -0.14646419035E+03  0.12814397662E+03  0.19470342868E+03  0.00000000000E+00 0. -1.
         22    1    1    2    0    0  0.16147157116E+02  0.33979106922E+03 -0.13461340996E+04  0.13884508330E+04  0.00000000000E+00 0. -1.
<mgrwt>
<rscale>  0 0.17652716E+04</rscale>
<asrwt>0</asrwt>
<pdfrwt beam="1">  1        2 0.84012200E-01 0.17652716E+04</pdfrwt>
<pdfrwt beam="2">  1       -2 0.21947952E+00 0.17652716E+04</pdfrwt>
<totfact> 0.52308003E+00</totfact>
</mgrwt>
</event>
<event>
 6    1  0.1934315E-005  0.1840229E+04  0.7818608E-02  0.8685194E-01
         -2   -1    0    0    0  501 -0.00000000000E+00  0.00000000000E+00  0.86406617302E+03  0.86406617302E+03  0.00000000000E+00 0. -1.
          2   -1    0    0  501    0  0.00000000000E+00 -0.00000000000E+00 -0.97979892274E+03  0.97979892274E+03  0.00000000000E+00 0.  1.
         23    2    1    2    0    0  0.22199457741E+03  0.69027669519E+03 -0.62179821031E+03  0.95963336214E+03  0.92193639005E+02 0.  0.
         11    1    3    3    0    0  0.20849795263E+02  0.17937314343E+03 -0.12993557961E+03  0.22246953363E+03  0.00000000000E+00 0. -1.
        -11    1    3    3    0    0  0.20114478214E+03  0.51090355177E+03 -0.49186263070E+03  0.73716382852E+03  0.00000000000E+00 0.  1.
         22    1    1    2    0    0 -0.22199457741E+03 -0.69027669519E+03  0.50606546059E+03  0.88423173361E+03  0.00000000000E+00 0. -1.
<mgrwt>
<rscale>  0 0.18402294E+04</rscale>
<asrwt>0</asrwt>
<pdfrwt beam="1">  1        2 0.15073830E+00 0.18402294E+04</pdfrwt>
<pdfrwt beam="2">  1       -2 0.13293326E+00 0.18402294E+04</pdfrwt>
<totfact> 0.10023643E+01</totfact>
</mgrwt>
</event>
<event>
 6    1  0.1934315E-005  0.3330085E+04  0.7818608E-02  0.8155282E-01
          2   -1    0    0  501    0  0.00000000000E+00  0.00000000000E+00  0.36285263674E+04  0.36285263674E+04  0.00000000000E+00 0.  1.
         -2   -1    0    0    0  501 -0.00000000000E+00 -0.00000000000E+00 -0.76404734955E+03  0.76404734955E+03  0.00000000000E+00 0. -1.
         23    2    1    2    0    0  0.52805826222E+03 -0.98714655096E+03 -0.19026101011E+03  0.11391539039E+04  0.90379884473E+02 0.  0.
         11    1    3    3    0    0  0.27434761038E+03 -0.46313184540E+03 -0.13055414142E+03  0.55389719388E+03  0.00000000000E+00 0.  1.
        -11    1    3    3    0    0  0.25371065184E+03 -0.52401470555E+03 -0.59706868687E+02  0.58525671005E+03  0.00000000000E+00 0. -1.
         22    1    1    2    0    0 -0.52805826222E+03  0.98714655096E+03  0.30547400280E+04  0.32534198130E+04  0.00000000000E+00 0.  1.
<mgrwt>
<rscale>  0 0.33300847E+04</rscale>
<asrwt>0</asrwt>
<pdfrwt beam="1">  1        2 0.55823482E+00 0.33300847E+04</pdfrwt>
<pdfrwt beam="2">  1       -2 0.11754575E+00 0.33300847E+04</pdfrwt>
<totfact> 0.30607533E-01</totfact>
</mgrwt>
</event>
<event>
 6    1  0.1934315E-005  0.9651116E+03  0.7818608E-02  0.9347660E-01
         -2   -1    0    0    0  501 -0.00000000000E+00  0.00000000000E+00  0.17746416360E+03  0.17746416360E+03  0.00000000000E+00 0.  1.
          2   -1    0    0  501    0  0.00000000000E+00 -0.00000000000E+00 -0.13121527247E+04  0.13121527247E+04  0.00000000000E+00 0. -1.
         23    2    1    2    0    0 -0.16654494822E+03  0.43773498453E+03 -0.42173337076E+03  0.63659037060E+03  0.89661181523E+02 0.  0.
         11    1    3    3    0    0 -0.10272320912E+03  0.15520615929E+03 -0.14425390389E+03  0.23547865798E+03  0.00000000000E+00 0.  1.
        -11    1    3    3    0    0 -0.63821739098E+02  0.28252882523E+03 -0.27747946687E+03  0.40111171263E+03  0.00000000000E+00 0. -1.
         22    1    1    2    0    0  0.16654494822E+03 -0.43773498453E+03 -0.71295519034E+03  0.85302651769E+03  0.00000000000E+00 0. -1.
<mgrwt>
<rscale>  0 0.96511157E+03</rscale>
<asrwt>0</asrwt>
<pdfrwt beam="1">  1        2 0.20186965E+00 0.96511157E+03</pdfrwt>
<pdfrwt beam="2">  1       -2 0.27302179E-01 0.96511157E+03</pdfrwt>
<totfact> 0.19834850E+02</totfact>
</mgrwt>
</event>
<event>
 6    1  0.1934315E-005  0.1106934E+04  0.7818608E-02  0.9198460E-01
          2   -1    0    0  501    0  0.00000000000E+00  0.00000000000E+00  0.50761118935E+03  0.50761118935E+03  0.00000000000E+00 0.  1.
         -2   -1    0    0    0  501 -0.00000000000E+00 -0.00000000000E+00 -0.60346515603E+03  0.60346515603E+03  0.00000000000E+00 0. -1.
         23    2    1    2    0    0  0.39997303120E+03  0.32680187269E+03 -0.23669205343E+03  0.57571361194E+03  0.92979272600E+02 0.  0.
         13    1    3    3    0    0  0.10512120866E+03  0.14195166006E+03 -0.86550874233E+02  0.19670230333E+03  0.00000000000E+00 0. -1.
        -13    1    3    3    0    0  0.29485182254E+03  0.18485021263E+03 -0.15014117919E+03  0.37901130861E+03  0.00000000000E+00 0.  1.
         22    1    1    2    0    0 -0.39997303120E+03 -0.32680187269E+03  0.14083808675E+03  0.53536273344E+03  0.00000000000E+00 0. -1.
<mgrwt>
<rscale>  0 0.11069339E+04</rscale>
<asrwt>0</asrwt>
<pdfrwt beam="1">  1        2 0.78094029E-01 0.11069339E+04</pdfrwt>
<pdfrwt beam="2">  1       -2 0.92840793E-01 0.11069339E+04</pdfrwt>
<totfact> 0.59073472E+01</totfact>
</mgrwt>
</event>
<event>
 6    1  0.1934315E-005  0.2615302E+04  0.7818608E-02  0.8363022E-01
         -1   -1    0    0    0  501 -0.00000000000E+00  0.00000000000E+00  0.20810914860E+04  0.20810914860E+04  0.00000000000E+00 0. -1.
          1   -1    0    0  501    0  0.00000000000E+00 -0.00000000000E+00 -0.82166088986E+03  0.82166088986E+03  0.00000000000E+00 0.  1.
         23    2    1    2    0    0 -0.46204981101E+03  0.18965013357E+03 -0.70902817754E+03  0.87191827512E+03  0.89795996206E+02 0.  0.
         13    1    3    3    0    0 -0.28538595923E+03  0.13569797619E+03 -0.51342542489E+03  0.60288038067E+03  0.00000000000E+00 0.  1.
        -13    1    3    3    0    0 -0.17666385177E+03  0.53952157377E+02 -0.19560275265E+03  0.26903789445E+03  0.00000000000E+00 0. -1.
         22    1    1    2    0    0  0.46204981101E+03 -0.18965013357E+03  0.19684587737E+04  0.20308341007E+04  0.00000000000E+00 0. -1.
<mgrwt>
<rscale>  0 0.26153023E+04</rscale>
<asrwt>0</asrwt>
<pdfrwt beam="1">  1        1 0.12640937E+00 0.26153023E+04</pdfrwt>
<pdfrwt beam="2">  1       -1 0.32016792E+00 0.26153023E+04</pdfrwt>
<totfact> 0.45470969E-01</totfact>
</mgrwt>
</event>
<event>
 6    1  0.3106567E-005  0.3776677E+04  0.7818608E-02  0.8051179E-01
          2   -1    0    0  501    0  0.00000000000E+00  0.00000000000E+00  0.28570365790E+04  0.28570365790E+04  0.00000000000E+00 0.  1.
         -2   -1    0    0    0  501 -0.00000000000E+00 -0.00000000000E+00 -0.12480841283E+04  0.12480841283E+04  0.00000000000E+00 0. -1.
         23    2    1    2    0    0 -0.15265691246E+04  0.11087024870E+04  0.85485644216E+03  0.20733000245E+04  0.90326949449E+02 0.  0.
         11    1    3    3    0    0 -0.87373520035E+03  0.68597138498E+03  0.48556486472E+03  0.12123296496E+04  0.00000000000E+00 0. -1.
        -11    1    3    3    0    0 -0.65283392430E+03  0.42273110204E+03  0.36929157744E+03  0.86097037493E+03  0.00000000000E+00 0.  1.
         22    1    1    2    0    0  0.15265691246E+04 -0.11087024870E+04  0.75409600851E+03  0.20318206828E+04  0.00000000000E+00 0. -1.
<mgrwt>
<rscale>  0 0.37766769E+04</rscale>
<asrwt>0</asrwt>
<pdfrwt beam="1">  1        2 0.43954409E+00 0.37766769E+04</pdfrwt>
<pdfrwt beam="2">  1       -2 0.19201294E+00 0.37766769E+04</pdfrwt>
<totfact> 0.25758855E-01</totfact>
</mgrwt>
</event>
<event>
 6    1  0.1934315E-005  0.5869941E+03  0.7818608E-02  0.9932763E-01
          3   -1    0    0  501    0  0.00000000000E+00  0.00000000000E+00  0.72237081068E+02  0.72237081068E+02  0.00000000000E+00 0.  1.
         -3   -1    0    0    0  501 -0.00000000000E+00 -0.00000000000E+00 -0.11924695211E+04  0.11924695211E+04  0.00000000000E+00 0. -1.
         23    2    1    2    0    0  0.22696870053E+03  0.55052353269E+02 -0.21635439052E+03  0.33114295623E+03  0.91109179246E+02 0.  0.
         11    1    3    3    0    0  0.15342146444E+03  0.13296307638E+02 -0.18555825415E+03  0.24113648258E+03  0.00000000000E+00 0. -1.
        -11    1    3    3    0    0  0.73547236097E+02  0.41756045631E+02 -0.30796136366E+02  0.90006473652E+02  0.00000000000E+00 0.  1.
         22    1    1    2    0    0 -0.22696870053E+03 -0.55052353269E+02 -0.90387804956E+03  0.93356364598E+03  0.00000000000E+00 0. -1.
<mgrwt>
<rscale>  0 0.58699410E+03</rscale>
<asrwt>0</asrwt>
<pdfrwt beam="1">  1        3 0.11113397E-01 0.58699410E+03</pdfrwt>
<pdfrwt beam="2">  1       -3 0.18345684E+00 0.58699410E+03</pdfrwt>
<totfact> 0.31987283E+01</totfact>
</mgrwt>
</event>
<event>
 6    1  0.1934315E-005  0.1229065E+04  0.7818608E-02  0.9087789E-01
          2   -1    0    0  501    0  0.00000000000E+00  0.00000000000E+00  0.23965891467E+03  0.23965891467E+03  0.00000000000E+00 0.  1.
         -2   -1    0    0    0  501 -0.00000000000E+00 -0.00000000000E+00 -0.15757824679E+04  0.15757824679E+04  0.00000000000E+00 0. -1.
         23    2    1    2    0    0 -0.38538797251E+03 -0.30281557141E+03 -0.13236535218E+03  0.51572796561E+03  0.90739122814E+02 0.  0.
         13    1    3    3    0    0 -0.35286783691E+03 -0.26453831723E+03 -0.14444432321E+03  0.46406938502E+03  0.00000000000E+00 0.  1.
        -13    1    3    3    0    0 -0.32520135606E+02 -0.38277254183E+02  0.12078971029E+02  0.51658580591E+02  0.00000000000E+00 0. -1.
         22    1    1    2    0    0  0.38538797251E+03  0.30281557141E+03 -0.12037582010E+04  0.12997134170E+04  0.00000000000E+00 0. -1.
<mgrwt>
<rscale>  0 0.12290652E+04</rscale>
<asrwt>0</asrwt>
<pdfrwt beam="1">  1        2 0.36870604E-01 0.12290652E+04</pdfrwt>
<pdfrwt beam="2">  1       -2 0.24242806E+00 0.12290652E+04</pdfrwt>
<totfact> 0.99637287E+00</totfact>
</mgrwt>
</event>
<event>
 6    1  0.1934315E-005  0.2227666E+04  0.7818608E-02  0.8507000E-01
          2   -1    0    0  501    0  0.00000000000E+00  0.00000000000E+00  0.27391671754E+04  0.27391671754E+04  0.00000000000E+00 0.  1.
         -2   -1    0    0    0  501 -0.00000000000E+00 -0.00000000000E+00 -0.45292023320E+03  0.45292023320E+03  0.00000000000E+00 0. -1.
         23    2    1    2    0    0  0.72008477791E+01  0.66064772498E+03 -0.13693638663E+03  0.68044955375E+03  0.88049716011E+02 0.  0.
         11    1    3    3    0    0 -0.36195656801E+02  0.21351065698E+03 -0.59543920213E+02  0.22459386601E+03  0.00000000000E+00 0. -1.
        -11    1    3    3    0    0  0.43396504580E+02  0.44713706800E+03 -0.77392466421E+02  0.45585568774E+03  0.00000000000E+00 0.  1.
         22    1    1    2    0    0 -0.72008477791E+01 -0.66064772498E+03  0.24231833288E+04  0.25116378548E+04  0.00000000000E+00 0.  1.
<mgrwt>
<rscale>  0 0.22276663E+04</rscale>
<asrwt>0</asrwt>
<pdfrwt beam="1">  1        2 0.42141032E+00 0.22276663E+04</pdfrwt>
<pdfrwt beam="2">  1       -2 0.69680038E-01 0.22276663E+04</pdfrwt>
<totfact> 0.43102464E+00</totfact>
</mgrwt>
</event>
<event>
 6    1  0.1934315E-005  0.1151346E+04  0.7818608E-02  0.9156542E-01
         -2   -1    0    0    0  501 -0.00000000000E+00  0.00000000000E+00  0.15775141035E+03  0.15775141035E+03  0.00000000000E+00 0. -1.
          2   -1    0    0  501    0  0.00000000000E+00 -0.00000000000E+00 -0.21007711373E+04  0.21007711373E+04  0.00000000000E+00 0.  1.
         23    2    1    2    0    0 -0.38260357847E+02 -0.82158270952E+02 -0.20852872734E+04  0.20898397351E+04  0.10389065902E+03 0.  0.
         11    1    3    3    0    0  0.34190633144E+02 -0.13563008914E+02 -0.69871580857E+03  0.69968331104E+03  0.00000000000E+00 0.  1.
        -11    1    3    3    0    0 -0.72450990991E+02 -0.68595262038E+02 -0.13865714649E+04  0.13901564240E+04  0.00000000000E+00 0. -1.
         22    1    1    2    0    0  0.38260357847E+02  0.82158270952E+02  0.14226754651E+03  0.16868281257E+03  0.00000000000E+00 0. -1.
<mgrwt>
<rscale>  0 0.11513464E+04</rscale>
<asrwt>0</asrwt>
<pdfrwt beam="1">  1        2 0.32319555E+00 0.11513464E+04</pdfrwt>
<pdfrwt beam="2">  1       -2 0.24269448E-01 0.11513464E+04</pdfrwt>
<totfact> 0.88181502E+01</totfact>
</mgrwt>
</event>
<event>
 6    1  0.1934315E-005  0.3047073E+04  0.7818608E-02  0.8230415E-01
         -2   -1    0    0    0  501 -0.00000000000E+00  0.00000000000E+00  0.94147907750E+03  0.94147907750E+03  0.00000000000E+00 0. -1.
          2   -1    0    0  501    0  0.00000000000E+00 -0.00000000000E+00 -0.24654442889E+04  0.24654442889E+04  0.00000000000E+00 0.  1.
         23    2    1    2    0    0 -0.15087452818E+04 -0.20178862169E+03 -0.75101736079E+03  0.16997387388E+04  0.89742580233E+02 0.  0.
         11    1    3    3    0    0 -0.69797028500E+03 -0.11836037732E+03 -0.39070474115E+03  0.80859253795E+03  0.00000000000E+00 0.  1.
        -11    1    3    3    0    0 -0.81077499677E+03 -0.83428244370E+02 -0.36031261964E+03  0.89114620081E+03  0.00000000000E+00 0. -1.
         22    1    1    2    0    0  0.15087452818E+04  0.20178862169E+03 -0.77294785059E+03  0.17071846276E+04  0.00000000000E+00 0. -1.
<mgrwt>
<rscale>  0 0.30470735E+04</rscale>
<asrwt>0</asrwt>
<pdfrwt beam="1">  1        2 0.37929911E+00 0.30470735E+04</pdfrwt>
<pdfrwt beam="2">  1       -2 0.14484294E+00 0.30470735E+04</pdfrwt>
<totfact> 0.10212467E+00</totfact>
</mgrwt>
</event>
<event>
 6    1  0.1934315E-005  0.1310190E+04  0.7818608E-02  0.9021523E-01
          2   -1    0    0  501    0  0.00000000000E+00  0.00000000000E+00  0.96073023622E+03  0.96073023622E+03  0.00000000000E+00 0.  1.
         -2   -1    0    0    0  501 -0.00000000000E+00 -0.00000000000E+00 -0.44669123832E+03  0.44669123832E+03  0.00000000000E+00 0. -1.
         23    2    1    2    0    0  0.29015967285E+03  0.58196590718E+03  0.20905053278E+03  0.68916322244E+03  0.91470591103E+02 0.  0.
         13    1    3    3    0    0  0.21652971931E+03  0.46590063372E+03  0.20033581396E+03  0.55143717521E+03  0.00000000000E+00 0. -1.
        -13    1    3    3    0    0  0.73629953541E+02  0.11606527345E+03  0.87147188207E+01  0.13772604723E+03  0.00000000000E+00 0.  1.
         22    1    1    2    0    0 -0.29015967285E+03 -0.58196590718E+03  0.30498846511E+03  0.71825825210E+03  0.00000000000E+00 0.  1.
<mgrwt>
<rscale>  0 0.13101905E+04</rscale>
<asrwt>0</asrwt>
<pdfrwt beam="1">  1        2 0.14780465E+00 0.13101905E+04</pdfrwt>
<pdfrwt beam="2">  1       -2 0.68721729E-01 0.13101905E+04</pdfrwt>
<totfact> 0.50647100E+01</totfact>
</mgrwt>
</event>
<event>
 6    1  0.1934315E-005  0.6246869E+03  0.7818608E-02  0.9855472E-01
         -4   -1    0    0    0  501 -0.00000000000E+00  0.00000000000E+00  0.14257224729E+03  0.14257224729E+03  0.00000000000E+00 0. -1.
          4   -1    0    0  501    0  0.00000000000E+00 -0.00000000000E+00 -0.68427370499E+03  0.68427370499E+03  0.00000000000E+00 0.  1.
         23    2    1    2    0    0  0.17775725233E+03  0.21529856680E+03 -0.44537512563E+03  0.53149890917E+03  0.78619172553E+02 0.  0.
         13    1    3    3    0    0  0.15857944434E+03  0.19210230389E+03 -0.33730122977E+03  0.41931235962E+03  0.00000000000E+00 0. -1.
        -13    1    3    3    0    0  0.19177807990E+02  0.23196262912E+02 -0.10807389586E+03  0.11218654955E+03  0.00000000000E+00 0.  1.
         22    1    1    2    0    0 -0.17775725233E+03 -0.21529856680E+03 -0.96326332075E+02  0.29534704311E+03  0.00000000000E+00 0. -1.
<mgrwt>
<rscale>  0 0.62468693E+03</rscale>
<asrwt>0</asrwt>
<pdfrwt beam="1">  1        4 0.10527288E+00 0.62468693E+03</pdfrwt>
<pdfrwt beam="2">  1       -4 0.21934192E-01 0.62468693E+03</pdfrwt>
<totfact> 0.28121064E+01</totfact>
</mgrwt>
</event>
<event>
 6    1  0.1934315E-005  0.2756633E+04  0.7818608E-02  0.8316860E-01
          2   -1    0    0  501    0  0.00000000000E+00  0.00000000000E+00  0.15312832125E+04  0.15312832125E+04  0.00000000000E+00 0.  1.
         -2   -1    0    0    0  501 -0.00000000000E+00 -0.00000000000E+00 -0.12406300343E+04  0.12406300343E+04  0.00000000000E+00 0. -1.
         23    2    1    2    0    0  0.37301059874E+03 -0.49777694348E+02 -0.11862275246E+04  0.12478426002E+04  0.91436803930E+02 0.  0.
         13    1    3    3    0    0  0.18899566488E+03 -0.40873953033E+00 -0.46664336830E+03  0.50346356531E+03  0.00000000000E+00 0.  1.
        -13    1    3    3    0    0  0.18401493385E+03 -0.49368954818E+02 -0.71958415628E+03  0.74437903486E+03  0.00000000000E+00 0. -1.
         22    1    1    2    0    0 -0.37301059874E+03  0.49777694348E+02  0.14768807028E+04  0.15240706466E+04  0.00000000000E+00 0.  1.
<mgrwt>
<rscale>  0 0.27566327E+04</rscale>
<asrwt>0</asrwt>
<pdfrwt beam="1">  1        2 0.23558203E+00 0.27566327E+04</pdfrwt>
<pdfrwt beam="2">  1       -2 0.19086616E+00 0.27566327E+04</pdfrwt>
<totfact> 0.16280037E+00</totfact>
</mgrwt>
</event>
<event>
 6    1  0.1934315E-005  0.1698653E+04  0.7818608E-02  0.8762133E-01
          2   -1    0    0  501    0  0.00000000000E+00  0.00000000000E+00  0.38171071764E+04  0.38171071764E+04  0.00000000000E+00 0.  1.
         -2   -1    0    0    0  501 -0.00000000000E+00 -0.00000000000E+00 -0.18897972840E+03  0.18897972840E+03  0.00000000000E+00 0. -1.
         23    2    1    2    0    0  0.18192900216E+03 -0.55488820250E+03  0.32658158204E+04  0.33188687484E+04  0.91311098337E+02 0.  0.
         13    1    3    3    0    0  0.41742069994E+02 -0.21561379353E+03  0.14226957706E+04  0.14395467912E+04  0.00000000000E+00 0. -1.
        -13    1    3    3    0    0  0.14018693217E+03 -0.33927440897E+03  0.18431200498E+04  0.18793219571E+04  0.00000000000E+00 0.  1.
         22    1    1    2    0    0 -0.18192900216E+03  0.55488820250E+03  0.36231162760E+03  0.68721815648E+03  0.00000000000E+00 0. -1.
<mgrwt>
<rscale>  0 0.16986534E+04</rscale>
<asrwt>0</asrwt>
<pdfrwt beam="1">  1        2 0.58724720E+00 0.16986534E+04</pdfrwt>
<pdfrwt beam="2">  1       -2 0.29073807E-01 0.16986534E+04</pdfrwt>
<totfact> 0.50019869E+00</totfact>
</mgrwt>
</event>
<event>
 6    1  0.1934315E-005  0.2776495E+04  0.7818608E-02  0.8310603E-01
         -2   -1    0    0    0  501 -0.00000000000E+00  0.00000000000E+00  0.97767597565E+03  0.97767597565E+03  0.00000000000E+00 0. -1.
          2   -1    0    0  501    0  0.00000000000E+00 -0.00000000000E+00 -0.19712366376E+04  0.19712366376E+04  0.00000000000E+00 0.  1.
         23    2    1    2    0    0 -0.49873519749E+03  0.11630307057E+04  0.10545341267E+03  0.12728430575E+04  0.87360215175E+02 0.  0.
         11    1    3    3    0    0 -0.15881506663E+03  0.47423508029E+03  0.29459319886E+02  0.50098801213E+03  0.00000000000E+00 0.  1.
        -11    1    3    3    0    0 -0.33992013085E+03  0.68879562537E+03  0.75994092781E+02  0.77185504535E+03  0.00000000000E+00 0. -1.
         22    1    1    2    0    0  0.49873519749E+03 -0.11630307057E+04 -0.10990140746E+04  0.16760695557E+04  0.00000000000E+00 0.  1.
<mgrwt>
<rscale>  0 0.27764947E+04</rscale>
<asrwt>0</asrwt>
<pdfrwt beam="1">  1        2 0.30326717E+00 0.27764947E+04</pdfrwt>
<pdfrwt beam="2">  1       -2 0.15041169E+00 0.27764947E+04</pdfrwt>
<totfact> 0.17977681E+00</totfact>
</mgrwt>
</event>
<event>
 6    1  0.1934315E-005  0.3269684E+04  0.7818608E-02  0.8170652E-01
          2   -1    0    0  501    0  0.00000000000E+00  0.00000000000E+00  0.29866811610E+04  0.29866811610E+04  0.00000000000E+00 0.  1.
         -2   -1    0    0    0  501 -0.00000000000E+00 -0.00000000000E+00 -0.89487579582E+03  0.89487579582E+03  0.00000000000E+00 0. -1.
         23    2    1    2    0    0  0.35996715385E+03 -0.14656671891E+04  0.17887894017E+04  0.23422144559E+04  0.91893268462E+02 0.  0.
         11    1    3    3    0    0  0.15692328812E+03 -0.72521093384E+03  0.94278465620E+03  0.11997494425E+04  0.00000000000E+00 0. -1.
        -11    1    3    3    0    0  0.20304386573E+03 -0.74045625524E+03  0.84600474553E+03  0.11424650134E+04  0.00000000000E+00 0.  1.
         22    1    1    2    0    0 -0.35996715385E+03  0.14656671891E+04  0.30301596345E+03  0.15393425009E+04  0.00000000000E+00 0. -1.
<mgrwt>
<rscale>  0 0.32696842E+04</rscale>
<asrwt>0</asrwt>
<pdfrwt beam="1">  1        2 0.45948941E+00 0.32696842E+04</pdfrwt>
<pdfrwt beam="2">  1       -2 0.13767320E+00 0.32696842E+04</pdfrwt>
<totfact> 0.55707654E-01</totfact>
</mgrwt>
</event>
<event>
 6    1  0.1934315E-005  0.2439670E+04  0.7818608E-02  0.8424799E-01
          2   -1    0    0  501    0  0.00000000000E+00  0.00000000000E+00  0.16164635332E+04  0.16164635332E+04  0.00000000000E+00 0.  1.
         -2   -1    0    0    0  501 -0.00000000000E+00 -0.00000000000E+00 -0.92052646297E+03  0.92052646297E+03  0.00000000000E+00 0. -1.
         23    2    1    2    0    0 -0.30844140640E+03  0.31449623659E+03 -0.83253698800E+03  0.94630557408E+03  0.91282085473E+02 0.  0.
         11    1    3    3    0    0 -0.13982451133E+03  0.17623977346E+03 -0.34037878992E+03  0.40800621606E+03  0.00000000000E+00 0. -1.
        -11    1    3    3    0    0 -0.16861689507E+03  0.13825646313E+03 -0.49215819809E+03  0.53829935802E+03  0.00000000000E+00 0.  1.
         22    1    1    2    0    0  0.30844140640E+03 -0.31449623659E+03  0.15284740582E+04  0.15906844221E+04  0.00000000000E+00 0.  1.
<mgrwt>
<rscale>  0 0.24396700E+04</rscale>
<asrwt>0</asrwt>
<pdfrwt beam="1">  1        2 0.24868670E+00 0.24396700E+04</pdfrwt>
<pdfrwt beam="2">  1       -2 0.14161946E+00 0.24396700E+04</pdfrwt>
<totfact> 0.34114677E+00</totfact>
</mgrwt>
</event>
<event>
 6    1  0.1934315E-005  0.8168084E+03  0.7818608E-02  0.9536001E-01
          2   -1    0    0  501    0  0.00000000000E+00  0.00000000000E+00  0.39315893298E+03  0.39315893298E+03  0.00000000000E+00 0.  1.
         -2   -1    0    0    0  501 -0.00000000000E+00 -0.00000000000E+00 -0.42424066802E+03  0.42424066802E+03  0.00000000000E+00 0. -1.
         23    2    1    2    0    0 -0.18449239279E+03  0.10068688576E+03 -0.36024318678E+03  0.42685824176E+03  0.90870858804E+02 0.  0.
         11    1    3    3    0    0 -0.16332783577E+03  0.11118960553E+03 -0.34816617183E+03  0.40032336120E+03  0.00000000000E+00 0. -1.
        -11    1    3    3    0    0 -0.21164557021E+02 -0.10502719771E+02 -0.12077014948E+02  0.26534880564E+02  0.00000000000E+00 0.  1.
         22    1    1    2    0    0  0.18449239279E+03 -0.10068688576E+03  0.32916145174E+03  0.39054135924E+03  0.00000000000E+00 0.  1.
<mgrwt>
<rscale>  0 0.81680844E+03</rscale>
<asrwt>0</asrwt>
<pdfrwt beam="1">  1        2 0.60485990E-01 0.81680844E+03</pdfrwt>
<pdfrwt beam="2">  1       -2 0.65267795E-01 0.81680844E+03</pdfrwt>
<totfact> 0.17672146E+02</totfact>
</mgrwt>
</event>
<event>
 6    1  0.1934315E-005  0.2264247E+04  0.7818608E-02  0.8492153E-01
         -2   -1    0    0    0  501 -0.00000000000E+00  0.00000000000E+00  0.17685492052E+04  0.17685492052E+04  0.00000000000E+00 0. -1.
          2   -1    0    0  501    0  0.00000000000E+00 -0.00000000000E+00 -0.72472047553E+03  0.72472047553E+03  0.00000000000E+00 0.  1.
         23    2    1    2    0    0 -0.55228810507E+03  0.48316677122E+02  0.16073608635E+04  0.17027476265E+04  0.91563539423E+02 0.  0.
         13    1    3    3    0    0 -0.24522325579E+03  0.44887000288E+02  0.60336373850E+03  0.65283772019E+03  0.00000000000E+00 0.  1.
        -13    1    3    3    0    0 -0.30706484928E+03  0.34296768335E+01  0.10039971250E+04  0.10499099063E+04  0.00000000000E+00 0. -1.
         22    1    1    2    0    0  0.55228810507E+03 -0.48316677122E+02 -0.56353213385E+03  0.79052205420E+03  0.00000000000E+00 0.  1.
<mgrwt>
<rscale>  0 0.22642472E+04</rscale>
<asrwt>0</asrwt>
<pdfrwt beam="1">  1        2 0.11149546E+00 0.22642472E+04</pdfrwt>
<pdfrwt beam="2">  1       -2 0.27208449E+00 0.22642472E+04</pdfrwt>
<totfact> 0.16775831E+00</totfact>
</mgrwt>
</event>
<event>
 6    1  0.1934315E-005  0.2058509E+04  0.7818608E-02  0.8579744E-01
          2   -1    0    0  501    0  0.00000000000E+00  0.00000000000E+00  0.29963973592E+04  0.29963973592E+04  0.00000000000E+00 0.  1.
         -2   -1    0    0    0  501 -0.00000000000E+00 -0.00000000000E+00 -0.35354607084E+03  0.35354607084E+03  0.00000000000E+00 0. -1.
         23    2    1    2    0    0 -0.47290777901E+03 -0.77739278956E+03  0.54780427578E+03  0.10658236211E+04  0.88933402119E+02 0.  0.
         13    1    3    3    0    0 -0.25868931327E+03 -0.50799714620E+03  0.33873436821E+03  0.66311555068E+03  0.00000000000E+00 0.  1.
        -13    1    3    3    0    0 -0.21421846574E+03 -0.26939564335E+03  0.20906990757E+03  0.40270807041E+03  0.00000000000E+00 0. -1.
         22    1    1    2    0    0  0.47290777901E+03  0.77739278956E+03  0.20950470126E+04  0.22841198089E+04  0.00000000000E+00 0.  1.
<mgrwt>
<rscale>  0 0.20585087E+04</rscale>
<asrwt>0</asrwt>
<pdfrwt beam="1">  1        2 0.46098419E+00 0.20585087E+04</pdfrwt>
<pdfrwt beam="2">  1       -2 0.54391705E-01 0.20585087E+04</pdfrwt>
<totfact> 0.51596220E+00</totfact>
</mgrwt>
</event>
<event>
 6    1  0.1934315E-005  0.2324380E+04  0.7818608E-02  0.8468370E-01
          2   -1    0    0  501    0  0.00000000000E+00  0.00000000000E+00  0.24701925444E+04  0.24701925444E+04  0.00000000000E+00 0.  1.
         -2   -1    0    0    0  501 -0.00000000000E+00 -0.00000000000E+00 -0.54679376709E+03  0.54679376709E+03  0.00000000000E+00 0. -1.
         23    2    1    2    0    0  0.68659388013E+03 -0.49833043217E+03 -0.64413788214E+02  0.85570355083E+03  0.91296522038E+02 0.  0.
         13    1    3    3    0    0  0.36824672426E+03 -0.30021040751E+03  0.79772530803E+00  0.47511322342E+03  0.00000000000E+00 0.  1.
        -13    1    3    3    0    0  0.31834715587E+03 -0.19812002466E+03 -0.65211513522E+02  0.38059032741E+03  0.00000000000E+00 0. -1.
         22    1    1    2    0    0 -0.68659388013E+03  0.49833043217E+03  0.19878125656E+04  0.21612827607E+04  0.00000000000E+00 0.  1.
<mgrwt>
<rscale>  0 0.23243803E+04</rscale>
<asrwt>0</asrwt>
<pdfrwt beam="1">  1        2 0.38002962E+00 0.23243803E+04</pdfrwt>
<pdfrwt beam="2">  1       -2 0.84122119E-01 0.23243803E+04</pdfrwt>
<totfact> 0.40432255E+00</totfact>
</mgrwt>
</event>
<event>
 6    1  0.1934315E-005  0.4846499E+04  0.7818608E-02  0.7852632E-01
          2   -1    0    0  501    0  0.00000000000E+00  0.00000000000E+00  0.17946569018E+04  0.17946569018E+04  0.00000000000E+00 0.  1.
         -2   -1    0    0    0  501 -0.00000000000E+00 -0.00000000000E+00 -0.32720119235E+04  0.32720119235E+04  0.00000000000E+00 0. -1.
         23    2    1    2    0    0  0.89902595904E+03  0.22291116032E+04 -0.42400334542E+03  0.24424096978E+04  0.91651952245E+02 0.  0.
         13    1    3    3    0    0  0.57038258017E+03  0.13298789654E+04 -0.28752434750E+03  0.14753252525E+04  0.00000000000E+00 0. -1.
        -13    1    3    3    0    0  0.32864337887E+03  0.89923263780E+03 -0.13647899792E+03  0.96708444524E+03  0.00000000000E+00 0.  1.
         22    1    1    2    0    0 -0.89902595904E+03 -0.22291116032E+04 -0.10533516762E+04  0.26242591275E+04  0.00000000000E+00 0. -1.
<mgrwt>
<rscale>  0 0.48464993E+04</rscale>
<asrwt>0</asrwt>
<pdfrwt beam="1">  1        2 0.27610107E+00 0.48464993E+04</pdfrwt>
<pdfrwt beam="2">  1       -2 0.50338644E+00 0.48464993E+04</pdfrwt>
<totfact> 0.10127176E-02</totfact>
</mgrwt>
</event>
<event>
 6    1  0.1934315E-005  0.3606931E+04  0.7818608E-02  0.8088906E-01
          2   -1    0    0  501    0  0.00000000000E+00  0.00000000000E+00  0.24728814646E+04  0.24728814646E+04  0.00000000000E+00 0.  1.
         -2   -1    0    0    0  501 -0.00000000000E+00 -0.00000000000E+00 -0.13152622249E+04  0.13152622249E+04  0.00000000000E+00 0. -1.
         23    2    1    2    0    0 -0.12308233525E+04 -0.95027884566E+03  0.15362021170E+04  0.21877434257E+04  0.91369267936E+02 0.  0.
         13    1    3    3    0    0 -0.11547027258E+04 -0.88919979605E+03  0.14063000861E+04  0.20252640802E+04  0.00000000000E+00 0.  1.
        -13    1    3    3    0    0 -0.76120626651E+02 -0.61079049612E+02  0.12990203090E+03  0.16247934556E+03  0.00000000000E+00 0. -1.
         22    1    1    2    0    0  0.12308233525E+04  0.95027884566E+03 -0.37858287727E+03  0.16004002638E+04  0.00000000000E+00 0.  1.
<mgrwt>
<rscale>  0 0.36069309E+04</rscale>
<asrwt>0</asrwt>
<pdfrwt beam="1">  1        2 0.38044330E+00 0.36069309E+04</pdfrwt>
<pdfrwt beam="2">  1       -2 0.20234804E+00 0.36069309E+04</pdfrwt>
<totfact> 0.37738502E-01</totfact>
</mgrwt>
</event>
<event>
 6    1  0.1934315E-005  0.4119418E+04  0.7818608E-02  0.7980880E-01
         -2   -1    0    0    0  501 -0.00000000000E+00  0.00000000000E+00  0.23362919755E+04  0.23362919755E+04  0.00000000000E+00 0. -1.
          2   -1    0    0  501    0  0.00000000000E+00 -0.00000000000E+00 -0.18158691122E+04  0.18158691122E+04  0.00000000000E+00 0.  1.
         23    2    1    2    0    0 -0.47487594197E+03  0.10465944181E+04 -0.14613748394E+04  0.18612247791E+04  0.87602630471E+02 0.  0.
         13    1    3    3    0    0 -0.11185992147E+03  0.23929716168E+03 -0.27875013200E+03  0.38402787621E+03  0.00000000000E+00 0. -1.
        -13    1    3    3    0    0 -0.36301602050E+03  0.80729725642E+03 -0.11826247074E+04  0.14771969029E+04  0.00000000000E+00 0.  1.
         22    1    1    2    0    0  0.47487594197E+03 -0.10465944181E+04  0.19817977026E+04  0.22909363086E+04  0.00000000000E+00 0. -1.
<mgrwt>
<rscale>  0 0.41194176E+04</rscale>
<asrwt>0</asrwt>
<pdfrwt beam="1">  1        2 0.27936448E+00 0.41194176E+04</pdfrwt>
<pdfrwt beam="2">  1       -2 0.35942954E+00 0.41194176E+04</pdfrwt>
<totfact> 0.89564244E-02</totfact>
</mgrwt>
</event>
<event>
 6    1  0.1934315E-005  0.2232682E+04  0.7818608E-02  0.8504947E-01
         -1   -1    0    0    0  501 -0.00000000000E+00  0.00000000000E+00  0.51410884857E+03  0.51410884857E+03  0.00000000000E+00 0. -1.
          1   -1    0    0  501    0  0.00000000000E+00 -0.00000000000E+00 -0.24240329421E+04  0.24240329421E+04  0.00000000000E+00 0.  1.
         23    2    1    2    0    0 -0.96171243969E+03  0.55265335455E+03 -0.82605252697E+03  0.13873052036E+04  0.10925384993E+03 0.  0.
         13    1    3    3    0    0 -0.40040944045E+03  0.28628877372E+03 -0.39496212871E+03  0.63109750837E+03  0.00000000000E+00 0.  1.
        -13    1    3    3    0    0 -0.56130299924E+03  0.26636458083E+03 -0.43109039826E+03  0.75620769525E+03  0.00000000000E+00 0. -1.
         22    1    1    2    0    0  0.96171243969E+03 -0.55265335455E+03 -0.10838715665E+04  0.15508365870E+04  0.00000000000E+00 0.  1.
<mgrwt>
<rscale>  0 0.22326816E+04</rscale>
<asrwt>0</asrwt>
<pdfrwt beam="1">  1        1 0.37292815E+00 0.22326816E+04</pdfrwt>
<pdfrwt beam="2">  1       -1 0.79093668E-01 0.22326816E+04</pdfrwt>
<totfact> 0.22216966E+00</totfact>
</mgrwt>
</event>
<event>
 6    1  0.1934315E-005  0.2904133E+04  0.7818608E-02  0.8271649E-01
         -2   -1    0    0    0  501 -0.00000000000E+00  0.00000000000E+00  0.17187777380E+04  0.17187777380E+04  0.00000000000E+00 0. -1.
          2   -1    0    0  501    0  0.00000000000E+00 -0.00000000000E+00 -0.12267418173E+04  0.12267418173E+04  0.00000000000E+00 0.  1.
         23    2    1    2    0    0  0.56612730929E+03  0.99342468421E+03  0.11516688458E+04  0.16254785220E+04  0.91905178151E+02 0.  0.
         13    1    3    3    0    0  0.36136870926E+03  0.59616797243E+03  0.64341007005E+03  0.94867281695E+03  0.00000000000E+00 0.  1.
        -13    1    3    3    0    0  0.20475860003E+03  0.39725671178E+03  0.50825877573E+03  0.67680570509E+03  0.00000000000E+00 0. -1.
         22    1    1    2    0    0 -0.56612730929E+03 -0.99342468421E+03 -0.65963292508E+03  0.13200410332E+04  0.00000000000E+00 0.  1.
<mgrwt>
<rscale>  0 0.29041326E+04</rscale>
<asrwt>0</asrwt>
<pdfrwt beam="1">  1        2 0.18872951E+00 0.29041326E+04</pdfrwt>
<pdfrwt beam="2">  1       -2 0.26442734E+00 0.29041326E+04</pdfrwt>
<totfact> 0.82573906E-01</totfact>
</mgrwt>
</event>
<event>
 6    1  0.1934315E-005  0.2395420E+04  0.7818608E-02  0.8441220E-01
         -2   -1    0    0    0  501 -0.00000000000E+00  0.00000000000E+00  0.84525984025E+03  0.84525984025E+03  0.00000000000E+00 0. -1.
          2   -1    0    0  501    0  0.00000000000E+00 -0.00000000000E+00 -0.16971216422E+04  0.16971216422E+04  0.00000000000E+00 0.  1.
         23    2    1    2    0    0  0.88230409055E+03  0.65597011289E+03 -0.92629397241E+03  0.14404298296E+04  0.89779025186E+02 0.  0.
         11    1    3    3    0    0  0.31236809154E+03  0.18684632471E+03 -0.33402946570E+03  0.49402536132E+03  0.00000000000E+00 0.  1.
        -11    1    3    3    0    0  0.56993599901E+03  0.46912378818E+03 -0.59226450671E+03  0.94640446825E+03  0.00000000000E+00 0. -1.
         22    1    1    2    0    0 -0.88230409055E+03 -0.65597011289E+03  0.74432170502E+02  0.11019516529E+04  0.00000000000E+00 0.  1.
<mgrwt>
<rscale>  0 0.23954196E+04</rscale>
<asrwt>0</asrwt>
<pdfrwt beam="1">  1        2 0.26109564E+00 0.23954196E+04</pdfrwt>
<pdfrwt beam="2">  1       -2 0.13003998E+00 0.23954196E+04</pdfrwt>
<totfact> 0.38430944E+00</totfact>
</mgrwt>
</event>
<event>
 6    1  0.1934315E-005  0.2300107E+04  0.7818608E-02  0.8477879E-01
         -2   -1    0    0    0  501 -0.00000000000E+00  0.00000000000E+00  0.67226293469E+03  0.67226293469E+03  0.00000000000E+00 0. -1.
          2   -1    0    0  501    0  0.00000000000E+00 -0.00000000000E+00 -0.19674184985E+04  0.19674184985E+04  0.00000000000E+00 0.  1.
         23    2    1    2    0    0 -0.67920621849E+00  0.66560491307E+03 -0.17225229085E+04  0.18486863581E+04  0.86750900665E+02 0.  0.
         13    1    3    3    0    0  0.23916829997E+02  0.17776355303E+03 -0.54925714418E+03  0.57780213393E+03  0.00000000000E+00 0. -1.
        -13    1    3    3    0    0 -0.24596036215E+02  0.48784136005E+03 -0.11732657643E+04  0.12708842242E+04  0.00000000000E+00 0.  1.
         22    1    1    2    0    0  0.67920621849E+00 -0.66560491307E+03  0.42736734462E+03  0.79099507513E+03  0.00000000000E+00 0. -1.
<mgrwt>
<rscale>  0 0.23001065E+04</rscale>
<asrwt>0</asrwt>
<pdfrwt beam="1">  1        2 0.30267976E+00 0.23001065E+04</pdfrwt>
<pdfrwt beam="2">  1       -2 0.10342507E+00 0.23001065E+04</pdfrwt>
<totfact> 0.48135213E+00</totfact>
</mgrwt>
</event>
<event>
 6    1  0.1934315E-005  0.3760945E+04  0.7818608E-02  0.8054588E-01
         -2   -1    0    0    0  501 -0.00000000000E+00  0.00000000000E+00  0.22114182710E+04  0.22114182710E+04  0.00000000000E+00 0. -1.
          2   -1    0    0  501    0  0.00000000000E+00 -0.00000000000E+00 -0.15990541587E+04  0.15990541587E+04  0.00000000000E+00 0.  1.
         23    2    1    2    0    0  0.55197630795E+03  0.37342543694E+02  0.21260904409E+04  0.21988149884E+04  0.91948248648E+02 0.  0.
         11    1    3    3    0    0  0.31584741884E+03 -0.73307571150E+01  0.10663141945E+04  0.11121327679E+04  0.00000000000E+00 0.  1.
        -11    1    3    3    0    0  0.23612888911E+03  0.44673300809E+02  0.10597762464E+04  0.10866822205E+04  0.00000000000E+00 0. -1.
         22    1    1    2    0    0 -0.55197630795E+03 -0.37342543694E+02 -0.15137263285E+04  0.16116574412E+04  0.00000000000E+00 0.  1.
<mgrwt>
<rscale>  0 0.37609454E+04</rscale>
<asrwt>0</asrwt>
<pdfrwt beam="1">  1        2 0.24600833E+00 0.37609454E+04</pdfrwt>
<pdfrwt beam="2">  1       -2 0.34021820E+00 0.37609454E+04</pdfrwt>
<totfact> 0.16093825E-01</totfact>
</mgrwt>
</event>
<event>
 6    1  0.1934315E-005  0.4971861E+04  0.7818608E-02  0.7832863E-01
         -2   -1    0    0    0  501 -0.00000000000E+00  0.00000000000E+00  0.11596612857E+04  0.11596612857E+04  0.00000000000E+00 0. -1.
          2   -1    0    0  501    0  0.00000000000E+00 -0.00000000000E+00 -0.53290128193E+04  0.53290128193E+04  0.00000000000E+00 0.  1.
         23    2    1    2    0    0  0.12644576638E+04 -0.94896639235E+01  0.70665240485E+03  0.14513774446E+04  0.90529708180E+02 0.  0.
         13    1    3    3    0    0  0.80001267066E+03  0.32373064342E+02  0.47028145487E+03  0.92856498712E+03  0.00000000000E+00 0. -1.
        -13    1    3    3    0    0  0.46444499313E+03 -0.41862728265E+02  0.23637094999E+03  0.52281245745E+03  0.00000000000E+00 0.  1.
         22    1    1    2    0    0 -0.12644576638E+04  0.94896639235E+01 -0.48760039384E+04  0.50372966604E+04  0.00000000000E+00 0.  1.
<mgrwt>
<rscale>  0 0.49718608E+04</rscale>
<asrwt>0</asrwt>
<pdfrwt beam="1">  1        2 0.81984813E+00 0.49718608E+04</pdfrwt>
<pdfrwt beam="2">  1       -2 0.17840943E+00 0.49718608E+04</pdfrwt>
<totfact> 0.15552801E-03</totfact>
</mgrwt>
</event>
<event>
 6    1  0.1934315E-005  0.2048188E+04  0.7818608E-02  0.8584417E-01
          2   -1    0    0  501    0  0.00000000000E+00  0.00000000000E+00  0.27872049681E+04  0.27872049681E+04  0.00000000000E+00 0.  1.
         -2   -1    0    0    0  501 -0.00000000000E+00 -0.00000000000E+00 -0.37627967176E+03  0.37627967176E+03  0.00000000000E+00 0. -1.
         23    2    1    2    0    0  0.50227707826E+03 -0.44860152664E+02  0.25808931173E+04  0.26313345137E+04  0.92829646563E+02 0.  0.
         13    1    3    3    0    0  0.38268825816E+03 -0.40700360151E+02  0.17460313838E+04  0.17879408311E+04  0.00000000000E+00 0.  1.
        -13    1    3    3    0    0  0.11958882011E+03 -0.41597925128E+01  0.83486173351E+03  0.84339368260E+03  0.00000000000E+00 0. -1.
         22    1    1    2    0    0 -0.50227707826E+03  0.44860152664E+02 -0.16996782096E+03  0.53215012619E+03  0.00000000000E+00 0. -1.
<mgrwt>
<rscale>  0 0.20481880E+04</rscale>
<asrwt>0</asrwt>
<pdfrwt beam="1">  1        2 0.42880075E+00 0.20481880E+04</pdfrwt>
<pdfrwt beam="2">  1       -2 0.57889182E-01 0.20481880E+04</pdfrwt>
<totfact> 0.60924732E+00</totfact>
</mgrwt>
</event>
<event>
 6    1  0.1934315E-005  0.1898364E+04  0.7818608E-02  0.8655671E-01
          2   -1    0    0  501    0  0.00000000000E+00  0.00000000000E+00  0.83148854165E+03  0.83148854165E+03  0.00000000000E+00 0.  1.
         -2   -1    0    0    0  501 -0.00000000000E+00 -0.00000000000E+00 -0.10835349816E+04  0.10835349816E+04  0.00000000000E+00 0. -1.
         23    2    1    2    0    0  0.70666904820E+03  0.45392062078E+03  0.31309306735E+03  0.90269564337E+03  0.10680394228E+03 0.  0.
         11    1    3    3    0    0  0.61574537868E+03  0.43469458504E+03  0.27878768458E+03  0.80363195973E+03  0.00000000000E+00 0. -1.
        -11    1    3    3    0    0  0.90923669520E+02  0.19226035740E+02  0.34305382770E+02  0.99063683639E+02  0.00000000000E+00 0.  1.
         22    1    1    2    0    0 -0.70666904820E+03 -0.45392062078E+03 -0.56513950729E+03  0.10123278799E+04  0.00000000000E+00 0.  1.
<mgrwt>
<rscale>  0 0.18983645E+04</rscale>
<asrwt>0</asrwt>
<pdfrwt beam="1">  1        2 0.12792131E+00 0.18983645E+04</pdfrwt>
<pdfrwt beam="2">  1       -2 0.16669769E+00 0.18983645E+04</pdfrwt>
<totfact> 0.68916652E+00</totfact>
</mgrwt>
</event>
<event>
 6    1  0.1934315E-005  0.2743662E+04  0.7818608E-02  0.8320976E-01
          2   -1    0    0  501    0  0.00000000000E+00  0.00000000000E+00  0.25228030589E+04  0.25228030589E+04  0.00000000000E+00 0.  1.
         -2   -1    0    0    0  501 -0.00000000000E+00 -0.00000000000E+00 -0.74596391163E+03  0.74596391163E+03  0.00000000000E+00 0. -1.
         23    2    1    2    0    0 -0.18844014803E+03 -0.12919332792E+04  0.39337147531E+03  0.13665093417E+04  0.89472767565E+02 0.  0.
         11    1    3    3    0    0 -0.21858320730E+02 -0.34753748979E+03  0.76392865219E+02  0.35650520733E+03  0.00000000000E+00 0.  1.
        -11    1    3    3    0    0 -0.16658182730E+03 -0.94439578936E+03  0.31697861010E+03  0.10100041344E+04  0.00000000000E+00 0. -1.
         22    1    1    2    0    0  0.18844014803E+03  0.12919332792E+04  0.13834676720E+04  0.19022576289E+04  0.00000000000E+00 0.  1.
<mgrwt>
<rscale>  0 0.27436618E+04</rscale>
<asrwt>0</asrwt>
<pdfrwt beam="1">  1        2 0.38812354E+00 0.27436618E+04</pdfrwt>
<pdfrwt beam="2">  1       -2 0.11476368E+00 0.27436618E+04</pdfrwt>
<totfact> 0.17487925E+00</totfact>
</mgrwt>
</event>
<event>
 6    1  0.1934315E-005  0.2221845E+04  0.7818608E-02  0.8509391E-01
         -1   -1    0    0    0  501 -0.00000000000E+00  0.00000000000E+00  0.96405881968E+03  0.96405881968E+03  0.00000000000E+00 0.  1.
          1   -1    0    0  501    0  0.00000000000E+00 -0.00000000000E+00 -0.12801588420E+04  0.12801588420E+04  0.00000000000E+00 0. -1.
         23    2    1    2    0    0 -0.41201128304E+03 -0.79167085669E+03  0.50675074042E+03  0.10303068658E+04  0.90773796157E+02 0.  0.
         13    1    3    3    0    0 -0.23557259517E+03 -0.35868947748E+03  0.25770694006E+03  0.50056513643E+03  0.00000000000E+00 0. -1.
        -13    1    3    3    0    0 -0.17643868787E+03 -0.43298137920E+03  0.24904380036E+03  0.52974172934E+03  0.00000000000E+00 0.  1.
         22    1    1    2    0    0  0.41201128304E+03  0.79167085669E+03 -0.82285076277E+03  0.12139107959E+04  0.00000000000E+00 0. -1.
<mgrwt>
<rscale>  0 0.22218447E+04</rscale>
<asrwt>0</asrwt>
<pdfrwt beam="1">  1        1 0.19694751E+00 0.22218447E+04</pdfrwt>
<pdfrwt beam="2">  1       -1 0.14831674E+00 0.22218447E+04</pdfrwt>
<totfact> 0.30594159E+00</totfact>
</mgrwt>
</event>
<event>
 6    1  0.1934315E-005  0.3331433E+04  0.7818608E-02  0.8154943E-01
         -2   -1    0    0    0  501 -0.00000000000E+00  0.00000000000E+00  0.12914915140E+04  0.12914915140E+04  0.00000000000E+00 0. -1.
          2   -1    0    0  501    0  0.00000000000E+00 -0.00000000000E+00 -0.21483770940E+04  0.21483770940E+04  0.00000000000E+00 0.  1.
         23    2    1    2    0    0  0.11320427241E+04 -0.35620623855E+03  0.77634960760E+03  0.14209924870E+04  0.89985118485E+02 0.  0.
         11    1    3    3    0    0  0.36084570684E+03 -0.10755233114E+03  0.29665711961E+03  0.47935641718E+03  0.00000000000E+00 0. -1.
        -11    1    3    3    0    0  0.77119701722E+03 -0.24865390741E+03  0.47969248799E+03  0.94163606986E+03  0.00000000000E+00 0.  1.
         22    1    1    2    0    0 -0.11320427241E+04  0.35620623855E+03 -0.16332351876E+04  0.20188761209E+04  0.00000000000E+00 0.  1.
<mgrwt>
<rscale>  0 0.33314326E+04</rscale>
<asrwt>0</asrwt>
<pdfrwt beam="1">  1        2 0.33051955E+00 0.33314326E+04</pdfrwt>
<pdfrwt beam="2">  1       -2 0.19869100E+00 0.33314326E+04</pdfrwt>
<totfact> 0.62394348E-01</totfact>
</mgrwt>
</event>
<event>
 6    1  0.1934315E-005  0.2513226E+04  0.7818608E-02  0.8398289E-01
          1   -1    0    0  501    0  0.00000000000E+00  0.00000000000E+00  0.18949024275E+04  0.18949024275E+04  0.00000000000E+00 0. -1.
         -1   -1    0    0    0  501 -0.00000000000E+00 -0.00000000000E+00 -0.83332870983E+03  0.83332870983E+03  0.00000000000E+00 0.  1.
         23    2    1    2    0    0 -0.86794894135E+03 -0.75602973274E+03  0.10742458478E+04  0.15771112893E+04  0.91430606472E+02 0.  0.
         11    1    3    3    0    0 -0.45410006051E+03 -0.45359888796E+03  0.61381428403E+03  0.88810291712E+03  0.00000000000E+00 0.  1.
        -11    1    3    3    0    0 -0.41384888084E+03 -0.30243084479E+03  0.46043156381E+03  0.68900837223E+03  0.00000000000E+00 0. -1.
         22    1    1    2    0    0  0.86794894135E+03  0.75602973274E+03 -0.12672130152E+02  0.11511198480E+04  0.00000000000E+00 0.  1.
<mgrwt>
<rscale>  0 0.25132263E+04</rscale>
<asrwt>0</asrwt>
<pdfrwt beam="1">  1        1 0.29152345E+00 0.25132263E+04</pdfrwt>
<pdfrwt beam="2">  1       -1 0.12820442E+00 0.25132263E+04</pdfrwt>
<totfact> 0.16367534E+00</totfact>
</mgrwt>
</event>
<event>
 6    1  0.1934315E-005  0.1109831E+04  0.7818608E-02  0.9195663E-01
         -1   -1    0    0    0  501 -0.00000000000E+00  0.00000000000E+00  0.58223111841E+03  0.58223111841E+03  0.00000000000E+00 0.  1.
          1   -1    0    0  501    0  0.00000000000E+00 -0.00000000000E+00 -0.52888134940E+03  0.52888134940E+03  0.00000000000E+00 0. -1.
         23    2    1    2    0    0  0.19817668881E+03  0.16674404876E+03  0.51404840990E+03  0.58260436428E+03  0.90024995249E+02 0.  0.
         11    1    3    3    0    0  0.17734988646E+03  0.17176921360E+03  0.42972571246E+03  0.49560249486E+03  0.00000000000E+00 0.  1.
        -11    1    3    3    0    0  0.20826802358E+02 -0.50251648369E+01  0.84322697445E+02  0.87001869420E+02  0.00000000000E+00 0. -1.
         22    1    1    2    0    0 -0.19817668881E+03 -0.16674404876E+03 -0.46069864089E+03  0.52850810353E+03  0.00000000000E+00 0. -1.
<mgrwt>
<rscale>  0 0.11098309E+04</rscale>
<asrwt>0</asrwt>
<pdfrwt beam="1">  1        1 0.81366361E-01 0.11098309E+04</pdfrwt>
<pdfrwt beam="2">  1       -1 0.89574019E-01 0.11098309E+04</pdfrwt>
<totfact> 0.49856144E+01</totfact>
</mgrwt>
</event>
<event>
 6    1  0.1934315E-005  0.5374769E+04  0.7818608E-02  0.7773160E-01
         -2   -1    0    0    0  501 -0.00000000000E+00  0.00000000000E+00  0.32450667229E+04  0.32450667229E+04  0.00000000000E+00 0. -1.
          2   -1    0    0  501    0  0.00000000000E+00 -0.00000000000E+00 -0.22255432421E+04  0.22255432421E+04  0.00000000000E+00 0.  1.
         23    2    1    2    0    0 -0.28836665817E+03 -0.88169266738E+03 -0.20563856157E+04  0.22578612883E+04  0.93158507456E+02 0.  0.
         13    1    3    3    0    0 -0.24710110999E+03 -0.77633092962E+03 -0.18707946943E+04  0.20404953955E+04  0.00000000000E+00 0. -1.
        -13    1    3    3    0    0 -0.41265548177E+02 -0.10536173776E+03 -0.18559092149E+03  0.21736589288E+03  0.00000000000E+00 0.  1.
         22    1    1    2    0    0  0.28836665817E+03  0.88169266738E+03  0.30759090965E+04  0.32127486766E+04  0.00000000000E+00 0. -1.
<mgrwt>
<rscale>  0 0.53747693E+04</rscale>
<asrwt>0</asrwt>
<pdfrwt beam="1">  1        2 0.34239127E+00 0.53747693E+04</pdfrwt>
<pdfrwt beam="2">  1       -2 0.49924103E+00 0.53747693E+04</pdfrwt>
<totfact> 0.59385299E-03</totfact>
</mgrwt>
</event>
<event>
 6    1  0.1934315E-005  0.5388550E+04  0.7818608E-02  0.7771214E-01
         -2   -1    0    0    0  501 -0.00000000000E+00  0.00000000000E+00  0.26477999233E+04  0.26477999233E+04  0.00000000000E+00 0. -1.
          2   -1    0    0  501    0  0.00000000000E+00 -0.00000000000E+00 -0.27415658708E+04  0.27415658708E+04  0.00000000000E+00 0.  1.
         23    2    1    2    0    0  0.30224974634E+03  0.26690172686E+04 -0.24680721176E+03  0.26989327959E+04  0.91194010331E+02 0.  0.
         11    1    3    3    0    0  0.10088732359E+03  0.10218046189E+04 -0.13633863932E+03  0.10357852847E+04  0.00000000000E+00 0. -1.
        -11    1    3    3    0    0  0.20136242275E+03  0.16472126497E+04 -0.11046857244E+03  0.16631475112E+04  0.00000000000E+00 0.  1.
         22    1    1    2    0    0 -0.30224974634E+03 -0.26690172686E+04  0.15304126417E+03  0.26904329982E+04  0.00000000000E+00 0.  1.
<mgrwt>
<rscale>  0 0.53885500E+04</rscale>
<asrwt>0</asrwt>
<pdfrwt beam="1">  1        2 0.42177937E+00 0.53885500E+04</pdfrwt>
<pdfrwt beam="2">  1       -2 0.40735383E+00 0.53885500E+04</pdfrwt>
<totfact> 0.11773651E-02</totfact>
</mgrwt>
</event>
<event>
 6    1  0.1934315E-005  0.1605462E+04  0.7818608E-02  0.8817200E-01
          1   -1    0    0  501    0  0.00000000000E+00  0.00000000000E+00  0.12000778278E+04  0.12000778278E+04  0.00000000000E+00 0.  1.
         -1   -1    0    0    0  501 -0.00000000000E+00 -0.00000000000E+00 -0.53694595671E+03  0.53694595671E+03  0.00000000000E+00 0. -1.
         23    2    1    2    0    0  0.70694584255E+03  0.16931916549E+03  0.69418740308E+03  0.10094209738E+04  0.92699232375E+02 0.  0.
         13    1    3    3    0    0  0.46010936875E+03  0.14228143692E+03  0.49972743334E+03  0.69402604139E+03  0.00000000000E+00 0.  1.
        -13    1    3    3    0    0  0.24683647381E+03  0.27037728575E+02  0.19445996974E+03  0.31539493242E+03  0.00000000000E+00 0. -1.
         22    1    1    2    0    0 -0.70694584255E+03 -0.16931916549E+03 -0.31055531960E+02  0.72760281072E+03  0.00000000000E+00 0. -1.
<mgrwt>
<rscale>  0 0.16054618E+04</rscale>
<asrwt>0</asrwt>
<pdfrwt beam="1">  1        1 0.18462736E+00 0.16054618E+04</pdfrwt>
<pdfrwt beam="2">  1       -1 0.82607071E-01 0.16054618E+04</pdfrwt>
<totfact> 0.14924586E+01</totfact>
</mgrwt>
</event>
<event>
 6    1  0.1934315E-005  0.2857361E+03  0.7818608E-02  0.1092597E+00
         -2   -1    0    0    0  501 -0.00000000000E+00  0.00000000000E+00  0.23318496118E+02  0.23318496118E+02  0.00000000000E+00 0. -1.
          2   -1    0    0  501    0  0.00000000000E+00 -0.00000000000E+00 -0.87532577132E+03  0.87532577132E+03  0.00000000000E+00 0.  1.
         23    2    1    2    0    0  0.11224817720E+03  0.59254986471E+02 -0.52015168894E+03  0.54334307571E+03  0.92483034743E+02 0.  0.
         13    1    3    3    0    0  0.28024001105E+02  0.28392515925E+02 -0.33754537704E+03  0.33989463244E+03  0.00000000000E+00 0. -1.
        -13    1    3    3    0    0  0.84224176093E+02  0.30862470546E+02 -0.18260631190E+03  0.20344844328E+03  0.00000000000E+00 0.  1.
         22    1    1    2    0    0 -0.11224817720E+03 -0.59254986471E+02 -0.33185558627E+03  0.35530119173E+03  0.00000000000E+00 0. -1.
<mgrwt>
<rscale>  0 0.28573611E+03</rscale>
<asrwt>0</asrwt>
<pdfrwt beam="1">  1        2 0.13466550E+00 0.28573611E+03</pdfrwt>
<pdfrwt beam="2">  1       -2 0.35874611E-02 0.28573611E+03</pdfrwt>
<totfact> 0.10200320E+04</totfact>
</mgrwt>
</event>
<event>
 6    1  0.1934315E-005  0.3086483E+04  0.7818608E-02  0.8219457E-01
          2   -1    0    0  501    0  0.00000000000E+00  0.00000000000E+00  0.58017723073E+03  0.58017723073E+03  0.00000000000E+00 0.  1.
         -2   -1    0    0    0  501 -0.00000000000E+00 -0.00000000000E+00 -0.41049436026E+04  0.41049436026E+04  0.00000000000E+00 0. -1.
         23    2    1    2    0    0 -0.11898479670E+04 -0.96772566797E+03 -0.15232520521E+04  0.21635556993E+04  0.91898294272E+02 0.  0.
         11    1    3    3    0    0 -0.46143106482E+03 -0.43353664903E+03 -0.63049245747E+03  0.89352861877E+03  0.00000000000E+00 0.  1.
        -11    1    3    3    0    0 -0.72841690222E+03 -0.53418901894E+03 -0.89275959461E+03  0.12700270805E+04  0.00000000000E+00 0. -1.
         22    1    1    2    0    0  0.11898479670E+04  0.96772566797E+03 -0.20015143198E+04  0.25215651341E+04  0.00000000000E+00 0.  1.
<mgrwt>
<rscale>  0 0.30864833E+04</rscale>
<asrwt>0</asrwt>
<pdfrwt beam="1">  1        2 0.89258034E-01 0.30864833E+04</pdfrwt>
<pdfrwt beam="2">  1       -2 0.63152979E+00 0.30864833E+04</pdfrwt>
<totfact> 0.16847754E-02</totfact>
</mgrwt>
</event>
<event>
 6    1  0.1934315E-005  0.2673267E+04  0.7818608E-02  0.8343731E-01
          2   -1    0    0  501    0  0.00000000000E+00  0.00000000000E+00  0.84163247113E+03  0.84163247113E+03  0.00000000000E+00 0.  1.
         -2   -1    0    0    0  501 -0.00000000000E+00 -0.00000000000E+00 -0.21227664378E+04  0.21227664378E+04  0.00000000000E+00 0. -1.
         23    2    1    2    0    0  0.10542949121E+04 -0.74446900485E+03 -0.26249093309E+03  0.13201953051E+04  0.90787074704E+02 0.  0.
         13    1    3    3    0    0  0.54599841286E+02 -0.52843088549E+02  0.25051837209E+01  0.76025065744E+02  0.00000000000E+00 0. -1.
        -13    1    3    3    0    0  0.99969507080E+03 -0.69162591630E+03 -0.26499611681E+03  0.12441702394E+04  0.00000000000E+00 0.  1.
         22    1    1    2    0    0 -0.10542949121E+04  0.74446900485E+03 -0.10186430336E+04  0.16442036038E+04  0.00000000000E+00 0. -1.
<mgrwt>
<rscale>  0 0.26732670E+04</rscale>
<asrwt>0</asrwt>
<pdfrwt beam="1">  1        2 0.12948192E+00 0.26732670E+04</pdfrwt>
<pdfrwt beam="2">  1       -2 0.32657945E+00 0.26732670E+04</pdfrwt>
<totfact> 0.61666770E-01</totfact>
</mgrwt>
</event>
<event>
 6    1  0.1934315E-005  0.1927003E+04  0.7818608E-02  0.8641531E-01
         -2   -1    0    0    0  501 -0.00000000000E+00  0.00000000000E+00  0.53989956364E+03  0.53989956364E+03  0.00000000000E+00 0. -1.
          2   -1    0    0  501    0  0.00000000000E+00 -0.00000000000E+00 -0.17194584207E+04  0.17194584207E+04  0.00000000000E+00 0.  1.
         23    2    1    2    0    0 -0.55900685448E+03 -0.77724276592E+03 -0.49091054264E+03  0.10800227981E+04  0.94133432175E+02 0.  0.
         13    1    3    3    0    0 -0.26798364734E+03 -0.30245816290E+03 -0.18188066042E+03  0.44314416410E+03  0.00000000000E+00 0.  1.
        -13    1    3    3    0    0 -0.29102320714E+03 -0.47478460302E+03 -0.30902988222E+03  0.63687863401E+03  0.00000000000E+00 0. -1.
         22    1    1    2    0    0  0.55900685448E+03  0.77724276592E+03 -0.68864831444E+03  0.11793351862E+04  0.00000000000E+00 0. -1.
<mgrwt>
<rscale>  0 0.19270027E+04</rscale>
<asrwt>0</asrwt>
<pdfrwt beam="1">  1        2 0.26453206E+00 0.19270027E+04</pdfrwt>
<pdfrwt beam="2">  1       -2 0.83061472E-01 0.19270027E+04</pdfrwt>
<totfact> 0.11350447E+01</totfact>
</mgrwt>
</event>
<event>
 6    1  0.2152892E-005  0.4233617E+04  0.7818608E-02  0.7959008E-01
          2   -1    0    0  501    0  0.00000000000E+00  0.00000000000E+00  0.18507983960E+04  0.18507983960E+04  0.00000000000E+00 0.  1.
         -2   -1    0    0    0  501 -0.00000000000E+00 -0.00000000000E+00 -0.24210510151E+04  0.24210510151E+04  0.00000000000E+00 0. -1.
         23    2    1    2    0    0 -0.61251726406E+03 -0.15413119455E+03  0.17522926177E+04  0.18649530277E+04  0.92663658516E+02 0.  0.
         11    1    3    3    0    0 -0.37785796351E+03 -0.13989475476E+03  0.11365368483E+04  0.12058454257E+04  0.00000000000E+00 0.  1.
        -11    1    3    3    0    0 -0.23465930055E+03 -0.14236439786E+02  0.61575576937E+03  0.65910760203E+03  0.00000000000E+00 0. -1.
         22    1    1    2    0    0  0.61251726406E+03  0.15413119455E+03 -0.23225452367E+04  0.24068963834E+04  0.00000000000E+00 0. -1.
<mgrwt>
<rscale>  0 0.42336166E+04</rscale>
<asrwt>0</asrwt>
<pdfrwt beam="1">  1        2 0.28473821E+00 0.42336166E+04</pdfrwt>
<pdfrwt beam="2">  1       -2 0.37246939E+00 0.42336166E+04</pdfrwt>
<totfact> 0.70062828E-02</totfact>
</mgrwt>
</event>
<event>
 6    1  0.2349907E-005  0.2479305E+04  0.7818608E-02  0.8410396E-01
          2   -1    0    0  501    0  0.00000000000E+00  0.00000000000E+00  0.11943803135E+04  0.11943803135E+04  0.00000000000E+00 0.  1.
         -2   -1    0    0    0  501 -0.00000000000E+00 -0.00000000000E+00 -0.12866405253E+04  0.12866405253E+04  0.00000000000E+00 0. -1.
         23    2    1    2    0    0 -0.35337079098E+03 -0.84269870397E+03 -0.88199949932E+03  0.12732542373E+04  0.90781134179E+02 0.  0.
         11    1    3    3    0    0 -0.99579595225E+02 -0.19899329970E+03 -0.26649982965E+03  0.34718379615E+03  0.00000000000E+00 0. -1.
        -11    1    3    3    0    0 -0.25379119576E+03 -0.64370540427E+03 -0.61549966967E+03  0.92607044111E+03  0.00000000000E+00 0.  1.
         22    1    1    2    0    0  0.35337079098E+03  0.84269870397E+03  0.78973928749E+03  0.12077666015E+04  0.00000000000E+00 0.  1.
<mgrwt>
<rscale>  0 0.24793048E+04</rscale>
<asrwt>0</asrwt>
<pdfrwt beam="1">  1        2 0.18375082E+00 0.24793048E+04</pdfrwt>
<pdfrwt beam="2">  1       -2 0.19794470E+00 0.24793048E+04</pdfrwt>
<totfact> 0.23398514E+00</totfact>
</mgrwt>
</event>
<event>
 6    1  0.1934315E-005  0.5526174E+04  0.7818608E-02  0.7752098E-01
          2   -1    0    0  501    0  0.00000000000E+00  0.00000000000E+00  0.22816962489E+04  0.22816962489E+04  0.00000000000E+00 0.  1.
         -2   -1    0    0    0  501 -0.00000000000E+00 -0.00000000000E+00 -0.33460412089E+04  0.33460412089E+04  0.00000000000E+00 0. -1.
         23    2    1    2    0    0 -0.13430500482E+04  0.24018597975E+04 -0.28779654308E+03  0.27684121243E+04  0.92546855905E+02 0.  0.
         13    1    3    3    0    0 -0.10931781952E+04  0.20184098676E+04 -0.25513706786E+03  0.23095696317E+04  0.00000000000E+00 0.  1.
        -13    1    3    3    0    0 -0.24987185304E+03  0.38344992993E+03 -0.32659475215E+02  0.45884249262E+03  0.00000000000E+00 0. -1.
         22    1    1    2    0    0  0.13430500482E+04 -0.24018597975E+04 -0.77654841689E+03  0.28593253335E+04  0.00000000000E+00 0. -1.
<mgrwt>
<rscale>  0 0.55261740E+04</rscale>
<asrwt>0</asrwt>
<pdfrwt beam="1">  1        2 0.35103019E+00 0.55261740E+04</pdfrwt>
<pdfrwt beam="2">  1       -2 0.51477557E+00 0.55261740E+04</pdfrwt>
<totfact> 0.43981158E-03</totfact>
</mgrwt>
</event>
<event>
 6    1  0.1934315E-005  0.5134163E+03  0.7818608E-02  0.1010335E+00
          2   -1    0    0  501    0  0.00000000000E+00  0.00000000000E+00  0.13628176796E+04  0.13628176796E+04  0.00000000000E+00 0.  1.
         -2   -1    0    0    0  501 -0.00000000000E+00 -0.00000000000E+00 -0.48355026472E+02  0.48355026472E+02  0.00000000000E+00 0. -1.
         23    2    1    2    0    0 -0.16336130311E+03  0.10475275244E+03  0.25322222815E+03  0.33233476917E+03  0.93085162462E+02 0.  0.
         13    1    3    3    0    0 -0.23880511629E+02  0.64536493942E+02  0.65198391524E+02  0.94794874035E+02  0.00000000000E+00 0. -1.
        -13    1    3    3    0    0 -0.13948079148E+03  0.40216258498E+02  0.18802383663E+03  0.23753989514E+03  0.00000000000E+00 0.  1.
         22    1    1    2    0    0  0.16336130311E+03 -0.10475275244E+03  0.10612404250E+04  0.10788379369E+04  0.00000000000E+00 0.  1.
<mgrwt>
<rscale>  0 0.51341634E+03</rscale>
<asrwt>0</asrwt>
<pdfrwt beam="1">  1        2 0.20966423E+00 0.51341634E+03</pdfrwt>
<pdfrwt beam="2">  1       -2 0.74392359E-02 0.51341634E+03</pdfrwt>
<totfact> 0.17059388E+03</totfact>
</mgrwt>
</event>
<event>
 6    1  0.1934315E-005  0.9221623E+03  0.7818608E-02  0.9398294E-01
          2   -1    0    0  501    0  0.00000000000E+00  0.00000000000E+00  0.50062689667E+04  0.50062689667E+04  0.00000000000E+00 0.  1.
         -2   -1    0    0    0  501 -0.00000000000E+00 -0.00000000000E+00 -0.42465924263E+02  0.42465924263E+02  0.00000000000E+00 0. -1.
         23    2    1    2    0    0  0.54054953153E+02 -0.23763316849E+03  0.46198340133E+04  0.46271828138E+04  0.92536595433E+02 0.  0.
         13    1    3    3    0    0  0.42067550875E+02 -0.63141819028E+02  0.20501167812E+04  0.20515202619E+04  0.00000000000E+00 0. -1.
        -13    1    3    3    0    0  0.11987402278E+02 -0.17449134946E+03  0.25697172321E+04  0.25756625520E+04  0.00000000000E+00 0.  1.
         22    1    1    2    0    0 -0.54054953153E+02  0.23763316849E+03  0.34396902914E+03  0.42155207713E+03  0.00000000000E+00 0. -1.
<mgrwt>
<rscale>  0 0.92216233E+03</rscale>
<asrwt>0</asrwt>
<pdfrwt beam="1">  1        2 0.77019476E+00 0.92216233E+03</pdfrwt>
<pdfrwt beam="2">  1       -2 0.65332231E-02 0.92216233E+03</pdfrwt>
<totfact> 0.51742165E+00</totfact>
</mgrwt>
</event>
<event>
 6    1  0.1934315E-005  0.1880444E+04  0.7818608E-02  0.8664653E-01
         -1   -1    0    0    0  501 -0.00000000000E+00  0.00000000000E+00  0.38465342411E+03  0.38465342411E+03  0.00000000000E+00 0. -1.
          1   -1    0    0  501    0  0.00000000000E+00 -0.00000000000E+00 -0.22982167846E+04  0.22982167846E+04  0.00000000000E+00 0.  1.
         23    2    1    2    0    0  0.60326611866E+03 -0.69545972681E+03 -0.12147086074E+04  0.15270189175E+04  0.93142535021E+02 0.  0.
         11    1    3    3    0    0  0.10353159360E+03 -0.14979178621E+03 -0.29421156064E+03  0.34600117414E+03  0.00000000000E+00 0. -1.
        -11    1    3    3    0    0  0.49973452506E+03 -0.54566794060E+03 -0.92049704679E+03  0.11810177433E+04  0.00000000000E+00 0.  1.
         22    1    1    2    0    0 -0.60326611866E+03  0.69545972681E+03 -0.69885475304E+03  0.11558512912E+04  0.00000000000E+00 0. -1.
<mgrwt>
<rscale>  0 0.18804435E+04</rscale>
<asrwt>0</asrwt>
<pdfrwt beam="1">  1        1 0.35357182E+00 0.18804435E+04</pdfrwt>
<pdfrwt beam="2">  1       -1 0.59177449E-01 0.18804435E+04</pdfrwt>
<totfact> 0.50649577E+00</totfact>
</mgrwt>
</event>
<event>
 6    1  0.1934315E-005  0.2482852E+04  0.7818608E-02  0.8409120E-01
         -2   -1    0    0    0  501 -0.00000000000E+00  0.00000000000E+00  0.10967415336E+04  0.10967415336E+04  0.00000000000E+00 0. -1.
          2   -1    0    0  501    0  0.00000000000E+00 -0.00000000000E+00 -0.14051979506E+04  0.14051979506E+04  0.00000000000E+00 0.  1.
         23    2    1    2    0    0 -0.22677069864E+03 -0.62479762688E+03  0.90008259145E+03  0.11226775224E+04  0.91973493888E+02 0.  0.
         11    1    3    3    0    0 -0.10912740268E+03 -0.39138722234E+03  0.49236582494E+03  0.63837046720E+03  0.00000000000E+00 0.  1.
        -11    1    3    3    0    0 -0.11764329597E+03 -0.23341040455E+03  0.40771676651E+03  0.48430705521E+03  0.00000000000E+00 0. -1.
         22    1    1    2    0    0  0.22677069864E+03  0.62479762688E+03 -0.12085390085E+04  0.13792619618E+04  0.00000000000E+00 0.  1.
<mgrwt>
<rscale>  0 0.24828524E+04</rscale>
<asrwt>0</asrwt>
<pdfrwt beam="1">  1        2 0.21618430E+00 0.24828524E+04</pdfrwt>
<pdfrwt beam="2">  1       -2 0.16872947E+00 0.24828524E+04</pdfrwt>
<totfact> 0.27938566E+00</totfact>
</mgrwt>
</event>
<event>
 6    1  0.1934315E-005  0.1736784E+04  0.7818608E-02  0.8740659E-01
         -4   -1    0    0    0  501 -0.00000000000E+00  0.00000000000E+00  0.15947723277E+04  0.15947723277E+04  0.00000000000E+00 0. -1.
          4   -1    0    0  501    0  0.00000000000E+00 -0.00000000000E+00 -0.47286054651E+03  0.47286054651E+03  0.00000000000E+00 0.  1.
         23    2    1    2    0    0 -0.75329278638E+03  0.39190784202E+03  0.76541804901E+03  0.11466933758E+04  0.89437853960E+02 0.  0.
         11    1    3    3    0    0 -0.65703707627E+03  0.36915974537E+03  0.69594988078E+03  0.10258278967E+04  0.00000000000E+00 0.  1.
        -11    1    3    3    0    0 -0.96255710113E+02  0.22748096645E+02  0.69468168232E+02  0.12086547906E+03  0.00000000000E+00 0. -1.
         22    1    1    2    0    0  0.75329278638E+03 -0.39190784202E+03  0.35649373218E+03  0.92093949841E+03  0.00000000000E+00 0.  1.
<mgrwt>
<rscale>  0 0.17367843E+04</rscale>
<asrwt>0</asrwt>
<pdfrwt beam="1">  1        4 0.72747777E-01 0.17367843E+04</pdfrwt>
<pdfrwt beam="2">  1       -4 0.24534959E+00 0.17367843E+04</pdfrwt>
<totfact> 0.22048698E-01</totfact>
</mgrwt>
</event>
<event>
 6    1  0.1934315E-005  0.2558051E+04  0.7818608E-02  0.8382592E-01
          2   -1    0    0  501    0  0.00000000000E+00  0.00000000000E+00  0.15236618853E+04  0.15236618853E+04  0.00000000000E+00 0.  1.
         -2   -1    0    0    0  501 -0.00000000000E+00 -0.00000000000E+00 -0.10736673372E+04  0.10736673372E+04  0.00000000000E+00 0. -1.
         23    2    1    2    0    0 -0.11083866324E+04  0.61091516567E+03  0.48632242469E+02  0.12696131508E+04  0.88397913549E+02 0.  0.
         13    1    3    3    0    0 -0.37511170949E+03  0.21995873624E+03 -0.23652921488E+02  0.43548834765E+03  0.00000000000E+00 0. -1.
        -13    1    3    3    0    0 -0.73327492291E+03  0.39095642942E+03  0.72285163957E+02  0.83412480313E+03  0.00000000000E+00 0.  1.
         22    1    1    2    0    0  0.11083866324E+04 -0.61091516567E+03  0.40136230562E+03  0.13277160716E+04  0.00000000000E+00 0. -1.
<mgrwt>
<rscale>  0 0.25580508E+04</rscale>
<asrwt>0</asrwt>
<pdfrwt beam="1">  1        2 0.23440952E+00 0.25580508E+04</pdfrwt>
<pdfrwt beam="2">  1       -2 0.16517959E+00 0.25580508E+04</pdfrwt>
<totfact> 0.25224149E+00</totfact>
</mgrwt>
</event>
<event>
 6    1  0.1934315E-005  0.3099354E+04  0.7818608E-02  0.8215915E-01
          2   -1    0    0  501    0  0.00000000000E+00  0.00000000000E+00  0.37467694658E+04  0.37467694658E+04  0.00000000000E+00 0.  1.
         -2   -1    0    0    0  501 -0.00000000000E+00 -0.00000000000E+00 -0.64095179282E+03  0.64095179282E+03  0.00000000000E+00 0. -1.
         23    2    1    2    0    0  0.45229873628E+03 -0.12036434229E+04  0.27753976281E+04  0.30601260484E+04  0.90596918438E+02 0.  0.
         11    1    3    3    0    0 -0.26056070516E+01 -0.32044529246E+02  0.73197276837E+02  0.79946747145E+02  0.00000000000E+00 0. -1.
        -11    1    3    3    0    0  0.45490434334E+03 -0.11715988936E+04  0.27022003512E+04  0.29801793012E+04  0.00000000000E+00 0.  1.
         22    1    1    2    0    0 -0.45229873628E+03  0.12036434229E+04  0.33042004494E+03  0.13275952103E+04  0.00000000000E+00 0.  1.
<mgrwt>
<rscale>  0 0.30993539E+04</rscale>
<asrwt>0</asrwt>
<pdfrwt beam="1">  1        2 0.57642606E+00 0.30993539E+04</pdfrwt>
<pdfrwt beam="2">  1       -2 0.98607970E-01 0.30993539E+04</pdfrwt>
<totfact> 0.39013356E-01</totfact>
</mgrwt>
</event>
<event>
 6    1  0.1934315E-005  0.2209808E+04  0.7818608E-02  0.8514357E-01
         -2   -1    0    0    0  501 -0.00000000000E+00  0.00000000000E+00  0.68738803554E+03  0.68738803554E+03  0.00000000000E+00 0. -1.
          2   -1    0    0  501    0  0.00000000000E+00 -0.00000000000E+00 -0.17760167248E+04  0.17760167248E+04  0.00000000000E+00 0.  1.
         23    2    1    2    0    0  0.44128315091E+03 -0.75064232260E+03 -0.13001301488E+04  0.15673424952E+04  0.89606794933E+02 0.  0.
         13    1    3    3    0    0  0.37980027983E+03 -0.58108838563E+03 -0.10044355223E+04  0.12209843090E+04  0.00000000000E+00 0. -1.
        -13    1    3    3    0    0  0.61482871074E+02 -0.16955393696E+03 -0.29569462652E+03  0.34635818617E+03  0.00000000000E+00 0.  1.
         22    1    1    2    0    0 -0.44128315091E+03  0.75064232260E+03  0.21150145948E+03  0.89606226520E+03  0.00000000000E+00 0. -1.
<mgrwt>
<rscale>  0 0.22098078E+04</rscale>
<asrwt>0</asrwt>
<pdfrwt beam="1">  1        2 0.27323334E+00 0.22098078E+04</pdfrwt>
<pdfrwt beam="2">  1       -2 0.10575201E+00 0.22098078E+04</pdfrwt>
<totfact> 0.58719750E+00</totfact>
</mgrwt>
</event>
<event>
 6    1  0.1934315E-005  0.1498850E+04  0.7818608E-02  0.8885218E-01
         -2   -1    0    0    0  501 -0.00000000000E+00  0.00000000000E+00  0.11976265400E+04  0.11976265400E+04  0.00000000000E+00 0. -1.
          2   -1    0    0  501    0  0.00000000000E+00 -0.00000000000E+00 -0.46895919880E+03  0.46895919880E+03  0.00000000000E+00 0.  1.
         23    2    1    2    0    0  0.17395732454E+02  0.40713495093E+03 -0.32998318294E+03  0.53221260264E+03  0.91103642105E+02 0.  0.
         13    1    3    3    0    0  0.47716842484E+02  0.24487428965E+03 -0.16683441757E+03  0.30012337076E+03  0.00000000000E+00 0. -1.
        -13    1    3    3    0    0 -0.30321110030E+02  0.16226066128E+03 -0.16314876537E+03  0.23208923188E+03  0.00000000000E+00 0.  1.
         22    1    1    2    0    0 -0.17395732454E+02 -0.40713495093E+03  0.10586505241E+04  0.11343731361E+04  0.00000000000E+00 0. -1.
<mgrwt>
<rscale>  0 0.14988502E+04</rscale>
<asrwt>0</asrwt>
<pdfrwt beam="1">  1        2 0.72147569E-01 0.14988502E+04</pdfrwt>
<pdfrwt beam="2">  1       -2 0.18425024E+00 0.14988502E+04</pdfrwt>
<totfact> 0.10853478E+01</totfact>
</mgrwt>
</event>
<event>
 6    1  0.1934315E-005  0.1475926E+04  0.7818608E-02  0.8900622E-01
         -2   -1    0    0    0  501 -0.00000000000E+00  0.00000000000E+00  0.73162583581E+03  0.73162583581E+03  0.00000000000E+00 0. -1.
          2   -1    0    0  501    0  0.00000000000E+00 -0.00000000000E+00 -0.74435482105E+03  0.74435482105E+03  0.00000000000E+00 0.  1.
         23    2    1    2    0    0 -0.69904224379E+03 -0.22931992265E+03  0.10983879642E+01  0.74015535030E+03  0.81123674725E+02 0.  0.
         11    1    3    3    0    0 -0.54443204295E+03 -0.14999032261E+03  0.21904489184E+02  0.56513994100E+03  0.00000000000E+00 0. -1.
        -11    1    3    3    0    0 -0.15461020084E+03 -0.79329600033E+02 -0.20806101220E+02  0.17501540930E+03  0.00000000000E+00 0.  1.
         22    1    1    2    0    0  0.69904224379E+03  0.22931992265E+03 -0.13827373202E+02  0.73582530656E+03  0.00000000000E+00 0. -1.
<mgrwt>
<rscale>  0 0.14759258E+04</rscale>
<asrwt>0</asrwt>
<pdfrwt beam="1">  1        2 0.11451613E+00 0.14759258E+04</pdfrwt>
<pdfrwt beam="2">  1       -2 0.11255782E+00 0.14759258E+04</pdfrwt>
<totfact> 0.22775863E+01</totfact>
</mgrwt>
</event>
<event>
 6    1  0.1934315E-005  0.8998355E+03  0.7818608E-02  0.9425787E-01
          2   -1    0    0  501    0  0.00000000000E+00  0.00000000000E+00  0.84183353506E+03  0.84183353506E+03  0.00000000000E+00 0.  1.
         -2   -1    0    0    0  501 -0.00000000000E+00 -0.00000000000E+00 -0.24045843425E+03  0.24045843425E+03  0.00000000000E+00 0. -1.
         23    2    1    2    0    0  0.22576104456E+03  0.23990108114E+03 -0.56526084125E+02  0.34652397116E+03  0.91449912128E+02 0.  0.
         11    1    3    3    0    0  0.16305145095E+03  0.20820548591E+03 -0.73021591721E+02  0.27434914412E+03  0.00000000000E+00 0.  1.
        -11    1    3    3    0    0  0.62709593605E+02  0.31695595225E+02  0.16495507596E+02  0.72174827036E+02  0.00000000000E+00 0. -1.
         22    1    1    2    0    0 -0.22576104456E+03 -0.23990108114E+03  0.65790118494E+03  0.73576799816E+03  0.00000000000E+00 0.  1.
<mgrwt>
<rscale>  0 0.89983548E+03</rscale>
<asrwt>0</asrwt>
<pdfrwt beam="1">  1        2 0.12951285E+00 0.89983548E+03</pdfrwt>
<pdfrwt beam="2">  1       -2 0.36993606E-01 0.89983548E+03</pdfrwt>
<totfact> 0.22187219E+02</totfact>
</mgrwt>
</event>
<event>
 6    1  0.1934315E-005  0.7104576E+03  0.7818608E-02  0.9699514E-01
          2   -1    0    0  501    0  0.00000000000E+00  0.00000000000E+00  0.12622916845E+04  0.12622916845E+04  0.00000000000E+00 0.  1.
         -2   -1    0    0    0  501 -0.00000000000E+00 -0.00000000000E+00 -0.99966979062E+02  0.99966979062E+02  0.00000000000E+00 0. -1.
         23    2    1    2    0    0  0.84471213863E+02 -0.33444578490E+03  0.69987492894E+03  0.78532784899E+03  0.89025531383E+02 0.  0.
         11    1    3    3    0    0  0.32751185359E+01 -0.19063567147E+03  0.39439587925E+03  0.43806482991E+03  0.00000000000E+00 0. -1.
        -11    1    3    3    0    0  0.81196095327E+02 -0.14381011343E+03  0.30547904969E+03  0.34726301908E+03  0.00000000000E+00 0.  1.
         22    1    1    2    0    0 -0.84471213863E+02  0.33444578490E+03  0.46244977647E+03  0.57693081454E+03  0.00000000000E+00 0. -1.
<mgrwt>
<rscale>  0 0.71045756E+03</rscale>
<asrwt>0</asrwt>
<pdfrwt beam="1">  1        2 0.19419871E+00 0.71045756E+03</pdfrwt>
<pdfrwt beam="2">  1       -2 0.15379536E-01 0.71045756E+03</pdfrwt>
<totfact> 0.59003453E+02</totfact>
</mgrwt>
</event>
<event>
 6    1  0.1934315E-005  0.1000666E+04  0.7818608E-02  0.9307815E-01
          2   -1    0    0  501    0  0.00000000000E+00  0.00000000000E+00  0.49971700108E+03  0.49971700108E+03  0.00000000000E+00 0.  1.
         -2   -1    0    0    0  501 -0.00000000000E+00 -0.00000000000E+00 -0.50094987515E+03  0.50094987515E+03  0.00000000000E+00 0. -1.
         23    2    1    2    0    0 -0.39699064081E+03 -0.15451559667E+03 -0.24981916388E+03  0.50744098276E+03  0.11666232397E+03 0.  0.
         11    1    3    3    0    0 -0.85550489382E+02 -0.10280083779E+02 -0.10259589328E+03  0.13397941511E+03  0.00000000000E+00 0. -1.
        -11    1    3    3    0    0 -0.31144015143E+03 -0.14423551289E+03 -0.14722327061E+03  0.37346156765E+03  0.00000000000E+00 0.  1.
         22    1    1    2    0    0  0.39699064081E+03  0.15451559667E+03  0.24858628982E+03  0.49322589347E+03  0.00000000000E+00 0.  1.
<mgrwt>
<rscale>  0 0.10006661E+04</rscale>
<asrwt>0</asrwt>
<pdfrwt beam="1">  1        2 0.76879539E-01 0.10006661E+04</pdfrwt>
<pdfrwt beam="2">  1       -2 0.77069212E-01 0.10006661E+04</pdfrwt>
<totfact> 0.92530545E+01</totfact>
</mgrwt>
</event>
<event>
 6    1  0.1934315E-005  0.2896709E+04  0.7818608E-02  0.8273857E-01
          2   -1    0    0  501    0  0.00000000000E+00  0.00000000000E+00  0.17199997295E+04  0.17199997295E+04  0.00000000000E+00 0.  1.
         -2   -1    0    0    0  501 -0.00000000000E+00 -0.00000000000E+00 -0.12196109822E+04  0.12196109822E+04  0.00000000000E+00 0. -1.
         23    2    1    2    0    0 -0.78908827046E+03 -0.53486780334E+02 -0.97892332350E+03  0.12621467517E+04  0.95929220798E+02 0.  0.
         13    1    3    3    0    0 -0.47123029390E+03 -0.71546033286E+02 -0.54617130177E+03  0.72489993492E+03  0.00000000000E+00 0. -1.
        -13    1    3    3    0    0 -0.31785797656E+03  0.18059252952E+02 -0.43275202173E+03  0.53724681683E+03  0.00000000000E+00 0.  1.
         22    1    1    2    0    0  0.78908827046E+03  0.53486780334E+02  0.14793120708E+04  0.16774639600E+04  0.00000000000E+00 0.  1.
<mgrwt>
<rscale>  0 0.28967089E+04</rscale>
<asrwt>0</asrwt>
<pdfrwt beam="1">  1        2 0.26461534E+00 0.28967089E+04</pdfrwt>
<pdfrwt beam="2">  1       -2 0.18763246E+00 0.28967089E+04</pdfrwt>
<totfact> 0.13271097E+00</totfact>
</mgrwt>
</event>
<event>
 6    1  0.1934315E-005  0.6740511E+03  0.7818608E-02  0.9762667E-01
         -2   -1    0    0    0  501 -0.00000000000E+00  0.00000000000E+00  0.75984173047E+02  0.75984173047E+02  0.00000000000E+00 0. -1.
          2   -1    0    0  501    0  0.00000000000E+00 -0.00000000000E+00 -0.14948666800E+04  0.14948666800E+04  0.00000000000E+00 0.  1.
         23    2    1    2    0    0  0.49658687214E+02  0.25618050547E+03 -0.11962556105E+04  0.12278389413E+04  0.92013821832E+02 0.  0.
         13    1    3    3    0    0  0.58310924200E+02  0.15887490435E+03 -0.90352408462E+03  0.91923727655E+03  0.00000000000E+00 0.  1.
        -13    1    3    3    0    0 -0.86522369857E+01  0.97305601114E+02 -0.29273152591E+03  0.30860166473E+03  0.00000000000E+00 0. -1.
         22    1    1    2    0    0 -0.49658687214E+02 -0.25618050547E+03 -0.22262689641E+03  0.34301191175E+03  0.00000000000E+00 0. -1.
<mgrwt>
<rscale>  0 0.67405106E+03</rscale>
<asrwt>0</asrwt>
<pdfrwt beam="1">  1        2 0.22997946E+00 0.67405106E+03</pdfrwt>
<pdfrwt beam="2">  1       -2 0.11689874E-01 0.67405106E+03</pdfrwt>
<totfact> 0.68997148E+02</totfact>
</mgrwt>
</event>
<event>
 6    1  0.1934315E-005  0.1716483E+04  0.7818608E-02  0.8752019E-01
          2   -1    0    0  501    0  0.00000000000E+00  0.00000000000E+00  0.46995251374E+03  0.46995251374E+03  0.00000000000E+00 0.  1.
         -2   -1    0    0    0  501 -0.00000000000E+00 -0.00000000000E+00 -0.15673468091E+04  0.15673468091E+04  0.00000000000E+00 0. -1.
         23    2    1    2    0    0 -0.37062261000E+03  0.95509416508E+02  0.35795982408E+03  0.53246086617E+03  0.94319513691E+02 0.  0.
         13    1    3    3    0    0 -0.26151373181E+03  0.46155693056E+02  0.19150265387E+03  0.32740349168E+03  0.00000000000E+00 0. -1.
        -13    1    3    3    0    0 -0.10910887819E+03  0.49353723452E+02  0.16645717020E+03  0.20505737449E+03  0.00000000000E+00 0.  1.
         22    1    1    2    0    0  0.37062261000E+03 -0.95509416508E+02 -0.14553541194E+04  0.15048384567E+04  0.00000000000E+00 0. -1.
<mgrwt>
<rscale>  0 0.17164831E+04</rscale>
<asrwt>0</asrwt>
<pdfrwt beam="1">  1        2 0.72300386E-01 0.17164831E+04</pdfrwt>
<pdfrwt beam="2">  1       -2 0.24113028E+00 0.17164831E+04</pdfrwt>
<totfact> 0.45822466E+00</totfact>
</mgrwt>
</event>
<event>
 6    1  0.1934315E-005  0.1229703E+04  0.7818608E-02  0.9087247E-01
         -2   -1    0    0    0  501 -0.00000000000E+00  0.00000000000E+00  0.11556004142E+03  0.11556004142E+03  0.00000000000E+00 0. -1.
          2   -1    0    0  501    0  0.00000000000E+00 -0.00000000000E+00 -0.32713954792E+04  0.32713954792E+04  0.00000000000E+00 0.  1.
         23    2    1    2    0    0  0.31014788953E+03  0.44100781808E+03 -0.79044521866E+03  0.96089894714E+03  0.88563728006E+02 0.  0.
         13    1    3    3    0    0  0.14798740066E+03  0.27673885192E+03 -0.49277227927E+03  0.58421672531E+03  0.00000000000E+00 0.  1.
        -13    1    3    3    0    0  0.16216048888E+03  0.16426896616E+03 -0.29767293939E+03  0.37668222183E+03  0.00000000000E+00 0. -1.
         22    1    1    2    0    0 -0.31014788953E+03 -0.44100781808E+03 -0.23653902191E+04  0.24260565735E+04  0.00000000000E+00 0.  1.
<mgrwt>
<rscale>  0 0.12297034E+04</rscale>
<asrwt>0</asrwt>
<pdfrwt beam="1">  1        2 0.50329170E+00 0.12297034E+04</pdfrwt>
<pdfrwt beam="2">  1       -2 0.17778465E-01 0.12297034E+04</pdfrwt>
<totfact> 0.30659343E+01</totfact>
</mgrwt>
</event>
<event>
 6    1  0.1934315E-005  0.2322216E+04  0.7818608E-02  0.8469213E-01
          2   -1    0    0  501    0  0.00000000000E+00  0.00000000000E+00  0.10874997816E+04  0.10874997816E+04  0.00000000000E+00 0.  1.
         -2   -1    0    0    0  501 -0.00000000000E+00 -0.00000000000E+00 -0.12396984888E+04  0.12396984888E+04  0.00000000000E+00 0. -1.
         23    2    1    2    0    0 -0.76670230298E+03 -0.41093313510E+03 -0.84431612209E+03  0.12155665963E+04  0.89632432782E+02 0.  0.
         13    1    3    3    0    0 -0.40167821140E+03 -0.25606531606E+03 -0.42385136912E+03  0.63762435235E+03  0.00000000000E+00 0. -1.
        -13    1    3    3    0    0 -0.36502409158E+03 -0.15486781903E+03 -0.42046475297E+03  0.57794224391E+03  0.00000000000E+00 0.  1.
         22    1    1    2    0    0  0.76670230298E+03  0.41093313510E+03  0.69211741496E+03  0.11116316742E+04  0.00000000000E+00 0.  1.
<mgrwt>
<rscale>  0 0.23222160E+04</rscale>
<asrwt>0</asrwt>
<pdfrwt beam="1">  1        2 0.16730766E+00 0.23222160E+04</pdfrwt>
<pdfrwt beam="2">  1       -2 0.19072285E+00 0.23222160E+04</pdfrwt>
<totfact> 0.30760122E+00</totfact>
</mgrwt>
</event>
<event>
 6    1  0.1934315E-005  0.3355127E+04  0.7818608E-02  0.8149008E-01
          2   -1    0    0  501    0  0.00000000000E+00  0.00000000000E+00  0.29222150198E+04  0.29222150198E+04  0.00000000000E+00 0.  1.
         -2   -1    0    0    0  501 -0.00000000000E+00 -0.00000000000E+00 -0.96304328065E+03  0.96304328065E+03  0.00000000000E+00 0. -1.
         23    2    1    2    0    0  0.11745073815E+04  0.71505969170E+03 -0.13002987525E+03  0.13841502785E+04  0.90478024388E+02 0.  0.
         13    1    3    3    0    0  0.20459082150E+03  0.16472468793E+03 -0.33955118084E+02  0.26484821521E+03  0.00000000000E+00 0.  1.
        -13    1    3    3    0    0  0.96991656005E+03  0.55033500377E+03 -0.96074757169E+02  0.11193020632E+04  0.00000000000E+00 0. -1.
         22    1    1    2    0    0 -0.11745073815E+04 -0.71505969170E+03  0.20892016144E+04  0.25011080220E+04  0.00000000000E+00 0.  1.
<mgrwt>
<rscale>  0 0.33551271E+04</rscale>
<asrwt>0</asrwt>
<pdfrwt beam="1">  1        2 0.44957154E+00 0.33551271E+04</pdfrwt>
<pdfrwt beam="2">  1       -2 0.14816051E+00 0.33551271E+04</pdfrwt>
<totfact> 0.50075142E-01</totfact>
</mgrwt>
</event>
<event>
 6    1  0.1988592E-005  0.3361274E+04  0.7818608E-02  0.8147477E-01
         -2   -1    0    0    0  501 -0.00000000000E+00  0.00000000000E+00  0.14416536604E+04  0.14416536604E+04  0.00000000000E+00 0. -1.
          2   -1    0    0  501    0  0.00000000000E+00 -0.00000000000E+00 -0.19592364228E+04  0.19592364228E+04  0.00000000000E+00 0.  1.
         23    2    1    2    0    0 -0.69560142424E+03  0.48267113615E+03 -0.17264664596E+04  0.19250064291E+04  0.90169555935E+02 0.  0.
         13    1    3    3    0    0 -0.53194678007E+03  0.35574150584E+03 -0.12156077423E+04  0.13737618348E+04  0.00000000000E+00 0. -1.
        -13    1    3    3    0    0 -0.16365464417E+03  0.12692963031E+03 -0.51085871732E+03  0.55124459424E+03  0.00000000000E+00 0.  1.
         22    1    1    2    0    0  0.69560142424E+03 -0.48267113615E+03  0.12088836972E+04  0.14758836541E+04  0.00000000000E+00 0. -1.
<mgrwt>
<rscale>  0 0.33612738E+04</rscale>
<asrwt>0</asrwt>
<pdfrwt beam="1">  1        2 0.30142099E+00 0.33612738E+04</pdfrwt>
<pdfrwt beam="2">  1       -2 0.22179287E+00 0.33612738E+04</pdfrwt>
<totfact> 0.56331590E-01</totfact>
</mgrwt>
</event>
<event>
 6    1  0.1934315E-005  0.3452841E+04  0.7818608E-02  0.8125058E-01
         -2   -1    0    0    0  501 -0.00000000000E+00  0.00000000000E+00  0.10998079271E+04  0.10998079271E+04  0.00000000000E+00 0. -1.
          2   -1    0    0  501    0  0.00000000000E+00 -0.00000000000E+00 -0.27100434111E+04  0.27100434111E+04  0.00000000000E+00 0.  1.
         23    2    1    2    0    0  0.94010351187E+03 -0.48720336565E+03 -0.23087859803E+04  0.25413346735E+04  0.82021259314E+02 0.  0.
         13    1    3    3    0    0  0.87647085875E+02 -0.53499345552E+02 -0.28466675906E+03  0.30262081116E+03  0.00000000000E+00 0. -1.
        -13    1    3    3    0    0  0.85245642600E+03 -0.43370402010E+03 -0.20241192213E+04  0.22387138623E+04  0.00000000000E+00 0.  1.
         22    1    1    2    0    0 -0.94010351187E+03  0.48720336565E+03  0.69855049636E+03  0.12685166647E+04  0.00000000000E+00 0. -1.
<mgrwt>
<rscale>  0 0.34528407E+04</rscale>
<asrwt>0</asrwt>
<pdfrwt beam="1">  1        2 0.41692975E+00 0.34528407E+04</pdfrwt>
<pdfrwt beam="2">  1       -2 0.16920122E+00 0.34528407E+04</pdfrwt>
<totfact> 0.46638983E-01</totfact>
</mgrwt>
</event>
<event>
 6    1  0.1934315E-005  0.4638877E+04  0.7818608E-02  0.7886765E-01
          2   -1    0    0  501    0  0.00000000000E+00  0.00000000000E+00  0.27099515053E+04  0.27099515053E+04  0.00000000000E+00 0.  1.
         -2   -1    0    0    0  501 -0.00000000000E+00 -0.00000000000E+00 -0.19851999942E+04  0.19851999942E+04  0.00000000000E+00 0. -1.
         23    2    1    2    0    0  0.42566502207E+03  0.11936733534E+04  0.23276619288E+04  0.26517796311E+04  0.88760190516E+02 0.  0.
         11    1    3    3    0    0  0.13869411713E+03  0.50679920751E+03  0.10020007143E+04  0.11314092656E+04  0.00000000000E+00 0. -1.
        -11    1    3    3    0    0  0.28697090494E+03  0.68687414585E+03  0.13256612145E+04  0.15203703655E+04  0.00000000000E+00 0.  1.
         22    1    1    2    0    0 -0.42566502207E+03 -0.11936733534E+04 -0.16029104177E+04  0.20433718684E+04  0.00000000000E+00 0. -1.
<mgrwt>
<rscale>  0 0.46388773E+04</rscale>
<asrwt>0</asrwt>
<pdfrwt beam="1">  1        2 0.41691562E+00 0.46388773E+04</pdfrwt>
<pdfrwt beam="2">  1       -2 0.30541538E+00 0.46388773E+04</pdfrwt>
<totfact> 0.57782681E-02</totfact>
</mgrwt>
</event>
<event>
 6    1  0.1934315E-005  0.2315278E+04  0.7818608E-02  0.8471922E-01
         -2   -1    0    0    0  501 -0.00000000000E+00  0.00000000000E+00  0.11983189802E+04  0.11983189802E+04  0.00000000000E+00 0. -1.
          2   -1    0    0  501    0  0.00000000000E+00 -0.00000000000E+00 -0.11183399001E+04  0.11183399001E+04  0.00000000000E+00 0.  1.
         23    2    1    2    0    0 -0.79613458112E+02  0.11434983473E+04 -0.10842822498E+03  0.11550117370E+04  0.91480378369E+02 0.  0.
         13    1    3    3    0    0 -0.39610944587E+02  0.73093695089E+03 -0.26453952155E+02  0.73248731367E+03  0.00000000000E+00 0.  1.
        -13    1    3    3    0    0 -0.40002513525E+02  0.41256139641E+03 -0.81974272821E+02  0.42252442332E+03  0.00000000000E+00 0. -1.
         22    1    1    2    0    0  0.79613458112E+02 -0.11434983473E+04  0.18840730498E+03  0.11616471433E+04  0.00000000000E+00 0. -1.
<mgrwt>
<rscale>  0 0.23152779E+04</rscale>
<asrwt>0</asrwt>
<pdfrwt beam="1">  1        2 0.17205229E+00 0.23152779E+04</pdfrwt>
<pdfrwt beam="2">  1       -2 0.18435677E+00 0.23152779E+04</pdfrwt>
<totfact> 0.32528550E+00</totfact>
</mgrwt>
</event>
<event>
 6    1  0.1934315E-005  0.1494466E+04  0.7818608E-02  0.8888141E-01
         -2   -1    0    0    0  501 -0.00000000000E+00  0.00000000000E+00  0.25752685787E+03  0.25752685787E+03  0.00000000000E+00 0. -1.
          2   -1    0    0  501    0  0.00000000000E+00 -0.00000000000E+00 -0.21681509402E+04  0.21681509402E+04  0.00000000000E+00 0.  1.
         23    2    1    2    0    0 -0.52724070576E+03 -0.17445574504E+03 -0.17635650438E+04  0.18511832989E+04  0.91106385960E+02 0.  0.
         13    1    3    3    0    0 -0.65503006106E+02 -0.54184065754E+02 -0.23681268692E+03  0.25160843682E+03  0.00000000000E+00 0. -1.
        -13    1    3    3    0    0 -0.46173769965E+03 -0.12027167929E+03 -0.15267523568E+04  0.15995748620E+04  0.00000000000E+00 0.  1.
         22    1    1    2    0    0  0.52724070576E+03  0.17445574504E+03 -0.14705903854E+03  0.57449449920E+03  0.00000000000E+00 0. -1.
<mgrwt>
<rscale>  0 0.14944659E+04</rscale>
<asrwt>0</asrwt>
<pdfrwt beam="1">  1        2 0.33356169E+00 0.14944659E+04</pdfrwt>
<pdfrwt beam="2">  1       -2 0.39619516E-01 0.14944659E+04</pdfrwt>
<totfact> 0.31374602E+01</totfact>
</mgrwt>
</event>
<event>
 6    1  0.1934315E-005  0.3681458E+03  0.7818608E-02  0.1055404E+00
         -2   -1    0    0    0  501 -0.00000000000E+00  0.00000000000E+00  0.42242549255E+03  0.42242549255E+03  0.00000000000E+00 0. -1.
          2   -1    0    0  501    0  0.00000000000E+00 -0.00000000000E+00 -0.80210217556E+02  0.80210217556E+02  0.00000000000E+00 0.  1.
         23    2    1    2    0    0 -0.67648693580E+02  0.41324171297E+02 -0.28370368822E+02  0.12366638116E+03  0.90578491521E+02 0.  0.
         11    1    3    3    0    0 -0.27917177542E+02  0.56832537776E+02  0.12560204715E+02  0.64552807023E+02  0.00000000000E+00 0. -1.
        -11    1    3    3    0    0 -0.39731516038E+02 -0.15508366479E+02 -0.40930573537E+02  0.59113574140E+02  0.00000000000E+00 0.  1.
         22    1    1    2    0    0  0.67648693580E+02 -0.41324171297E+02  0.37058564381E+03  0.37896932894E+03  0.00000000000E+00 0. -1.
<mgrwt>
<rscale>  0 0.36814584E+03</rscale>
<asrwt>0</asrwt>
<pdfrwt beam="1">  1        2 0.12340034E-01 0.36814584E+03</pdfrwt>
<pdfrwt beam="2">  1       -2 0.64988536E-01 0.36814584E+03</pdfrwt>
<totfact> 0.11105900E+03</totfact>
</mgrwt>
</event>
<event>
 6    1  0.1934315E-005  0.2699298E+04  0.7818608E-02  0.8335233E-01
         -4   -1    0    0    0  501 -0.00000000000E+00  0.00000000000E+00  0.93373629029E+03  0.93373629029E+03  0.00000000000E+00 0. -1.
          4   -1    0    0  501    0  0.00000000000E+00 -0.00000000000E+00 -0.19508208591E+04  0.19508208591E+04  0.00000000000E+00 0.  1.
         23    2    1    2    0    0  0.10476981816E+04  0.61398561210E+03  0.11678682227E+03  0.12231378335E+04  0.88188356618E+02 0.  0.
         13    1    3    3    0    0  0.18894283318E+03  0.12951040794E+03  0.52791120685E+02  0.23507284488E+03  0.00000000000E+00 0.  1.
        -13    1    3    3    0    0  0.85875534846E+03  0.48447520416E+03  0.63995701589E+02  0.98806498864E+03  0.00000000000E+00 0. -1.
         22    1    1    2    0    0 -0.10476981816E+04 -0.61398561210E+03 -0.11338713911E+04  0.16614193159E+04  0.00000000000E+00 0.  1.
<mgrwt>
<rscale>  0 0.26992979E+04</rscale>
<asrwt>0</asrwt>
<pdfrwt beam="1">  1        4 0.30012629E+00 0.26992979E+04</pdfrwt>
<pdfrwt beam="2">  1       -4 0.14365174E+00 0.26992979E+04</pdfrwt>
<totfact> 0.17995368E-02</totfact>
</mgrwt>
</event>
<event>
 6    1  0.1934315E-005  0.4026638E+04  0.7818608E-02  0.7999194E-01
         -2   -1    0    0    0  501 -0.00000000000E+00  0.00000000000E+00  0.89623469310E+03  0.89623469310E+03  0.00000000000E+00 0. -1.
          2   -1    0    0  501    0  0.00000000000E+00 -0.00000000000E+00 -0.45227583859E+04  0.45227583859E+04  0.00000000000E+00 0.  1.
         23    2    1    2    0    0 -0.17499619224E+04 -0.73830910324E+03 -0.27087788076E+04  0.33095564869E+04  0.90633600980E+02 0.  0.
         13    1    3    3    0    0 -0.11905328355E+04 -0.54759803569E+03 -0.18598114611E+04  0.22751111427E+04  0.00000000000E+00 0.  1.
        -13    1    3    3    0    0 -0.55942908691E+03 -0.19071106756E+03 -0.84896734651E+03  0.10344453441E+04  0.00000000000E+00 0. -1.
         22    1    1    2    0    0  0.17499619224E+04  0.73830910324E+03 -0.91774488519E+03  0.21094365921E+04  0.00000000000E+00 0. -1.
<mgrwt>
<rscale>  0 0.40266378E+04</rscale>
<asrwt>0</asrwt>
<pdfrwt beam="1">  1        2 0.69580897E+00 0.40266378E+04</pdfrwt>
<pdfrwt beam="2">  1       -2 0.13788226E+00 0.40266378E+04</pdfrwt>
<totfact> 0.34126669E-02</totfact>
</mgrwt>
</event>
<event>
 6    1  0.1934315E-005  0.3743815E+04  0.7818608E-02  0.8058321E-01
         -2   -1    0    0    0  501 -0.00000000000E+00  0.00000000000E+00  0.41342595897E+04  0.41342595897E+04  0.00000000000E+00 0. -1.
          2   -1    0    0  501    0  0.00000000000E+00 -0.00000000000E+00 -0.84756104844E+03  0.84756104844E+03  0.00000000000E+00 0.  1.
         23    2    1    2    0    0 -0.12272259495E+04  0.54699678350E+03 -0.88029991837E+02  0.13494547859E+04  0.89386394529E+02 0.  0.
         11    1    3    3    0    0 -0.42780793093E+03  0.15071302609E+03 -0.83770570547E+01  0.45365649680E+03  0.00000000000E+00 0.  1.
        -11    1    3    3    0    0 -0.79941801856E+03  0.39628375740E+03 -0.79652934782E+02  0.89579828913E+03  0.00000000000E+00 0. -1.
         22    1    1    2    0    0  0.12272259495E+04 -0.54699678350E+03  0.33747285331E+04  0.36323658522E+04  0.00000000000E+00 0. -1.
<mgrwt>
<rscale>  0 0.37438148E+04</rscale>
<asrwt>0</asrwt>
<pdfrwt beam="1">  1        2 0.13039401E+00 0.37438148E+04</pdfrwt>
<pdfrwt beam="2">  1       -2 0.63603992E+00 0.37438148E+04</pdfrwt>
<totfact> 0.95733795E-03</totfact>
</mgrwt>
</event>
<event>
 6    1  0.1934315E-005  0.1413334E+04  0.7818608E-02  0.8944223E-01
         -2   -1    0    0    0  501 -0.00000000000E+00  0.00000000000E+00  0.56419099471E+03  0.56419099471E+03  0.00000000000E+00 0. -1.
          2   -1    0    0  501    0  0.00000000000E+00 -0.00000000000E+00 -0.88512299121E+03  0.88512299121E+03  0.00000000000E+00 0.  1.
         23    2    1    2    0    0  0.13134919792E+03 -0.37932663193E+03  0.43184755593E+03  0.59619127490E+03  0.88376576183E+02 0.  0.
         11    1    3    3    0    0  0.12697617241E+03 -0.31890593540E+03  0.40215389575E+03  0.52872648871E+03  0.00000000000E+00 0.  1.
        -11    1    3    3    0    0  0.43730255130E+01 -0.60420696525E+02  0.29693660178E+02  0.67464786189E+02  0.00000000000E+00 0. -1.
         22    1    1    2    0    0 -0.13134919792E+03  0.37932663193E+03 -0.75277955243E+03  0.85312271101E+03  0.00000000000E+00 0.  1.
<mgrwt>
<rscale>  0 0.14133342E+04</rscale>
<asrwt>0</asrwt>
<pdfrwt beam="1">  1        2 0.13617277E+00 0.14133342E+04</pdfrwt>
<pdfrwt beam="2">  1       -2 0.86798615E-01 0.14133342E+04</pdfrwt>
<totfact> 0.33531792E+01</totfact>
</mgrwt>
</event>
<event>
 6    1  0.1934315E-005  0.3852070E+04  0.7818608E-02  0.8035072E-01
         -2   -1    0    0    0  501 -0.00000000000E+00  0.00000000000E+00  0.26776809334E+04  0.26776809334E+04  0.00000000000E+00 0. -1.
          2   -1    0    0  501    0  0.00000000000E+00 -0.00000000000E+00 -0.13853817145E+04  0.13853817145E+04  0.00000000000E+00 0.  1.
         23    2    1    2    0    0 -0.11526220970E+04  0.61719527200E+03  0.21367158904E+04  0.25066220878E+04  0.90176454315E+02 0.  0.
         13    1    3    3    0    0 -0.48936211150E+03  0.21190034024E+03  0.86388604742E+03  0.10152222088E+04  0.00000000000E+00 0. -1.
        -13    1    3    3    0    0 -0.66325998545E+03  0.40529493176E+03  0.12728298429E+04  0.14913998790E+04  0.00000000000E+00 0.  1.
         22    1    1    2    0    0  0.11526220970E+04 -0.61719527200E+03 -0.84441667146E+03  0.15564405601E+04  0.00000000000E+00 0.  1.
<mgrwt>
<rscale>  0 0.38520697E+04</rscale>
<asrwt>0</asrwt>
<pdfrwt beam="1">  1        2 0.21313565E+00 0.38520697E+04</pdfrwt>
<pdfrwt beam="2">  1       -2 0.41195091E+00 0.38520697E+04</pdfrwt>
<totfact> 0.72933890E-02</totfact>
</mgrwt>
</event>
<event>
 6    1  0.1934315E-005  0.1834949E+04  0.7818608E-02  0.8687932E-01
         -2   -1    0    0    0  501 -0.00000000000E+00  0.00000000000E+00  0.12100840490E+04  0.12100840490E+04  0.00000000000E+00 0. -1.
          2   -1    0    0  501    0  0.00000000000E+00 -0.00000000000E+00 -0.69562069183E+03  0.69562069183E+03  0.00000000000E+00 0.  1.
         23    2    1    2    0    0 -0.48095086862E+03  0.26283065994E+03  0.10193186368E+04  0.11605386203E+04  0.86288538882E+02 0.  0.
         13    1    3    3    0    0 -0.26751087067E+03  0.18004313463E+03  0.53140407849E+03  0.62158498284E+03  0.00000000000E+00 0.  1.
        -13    1    3    3    0    0 -0.21343999794E+03  0.82787525315E+02  0.48791455836E+03  0.53895363746E+03  0.00000000000E+00 0. -1.
         22    1    1    2    0    0  0.48095086862E+03 -0.26283065994E+03 -0.50485527966E+03  0.74516612056E+03  0.00000000000E+00 0.  1.
<mgrwt>
<rscale>  0 0.18349490E+04</rscale>
<asrwt>0</asrwt>
<pdfrwt beam="1">  1        2 0.10701857E+00 0.18349490E+04</pdfrwt>
<pdfrwt beam="2">  1       -2 0.18616678E+00 0.18349490E+04</pdfrwt>
<totfact> 0.63920975E+00</totfact>
</mgrwt>
</event>
<event>
 6    1  0.1934315E-005  0.1983768E+04  0.7818608E-02  0.8614247E-01
          2   -1    0    0  501    0  0.00000000000E+00  0.00000000000E+00  0.82538085217E+03  0.82538085217E+03  0.00000000000E+00 0.  1.
         -2   -1    0    0    0  501 -0.00000000000E+00 -0.00000000000E+00 -0.11919757440E+04  0.11919757440E+04  0.00000000000E+00 0. -1.
         23    2    1    2    0    0 -0.13121683649E+03  0.78459351200E+02 -0.11783303130E+04  0.11913492584E+04  0.86469653732E+02 0.  0.
         13    1    3    3    0    0 -0.71782463214E+02  0.42240469877E+02 -0.33679789955E+03  0.34694351768E+03  0.00000000000E+00 0. -1.
        -13    1    3    3    0    0 -0.59434373273E+02  0.36218881324E+02 -0.84153241345E+03  0.84440574073E+03  0.00000000000E+00 0.  1.
         22    1    1    2    0    0  0.13121683649E+03 -0.78459351200E+02  0.81173542119E+03  0.82600733773E+03  0.00000000000E+00 0.  1.
<mgrwt>
<rscale>  0 0.19837681E+04</rscale>
<asrwt>0</asrwt>
<pdfrwt beam="1">  1        2 0.12698167E+00 0.19837681E+04</pdfrwt>
<pdfrwt beam="2">  1       -2 0.18338088E+00 0.19837681E+04</pdfrwt>
<totfact> 0.52789703E+00</totfact>
</mgrwt>
</event>
<event>
 6    1  0.1934315E-005  0.2860450E+04  0.7818608E-02  0.8284743E-01
         -2   -1    0    0    0  501 -0.00000000000E+00  0.00000000000E+00  0.12801846296E+04  0.12801846296E+04  0.00000000000E+00 0. -1.
          2   -1    0    0  501    0  0.00000000000E+00 -0.00000000000E+00 -0.15978507877E+04  0.15978507877E+04  0.00000000000E+00 0.  1.
         23    2    1    2    0    0 -0.99195625437E+03 -0.83109268805E+03  0.45031665138E+03  0.13732132144E+04  0.90758906321E+02 0.  0.
         13    1    3    3    0    0 -0.75434704286E+03 -0.58828764051E+03  0.30923931454E+03  0.10053610111E+04  0.00000000000E+00 0. -1.
        -13    1    3    3    0    0 -0.23760921151E+03 -0.24280504754E+03  0.14107733684E+03  0.36785220330E+03  0.00000000000E+00 0.  1.
         22    1    1    2    0    0  0.99195625437E+03  0.83109268805E+03 -0.76798280952E+03  0.15048222029E+04  0.00000000000E+00 0.  1.
<mgrwt>
<rscale>  0 0.28604503E+04</rscale>
<asrwt>0</asrwt>
<pdfrwt beam="1">  1        2 0.24582320E+00 0.28604503E+04</pdfrwt>
<pdfrwt beam="2">  1       -2 0.19695148E+00 0.28604503E+04</pdfrwt>
<totfact> 0.13490028E+00</totfact>
</mgrwt>
</event>
<event>
 6    1  0.1934315E-005  0.4238923E+04  0.7818608E-02  0.7958009E-01
          2   -1    0    0  501    0  0.00000000000E+00  0.00000000000E+00  0.16315581417E+04  0.16315581417E+04  0.00000000000E+00 0.  1.
         -2   -1    0    0    0  501 -0.00000000000E+00 -0.00000000000E+00 -0.27532685967E+04  0.27532685967E+04  0.00000000000E+00 0. -1.
         23    2    1    2    0    0 -0.36329580916E+03 -0.18920979291E+04  0.35008318655E+03  0.19603278332E+04  0.91151291071E+02 0.  0.
         11    1    3    3    0    0 -0.96236326587E+02 -0.66470869108E+03  0.15312002449E+03  0.68887213360E+03  0.00000000000E+00 0. -1.
        -11    1    3    3    0    0 -0.26705948258E+03 -0.12273892380E+04  0.19696316206E+03  0.12714556996E+04  0.00000000000E+00 0.  1.
         22    1    1    2    0    0  0.36329580916E+03  0.18920979291E+04 -0.14717936416E+04  0.24244989053E+04  0.00000000000E+00 0. -1.
<mgrwt>
<rscale>  0 0.42389234E+04</rscale>
<asrwt>0</asrwt>
<pdfrwt beam="1">  1        2 0.25100895E+00 0.42389234E+04</pdfrwt>
<pdfrwt beam="2">  1       -2 0.42357978E+00 0.42389234E+04</pdfrwt>
<totfact> 0.43024323E-02</totfact>
</mgrwt>
</event>
<event>
 6    1  0.1934315E-005  0.2476906E+04  0.7818608E-02  0.8411259E-01
         -2   -1    0    0    0  501 -0.00000000000E+00  0.00000000000E+00  0.10203509680E+04  0.10203509680E+04  0.00000000000E+00 0. -1.
          2   -1    0    0  501    0  0.00000000000E+00 -0.00000000000E+00 -0.15031749567E+04  0.15031749567E+04  0.00000000000E+00 0.  1.
         23    2    1    2    0    0 -0.10605575054E+04 -0.44948970522E+03  0.21702441707E+03  0.11757087974E+04  0.91478748648E+02 0.  0.
         11    1    3    3    0    0 -0.28063713548E+03 -0.12885479306E+03  0.98673074961E+02  0.32418688318E+03  0.00000000000E+00 0. -1.
        -11    1    3    3    0    0 -0.77992036991E+03 -0.32063491216E+03  0.11835134211E+03  0.85152191426E+03  0.00000000000E+00 0.  1.
         22    1    1    2    0    0  0.10605575054E+04  0.44948970522E+03 -0.69984840576E+03  0.13478171272E+04  0.00000000000E+00 0.  1.
<mgrwt>
<rscale>  0 0.24769062E+04</rscale>
<asrwt>0</asrwt>
<pdfrwt beam="1">  1        2 0.23125768E+00 0.24769062E+04</pdfrwt>
<pdfrwt beam="2">  1       -2 0.15697707E+00 0.24769062E+04</pdfrwt>
<totfact> 0.29972046E+00</totfact>
</mgrwt>
</event>
<event>
 6    1  0.1934315E-005  0.3889949E+04  0.7818608E-02  0.8027123E-01
          2   -1    0    0  501    0  0.00000000000E+00  0.00000000000E+00  0.14521627483E+04  0.14521627483E+04  0.00000000000E+00 0.  1.
         -2   -1    0    0    0  501 -0.00000000000E+00 -0.00000000000E+00 -0.26050284001E+04  0.26050284001E+04  0.00000000000E+00 0. -1.
         23    2    1    2    0    0  0.10303502665E+04 -0.11562112650E+04  0.64865348173E+03  0.16814981232E+04  0.90765842257E+02 0.  0.
         11    1    3    3    0    0  0.36903533142E+03 -0.39145204018E+03  0.26948140140E+03  0.60169926151E+03  0.00000000000E+00 0.  1.
        -11    1    3    3    0    0  0.66131493507E+03 -0.76475922480E+03  0.37917208033E+03  0.10797988617E+04  0.00000000000E+00 0. -1.
         22    1    1    2    0    0 -0.10303502665E+04  0.11562112650E+04 -0.18015191336E+04  0.23756930251E+04  0.00000000000E+00 0. -1.
<mgrwt>
<rscale>  0 0.38899487E+04</rscale>
<asrwt>0</asrwt>
<pdfrwt beam="1">  1        2 0.22340966E+00 0.38899487E+04</pdfrwt>
<pdfrwt beam="2">  1       -2 0.40077360E+00 0.38899487E+04</pdfrwt>
<totfact> 0.78851412E-02</totfact>
</mgrwt>
</event>
<event>
 6    1  0.1934315E-005  0.3383054E+04  0.7818608E-02  0.8142078E-01
          2   -1    0    0  501    0  0.00000000000E+00  0.00000000000E+00  0.28789472186E+04  0.28789472186E+04  0.00000000000E+00 0.  1.
         -2   -1    0    0    0  501 -0.00000000000E+00 -0.00000000000E+00 -0.99385748278E+03  0.99385748278E+03  0.00000000000E+00 0. -1.
         23    2    1    2    0    0 -0.98367705073E+03 -0.10413802235E+04 -0.83045214888E+02  0.14385392076E+04  0.10200604948E+03 0.  0.
         13    1    3    3    0    0 -0.43821821054E+03 -0.52885050195E+03 -0.64456407178E+02  0.68983525706E+03  0.00000000000E+00 0. -1.
        -13    1    3    3    0    0 -0.54545884019E+03 -0.51252972153E+03 -0.18588807709E+02  0.74870395055E+03  0.00000000000E+00 0.  1.
         22    1    1    2    0    0  0.98367705073E+03  0.10413802235E+04  0.19681349508E+04  0.24342654938E+04  0.00000000000E+00 0.  1.
<mgrwt>
<rscale>  0 0.33830538E+04</rscale>
<asrwt>0</asrwt>
<pdfrwt beam="1">  1        2 0.44291495E+00 0.33830538E+04</pdfrwt>
<pdfrwt beam="2">  1       -2 0.15290115E+00 0.33830538E+04</pdfrwt>
<totfact> 0.48862846E-01</totfact>
</mgrwt>
</event>
<event>
 6    1  0.1934315E-005  0.2633995E+04  0.7818608E-02  0.8356745E-01
         -2   -1    0    0    0  501 -0.00000000000E+00  0.00000000000E+00  0.11321478974E+04  0.11321478974E+04  0.00000000000E+00 0. -1.
          2   -1    0    0  501    0  0.00000000000E+00 -0.00000000000E+00 -0.15320283447E+04  0.15320283447E+04  0.00000000000E+00 0.  1.
         23    2    1    2    0    0  0.12232214522E+04 -0.11376075466E+03  0.27502597152E+03  0.12624947859E+04  0.95087165859E+02 0.  0.
         13    1    3    3    0    0  0.25782341727E+03 -0.43126635721E+02  0.93620646070E+02  0.27766462968E+03  0.00000000000E+00 0.  1.
        -13    1    3    3    0    0  0.96539803490E+03 -0.70634118935E+02  0.18140532545E+03  0.98483015625E+03  0.00000000000E+00 0. -1.
         22    1    1    2    0    0 -0.12232214522E+04  0.11376075466E+03 -0.67490641888E+03  0.14016814562E+04  0.00000000000E+00 0. -1.
<mgrwt>
<rscale>  0 0.26339952E+04</rscale>
<asrwt>0</asrwt>
<pdfrwt beam="1">  1        2 0.23569667E+00 0.26339952E+04</pdfrwt>
<pdfrwt beam="2">  1       -2 0.17417660E+00 0.26339952E+04</pdfrwt>
<totfact> 0.21389668E+00</totfact>
</mgrwt>
</event>
<event>
 6    1  0.1934315E-005  0.8505103E+03  0.7818608E-02  0.9489652E-01
         -2   -1    0    0    0  501 -0.00000000000E+00  0.00000000000E+00  0.24951327502E+03  0.24951327502E+03  0.00000000000E+00 0. -1.
          2   -1    0    0  501    0  0.00000000000E+00 -0.00000000000E+00 -0.72477883656E+03  0.72477883656E+03  0.00000000000E+00 0.  1.
         23    2    1    2    0    0 -0.24918068281E+03  0.20958404281E+03 -0.54494178341E+03  0.64131874992E+03  0.91168569252E+02 0.  0.
         13    1    3    3    0    0 -0.36607329655E+02  0.45279092196E+01 -0.29418628665E+02  0.47181079459E+02  0.00000000000E+00 0.  1.
        -13    1    3    3    0    0 -0.21257335315E+03  0.20505613359E+03 -0.51552315474E+03  0.59413767047E+03  0.00000000000E+00 0. -1.
         22    1    1    2    0    0  0.24918068281E+03 -0.20958404281E+03  0.69676221864E+02  0.33297336166E+03  0.00000000000E+00 0.  1.
<mgrwt>
<rscale>  0 0.85051030E+03</rscale>
<asrwt>0</asrwt>
<pdfrwt beam="1">  1        2 0.11150443E+00 0.85051030E+03</pdfrwt>
<pdfrwt beam="2">  1       -2 0.38386659E-01 0.85051030E+03</pdfrwt>
<totfact> 0.25222488E+02</totfact>
</mgrwt>
</event>
<event>
 6    1  0.1934315E-005  0.3566622E+04  0.7818608E-02  0.8098180E-01
         -2   -1    0    0    0  501 -0.00000000000E+00  0.00000000000E+00  0.11397904314E+04  0.11397904314E+04  0.00000000000E+00 0. -1.
          2   -1    0    0  501    0  0.00000000000E+00 -0.00000000000E+00 -0.27901599950E+04  0.27901599950E+04  0.00000000000E+00 0.  1.
         23    2    1    2    0    0 -0.10642007877E+04  0.11633475006E+04  0.89670897650E+02  0.15818359636E+04  0.90903367777E+02 0.  0.
         13    1    3    3    0    0 -0.30330282546E+03  0.28459833847E+03  0.48162411358E+02  0.41869850258E+03  0.00000000000E+00 0.  1.
        -13    1    3    3    0    0 -0.76089796223E+03  0.87874916212E+03  0.41508486292E+02  0.11631374610E+04  0.00000000000E+00 0. -1.
         22    1    1    2    0    0  0.10642007877E+04 -0.11633475006E+04 -0.17400404612E+04  0.23481144628E+04  0.00000000000E+00 0.  1.
<mgrwt>
<rscale>  0 0.35666217E+04</rscale>
<asrwt>0</asrwt>
<pdfrwt beam="1">  1        2 0.42925539E+00 0.35666217E+04</pdfrwt>
<pdfrwt beam="2">  1       -2 0.17535237E+00 0.35666217E+04</pdfrwt>
<totfact> 0.37415313E-01</totfact>
</mgrwt>
</event>
<event>
 6    1  0.1934315E-005  0.6767885E+03  0.7818608E-02  0.9757771E-01
          2   -1    0    0  501    0  0.00000000000E+00  0.00000000000E+00  0.15764469319E+03  0.15764469319E+03  0.00000000000E+00 0.  1.
         -2   -1    0    0    0  501 -0.00000000000E+00 -0.00000000000E+00 -0.72638458749E+03  0.72638458749E+03  0.00000000000E+00 0. -1.
         23    2    1    2    0    0  0.15534795703E+03 -0.26320088877E+03 -0.11912540339E+03  0.34037416387E+03  0.90862611113E+02 0.  0.
         13    1    3    3    0    0  0.13901288206E+03 -0.16385421825E+03 -0.10343705074E+03  0.23847853086E+03  0.00000000000E+00 0. -1.
        -13    1    3    3    0    0  0.16335074971E+02 -0.99346670520E+02 -0.15688352642E+02  0.10189563301E+03  0.00000000000E+00 0.  1.
         22    1    1    2    0    0 -0.15534795703E+03  0.26320088877E+03 -0.44961449091E+03  0.54365511681E+03  0.00000000000E+00 0.  1.
<mgrwt>
<rscale>  0 0.67678852E+03</rscale>
<asrwt>0</asrwt>
<pdfrwt beam="1">  1        2 0.24253030E-01 0.67678852E+03</pdfrwt>
<pdfrwt beam="2">  1       -2 0.11175147E+00 0.67678852E+03</pdfrwt>
<totfact> 0.14513013E+02</totfact>
</mgrwt>
</event>
<event>
 6    1  0.1934315E-005  0.2235565E+04  0.7818608E-02  0.8503769E-01
          1   -1    0    0  501    0  0.00000000000E+00  0.00000000000E+00  0.90625539115E+03  0.90625539115E+03  0.00000000000E+00 0.  1.
         -1   -1    0    0    0  501 -0.00000000000E+00 -0.00000000000E+00 -0.13786817792E+04  0.13786817792E+04  0.00000000000E+00 0. -1.
         23    2    1    2    0    0 -0.36462395921E+03  0.12857458738E+03 -0.13065760675E+04  0.13655418560E+04  0.89897076747E+02 0.  0.
         13    1    3    3    0    0 -0.26286348463E+03  0.84976904322E+02 -0.78063604963E+03  0.82807664367E+03  0.00000000000E+00 0. -1.
        -13    1    3    3    0    0 -0.10176047459E+03  0.43597683062E+02 -0.52594001783E+03  0.53746521238E+03  0.00000000000E+00 0.  1.
         22    1    1    2    0    0  0.36462395921E+03 -0.12857458738E+03  0.83414967945E+03  0.91939531426E+03  0.00000000000E+00 0.  1.
<mgrwt>
<rscale>  0 0.22355651E+04</rscale>
<asrwt>0</asrwt>
<pdfrwt beam="1">  1        1 0.13942391E+00 0.22355651E+04</pdfrwt>
<pdfrwt beam="2">  1       -1 0.21210489E+00 0.22355651E+04</pdfrwt>
<totfact> 0.20331530E+00</totfact>
</mgrwt>
</event>
<event>
 6    1  0.1934315E-005  0.1929243E+04  0.7818608E-02  0.8640436E-01
         -2   -1    0    0    0  501 -0.00000000000E+00  0.00000000000E+00  0.66035323156E+03  0.66035323156E+03  0.00000000000E+00 0. -1.
          2   -1    0    0  501    0  0.00000000000E+00 -0.00000000000E+00 -0.14090858115E+04  0.14090858115E+04  0.00000000000E+00 0.  1.
         23    2    1    2    0    0  0.68398836974E+03  0.29208139692E+03  0.28039646480E+03  0.79969173627E+03  0.87937837286E+02 0.  0.
         11    1    3    3    0    0  0.36110022612E+03  0.18288608652E+03  0.11476758476E+03  0.42072828816E+03  0.00000000000E+00 0. -1.
        -11    1    3    3    0    0  0.32288814362E+03  0.10919531040E+03  0.16562888004E+03  0.37896344811E+03  0.00000000000E+00 0.  1.
         22    1    1    2    0    0 -0.68398836974E+03 -0.29208139692E+03 -0.10291290447E+04  0.12697473067E+04  0.00000000000E+00 0.  1.
<mgrwt>
<rscale>  0 0.19292427E+04</rscale>
<asrwt>0</asrwt>
<pdfrwt beam="1">  1        2 0.21678243E+00 0.19292427E+04</pdfrwt>
<pdfrwt beam="2">  1       -2 0.10159281E+00 0.19292427E+04</pdfrwt>
<totfact> 0.10629351E+01</totfact>
</mgrwt>
</event>
<event>
 6    1  0.1934315E-005  0.1234336E+04  0.7818608E-02  0.9083322E-01
         -2   -1    0    0    0  501 -0.00000000000E+00  0.00000000000E+00  0.22528591355E+03  0.22528591355E+03  0.00000000000E+00 0. -1.
          2   -1    0    0  501    0  0.00000000000E+00 -0.00000000000E+00 -0.16907230852E+04  0.16907230852E+04  0.00000000000E+00 0.  1.
         23    2    1    2    0    0  0.50781446452E+03 -0.15196399448E+03 -0.25540601163E+03  0.59497001589E+03  0.88252495955E+02 0.  0.
         13    1    3    3    0    0  0.41605912530E+02 -0.40050239529E+02 -0.31989366258E+02  0.66018127793E+02  0.00000000000E+00 0.  1.
        -13    1    3    3    0    0  0.46620855199E+03 -0.11191375495E+03 -0.22341664537E+03  0.52895188810E+03  0.00000000000E+00 0. -1.
         22    1    1    2    0    0 -0.50781446452E+03  0.15196399448E+03 -0.12100311600E+04  0.13210389829E+04  0.00000000000E+00 0.  1.
<mgrwt>
<rscale>  0 0.12343356E+04</rscale>
<asrwt>0</asrwt>
<pdfrwt beam="1">  1        2 0.26011125E+00 0.12343356E+04</pdfrwt>
<pdfrwt beam="2">  1       -2 0.34659371E-01 0.12343356E+04</pdfrwt>
<totfact> 0.76251386E+01</totfact>
</mgrwt>
</event>
<event>
 6    1  0.1934315E-005  0.2600386E+04  0.7818608E-02  0.8368070E-01
         -2   -1    0    0    0  501 -0.00000000000E+00  0.00000000000E+00  0.63848937700E+03  0.63848937700E+03  0.00000000000E+00 0. -1.
          2   -1    0    0  501    0  0.00000000000E+00 -0.00000000000E+00 -0.26476594395E+04  0.26476594395E+04  0.00000000000E+00 0.  1.
         23    2    1    2    0    0  0.95487818153E+03 -0.47376235468E+03 -0.19428994479E+04  0.22181437113E+04  0.95184816775E+02 0.  0.
         13    1    3    3    0    0  0.36630811079E+03 -0.15381365772E+03 -0.80472431573E+03  0.89745278297E+03  0.00000000000E+00 0.  1.
        -13    1    3    3    0    0  0.58857007073E+03 -0.31994869695E+03 -0.11381751321E+04  0.13206909284E+04  0.00000000000E+00 0. -1.
         22    1    1    2    0    0 -0.95487818153E+03  0.47376235468E+03 -0.66270614611E+02  0.10680051052E+04  0.00000000000E+00 0. -1.
<mgrwt>
<rscale>  0 0.26003865E+04</rscale>
<asrwt>0</asrwt>
<pdfrwt beam="1">  1        2 0.40733222E+00 0.26003865E+04</pdfrwt>
<pdfrwt beam="2">  1       -2 0.98229136E-01 0.26003865E+04</pdfrwt>
<totfact> 0.21735759E+00</totfact>
</mgrwt>
</event>
<event>
 6    1  0.1934315E-005  0.1209311E+04  0.7818608E-02  0.9104746E-01
         -2   -1    0    0    0  501 -0.00000000000E+00  0.00000000000E+00  0.36395893372E+03  0.36395893372E+03  0.00000000000E+00 0. -1.
          2   -1    0    0  501    0  0.00000000000E+00 -0.00000000000E+00 -0.10045311236E+04  0.10045311236E+04  0.00000000000E+00 0.  1.
         23    2    1    2    0    0  0.17698805243E+03  0.63111771506E+02  0.32475411027E+03  0.38504573649E+03  0.86528149405E+02 0.  0.
         13    1    3    3    0    0  0.11199423078E+03 -0.13069298692E+01  0.21258014924E+03  0.24028053530E+03  0.00000000000E+00 0. -1.
        -13    1    3    3    0    0  0.64993821651E+02  0.64418701375E+02  0.11217396103E+03  0.14476520118E+03  0.00000000000E+00 0.  1.
         22    1    1    2    0    0 -0.17698805243E+03 -0.63111771506E+02 -0.96532630013E+03  0.98344432080E+03  0.00000000000E+00 0.  1.
<mgrwt>
<rscale>  0 0.12093107E+04</rscale>
<asrwt>0</asrwt>
<pdfrwt beam="1">  1        2 0.15454325E+00 0.12093107E+04</pdfrwt>
<pdfrwt beam="2">  1       -2 0.55993683E-01 0.12093107E+04</pdfrwt>
<totfact> 0.73899229E+01</totfact>
</mgrwt>
</event>
<event>
 6    1  0.1934315E-005  0.2646896E+04  0.7818608E-02  0.8352444E-01
          2   -1    0    0  501    0  0.00000000000E+00  0.00000000000E+00  0.20737795276E+04  0.20737795276E+04  0.00000000000E+00 0.  1.
         -2   -1    0    0    0  501 -0.00000000000E+00 -0.00000000000E+00 -0.84460038906E+03  0.84460038906E+03  0.00000000000E+00 0. -1.
         23    2    1    2    0    0 -0.60446962924E+02  0.42056662034E+03 -0.76451787478E+03  0.87991041764E+03  0.96045014163E+02 0.  0.
         11    1    3    3    0    0 -0.57051386838E+02  0.28729422245E+03 -0.60381773655E+03  0.67111004312E+03  0.00000000000E+00 0.  1.
        -11    1    3    3    0    0 -0.33955760860E+01  0.13327239789E+03 -0.16070013823E+03  0.20880037453E+03  0.00000000000E+00 0. -1.
         22    1    1    2    0    0  0.60446962924E+02 -0.42056662034E+03  0.19936970133E+04  0.20384694990E+04  0.00000000000E+00 0.  1.
<mgrwt>
<rscale>  0 0.26468963E+04</rscale>
<asrwt>0</asrwt>
<pdfrwt beam="1">  1        2 0.31904300E+00 0.26468963E+04</pdfrwt>
<pdfrwt beam="2">  1       -2 0.12993852E+00 0.26468963E+04</pdfrwt>
<totfact> 0.23285205E+00</totfact>
</mgrwt>
</event>
<event>
 6    1  0.1934315E-005  0.1228615E+04  0.7818608E-02  0.9088172E-01
         -2   -1    0    0    0  501 -0.00000000000E+00  0.00000000000E+00  0.10639045376E+04  0.10639045376E+04  0.00000000000E+00 0. -1.
          2   -1    0    0  501    0  0.00000000000E+00 -0.00000000000E+00 -0.35470651901E+03  0.35470651901E+03  0.00000000000E+00 0.  1.
         23    2    1    2    0    0 -0.96306001166E+02 -0.58368685277E+03  0.53250114777E+03  0.80120764543E+03  0.91711671822E+02 0.  0.
         11    1    3    3    0    0 -0.53452717565E+02 -0.18051148388E+03  0.21830960245E+03  0.28827187055E+03  0.00000000000E+00 0. -1.
        -11    1    3    3    0    0 -0.42853283601E+02 -0.40317536889E+03  0.31419154533E+03  0.51293577488E+03  0.00000000000E+00 0.  1.
         22    1    1    2    0    0  0.96306001166E+02  0.58368685277E+03  0.17669687078E+03  0.61740341116E+03  0.00000000000E+00 0.  1.
<mgrwt>
<rscale>  0 0.12286153E+04</rscale>
<asrwt>0</asrwt>
<pdfrwt beam="1">  1        2 0.54570234E-01 0.12286153E+04</pdfrwt>
<pdfrwt beam="2">  1       -2 0.16367762E+00 0.12286153E+04</pdfrwt>
<totfact> 0.21197578E+01</totfact>
</mgrwt>
</event>
<event>
 6    1  0.3226521E-005  0.4562544E+04  0.7818608E-02  0.7899778E-01
          2   -1    0    0  501    0  0.00000000000E+00  0.00000000000E+00  0.24894571457E+04  0.24894571457E+04  0.00000000000E+00 0.  1.
         -2   -1    0    0    0  501 -0.00000000000E+00 -0.00000000000E+00 -0.20904963049E+04  0.20904963049E+04  0.00000000000E+00 0. -1.
         23    2    1    2    0    0  0.14268466857E+04  0.10877583211E+04 -0.12132931332E+04  0.21678024382E+04  0.90429830173E+02 0.  0.
         13    1    3    3    0    0  0.44134443450E+03  0.37056042431E+03 -0.42886861510E+03  0.71835104716E+03  0.00000000000E+00 0.  1.
        -13    1    3    3    0    0  0.98550225121E+03  0.71719789679E+03 -0.78442451812E+03  0.14494513910E+04  0.00000000000E+00 0. -1.
         22    1    1    2    0    0 -0.14268466857E+04 -0.10877583211E+04  0.16122539740E+04  0.24121510124E+04  0.00000000000E+00 0.  1.
<mgrwt>
<rscale>  0 0.45625436E+04</rscale>
<asrwt>0</asrwt>
<pdfrwt beam="1">  1        2 0.38299341E+00 0.45625436E+04</pdfrwt>
<pdfrwt beam="2">  1       -2 0.32161482E+00 0.45625436E+04</pdfrwt>
<totfact> 0.62281133E-02</totfact>
</mgrwt>
</event>
<event>
 6    1  0.1934315E-005  0.2112648E+04  0.7818608E-02  0.8555692E-01
          2   -1    0    0  501    0  0.00000000000E+00  0.00000000000E+00  0.13575879474E+04  0.13575879474E+04  0.00000000000E+00 0.  1.
         -2   -1    0    0    0  501 -0.00000000000E+00 -0.00000000000E+00 -0.82191365398E+03  0.82191365398E+03  0.00000000000E+00 0. -1.
         23    2    1    2    0    0 -0.99568847972E+03 -0.14802926849E+03 -0.51277278665E+02  0.10142461097E+04  0.11294954039E+03 0.  0.
         11    1    3    3    0    0 -0.66497649482E+03 -0.15227692105E+03 -0.31494669380E+02  0.68291574411E+03  0.00000000000E+00 0.  1.
        -11    1    3    3    0    0 -0.33071198490E+03  0.42476525532E+01 -0.19782609285E+02  0.33133036555E+03  0.00000000000E+00 0. -1.
         22    1    1    2    0    0  0.99568847972E+03  0.14802926849E+03  0.58695157205E+03  0.11652554917E+04  0.00000000000E+00 0. -1.
<mgrwt>
<rscale>  0 0.21126477E+04</rscale>
<asrwt>0</asrwt>
<pdfrwt beam="1">  1        2 0.20885968E+00 0.21126477E+04</pdfrwt>
<pdfrwt beam="2">  1       -2 0.12644825E+00 0.21126477E+04</pdfrwt>
<totfact> 0.65647179E+00</totfact>
</mgrwt>
</event>
<event>
 6    1  0.1934315E-005  0.4587607E+04  0.7818608E-02  0.7895476E-01
          2   -1    0    0  501    0  0.00000000000E+00  0.00000000000E+00  0.29422444591E+04  0.29422444591E+04  0.00000000000E+00 0. -1.
         -2   -1    0    0    0  501 -0.00000000000E+00 -0.00000000000E+00 -0.17882725046E+04  0.17882725046E+04  0.00000000000E+00 0.  1.
         23    2    1    2    0    0 -0.18141606904E+04  0.95201861921E+03 -0.48437783448E+03  0.21072158957E+04  0.90655847957E+02 0.  0.
         13    1    3    3    0    0 -0.11329926746E+04  0.54826299962E+03 -0.31411083101E+03  0.12972780471E+04  0.00000000000E+00 0. -1.
        -13    1    3    3    0    0 -0.68116801580E+03  0.40375561959E+03 -0.17026700347E+03  0.80993784858E+03  0.00000000000E+00 0.  1.
         22    1    1    2    0    0  0.18141606904E+04 -0.95201861921E+03  0.16383497890E+04  0.26233010679E+04  0.00000000000E+00 0.  1.
<mgrwt>
<rscale>  0 0.45876072E+04</rscale>
<asrwt>0</asrwt>
<pdfrwt beam="1">  1        2 0.45265300E+00 0.45876072E+04</pdfrwt>
<pdfrwt beam="2">  1       -2 0.27511885E+00 0.45876072E+04</pdfrwt>
<totfact> 0.64167335E-02</totfact>
</mgrwt>
</event>
<event>
 6    1  0.1934315E-005  0.2080648E+04  0.7818608E-02  0.8569816E-01
          2   -1    0    0  501    0  0.00000000000E+00  0.00000000000E+00  0.13434745501E+04  0.13434745501E+04  0.00000000000E+00 0.  1.
         -2   -1    0    0    0  501 -0.00000000000E+00 -0.00000000000E+00 -0.80557817294E+03  0.80557817294E+03  0.00000000000E+00 0. -1.
         23    2    1    2    0    0  0.53533871593E+03 -0.30187029953E+03  0.11338706778E+04  0.12929577600E+04  0.91454013874E+02 0.  0.
         11    1    3    3    0    0  0.28977983340E+03 -0.11103567978E+03  0.55966918884E+03  0.63994599379E+03  0.00000000000E+00 0.  1.
        -11    1    3    3    0    0  0.24555888253E+03 -0.19083461975E+03  0.57420148901E+03  0.65301176625E+03  0.00000000000E+00 0. -1.
         22    1    1    2    0    0 -0.53533871593E+03  0.30187029953E+03 -0.59597430072E+03  0.85609496297E+03  0.00000000000E+00 0.  1.
<mgrwt>
<rscale>  0 0.20806478E+04</rscale>
<asrwt>0</asrwt>
<pdfrwt beam="1">  1        2 0.20668839E+00 0.20806478E+04</pdfrwt>
<pdfrwt beam="2">  1       -2 0.12393510E+00 0.20806478E+04</pdfrwt>
<totfact> 0.70536765E+00</totfact>
</mgrwt>
</event>
<event>
 6    1  0.1934315E-005  0.1766617E+04  0.7818608E-02  0.8724256E-01
         -2   -1    0    0    0  501 -0.00000000000E+00  0.00000000000E+00  0.48405908281E+03  0.48405908281E+03  0.00000000000E+00 0. -1.
          2   -1    0    0  501    0  0.00000000000E+00 -0.00000000000E+00 -0.16118564949E+04  0.16118564949E+04  0.00000000000E+00 0.  1.
         23    2    1    2    0    0  0.41987985837E+02 -0.87059941455E+03 -0.41349710765E+03  0.96900331116E+03  0.91001249656E+02 0.  0.
         13    1    3    3    0    0  0.57699190345E+02 -0.54361554516E+03 -0.22424920793E+03  0.59087626857E+03  0.00000000000E+00 0.  1.
        -13    1    3    3    0    0 -0.15711204508E+02 -0.32698386939E+03 -0.18924789972E+03  0.37812704258E+03  0.00000000000E+00 0. -1.
         22    1    1    2    0    0 -0.41987985837E+02  0.87059941455E+03 -0.71430030442E+03  0.11269122665E+04  0.00000000000E+00 0. -1.
<mgrwt>
<rscale>  0 0.17666169E+04</rscale>
<asrwt>0</asrwt>
<pdfrwt beam="1">  1        2 0.24797792E+00 0.17666169E+04</pdfrwt>
<pdfrwt beam="2">  1       -2 0.74470629E-01 0.17666169E+04</pdfrwt>
<totfact> 0.16862065E+01</totfact>
</mgrwt>
</event>
<event>
 6    1  0.1934315E-005  0.1921534E+04  0.7818608E-02  0.8644211E-01
          2   -1    0    0  501    0  0.00000000000E+00  0.00000000000E+00  0.10754612798E+04  0.10754612798E+04  0.00000000000E+00 0.  1.
         -2   -1    0    0    0  501 -0.00000000000E+00 -0.00000000000E+00 -0.85830445793E+03  0.85830445793E+03  0.00000000000E+00 0. -1.
         23    2    1    2    0    0  0.35928464368E+03 -0.82137782887E+03  0.45084565585E+03  0.10072899075E+04  0.87316433010E+02 0.  0.
         11    1    3    3    0    0  0.14692230811E+03 -0.24364264111E+03  0.16136355107E+03  0.32708729233E+03  0.00000000000E+00 0. -1.
        -11    1    3    3    0    0  0.21236233556E+03 -0.57773518775E+03  0.28948210478E+03  0.68020261520E+03  0.00000000000E+00 0.  1.
         22    1    1    2    0    0 -0.35928464368E+03  0.82137782887E+03 -0.23368883393E+03  0.92647583025E+03  0.00000000000E+00 0. -1.
<mgrwt>
<rscale>  0 0.19215340E+04</rscale>
<asrwt>0</asrwt>
<pdfrwt beam="1">  1        2 0.16545558E+00 0.19215340E+04</pdfrwt>
<pdfrwt beam="2">  1       -2 0.13204684E+00 0.19215340E+04</pdfrwt>
<totfact> 0.88062360E+00</totfact>
</mgrwt>
</event>
<event>
 6    1  0.1934315E-005  0.1867826E+04  0.7818608E-02  0.8671039E-01
         -2   -1    0    0    0  501 -0.00000000000E+00  0.00000000000E+00  0.60429808461E+03  0.60429808461E+03  0.00000000000E+00 0. -1.
          2   -1    0    0  501    0  0.00000000000E+00 -0.00000000000E+00 -0.14433167839E+04  0.14433167839E+04  0.00000000000E+00 0.  1.
         23    2    1    2    0    0  0.55666590352E+03  0.45410493895E+02  0.39699148491E+03  0.69127412351E+03  0.91206543875E+02 0.  0.
         13    1    3    3    0    0  0.42480746034E+03  0.70945772995E+02  0.28555736398E+03  0.51675689563E+03  0.00000000000E+00 0. -1.
        -13    1    3    3    0    0  0.13185844318E+03 -0.25535279100E+02  0.11143412093E+03  0.17451722787E+03  0.00000000000E+00 0.  1.
         22    1    1    2    0    0 -0.55666590352E+03 -0.45410493895E+02 -0.12360101842E+04  0.13563407450E+04  0.00000000000E+00 0.  1.
<mgrwt>
<rscale>  0 0.18678261E+04</rscale>
<asrwt>0</asrwt>
<pdfrwt beam="1">  1        2 0.22204873E+00 0.18678261E+04</pdfrwt>
<pdfrwt beam="2">  1       -2 0.92968937E-01 0.18678261E+04</pdfrwt>
<totfact> 0.12582172E+01</totfact>
</mgrwt>
</event>
<event>
 6    1  0.1934315E-005  0.1275342E+04  0.7818608E-02  0.9049351E-01
          2   -1    0    0  501    0  0.00000000000E+00  0.00000000000E+00  0.10940140364E+04  0.10940140364E+04  0.00000000000E+00 0.  1.
         -2   -1    0    0    0  501 -0.00000000000E+00 -0.00000000000E+00 -0.37168131013E+03  0.37168131013E+03  0.00000000000E+00 0. -1.
         23    2    1    2    0    0 -0.12883331406E+03 -0.61430353692E+03  0.47091712251E+03  0.78954694261E+03  0.87490456760E+02 0.  0.
         11    1    3    3    0    0 -0.12758701746E+03 -0.41700412869E+03  0.31203006642E+03  0.53622164514E+03  0.00000000000E+00 0.  1.
        -11    1    3    3    0    0 -0.12462966019E+01 -0.19729940824E+03  0.15888705609E+03  0.25332529747E+03  0.00000000000E+00 0. -1.
         22    1    1    2    0    0  0.12883331406E+03  0.61430353692E+03  0.25141560374E+03  0.67614840390E+03  0.00000000000E+00 0. -1.
<mgrwt>
<rscale>  0 0.12753424E+04</rscale>
<asrwt>0</asrwt>
<pdfrwt beam="1">  1        2 0.16830985E+00 0.12753424E+04</pdfrwt>
<pdfrwt beam="2">  1       -2 0.57181741E-01 0.12753424E+04</pdfrwt>
<totfact> 0.61833706E+01</totfact>
</mgrwt>
</event>
<event>
 6    1  0.3646203E-005  0.3309231E+04  0.7818608E-02  0.8160550E-01
         -2   -1    0    0    0  501 -0.00000000000E+00  0.00000000000E+00  0.17646308747E+04  0.17646308747E+04  0.00000000000E+00 0. -1.
          2   -1    0    0  501    0  0.00000000000E+00 -0.00000000000E+00 -0.15514593933E+04  0.15514593933E+04  0.00000000000E+00 0.  1.
         23    2    1    2    0    0  0.11972730275E+02 -0.16388167620E+04  0.32573158741E+03  0.16733688968E+04  0.90546519563E+02 0.  0.
         13    1    3    3    0    0 -0.30852240118E+02 -0.81659324124E+03  0.18911506230E+03  0.83877344328E+03  0.00000000000E+00 0. -1.
        -13    1    3    3    0    0  0.42824970393E+02 -0.82222352076E+03  0.13661652511E+03  0.83459545357E+03  0.00000000000E+00 0.  1.
         22    1    1    2    0    0 -0.11972730275E+02  0.16388167620E+04 -0.11256010597E+03  0.16427213711E+04  0.00000000000E+00 0.  1.
<mgrwt>
<rscale>  0 0.33092314E+04</rscale>
<asrwt>0</asrwt>
<pdfrwt beam="1">  1        2 0.23868606E+00 0.33092314E+04</pdfrwt>
<pdfrwt beam="2">  1       -2 0.27148167E+00 0.33092314E+04</pdfrwt>
<totfact> 0.47037354E-01</totfact>
</mgrwt>
</event>
<event>
 6    1  0.1934315E-005  0.6454950E+04  0.7818608E-02  0.7636418E-01
         -2   -1    0    0    0  501 -0.00000000000E+00  0.00000000000E+00  0.38232456376E+04  0.38232456376E+04  0.00000000000E+00 0. -1.
          2   -1    0    0  501    0  0.00000000000E+00 -0.00000000000E+00 -0.27245422286E+04  0.27245422286E+04  0.00000000000E+00 0.  1.
         23    2    1    2    0    0  0.29251614307E+04  0.13348724824E+04  0.27360058466E+03  0.32282625069E+04  0.91474552074E+02 0.  0.
         13    1    3    3    0    0  0.30512558578E+03  0.16637557183E+03  0.15514184162E+02  0.34788380806E+03  0.00000000000E+00 0.  1.
        -13    1    3    3    0    0  0.26200358449E+04  0.11684969106E+04  0.25808640050E+03  0.28803786989E+04  0.00000000000E+00 0. -1.
         22    1    1    2    0    0 -0.29251614307E+04 -0.13348724824E+04  0.82510282433E+03  0.33195253593E+04  0.00000000000E+00 0.  1.
<mgrwt>
<rscale>  0 0.64549498E+04</rscale>
<asrwt>0</asrwt>
<pdfrwt beam="1">  1        2 0.41916034E+00 0.64549498E+04</pdfrwt>
<pdfrwt beam="2">  1       -2 0.58819164E+00 0.64549498E+04</pdfrwt>
<totfact> 0.96940310E-04</totfact>
</mgrwt>
</event>
<event>
 6    1  0.1934315E-005  0.5950339E+03  0.7818608E-02  0.9915763E-01
         -2   -1    0    0    0  501 -0.00000000000E+00  0.00000000000E+00  0.80762247264E+02  0.80762247264E+02  0.00000000000E+00 0. -1.
          2   -1    0    0  501    0  0.00000000000E+00 -0.00000000000E+00 -0.10960111871E+04  0.10960111871E+04  0.00000000000E+00 0.  1.
         23    2    1    2    0    0  0.12447690864E+03 -0.23654478025E+03 -0.74710466328E+03  0.79815847575E+03  0.86276535993E+02 0.  0.
         13    1    3    3    0    0  0.76365707100E+02 -0.84973463625E+02 -0.40667912881E+03  0.42242173778E+03  0.00000000000E+00 0. -1.
        -13    1    3    3    0    0  0.48111201541E+02 -0.15157131662E+03 -0.34042553447E+03  0.37573673796E+03  0.00000000000E+00 0.  1.
         22    1    1    2    0    0 -0.12447690864E+03  0.23654478025E+03 -0.26814427658E+03  0.37861495864E+03  0.00000000000E+00 0. -1.
<mgrwt>
<rscale>  0 0.59503387E+03</rscale>
<asrwt>0</asrwt>
<pdfrwt beam="1">  1        2 0.16861710E+00 0.59503387E+03</pdfrwt>
<pdfrwt beam="2">  1       -2 0.12424962E-01 0.59503387E+03</pdfrwt>
<totfact> 0.10628437E+03</totfact>
</mgrwt>
</event>
<event>
 6    1  0.1934315E-005  0.1331560E+04  0.7818608E-02  0.9004906E-01
          2   -1    0    0  501    0  0.00000000000E+00  0.00000000000E+00  0.59306729377E+03  0.59306729377E+03  0.00000000000E+00 0.  1.
         -2   -1    0    0    0  501 -0.00000000000E+00 -0.00000000000E+00 -0.74740718707E+03  0.74740718707E+03  0.00000000000E+00 0. -1.
         23    2    1    2    0    0  0.47898462163E+03  0.19096300029E+03  0.34094851828E+03  0.62548934401E+03  0.95382871187E+02 0.  0.
         11    1    3    3    0    0  0.12461717740E+03  0.91764317096E+02  0.78742084367E+02  0.17363883968E+03  0.00000000000E+00 0. -1.
        -11    1    3    3    0    0  0.35436744423E+03  0.99198683190E+02  0.26220643392E+03  0.45185050433E+03  0.00000000000E+00 0.  1.
         22    1    1    2    0    0 -0.47898462163E+03 -0.19096300029E+03 -0.49528841158E+03  0.71498513683E+03  0.00000000000E+00 0.  1.
<mgrwt>
<rscale>  0 0.13315596E+04</rscale>
<asrwt>0</asrwt>
<pdfrwt beam="1">  1        2 0.91241121E-01 0.13315596E+04</pdfrwt>
<pdfrwt beam="2">  1       -2 0.11498572E+00 0.13315596E+04</pdfrwt>
<totfact> 0.29013338E+01</totfact>
</mgrwt>
</event>
<event>
 6    1  0.1934315E-005  0.3298453E+04  0.7818608E-02  0.8163289E-01
         -2   -1    0    0    0  501 -0.00000000000E+00  0.00000000000E+00  0.12977056931E+04  0.12977056931E+04  0.00000000000E+00 0. -1.
          2   -1    0    0  501    0  0.00000000000E+00 -0.00000000000E+00 -0.20959662632E+04  0.20959662632E+04  0.00000000000E+00 0.  1.
         23    2    1    2    0    0  0.56909268529E+03  0.32109828510E+03 -0.19559722854E+04  0.20642860045E+04  0.92078954564E+02 0.  0.
         11    1    3    3    0    0  0.40511631016E+03  0.18193591507E+03 -0.12717489210E+04  0.13470579868E+04  0.00000000000E+00 0.  1.
        -11    1    3    3    0    0  0.16397637513E+03  0.13916237003E+03 -0.68422336442E+03  0.71722801762E+03  0.00000000000E+00 0. -1.
         22    1    1    2    0    0 -0.56909268529E+03 -0.32109828510E+03  0.11577117153E+04  0.13293859518E+04  0.00000000000E+00 0. -1.
<mgrwt>
<rscale>  0 0.32984526E+04</rscale>
<asrwt>0</asrwt>
<pdfrwt beam="1">  1        2 0.32245635E+00 0.32984526E+04</pdfrwt>
<pdfrwt beam="2">  1       -2 0.19964703E+00 0.32984526E+04</pdfrwt>
<totfact> 0.65973673E-01</totfact>
</mgrwt>
</event>
<event>
 6    1  0.1934315E-005  0.3708030E+04  0.7818608E-02  0.8066185E-01
         -2   -1    0    0    0  501 -0.00000000000E+00  0.00000000000E+00  0.18421709473E+04  0.18421709473E+04  0.00000000000E+00 0. -1.
          2   -1    0    0  501    0  0.00000000000E+00 -0.00000000000E+00 -0.18659355548E+04  0.18659355548E+04  0.00000000000E+00 0.  1.
         23    2    1    2    0    0 -0.59393216788E+03 -0.17461976300E+04  0.16528270578E+03  0.18540028184E+04  0.89702255405E+02 0.  0.
         13    1    3    3    0    0 -0.36475526128E+03 -0.11007748075E+04  0.14640200489E+03  0.11688392210E+04  0.00000000000E+00 0.  1.
        -13    1    3    3    0    0 -0.22917690661E+03 -0.64542282255E+03  0.18880700886E+02  0.68516359744E+03  0.00000000000E+00 0. -1.
         22    1    1    2    0    0  0.59393216788E+03  0.17461976300E+04 -0.18904731328E+03  0.18541036837E+04  0.00000000000E+00 0. -1.
<mgrwt>
<rscale>  0 0.37080303E+04</rscale>
<asrwt>0</asrwt>
<pdfrwt beam="1">  1        2 0.28706701E+00 0.37080303E+04</pdfrwt>
<pdfrwt beam="2">  1       -2 0.28341092E+00 0.37080303E+04</pdfrwt>
<totfact> 0.25721942E-01</totfact>
</mgrwt>
</event>
<event>
 6    1  0.1934315E-005  0.3068653E+04  0.7818608E-02  0.8224394E-01
          2   -1    0    0  501    0  0.00000000000E+00  0.00000000000E+00  0.53896792851E+04  0.53896792851E+04  0.00000000000E+00 0.  1.
         -2   -1    0    0    0  501 -0.00000000000E+00 -0.00000000000E+00 -0.43678991427E+03  0.43678991427E+03  0.00000000000E+00 0. -1.
         23    2    1    2    0    0  0.14805609367E+04 -0.38613346284E+03  0.26574748138E+04  0.30678304541E+04  0.90838157579E+02 0.  0.
         13    1    3    3    0    0  0.56882620128E+03 -0.19328782409E+03  0.10242998451E+04  0.11874820431E+04  0.00000000000E+00 0. -1.
        -13    1    3    3    0    0  0.91173473537E+03 -0.19284563875E+03  0.16331749687E+04  0.18803484109E+04  0.00000000000E+00 0.  1.
         22    1    1    2    0    0 -0.14805609367E+04  0.38613346284E+03  0.22954145571E+04  0.27586387453E+04  0.00000000000E+00 0. -1.
<mgrwt>
<rscale>  0 0.30686528E+04</rscale>
<asrwt>0</asrwt>
<pdfrwt beam="1">  1        2 0.82918138E+00 0.30686528E+04</pdfrwt>
<pdfrwt beam="2">  1       -2 0.67198452E-01 0.30686528E+04</pdfrwt>
<totfact> 0.16144121E-02</totfact>
</mgrwt>
</event>
<event>
 6    1  0.1934315E-005  0.3346778E+04  0.7818608E-02  0.8151094E-01
         -2   -1    0    0    0  501 -0.00000000000E+00  0.00000000000E+00  0.11983377964E+04  0.11983377964E+04  0.00000000000E+00 0. -1.
          2   -1    0    0  501    0  0.00000000000E+00 -0.00000000000E+00 -0.23367622853E+04  0.23367622853E+04  0.00000000000E+00 0.  1.
         23    2    1    2    0    0 -0.54465383100E+03 -0.10026333602E+04 -0.18605810576E+04  0.21847551035E+04  0.97321837658E+02 0.  0.
         13    1    3    3    0    0 -0.36059241999E+03 -0.63897005340E+03 -0.12803810839E+04  0.14756982559E+04  0.00000000000E+00 0. -1.
        -13    1    3    3    0    0 -0.18406141101E+03 -0.36366330678E+03 -0.58019997370E+03  0.70905684765E+03  0.00000000000E+00 0.  1.
         22    1    1    2    0    0  0.54465383100E+03  0.10026333602E+04  0.72215656868E+03  0.13503449782E+04  0.00000000000E+00 0. -1.
<mgrwt>
<rscale>  0 0.33467779E+04</rscale>
<asrwt>0</asrwt>
<pdfrwt beam="1">  1        2 0.35950189E+00 0.33467779E+04</pdfrwt>
<pdfrwt beam="2">  1       -2 0.18435966E+00 0.33467779E+04</pdfrwt>
<totfact> 0.60837617E-01</totfact>
</mgrwt>
</event>
<event>
 6    1  0.1934315E-005  0.3528683E+04  0.7818608E-02  0.8107026E-01
         -2   -1    0    0    0  501 -0.00000000000E+00  0.00000000000E+00  0.94067065691E+03  0.94067065691E+03  0.00000000000E+00 0. -1.
          2   -1    0    0  501    0  0.00000000000E+00 -0.00000000000E+00 -0.33092351889E+04  0.33092351889E+04  0.00000000000E+00 0.  1.
         23    2    1    2    0    0  0.44699600479E+03 -0.17034740738E+04 -0.10882892333E+04  0.20725831345E+04  0.97969617080E+02 0.  0.
         11    1    3    3    0    0  0.48324041630E+02 -0.21063282331E+03 -0.17174938469E+03  0.27604211708E+03  0.00000000000E+00 0.  1.
        -11    1    3    3    0    0  0.39867196316E+03 -0.14928412505E+04 -0.91653984859E+03  0.17965410175E+04  0.00000000000E+00 0. -1.
         22    1    1    2    0    0 -0.44699600479E+03  0.17034740738E+04 -0.12802752987E+04  0.21773227112E+04  0.00000000000E+00 0.  1.
<mgrwt>
<rscale>  0 0.35286827E+04</rscale>
<asrwt>0</asrwt>
<pdfrwt beam="1">  1        2 0.50911310E+00 0.35286827E+04</pdfrwt>
<pdfrwt beam="2">  1       -2 0.14471856E+00 0.35286827E+04</pdfrwt>
<totfact> 0.29612709E-01</totfact>
</mgrwt>
</event>
<event>
 6    1  0.1934315E-005  0.2076828E+04  0.7818608E-02  0.8571520E-01
          2   -1    0    0  501    0  0.00000000000E+00  0.00000000000E+00  0.19715638277E+04  0.19715638277E+04  0.00000000000E+00 0.  1.
         -2   -1    0    0    0  501 -0.00000000000E+00 -0.00000000000E+00 -0.54692805846E+03  0.54692805846E+03  0.00000000000E+00 0. -1.
         23    2    1    2    0    0 -0.54445127900E+03  0.32434839933E+03  0.17082366944E+04  0.18241875119E+04  0.89209837572E+02 0.  0.
         13    1    3    3    0    0 -0.20100347977E+03  0.73666543500E+02  0.61319987836E+03  0.64949461070E+03  0.00000000000E+00 0. -1.
        -13    1    3    3    0    0 -0.34344779924E+03  0.25068185583E+03  0.10950368161E+04  0.11746929012E+04  0.00000000000E+00 0.  1.
         22    1    1    2    0    0  0.54445127900E+03 -0.32434839933E+03 -0.28360092517E+03  0.69430437426E+03  0.00000000000E+00 0. -1.
<mgrwt>
<rscale>  0 0.20768279E+04</rscale>
<asrwt>0</asrwt>
<pdfrwt beam="1">  1        2 0.30331751E+00 0.20768279E+04</pdfrwt>
<pdfrwt beam="2">  1       -2 0.84142780E-01 0.20768279E+04</pdfrwt>
<totfact> 0.78877645E+00</totfact>
</mgrwt>
</event>
<event>
 6    1  0.1934315E-005  0.3479567E+04  0.7818608E-02  0.8118650E-01
          2   -1    0    0  501    0  0.00000000000E+00  0.00000000000E+00  0.40326510546E+04  0.40326510546E+04  0.00000000000E+00 0.  1.
         -2   -1    0    0    0  501 -0.00000000000E+00 -0.00000000000E+00 -0.75058466767E+03  0.75058466767E+03  0.00000000000E+00 0. -1.
         23    2    1    2    0    0  0.94709139756E+02  0.16950706825E+04  0.21576351285E+04  0.27469203993E+04  0.89150953208E+02 0.  0.
         11    1    3    3    0    0  0.94736554936E+02  0.93607481778E+03  0.12152173288E+04  0.15368683208E+04  0.00000000000E+00 0.  1.
        -11    1    3    3    0    0 -0.27415179698E-01  0.75899586468E+03  0.94241779974E+03  0.12100520785E+04  0.00000000000E+00 0. -1.
         22    1    1    2    0    0 -0.94709139756E+02 -0.16950706825E+04  0.11244312584E+04  0.20363153230E+04  0.00000000000E+00 0. -1.
<mgrwt>
<rscale>  0 0.34795667E+04</rscale>
<asrwt>0</asrwt>
<pdfrwt beam="1">  1        2 0.62040784E+00 0.34795667E+04</pdfrwt>
<pdfrwt beam="2">  1       -2 0.11547457E+00 0.34795667E+04</pdfrwt>
<totfact> 0.15419289E-01</totfact>
</mgrwt>
</event>
<event>
 6    1  0.1934315E-005  0.2691409E+04  0.7818608E-02  0.8337798E-01
          2   -1    0    0  501    0  0.00000000000E+00  0.00000000000E+00  0.10537714734E+04  0.10537714734E+04  0.00000000000E+00 0.  1.
         -2   -1    0    0    0  501 -0.00000000000E+00 -0.00000000000E+00 -0.17185138615E+04  0.17185138615E+04  0.00000000000E+00 0. -1.
         23    2    1    2    0    0 -0.48199497836E+03 -0.12421482719E+04 -0.51467152699E+03  0.14314748517E+04  0.94773317187E+02 0.  0.
         13    1    3    3    0    0 -0.45043494013E+03 -0.10814787984E+04 -0.46401072438E+03  0.12600769734E+04  0.00000000000E+00 0. -1.
        -13    1    3    3    0    0 -0.31560038226E+02 -0.16066947353E+03 -0.50660802605E+02  0.17139787822E+03  0.00000000000E+00 0.  1.
         22    1    1    2    0    0  0.48199497836E+03  0.12421482719E+04 -0.15007086119E+03  0.13408104832E+04  0.00000000000E+00 0. -1.
<mgrwt>
<rscale>  0 0.26914092E+04</rscale>
<asrwt>0</asrwt>
<pdfrwt beam="1">  1        2 0.16211869E+00 0.26914092E+04</pdfrwt>
<pdfrwt beam="2">  1       -2 0.26438675E+00 0.26914092E+04</pdfrwt>
<totfact> 0.10719631E+00</totfact>
</mgrwt>
</event>
<event>
 6    1  0.1934315E-005  0.1763901E+04  0.7818608E-02  0.8725736E-01
         -2   -1    0    0    0  501 -0.00000000000E+00  0.00000000000E+00  0.35921710641E+03  0.35921710641E+03  0.00000000000E+00 0. -1.
          2   -1    0    0  501    0  0.00000000000E+00 -0.00000000000E+00 -0.21653652990E+04  0.21653652990E+04  0.00000000000E+00 0.  1.
         23    2    1    2    0    0 -0.84283183172E+03 -0.24172868493E+03 -0.10057633790E+04  0.13373949293E+04  0.90922872157E+02 0.  0.
         11    1    3    3    0    0 -0.63856960277E+03 -0.20521113209E+03 -0.81518843230E+03  0.10556585274E+04  0.00000000000E+00 0.  1.
        -11    1    3    3    0    0 -0.20426222894E+03 -0.36517552835E+02 -0.19057494667E+03  0.28173640186E+03  0.00000000000E+00 0. -1.
         22    1    1    2    0    0  0.84283183172E+03  0.24172868493E+03 -0.80038481367E+03  0.11871874762E+04  0.00000000000E+00 0. -1.
<mgrwt>
<rscale>  0 0.17639005E+04</rscale>
<asrwt>0</asrwt>
<pdfrwt beam="1">  1        2 0.33313312E+00 0.17639005E+04</pdfrwt>
<pdfrwt beam="2">  1       -2 0.55264171E-01 0.17639005E+04</pdfrwt>
<totfact> 0.15743635E+01</totfact>
</mgrwt>
</event>
<event>
 6    1  0.1934315E-005  0.3796536E+04  0.7818608E-02  0.8046899E-01
         -2   -1    0    0    0  501 -0.00000000000E+00  0.00000000000E+00  0.11739154000E+04  0.11739154000E+04  0.00000000000E+00 0. -1.
          2   -1    0    0  501    0  0.00000000000E+00 -0.00000000000E+00 -0.30695746670E+04  0.30695746670E+04  0.00000000000E+00 0.  1.
         23    2    1    2    0    0 -0.12374263409E+04 -0.10747573188E+04  0.11871616568E+03  0.16465619533E+04  0.10366047828E+03 0.  0.
         13    1    3    3    0    0 -0.45051200543E+03 -0.33334449351E+03  0.18089435271E+02  0.56071993549E+03  0.00000000000E+00 0.  1.
        -13    1    3    3    0    0 -0.78691433547E+03 -0.74141282529E+03  0.10062673041E+03  0.10858420179E+04  0.00000000000E+00 0. -1.
         22    1    1    2    0    0  0.12374263409E+04  0.10747573188E+04 -0.20143754327E+04  0.25969281136E+04  0.00000000000E+00 0.  1.
<mgrwt>
<rscale>  0 0.37965358E+04</rscale>
<asrwt>0</asrwt>
<pdfrwt beam="1">  1        2 0.47224226E+00 0.37965358E+04</pdfrwt>
<pdfrwt beam="2">  1       -2 0.18060237E+00 0.37965358E+04</pdfrwt>
<totfact> 0.22649552E-01</totfact>
</mgrwt>
</event>
<event>
 6    1  0.1934315E-005  0.3651199E+04  0.7818608E-02  0.8078864E-01
          2   -1    0    0  501    0  0.00000000000E+00  0.00000000000E+00  0.30176376891E+04  0.30176376891E+04  0.00000000000E+00 0.  1.
         -2   -1    0    0    0  501 -0.00000000000E+00 -0.00000000000E+00 -0.11044447323E+04  0.11044447323E+04  0.00000000000E+00 0. -1.
         23    2    1    2    0    0 -0.95972936979E+03  0.55527846507E+03 -0.67844613475E+03  0.13032160149E+04  0.93103096965E+02 0.  0.
         13    1    3    3    0    0 -0.56621692244E+03  0.28396348999E+03 -0.41750271992E+03  0.75864707740E+03  0.00000000000E+00 0. -1.
        -13    1    3    3    0    0 -0.39351244735E+03  0.27131497509E+03 -0.26094341483E+03  0.54456893748E+03  0.00000000000E+00 0.  1.
         22    1    1    2    0    0  0.95972936979E+03 -0.55527846507E+03  0.25916390916E+04  0.28188664065E+04  0.00000000000E+00 0.  1.
<mgrwt>
<rscale>  0 0.36511993E+04</rscale>
<asrwt>0</asrwt>
<pdfrwt beam="1">  1        2 0.46425195E+00 0.36511993E+04</pdfrwt>
<pdfrwt beam="2">  1       -2 0.16991458E+00 0.36511993E+04</pdfrwt>
<totfact> 0.29380715E-01</totfact>
</mgrwt>
</event>
<event>
 6    1  0.1934315E-005  0.1968138E+04  0.7818608E-02  0.8621664E-01
         -2   -1    0    0    0  501 -0.00000000000E+00  0.00000000000E+00  0.33342163403E+03  0.33342163403E+03  0.00000000000E+00 0. -1.
          2   -1    0    0  501    0  0.00000000000E+00 -0.00000000000E+00 -0.29044067715E+04  0.29044067715E+04  0.00000000000E+00 0.  1.
         23    2    1    2    0    0 -0.63889305210E+02 -0.10873439620E+03 -0.28902954623E+04  0.28945149979E+04  0.92218227062E+02 0.  0.
         11    1    3    3    0    0 -0.65660491842E+02 -0.37898297891E+02 -0.98984828140E+03  0.99274729985E+03  0.00000000000E+00 0.  1.
        -11    1    3    3    0    0  0.17711866321E+01 -0.70836098304E+02 -0.19004471809E+04  0.19017676981E+04  0.00000000000E+00 0. -1.
         22    1    1    2    0    0  0.63889305210E+02  0.10873439620E+03  0.31931032489E+03  0.34331340757E+03  0.00000000000E+00 0. -1.
<mgrwt>
<rscale>  0 0.19681383E+04</rscale>
<asrwt>0</asrwt>
<pdfrwt beam="1">  1        2 0.44683181E+00 0.19681383E+04</pdfrwt>
<pdfrwt beam="2">  1       -2 0.51295637E-01 0.19681383E+04</pdfrwt>
<totfact> 0.66924417E+00</totfact>
</mgrwt>
</event>
<event>
 6    1  0.1934315E-005  0.6669887E+03  0.7818608E-02  0.9775413E-01
         -2   -1    0    0    0  501 -0.00000000000E+00  0.00000000000E+00  0.82075535588E+02  0.82075535588E+02  0.00000000000E+00 0. -1.
          2   -1    0    0  501    0  0.00000000000E+00 -0.00000000000E+00 -0.13550748864E+04  0.13550748864E+04  0.00000000000E+00 0.  1.
         23    2    1    2    0    0  0.24451098171E+03 -0.16921254992E+03 -0.93434636400E+03  0.98647941925E+03  0.10825899248E+03 0.  0.
         13    1    3    3    0    0  0.21419182631E+03 -0.12625730777E+03 -0.86136302000E+03  0.89652958593E+03  0.00000000000E+00 0. -1.
        -13    1    3    3    0    0  0.30319155405E+02 -0.42955242152E+02 -0.72983343995E+02  0.89949833315E+02  0.00000000000E+00 0.  1.
         22    1    1    2    0    0 -0.24451098171E+03  0.16921254992E+03 -0.33865298679E+03  0.45067100272E+03  0.00000000000E+00 0.  1.
<mgrwt>
<rscale>  0 0.66698875E+03</rscale>
<asrwt>0</asrwt>
<pdfrwt beam="1">  1        2 0.20847304E+00 0.66698875E+03</pdfrwt>
<pdfrwt beam="2">  1       -2 0.12627006E-01 0.66698875E+03</pdfrwt>
<totfact> 0.72787270E+02</totfact>
</mgrwt>
</event>
<event>
 6    1  0.1934315E-005  0.2828751E+04  0.7818608E-02  0.8294398E-01
          2   -1    0    0  501    0  0.00000000000E+00  0.00000000000E+00  0.12604069807E+04  0.12604069807E+04  0.00000000000E+00 0.  1.
         -2   -1    0    0    0  501 -0.00000000000E+00 -0.00000000000E+00 -0.15871524477E+04  0.15871524477E+04  0.00000000000E+00 0. -1.
         23    2    1    2    0    0 -0.10026878019E+04 -0.63398734113E+02 -0.11637897096E+04  0.15398724277E+04  0.86013823393E+02 0.  0.
         13    1    3    3    0    0 -0.17635057097E+03 -0.29443321218E+02 -0.25058303446E+03  0.30782834535E+03  0.00000000000E+00 0.  1.
        -13    1    3    3    0    0 -0.82633723095E+03 -0.33955412894E+02 -0.91320667517E+03  0.12320440824E+04  0.00000000000E+00 0. -1.
         22    1    1    2    0    0  0.10026878019E+04  0.63398734113E+02  0.83704424265E+03  0.13076870007E+04  0.00000000000E+00 0.  1.
<mgrwt>
<rscale>  0 0.28287510E+04</rscale>
<asrwt>0</asrwt>
<pdfrwt beam="1">  1        2 0.19390877E+00 0.28287510E+04</pdfrwt>
<pdfrwt beam="2">  1       -2 0.24417730E+00 0.28287510E+04</pdfrwt>
<totfact> 0.10566929E+00</totfact>
</mgrwt>
</event>
<event>
 6    1  0.1934315E-005  0.1103542E+04  0.7818608E-02  0.9201747E-01
         -2   -1    0    0    0  501 -0.00000000000E+00  0.00000000000E+00  0.18193725230E+03  0.18193725230E+03  0.00000000000E+00 0. -1.
          2   -1    0    0  501    0  0.00000000000E+00 -0.00000000000E+00 -0.16733853010E+04  0.16733853010E+04  0.00000000000E+00 0.  1.
         23    2    1    2    0    0  0.25522663735E+03 -0.40571984858E+02  0.61307714771E+02  0.28120782326E+03  0.92371432826E+02 0.  0.
         11    1    3    3    0    0  0.49325656852E+02 -0.43798399694E+02 -0.12910869634E+01  0.65977171394E+02  0.00000000000E+00 0.  1.
        -11    1    3    3    0    0  0.20590098050E+03  0.32264148363E+01  0.62598801734E+02  0.21523065186E+03  0.00000000000E+00 0. -1.
         22    1    1    2    0    0 -0.25522663735E+03  0.40571984858E+02 -0.15527557634E+04  0.15741147300E+04  0.00000000000E+00 0.  1.
<mgrwt>
<rscale>  0 0.11035418E+04</rscale>
<asrwt>0</asrwt>
<pdfrwt beam="1">  1        2 0.25744389E+00 0.11035418E+04</pdfrwt>
<pdfrwt beam="2">  1       -2 0.27990347E-01 0.11035418E+04</pdfrwt>
<totfact> 0.11747634E+02</totfact>
</mgrwt>
</event>
<event>
 6    1  0.1934315E-005  0.3682580E+04  0.7818608E-02  0.8071833E-01
          2   -1    0    0  501    0  0.00000000000E+00  0.00000000000E+00  0.17660414042E+04  0.17660414042E+04  0.00000000000E+00 0.  1.
         -2   -1    0    0    0  501 -0.00000000000E+00 -0.00000000000E+00 -0.19197445722E+04  0.19197445722E+04  0.00000000000E+00 0. -1.
         23    2    1    2    0    0  0.33202452021E+03 -0.17640384022E+04 -0.48244211213E+03  0.18609185675E+04  0.90530419584E+02 0.  0.
         13    1    3    3    0    0  0.17093577604E+03 -0.75365127089E+03 -0.17189538693E+03  0.79168005008E+03  0.00000000000E+00 0.  1.
        -13    1    3    3    0    0  0.16108874417E+03 -0.10103871313E+04 -0.31054672520E+03  0.10692385174E+04  0.00000000000E+00 0. -1.
         22    1    1    2    0    0 -0.33202452021E+03  0.17640384022E+04  0.32873894409E+03  0.18248674088E+04  0.00000000000E+00 0.  1.
<mgrwt>
<rscale>  0 0.36825797E+04</rscale>
<asrwt>0</asrwt>
<pdfrwt beam="1">  1        2 0.27169868E+00 0.36825797E+04</pdfrwt>
<pdfrwt beam="2">  1       -2 0.29534532E+00 0.36825797E+04</pdfrwt>
<totfact> 0.24758562E-01</totfact>
</mgrwt>
</event>
<event>
 6    1  0.1934315E-005  0.1260318E+04  0.7818608E-02  0.9061639E-01
         -4   -1    0    0    0  501 -0.00000000000E+00  0.00000000000E+00  0.20508401564E+03  0.20508401564E+03  0.00000000000E+00 0. -1.
          4   -1    0    0  501    0  0.00000000000E+00 -0.00000000000E+00 -0.19362819489E+04  0.19362819489E+04  0.00000000000E+00 0.  1.
         23    2    1    2    0    0 -0.34527389012E+03  0.13214951510E+03 -0.17302268527E+04  0.17716654147E+04  0.91846754282E+02 0.  0.
         13    1    3    3    0    0 -0.27013283705E+03  0.77342583486E+02 -0.11377849289E+04  0.11719676485E+04  0.00000000000E+00 0.  1.
        -13    1    3    3    0    0 -0.75141053070E+02  0.54806931611E+02 -0.59244192387E+03  0.59969776619E+03  0.00000000000E+00 0. -1.
         22    1    1    2    0    0  0.34527389012E+03 -0.13214951510E+03 -0.97108052600E+00  0.36970054982E+03  0.00000000000E+00 0. -1.
<mgrwt>
<rscale>  0 0.12603182E+04</rscale>
<asrwt>0</asrwt>
<pdfrwt beam="1">  1        4 0.29788954E+00 0.12603182E+04</pdfrwt>
<pdfrwt beam="2">  1       -4 0.31551386E-01 0.12603182E+04</pdfrwt>
<totfact> 0.61652147E-01</totfact>
</mgrwt>
</event>
<event>
 6    1  0.1934315E-005  0.3114591E+04  0.7818608E-02  0.8211745E-01
          2   -1    0    0  501    0  0.00000000000E+00  0.00000000000E+00  0.41037482595E+04  0.41037482595E+04  0.00000000000E+00 0.  1.
         -2   -1    0    0    0  501 -0.00000000000E+00 -0.00000000000E+00 -0.59096435318E+03  0.59096435318E+03  0.00000000000E+00 0. -1.
         23    2    1    2    0    0  0.19101180365E+03 -0.14838019827E+04  0.24024407898E+04  0.28316464116E+04  0.91355454562E+02 0.  0.
         13    1    3    3    0    0  0.12424420860E+03 -0.73576455350E+03  0.12635772545E+04  0.14674513892E+04  0.00000000000E+00 0.  1.
        -13    1    3    3    0    0  0.66767595049E+02 -0.74803742923E+03  0.11388635352E+04  0.13641950224E+04  0.00000000000E+00 0. -1.
         22    1    1    2    0    0 -0.19101180365E+03  0.14838019827E+04  0.11103431166E+04  0.18630662011E+04  0.00000000000E+00 0. -1.
<mgrwt>
<rscale>  0 0.31145908E+04</rscale>
<asrwt>0</asrwt>
<pdfrwt beam="1">  1        2 0.63134587E+00 0.31145908E+04</pdfrwt>
<pdfrwt beam="2">  1       -2 0.90917595E-01 0.31145908E+04</pdfrwt>
<totfact> 0.24562608E-01</totfact>
</mgrwt>
</event>
<event>
 6    1  0.1934315E-005  0.1100574E+04  0.7818608E-02  0.9204633E-01
         -2   -1    0    0    0  501 -0.00000000000E+00  0.00000000000E+00  0.58515051845E+03  0.58515051845E+03  0.00000000000E+00 0. -1.
          2   -1    0    0  501    0  0.00000000000E+00 -0.00000000000E+00 -0.51750057141E+03  0.51750057141E+03  0.00000000000E+00 0.  1.
         23    2    1    2    0    0  0.12656791412E+03 -0.28347682407E+03 -0.41570572177E+03  0.52818503407E+03  0.98942591621E+02 0.  0.
         13    1    3    3    0    0  0.18404234032E+02 -0.96357618487E+02 -0.70135007429E+02  0.12059198040E+03  0.00000000000E+00 0. -1.
        -13    1    3    3    0    0  0.10816368009E+03 -0.18711920558E+03 -0.34557071434E+03  0.40759305367E+03  0.00000000000E+00 0.  1.
         22    1    1    2    0    0 -0.12656791412E+03  0.28347682407E+03  0.48335566881E+03  0.57446605578E+03  0.00000000000E+00 0. -1.
<mgrwt>
<rscale>  0 0.11005739E+04</rscale>
<asrwt>0</asrwt>
<pdfrwt beam="1">  1        2 0.79615473E-01 0.11005739E+04</pdfrwt>
<pdfrwt beam="2">  1       -2 0.90023157E-01 0.11005739E+04</pdfrwt>
<totfact> 0.62058648E+01</totfact>
</mgrwt>
</event>
<event>
 6    1  0.1934315E-005  0.5891173E+04  0.7818608E-02  0.7704043E-01
         -2   -1    0    0    0  501 -0.00000000000E+00  0.00000000000E+00  0.29030322190E+04  0.29030322190E+04  0.00000000000E+00 0. -1.
          2   -1    0    0  501    0  0.00000000000E+00 -0.00000000000E+00 -0.29887645934E+04  0.29887645934E+04  0.00000000000E+00 0.  1.
         23    2    1    2    0    0 -0.10399633376E+04 -0.26595744959E+04  0.67648759491E+03  0.29361514473E+04  0.92139093133E+02 0.  0.
         13    1    3    3    0    0 -0.37210984474E+03 -0.98690737773E+03  0.20618071283E+03  0.10746917675E+04  0.00000000000E+00 0. -1.
        -13    1    3    3    0    0 -0.66785349290E+03 -0.16726671181E+04  0.47030688208E+03  0.18614596798E+04  0.00000000000E+00 0.  1.
         22    1    1    2    0    0  0.10399633376E+04  0.26595744959E+04 -0.76221996927E+03  0.29556453651E+04  0.00000000000E+00 0.  1.
<mgrwt>
<rscale>  0 0.58911730E+04</rscale>
<asrwt>0</asrwt>
<pdfrwt beam="1">  1        2 0.45980994E+00 0.58911730E+04</pdfrwt>
<pdfrwt beam="2">  1       -2 0.44662034E+00 0.58911730E+04</pdfrwt>
<totfact> 0.44063039E-03</totfact>
</mgrwt>
</event>
<event>
 6    1  0.1934315E-005  0.2551216E+04  0.7818608E-02  0.8384963E-01
          2   -1    0    0  501    0  0.00000000000E+00  0.00000000000E+00  0.11153826038E+04  0.11153826038E+04  0.00000000000E+00 0.  1.
         -2   -1    0    0    0  501 -0.00000000000E+00 -0.00000000000E+00 -0.14588496578E+04  0.14588496578E+04  0.00000000000E+00 0. -1.
         23    2    1    2    0    0 -0.92495231062E+03 -0.34208344958E+03 -0.98580523927E+03  0.13973056676E+04  0.89962744555E+02 0.  0.
         13    1    3    3    0    0 -0.75118793810E+03 -0.24348557870E+03 -0.80917715301E+03  0.11306353127E+04  0.00000000000E+00 0. -1.
        -13    1    3    3    0    0 -0.17376437252E+03 -0.98597870880E+02 -0.17662808626E+03  0.26667035484E+03  0.00000000000E+00 0.  1.
         22    1    1    2    0    0  0.92495231062E+03  0.34208344958E+03  0.64233818536E+03  0.11769265940E+04  0.00000000000E+00 0.  1.
<mgrwt>
<rscale>  0 0.25512158E+04</rscale>
<asrwt>0</asrwt>
<pdfrwt beam="1">  1        2 0.17159732E+00 0.25512158E+04</pdfrwt>
<pdfrwt beam="2">  1       -2 0.22443841E+00 0.25512158E+04</pdfrwt>
<totfact> 0.17539008E+00</totfact>
</mgrwt>
</event>
<event>
 6    1  0.1934315E-005  0.1429601E+04  0.7818608E-02  0.8932666E-01
         -2   -1    0    0    0  501 -0.00000000000E+00  0.00000000000E+00  0.42340701192E+03  0.42340701192E+03  0.00000000000E+00 0. -1.
          2   -1    0    0  501    0  0.00000000000E+00 -0.00000000000E+00 -0.12067337800E+04  0.12067337800E+04  0.00000000000E+00 0.  1.
         23    2    1    2    0    0  0.15490616642E+03  0.15027482939E+03  0.37996047194E+03  0.44700274100E+03  0.94143749040E+02 0.  0.
         13    1    3    3    0    0  0.87767631197E+02  0.50770633903E+02  0.10007753382E+03  0.14246517865E+03  0.00000000000E+00 0. -1.
        -13    1    3    3    0    0  0.67138535227E+02  0.99504195483E+02  0.27988293812E+03  0.30453756235E+03  0.00000000000E+00 0.  1.
         22    1    1    2    0    0 -0.15490616642E+03 -0.15027482939E+03 -0.11632872401E+04  0.11831380510E+04  0.00000000000E+00 0.  1.
<mgrwt>
<rscale>  0 0.14296007E+04</rscale>
<asrwt>0</asrwt>
<pdfrwt beam="1">  1        2 0.18565135E+00 0.14296007E+04</pdfrwt>
<pdfrwt beam="2">  1       -2 0.65139540E-01 0.14296007E+04</pdfrwt>
<totfact> 0.39608628E+01</totfact>
</mgrwt>
</event>
<event>
 6    1  0.1934315E-005  0.2363732E+04  0.7818608E-02  0.8453208E-01
          2   -1    0    0  501    0  0.00000000000E+00  0.00000000000E+00  0.26590756525E+04  0.26590756525E+04  0.00000000000E+00 0.  1.
         -2   -1    0    0    0  501 -0.00000000000E+00 -0.00000000000E+00 -0.52529787523E+03  0.52529787523E+03  0.00000000000E+00 0. -1.
         23    2    1    2    0    0 -0.10808205800E+04  0.32043588065E+03  0.15385014707E+04  0.19095377889E+04  0.92171102518E+02 0.  0.
         13    1    3    3    0    0 -0.25167859317E+03  0.52261060688E+02  0.40672241285E+03  0.48114078380E+03  0.00000000000E+00 0. -1.
        -13    1    3    3    0    0 -0.82914198684E+03  0.26817481996E+03  0.11317790578E+04  0.14283970051E+04  0.00000000000E+00 0.  1.
         22    1    1    2    0    0  0.10808205800E+04 -0.32043588065E+03  0.59527630655E+03  0.12748357388E+04  0.00000000000E+00 0.  1.
<mgrwt>
<rscale>  0 0.23637316E+04</rscale>
<asrwt>0</asrwt>
<pdfrwt beam="1">  1        2 0.40908856E+00 0.23637316E+04</pdfrwt>
<pdfrwt beam="2">  1       -2 0.80815059E-01 0.23637316E+04</pdfrwt>
<totfact> 0.34224093E+00</totfact>
</mgrwt>
</event>
<event>
 6    1  0.1934315E-005  0.2327182E+04  0.7818608E-02  0.8467280E-01
         -2   -1    0    0    0  501 -0.00000000000E+00  0.00000000000E+00  0.11155857756E+04  0.11155857756E+04  0.00000000000E+00 0.  1.
          2   -1    0    0  501    0  0.00000000000E+00 -0.00000000000E+00 -0.12136618623E+04  0.12136618623E+04  0.00000000000E+00 0. -1.
         23    2    1    2    0    0  0.88838658532E+03  0.60621155008E+03  0.39068127694E+03  0.11478895513E+04  0.91079050349E+02 0.  0.
         13    1    3    3    0    0  0.44535433617E+03  0.35246726948E+03  0.18295086124E+03  0.59669479504E+03  0.00000000000E+00 0.  1.
        -13    1    3    3    0    0  0.44303224915E+03  0.25374428060E+03  0.20773041570E+03  0.55119475626E+03  0.00000000000E+00 0. -1.
         22    1    1    2    0    0 -0.88838658532E+03 -0.60621155008E+03 -0.48875736362E+03  0.11813580867E+04  0.00000000000E+00 0. -1.
<mgrwt>
<rscale>  0 0.23271819E+04</rscale>
<asrwt>0</asrwt>
<pdfrwt beam="1">  1        2 0.18671721E+00 0.23271819E+04</pdfrwt>
<pdfrwt beam="2">  1       -2 0.17162858E+00 0.23271819E+04</pdfrwt>
<totfact> 0.34897718E+00</totfact>
</mgrwt>
</event>
<event>
 6    1  0.1934315E-005  0.2439649E+04  0.7818608E-02  0.8424807E-01
          2   -1    0    0  501    0  0.00000000000E+00  0.00000000000E+00  0.71525009389E+03  0.71525009389E+03  0.00000000000E+00 0.  1.
         -2   -1    0    0    0  501 -0.00000000000E+00 -0.00000000000E+00 -0.20803512870E+04  0.20803512870E+04  0.00000000000E+00 0. -1.
         23    2    1    2    0    0 -0.25040126194E+03 -0.11918924773E+04 -0.65233322079E+03  0.13844505556E+04  0.88635435220E+02 0.  0.
         13    1    3    3    0    0 -0.11234700681E+03 -0.35441842216E+03 -0.21807173745E+03  0.43103312005E+03  0.00000000000E+00 0. -1.
        -13    1    3    3    0    0 -0.13805425513E+03 -0.83747405516E+03 -0.43426148334E+03  0.95341743552E+03  0.00000000000E+00 0.  1.
         22    1    1    2    0    0  0.25040126194E+03  0.11918924773E+04 -0.71276797232E+03  0.14111508253E+04  0.00000000000E+00 0. -1.
<mgrwt>
<rscale>  0 0.24396487E+04</rscale>
<asrwt>0</asrwt>
<pdfrwt beam="1">  1        2 0.11003848E+00 0.24396487E+04</pdfrwt>
<pdfrwt beam="2">  1       -2 0.32005404E+00 0.24396487E+04</pdfrwt>
<totfact> 0.85524713E-01</totfact>
</mgrwt>
</event>
<event>
 6    1  0.1934315E-005  0.2911814E+04  0.7818608E-02  0.8269371E-01
         -2   -1    0    0    0  501 -0.00000000000E+00  0.00000000000E+00  0.57385078370E+03  0.57385078370E+03  0.00000000000E+00 0. -1.
          2   -1    0    0  501    0  0.00000000000E+00 -0.00000000000E+00 -0.36937563687E+04  0.36937563687E+04  0.00000000000E+00 0.  1.
         23    2    1    2    0    0  0.44162554804E+03 -0.13832057834E+04 -0.16854981885E+04  0.22265740946E+04  0.91851462271E+02 0.  0.
         11    1    3    3    0    0  0.25508164321E+03 -0.64876590690E+03 -0.80088560856E+03  0.10617822774E+04  0.00000000000E+00 0. -1.
        -11    1    3    3    0    0  0.18654390483E+03 -0.73443987654E+03 -0.88461257992E+03  0.11647918171E+04  0.00000000000E+00 0.  1.
         22    1    1    2    0    0 -0.44162554804E+03  0.13832057834E+04 -0.14344073965E+04  0.20410330578E+04  0.00000000000E+00 0.  1.
<mgrwt>
<rscale>  0 0.29118139E+04</rscale>
<asrwt>0</asrwt>
<pdfrwt beam="1">  1        2 0.56827021E+00 0.29118139E+04</pdfrwt>
<pdfrwt beam="2">  1       -2 0.88284736E-01 0.29118139E+04</pdfrwt>
<totfact> 0.56169589E-01</totfact>
</mgrwt>
</event>
<event>
 6    1  0.1934315E-005  0.1799840E+04  0.7818608E-02  0.8706385E-01
          2   -1    0    0  501    0  0.00000000000E+00  0.00000000000E+00  0.76613922016E+03  0.76613922016E+03  0.00000000000E+00 0.  1.
         -2   -1    0    0    0  501 -0.00000000000E+00 -0.00000000000E+00 -0.10570612432E+04  0.10570612432E+04  0.00000000000E+00 0. -1.
         23    2    1    2    0    0 -0.39115074526E+03 -0.19389367777E+03 -0.94027688311E+03  0.10407329572E+04  0.91710454715E+02 0.  0.
         13    1    3    3    0    0 -0.27295105950E+03 -0.16236516496E+03 -0.75064761602E+03  0.81506844566E+03  0.00000000000E+00 0. -1.
        -13    1    3    3    0    0 -0.11819968575E+03 -0.31528512809E+02 -0.18962926708E+03  0.22566451154E+03  0.00000000000E+00 0.  1.
         22    1    1    2    0    0  0.39115074526E+03  0.19389367777E+03  0.64935486011E+03  0.78246750612E+03  0.00000000000E+00 0.  1.
<mgrwt>
<rscale>  0 0.17998401E+04</rscale>
<asrwt>0</asrwt>
<pdfrwt beam="1">  1        2 0.11786757E+00 0.17998401E+04</pdfrwt>
<pdfrwt beam="2">  1       -2 0.16262481E+00 0.17998401E+04</pdfrwt>
<totfact> 0.82916219E+00</totfact>
</mgrwt>
</event>
<event>
 6    1  0.1934315E-005  0.1861988E+04  0.7818608E-02  0.8674012E-01
          2   -1    0    0  501    0  0.00000000000E+00  0.00000000000E+00  0.14740815777E+04  0.14740815777E+04  0.00000000000E+00 0. -1.
         -2   -1    0    0    0  501 -0.00000000000E+00 -0.00000000000E+00 -0.58799331009E+03  0.58799331009E+03  0.00000000000E+00 0.  1.
         23    2    1    2    0    0 -0.22836028587E+03  0.76922722480E+03 -0.74861576267E+02  0.81016293163E+03  0.83070913343E+02 0.  0.
         13    1    3    3    0    0 -0.15213340378E+02  0.14923821423E+03 -0.30331332017E+02  0.15304731300E+03  0.00000000000E+00 0. -1.
        -13    1    3    3    0    0 -0.21314694549E+03  0.61998901057E+03 -0.44530244250E+02  0.65711561863E+03  0.00000000000E+00 0.  1.
         22    1    1    2    0    0  0.22836028587E+03 -0.76922722480E+03  0.96094984387E+03  0.12519119562E+04  0.00000000000E+00 0. -1.
<mgrwt>
<rscale>  0 0.18619883E+04</rscale>
<asrwt>0</asrwt>
<pdfrwt beam="1">  1        2 0.22678178E+00 0.18619883E+04</pdfrwt>
<pdfrwt beam="2">  1       -2 0.90460509E-01 0.18619883E+04</pdfrwt>
<totfact> 0.12883160E+01</totfact>
</mgrwt>
</event>
<event>
 6    1  0.1934315E-005  0.3829756E+04  0.7818608E-02  0.8039799E-01
         -1   -1    0    0    0  501 -0.00000000000E+00  0.00000000000E+00  0.13657497674E+04  0.13657497674E+04  0.00000000000E+00 0. -1.
          1   -1    0    0  501    0  0.00000000000E+00 -0.00000000000E+00 -0.26847941614E+04  0.26847941614E+04  0.00000000000E+00 0.  1.
         23    2    1    2    0    0 -0.15722222983E+04 -0.99211598308E+03 -0.17992684786E+03  0.18702306800E+04  0.95979408178E+02 0.  0.
         13    1    3    3    0    0 -0.33415803605E+03 -0.17666879556E+03 -0.62326241307E+02  0.38309008958E+03  0.00000000000E+00 0.  1.
        -13    1    3    3    0    0 -0.12380642622E+04 -0.81544718752E+03 -0.11760060656E+03  0.14871405904E+04  0.00000000000E+00 0. -1.
         22    1    1    2    0    0  0.15722222983E+04  0.99211598308E+03 -0.11391175461E+04  0.21803132488E+04  0.00000000000E+00 0.  1.
<mgrwt>
<rscale>  0 0.38297556E+04</rscale>
<asrwt>0</asrwt>
<pdfrwt beam="1">  1        1 0.41304525E+00 0.38297556E+04</pdfrwt>
<pdfrwt beam="2">  1       -1 0.21011535E+00 0.38297556E+04</pdfrwt>
<totfact> 0.10244037E-01</totfact>
</mgrwt>
</event>
<event>
 6    1  0.1934315E-005  0.1322681E+04  0.7818608E-02  0.9011770E-01
         -2   -1    0    0    0  501 -0.00000000000E+00  0.00000000000E+00  0.10204818319E+04  0.10204818319E+04  0.00000000000E+00 0. -1.
          2   -1    0    0  501    0  0.00000000000E+00 -0.00000000000E+00 -0.42859283655E+03  0.42859283655E+03  0.00000000000E+00 0.  1.
         23    2    1    2    0    0  0.59950873158E+03  0.26964752769E+03  0.33362076965E+03  0.74280065304E+03  0.91266005679E+02 0.  0.
         11    1    3    3    0    0  0.15573860854E+03  0.49953548575E+02  0.12324260257E+03  0.20478918501E+03  0.00000000000E+00 0.  1.
        -11    1    3    3    0    0  0.44377012303E+03  0.21969397911E+03  0.21037816707E+03  0.53801146803E+03  0.00000000000E+00 0. -1.
         22    1    1    2    0    0 -0.59950873158E+03 -0.26964752769E+03  0.25826822570E+03  0.70627401540E+03  0.00000000000E+00 0.  1.
<mgrwt>
<rscale>  0 0.13226809E+04</rscale>
<asrwt>0</asrwt>
<pdfrwt beam="1">  1        2 0.65937360E-01 0.13226809E+04</pdfrwt>
<pdfrwt beam="2">  1       -2 0.15699720E+00 0.13226809E+04</pdfrwt>
<totfact> 0.19062459E+01</totfact>
</mgrwt>
</event>
<event>
 6    1  0.1934315E-005  0.4670789E+04  0.7818608E-02  0.7881400E-01
          2   -1    0    0  501    0  0.00000000000E+00  0.00000000000E+00  0.24993038232E+04  0.24993038232E+04  0.00000000000E+00 0.  1.
         -2   -1    0    0    0  501 -0.00000000000E+00 -0.00000000000E+00 -0.21822343984E+04  0.21822343984E+04  0.00000000000E+00 0. -1.
         23    2    1    2    0    0 -0.15127237528E+04 -0.13453600183E+04 -0.10066298673E+04  0.22627561837E+04  0.91842942443E+02 0.  0.
         11    1    3    3    0    0 -0.10707803083E+04 -0.91010408223E+03 -0.66666598872E+03  0.15554110227E+04  0.00000000000E+00 0.  1.
        -11    1    3    3    0    0 -0.44194344450E+03 -0.43525593603E+03 -0.33996387861E+03  0.70734516097E+03  0.00000000000E+00 0. -1.
         22    1    1    2    0    0  0.15127237528E+04  0.13453600183E+04  0.13236992922E+04  0.24187820379E+04  0.00000000000E+00 0.  1.
<mgrwt>
<rscale>  0 0.46707887E+04</rscale>
<asrwt>0</asrwt>
<pdfrwt beam="1">  1        2 0.38450828E+00 0.46707887E+04</pdfrwt>
<pdfrwt beam="2">  1       -2 0.33572837E+00 0.46707887E+04</pdfrwt>
<totfact> 0.49791651E-02</totfact>
</mgrwt>
</event>
<event>
 6    1  0.1934315E-005  0.2610147E+04  0.7818608E-02  0.8364763E-01
         -2   -1    0    0    0  501 -0.00000000000E+00  0.00000000000E+00  0.11871477798E+04  0.11871477798E+04  0.00000000000E+00 0. -1.
          2   -1    0    0  501    0  0.00000000000E+00 -0.00000000000E+00 -0.14347129450E+04  0.14347129450E+04  0.00000000000E+00 0.  1.
         23    2    1    2    0    0  0.48838657354E+02 -0.62304237898E+03 -0.12725295418E+04  0.14213945680E+04  0.10229400200E+03 0.  0.
         11    1    3    3    0    0  0.25201867731E+02 -0.15850067786E+03 -0.23740144245E+03  0.28656071590E+03  0.00000000000E+00 0. -1.
        -11    1    3    3    0    0  0.23636789622E+02 -0.46454170112E+03 -0.10351280993E+04  0.11348338521E+04  0.00000000000E+00 0.  1.
         22    1    1    2    0    0 -0.48838657354E+02  0.62304237898E+03  0.10249643766E+04  0.12004661569E+04  0.00000000000E+00 0. -1.
<mgrwt>
<rscale>  0 0.26101466E+04</rscale>
<asrwt>0</asrwt>
<pdfrwt beam="1">  1        2 0.22072507E+00 0.26101466E+04</pdfrwt>
<pdfrwt beam="2">  1       -2 0.18263812E+00 0.26101466E+04</pdfrwt>
<totfact> 0.21249983E+00</totfact>
</mgrwt>
</event>
<event>
 6    1  0.1934315E-005  0.1666238E+04  0.7818608E-02  0.8780858E-01
          1   -1    0    0  501    0  0.00000000000E+00  0.00000000000E+00  0.74584632346E+03  0.74584632346E+03  0.00000000000E+00 0.  1.
         -1   -1    0    0    0  501 -0.00000000000E+00 -0.00000000000E+00 -0.93060356332E+03  0.93060356332E+03  0.00000000000E+00 0. -1.
         23    2    1    2    0    0  0.71266409494E+03 -0.30324338530E+03 -0.39516580310E+03  0.87387999797E+03  0.87541852548E+02 0.  0.
         11    1    3    3    0    0  0.24610544871E+03 -0.11987944071E+03 -0.95973045915E+02  0.29008584546E+03  0.00000000000E+00 0.  1.
        -11    1    3    3    0    0  0.46655864623E+03 -0.18336394459E+03 -0.29919275719E+03  0.58379415251E+03  0.00000000000E+00 0. -1.
         22    1    1    2    0    0 -0.71266409494E+03  0.30324338530E+03  0.21040856325E+03  0.80256988882E+03  0.00000000000E+00 0.  1.
<mgrwt>
<rscale>  0 0.16662380E+04</rscale>
<asrwt>0</asrwt>
<pdfrwt beam="1">  1        1 0.11474559E+00 0.16662380E+04</pdfrwt>
<pdfrwt beam="2">  1       -1 0.14316978E+00 0.16662380E+04</pdfrwt>
<totfact> 0.93180730E+00</totfact>
</mgrwt>
</event>
<event>
 6    1  0.1934315E-005  0.5547650E+03  0.7818608E-02  0.1000397E+00
         -2   -1    0    0    0  501 -0.00000000000E+00  0.00000000000E+00  0.14106299293E+03  0.14106299293E+03  0.00000000000E+00 0. -1.
          2   -1    0    0  501    0  0.00000000000E+00 -0.00000000000E+00 -0.54543746053E+03  0.54543746053E+03  0.00000000000E+00 0.  1.
         23    2    1    2    0    0  0.14552792590E+02 -0.20901865007E+03 -0.41841707024E+03  0.47650575226E+03  0.89912776743E+02 0.  0.
         11    1    3    3    0    0  0.40148894247E+02 -0.11793923984E+03 -0.17063791082E+03  0.21127918641E+03  0.00000000000E+00 0. -1.
        -11    1    3    3    0    0 -0.25596101656E+02 -0.91079410225E+02 -0.24777915942E+03  0.26522656584E+03  0.00000000000E+00 0.  1.
         22    1    1    2    0    0 -0.14552792590E+02  0.20901865007E+03  0.14042602633E+02  0.20999470121E+03  0.00000000000E+00 0. -1.
<mgrwt>
<rscale>  0 0.55476496E+03</rscale>
<asrwt>0</asrwt>
<pdfrwt beam="1">  1        2 0.83913456E-01 0.55476496E+03</pdfrwt>
<pdfrwt beam="2">  1       -2 0.21701999E-01 0.55476496E+03</pdfrwt>
<totfact> 0.10300887E+03</totfact>
</mgrwt>
</event>
<event>
 6    1  0.1934315E-005  0.1273305E+04  0.7818608E-02  0.9051006E-01
         -2   -1    0    0    0  501 -0.00000000000E+00  0.00000000000E+00  0.90191523647E+03  0.90191523647E+03  0.00000000000E+00 0. -1.
          2   -1    0    0  501    0  0.00000000000E+00 -0.00000000000E+00 -0.44940658055E+03  0.44940658055E+03  0.00000000000E+00 0.  1.
         23    2    1    2    0    0 -0.17833589853E+03 -0.14886665454E+03 -0.39817801102E+03  0.46948692384E+03  0.88922829808E+02 0.  0.
         13    1    3    3    0    0 -0.63336832425E+02 -0.72001595356E+02 -0.89231084836E+02  0.13098843680E+03  0.00000000000E+00 0. -1.
        -13    1    3    3    0    0 -0.11499906610E+03 -0.76865059180E+02 -0.30894692618E+03  0.33849848704E+03  0.00000000000E+00 0.  1.
         22    1    1    2    0    0  0.17833589853E+03  0.14886665454E+03  0.85068666693E+03  0.88183489318E+03  0.00000000000E+00 0. -1.
<mgrwt>
<rscale>  0 0.12733054E+04</rscale>
<asrwt>0</asrwt>
<pdfrwt beam="1">  1        2 0.69139474E-01 0.12733054E+04</pdfrwt>
<pdfrwt beam="2">  1       -2 0.13875619E+00 0.12733054E+04</pdfrwt>
<totfact> 0.25121737E+01</totfact>
</mgrwt>
</event>
<event>
 6    1  0.1934315E-005  0.1853344E+04  0.7818608E-02  0.8678435E-01
         -2   -1    0    0    0  501 -0.00000000000E+00  0.00000000000E+00  0.44958108860E+03  0.44958108860E+03  0.00000000000E+00 0. -1.
          2   -1    0    0  501    0  0.00000000000E+00 -0.00000000000E+00 -0.19100479911E+04  0.19100479911E+04  0.00000000000E+00 0.  1.
         23    2    1    2    0    0  0.28960395439E+03 -0.52727513397E+03  0.16220731292E+03  0.62903348087E+03  0.86500811487E+02 0.  0.
         13    1    3    3    0    0  0.14633945427E+03 -0.21598849086E+03  0.33721853134E+02  0.26306544327E+03  0.00000000000E+00 0. -1.
        -13    1    3    3    0    0  0.14326450012E+03 -0.31128664311E+03  0.12848545978E+03  0.36596803760E+03  0.00000000000E+00 0.  1.
         22    1    1    2    0    0 -0.28960395439E+03  0.52727513397E+03 -0.16226742154E+04  0.17305955988E+04  0.00000000000E+00 0.  1.
<mgrwt>
<rscale>  0 0.18533445E+04</rscale>
<asrwt>0</asrwt>
<pdfrwt beam="1">  1        2 0.29385354E+00 0.18533445E+04</pdfrwt>
<pdfrwt beam="2">  1       -2 0.69166322E-01 0.18533445E+04</pdfrwt>
<totfact> 0.13446130E+01</totfact>
</mgrwt>
</event>
<event>
 6    1  0.1934315E-005  0.3231407E+04  0.7818608E-02  0.8180571E-01
         -2   -1    0    0    0  501 -0.00000000000E+00  0.00000000000E+00  0.12131786754E+04  0.12131786754E+04  0.00000000000E+00 0. -1.
          2   -1    0    0  501    0  0.00000000000E+00 -0.00000000000E+00 -0.21517840623E+04  0.21517840623E+04  0.00000000000E+00 0.  1.
         23    2    1    2    0    0 -0.52213743112E+03 -0.26092725478E+03 -0.20369783823E+04  0.21211244178E+04  0.95798415950E+02 0.  0.
         13    1    3    3    0    0 -0.45216132513E+03 -0.19818726753E+03 -0.16132954204E+04  0.16871426053E+04  0.00000000000E+00 0.  1.
        -13    1    3    3    0    0 -0.69976105986E+02 -0.62739987256E+02 -0.42368296184E+03  0.43398181248E+03  0.00000000000E+00 0. -1.
         22    1    1    2    0    0  0.52213743112E+03  0.26092725478E+03  0.10983729953E+04  0.12438383199E+04  0.00000000000E+00 0. -1.
<mgrwt>
<rscale>  0 0.32314075E+04</rscale>
<asrwt>0</asrwt>
<pdfrwt beam="1">  1        2 0.33104370E+00 0.32314075E+04</pdfrwt>
<pdfrwt beam="2">  1       -2 0.18664287E+00 0.32314075E+04</pdfrwt>
<totfact> 0.75385086E-01</totfact>
</mgrwt>
</event>
<event>
 6    1  0.1934315E-005  0.3079929E+04  0.7818608E-02  0.8221268E-01
          2   -1    0    0  501    0  0.00000000000E+00  0.00000000000E+00  0.17675046758E+04  0.17675046758E+04  0.00000000000E+00 0.  1.
         -2   -1    0    0    0  501 -0.00000000000E+00 -0.00000000000E+00 -0.13417164830E+04  0.13417164830E+04  0.00000000000E+00 0. -1.
         23    2    1    2    0    0 -0.12206035356E+04 -0.88845147651E+03 -0.86674718748E+02  0.15149071204E+04  0.90620414248E+02 0.  0.
         11    1    3    3    0    0 -0.76043356630E+03 -0.50231232053E+03 -0.68173296437E+02  0.91390616283E+03  0.00000000000E+00 0.  1.
        -11    1    3    3    0    0 -0.46016996927E+03 -0.38613915598E+03 -0.18501422312E+02  0.60100095760E+03  0.00000000000E+00 0. -1.
         22    1    1    2    0    0  0.12206035356E+04  0.88845147651E+03  0.51246291154E+03  0.15943140383E+04  0.00000000000E+00 0.  1.
<mgrwt>
<rscale>  0 0.30799287E+04</rscale>
<asrwt>0</asrwt>
<pdfrwt beam="1">  1        2 0.27192380E+00 0.30799287E+04</pdfrwt>
<pdfrwt beam="2">  1       -2 0.20641792E+00 0.30799287E+04</pdfrwt>
<totfact> 0.92394408E-01</totfact>
</mgrwt>
</event>
<event>
 6    1  0.1934315E-005  0.1948465E+04  0.7818608E-02  0.8631102E-01
         -2   -1    0    0    0  501 -0.00000000000E+00  0.00000000000E+00  0.36988013017E+03  0.36988013017E+03  0.00000000000E+00 0. -1.
          2   -1    0    0  501    0  0.00000000000E+00 -0.00000000000E+00 -0.25660437598E+04  0.25660437598E+04  0.00000000000E+00 0.  1.
         23    2    1    2    0    0  0.54031830526E+03 -0.48571279784E+03 -0.20731646767E+04  0.21990456535E+04  0.99645453677E+02 0.  0.
         13    1    3    3    0    0  0.27692424492E+03 -0.20015440263E+03 -0.10726674610E+04  0.11257727587E+04  0.00000000000E+00 0. -1.
        -13    1    3    3    0    0  0.26339406034E+03 -0.28555839520E+03 -0.10004972157E+04  0.10732728948E+04  0.00000000000E+00 0.  1.
         22    1    1    2    0    0 -0.54031830526E+03  0.48571279784E+03 -0.12299895295E+03  0.73687823649E+03  0.00000000000E+00 0. -1.
<mgrwt>
<rscale>  0 0.19484646E+04</rscale>
<asrwt>0</asrwt>
<pdfrwt beam="1">  1        2 0.39477596E+00 0.19484646E+04</pdfrwt>
<pdfrwt beam="2">  1       -2 0.56904636E-01 0.19484646E+04</pdfrwt>
<totfact> 0.86141863E+00</totfact>
</mgrwt>
</event>
<event>
 6    1  0.1934315E-005  0.1047797E+04  0.7818608E-02  0.9257622E-01
         -2   -1    0    0    0  501 -0.00000000000E+00  0.00000000000E+00  0.28301982465E+03  0.28301982465E+03  0.00000000000E+00 0. -1.
          2   -1    0    0  501    0  0.00000000000E+00 -0.00000000000E+00 -0.96978895387E+03  0.96978895387E+03  0.00000000000E+00 0.  1.
         23    2    1    2    0    0  0.66037772794E+02  0.32860649225E+03  0.13224771936E+03  0.36786142843E+03  0.74090195509E+02 0.  0.
         13    1    3    3    0    0  0.42056904779E+02  0.30876674164E+03  0.11420695661E+03  0.33188689779E+03  0.00000000000E+00 0.  1.
        -13    1    3    3    0    0  0.23980868015E+02  0.19839750608E+02  0.18040762746E+02  0.35974530649E+02  0.00000000000E+00 0. -1.
         22    1    1    2    0    0 -0.66037772794E+02 -0.32860649225E+03 -0.81901684857E+03  0.88494735009E+03  0.00000000000E+00 0.  1.
<mgrwt>
<rscale>  0 0.10477967E+04</rscale>
<asrwt>0</asrwt>
<pdfrwt beam="1">  1        2 0.14919830E+00 0.10477967E+04</pdfrwt>
<pdfrwt beam="2">  1       -2 0.43541511E-01 0.10477967E+04</pdfrwt>
<totfact> 0.13117175E+02</totfact>
</mgrwt>
</event>
<event>
 6    1  0.1934315E-005  0.2817418E+04  0.7818608E-02  0.8297881E-01
          2   -1    0    0  501    0  0.00000000000E+00  0.00000000000E+00  0.12786154856E+04  0.12786154856E+04  0.00000000000E+00 0.  1.
         -2   -1    0    0    0  501 -0.00000000000E+00 -0.00000000000E+00 -0.15520386734E+04  0.15520386734E+04  0.00000000000E+00 0. -1.
         23    2    1    2    0    0 -0.81212414759E+03  0.11411378499E+04  0.18626453368E+01  0.14032356802E+04  0.85590193398E+02 0.  0.
         13    1    3    3    0    0 -0.39205228178E+03  0.48267678250E+03 -0.14785219083E+02  0.62201323998E+03  0.00000000000E+00 0. -1.
        -13    1    3    3    0    0 -0.42007186581E+03  0.65846106742E+03  0.16647864420E+02  0.78122244024E+03  0.00000000000E+00 0.  1.
         22    1    1    2    0    0  0.81212414759E+03 -0.11411378499E+04 -0.27528583308E+03  0.14274184788E+04  0.00000000000E+00 0. -1.
<mgrwt>
<rscale>  0 0.28174177E+04</rscale>
<asrwt>0</asrwt>
<pdfrwt beam="1">  1        2 0.19671008E+00 0.28174177E+04</pdfrwt>
<pdfrwt beam="2">  1       -2 0.23877518E+00 0.28174177E+04</pdfrwt>
<totfact> 0.11144859E+00</totfact>
</mgrwt>
</event>
<event>
 6    1  0.1934315E-005  0.1231769E+04  0.7818608E-02  0.9085495E-01
          2   -1    0    0  501    0  0.00000000000E+00  0.00000000000E+00  0.21745148446E+04  0.21745148446E+04  0.00000000000E+00 0.  1.
         -2   -1    0    0    0  501 -0.00000000000E+00 -0.00000000000E+00 -0.17443588136E+03  0.17443588136E+03  0.00000000000E+00 0. -1.
         23    2    1    2    0    0 -0.39071459679E+03  0.43235633890E+02  0.10976537297E+03  0.41819629162E+03  0.91172830591E+02 0.  0.
         11    1    3    3    0    0 -0.20157730232E+03 -0.23331845396E+02  0.50528250346E+02  0.20911931499E+03  0.00000000000E+00 0. -1.
        -11    1    3    3    0    0 -0.18913729446E+03  0.66567479287E+02  0.59237122629E+02  0.20907697662E+03  0.00000000000E+00 0.  1.
         22    1    1    2    0    0  0.39071459679E+03 -0.43235633890E+02  0.18903135903E+04  0.19307544344E+04  0.00000000000E+00 0.  1.
<mgrwt>
<rscale>  0 0.12317685E+04</rscale>
<asrwt>0</asrwt>
<pdfrwt beam="1">  1        2 0.33454073E+00 0.12317685E+04</pdfrwt>
<pdfrwt beam="2">  1       -2 0.26836291E-01 0.12317685E+04</pdfrwt>
<totfact> 0.66406657E+01</totfact>
</mgrwt>
</event>
<event>
 6    1  0.1934315E-005  0.1364538E+04  0.7818608E-02  0.8979896E-01
         -2   -1    0    0    0  501 -0.00000000000E+00  0.00000000000E+00  0.23598424203E+04  0.23598424203E+04  0.00000000000E+00 0.  1.
          2   -1    0    0  501    0  0.00000000000E+00 -0.00000000000E+00 -0.19725501842E+03  0.19725501842E+03  0.00000000000E+00 0. -1.
         23    2    1    2    0    0  0.33579828273E+03  0.57394748096E+03  0.13465382916E+04  0.15044282847E+04  0.89235056029E+02 0.  0.
         13    1    3    3    0    0  0.23167045796E+03  0.38741803833E+03  0.10028290874E+04  0.10997409313E+04  0.00000000000E+00 0.  1.
        -13    1    3    3    0    0  0.10412782476E+03  0.18652944263E+03  0.34370920428E+03  0.40468735336E+03  0.00000000000E+00 0. -1.
         22    1    1    2    0    0 -0.33579828273E+03 -0.57394748096E+03  0.81604911024E+03  0.10526691541E+04  0.00000000000E+00 0. -1.
<mgrwt>
<rscale>  0 0.13645377E+04</rscale>
<asrwt>0</asrwt>
<pdfrwt beam="1">  1        2 0.30346928E-01 0.13645377E+04</pdfrwt>
<pdfrwt beam="2">  1       -2 0.36305266E+00 0.13645377E+04</pdfrwt>
<totfact> 0.22295973E+00</totfact>
</mgrwt>
</event>
<event>
 6    1  0.1934315E-005  0.8241375E+03  0.7818608E-02  0.9525722E-01
          2   -1    0    0  501    0  0.00000000000E+00  0.00000000000E+00  0.16535317135E+04  0.16535317135E+04  0.00000000000E+00 0.  1.
         -2   -1    0    0    0  501 -0.00000000000E+00 -0.00000000000E+00 -0.10268968275E+03  0.10268968275E+03  0.00000000000E+00 0. -1.
         23    2    1    2    0    0  0.21645811797E+03  0.19962575749E+03  0.18660621436E+03  0.36056960493E+03  0.92108636268E+02 0.  0.
         13    1    3    3    0    0  0.17795502963E+03  0.13368558712E+03  0.17542533898E+03  0.28339703303E+03  0.00000000000E+00 0.  1.
        -13    1    3    3    0    0  0.38503088339E+02  0.65940170368E+02  0.11180875384E+02  0.77172571903E+02  0.00000000000E+00 0. -1.
         22    1    1    2    0    0 -0.21645811797E+03 -0.19962575749E+03  0.13642358164E+04  0.13956517913E+04  0.00000000000E+00 0.  1.
<mgrwt>
<rscale>  0 0.82413748E+03</rscale>
<asrwt>0</asrwt>
<pdfrwt beam="1">  1        2 0.25438947E+00 0.82413748E+03</pdfrwt>
<pdfrwt beam="2">  1       -2 0.15798414E-01 0.82413748E+03</pdfrwt>
<totfact> 0.33757818E+02</totfact>
</mgrwt>
</event>
<event>
 6    1  0.1934315E-005  0.2710744E+04  0.7818608E-02  0.8331527E-01
         -2   -1    0    0    0  501 -0.00000000000E+00  0.00000000000E+00  0.18848412460E+04  0.18848412460E+04  0.00000000000E+00 0. -1.
          2   -1    0    0  501    0  0.00000000000E+00 -0.00000000000E+00 -0.97463551015E+03  0.97463551015E+03  0.00000000000E+00 0.  1.
         23    2    1    2    0    0 -0.11865394250E+03 -0.13480914157E+04  0.41721073658E+03  0.14191735616E+04  0.92517977231E+02 0.  0.
         11    1    3    3    0    0 -0.92461176676E+02 -0.87058289454E+03  0.22634212958E+03  0.90426456587E+03  0.00000000000E+00 0.  1.
        -11    1    3    3    0    0 -0.26192765821E+02 -0.47750852111E+03  0.19086860701E+03  0.51490899570E+03  0.00000000000E+00 0. -1.
         22    1    1    2    0    0  0.11865394250E+03  0.13480914157E+04  0.49299499928E+03  0.14403031946E+04  0.00000000000E+00 0. -1.
<mgrwt>
<rscale>  0 0.27107440E+04</rscale>
<asrwt>0</asrwt>
<pdfrwt beam="1">  1        2 0.14994393E+00 0.27107440E+04</pdfrwt>
<pdfrwt beam="2">  1       -2 0.28997558E+00 0.27107440E+04</pdfrwt>
<totfact> 0.83926215E-01</totfact>
</mgrwt>
</event>
<event>
 6    1  0.1934315E-005  0.1248572E+04  0.7818608E-02  0.9071372E-01
         -2   -1    0    0    0  501 -0.00000000000E+00  0.00000000000E+00  0.51156326100E+03  0.51156326100E+03  0.00000000000E+00 0. -1.
          2   -1    0    0  501    0  0.00000000000E+00 -0.00000000000E+00 -0.76184749052E+03  0.76184749052E+03  0.00000000000E+00 0.  1.
         23    2    1    2    0    0 -0.31512855180E+03  0.52766418347E+03 -0.33201798143E+02  0.62159768269E+03  0.86866708553E+02 0.  0.
         13    1    3    3    0    0 -0.24802828426E+03  0.44816532648E+03  0.57259137420E+00  0.51222116074E+03  0.00000000000E+00 0. -1.
        -13    1    3    3    0    0 -0.67100267549E+02  0.79498856986E+02 -0.33774389517E+02  0.10937652195E+03  0.00000000000E+00 0.  1.
         22    1    1    2    0    0  0.31512855180E+03 -0.52766418347E+03 -0.21708243138E+03  0.65181306882E+03  0.00000000000E+00 0. -1.
<mgrwt>
<rscale>  0 0.12485723E+04</rscale>
<asrwt>0</asrwt>
<pdfrwt beam="1">  1        2 0.11720731E+00 0.12485723E+04</pdfrwt>
<pdfrwt beam="2">  1       -2 0.78702040E-01 0.12485723E+04</pdfrwt>
<totfact> 0.51849082E+01</totfact>
</mgrwt>
</event>
<event>
 6    1  0.1934315E-005  0.9862676E+03  0.7818608E-02  0.9323736E-01
          2   -1    0    0  501    0  0.00000000000E+00  0.00000000000E+00  0.82245495170E+03  0.82245495170E+03  0.00000000000E+00 0.  1.
         -2   -1    0    0    0  501 -0.00000000000E+00 -0.00000000000E+00 -0.29567690379E+03  0.29567690379E+03  0.00000000000E+00 0. -1.
         23    2    1    2    0    0 -0.36586735586E+03  0.32117297333E+03  0.21313916949E+03  0.53901153385E+03  0.89967367299E+02 0.  0.
         13    1    3    3    0    0 -0.58433195699E+02  0.93867440897E+02  0.27246735406E+02  0.11387677292E+03  0.00000000000E+00 0.  1.
        -13    1    3    3    0    0 -0.30743416016E+03  0.22730553243E+03  0.18589243408E+03  0.42513476093E+03  0.00000000000E+00 0. -1.
         22    1    1    2    0    0  0.36586735586E+03 -0.32117297333E+03  0.31363887842E+03  0.57912032164E+03  0.00000000000E+00 0.  1.
<mgrwt>
<rscale>  0 0.98626758E+03</rscale>
<asrwt>0</asrwt>
<pdfrwt beam="1">  1        2 0.12653153E+00 0.98626758E+03</pdfrwt>
<pdfrwt beam="2">  1       -2 0.45488755E-01 0.98626758E+03</pdfrwt>
<totfact> 0.15192067E+02</totfact>
</mgrwt>
</event>
<event>
 6    1  0.1934315E-005  0.5855391E+04  0.7818608E-02  0.7708595E-01
         -2   -1    0    0    0  501 -0.00000000000E+00  0.00000000000E+00  0.32177618861E+04  0.32177618861E+04  0.00000000000E+00 0. -1.
          2   -1    0    0  501    0  0.00000000000E+00 -0.00000000000E+00 -0.26637773653E+04  0.26637773653E+04  0.00000000000E+00 0.  1.
         23    2    1    2    0    0 -0.28315720012E+03 -0.28560782589E+04 -0.29982053660E+03  0.28871538224E+04  0.91672347688E+02 0.  0.
         11    1    3    3    0    0 -0.25940368918E+03 -0.23731303952E+04 -0.22462867644E+03  0.23978107075E+04  0.00000000000E+00 0. -1.
        -11    1    3    3    0    0 -0.23753510936E+02 -0.48294786369E+03 -0.75191860166E+02  0.48934311496E+03  0.00000000000E+00 0.  1.
         22    1    1    2    0    0  0.28315720012E+03  0.28560782589E+04  0.85380505742E+03  0.29943854289E+04  0.00000000000E+00 0.  1.
<mgrwt>
<rscale>  0 0.58553911E+04</rscale>
<asrwt>0</asrwt>
<pdfrwt beam="1">  1        2 0.40981190E+00 0.58553911E+04</pdfrwt>
<pdfrwt beam="2">  1       -2 0.49504029E+00 0.58553911E+04</pdfrwt>
<totfact> 0.33987577E-03</totfact>
</mgrwt>
</event>
<event>
 6    1  0.2554818E-005  0.3023999E+04  0.7818608E-02  0.8236911E-01
          2   -1    0    0  501    0  0.00000000000E+00  0.00000000000E+00  0.20722173772E+04  0.20722173772E+04  0.00000000000E+00 0.  1.
         -2   -1    0    0    0  501 -0.00000000000E+00 -0.00000000000E+00 -0.11032348566E+04  0.11032348566E+04  0.00000000000E+00 0. -1.
         23    2    1    2    0    0 -0.78092620736E+03 -0.12907189935E+04  0.56772249529E+03  0.16144234482E+04  0.90845895640E+02 0.  0.
         11    1    3    3    0    0 -0.34833488040E+03 -0.54613433068E+03  0.19868836787E+03  0.67755218513E+03  0.00000000000E+00 0. -1.
        -11    1    3    3    0    0 -0.43259132696E+03 -0.74458466285E+03  0.36903412742E+03  0.93687126304E+03  0.00000000000E+00 0.  1.
         22    1    1    2    0    0  0.78092620736E+03  0.12907189935E+04  0.40126002535E+03  0.15610287856E+04  0.00000000000E+00 0.  1.
<mgrwt>
<rscale>  0 0.30239990E+04</rscale>
<asrwt>0</asrwt>
<pdfrwt beam="1">  1        2 0.31880267E+00 0.30239990E+04</pdfrwt>
<pdfrwt beam="2">  1       -2 0.16972844E+00 0.30239990E+04</pdfrwt>
<totfact> 0.11138667E+00</totfact>
</mgrwt>
</event>
<event>
 6    1  0.1934315E-005  0.1510813E+04  0.7818608E-02  0.8877294E-01
          2   -1    0    0  501    0  0.00000000000E+00  0.00000000000E+00  0.29850946924E+03  0.29850946924E+03  0.00000000000E+00 0.  1.
         -2   -1    0    0    0  501 -0.00000000000E+00 -0.00000000000E+00 -0.19116265258E+04  0.19116265258E+04  0.00000000000E+00 0. -1.
         23    2    1    2    0    0  0.24000234743E+03  0.18179909883E+03  0.19952576319E+03  0.37265782344E+03  0.91713052956E+02 0.  0.
         11    1    3    3    0    0  0.61595786519E+02  0.65964243014E+02  0.15880589507E+02  0.91637958273E+02  0.00000000000E+00 0.  1.
        -11    1    3    3    0    0  0.17840656091E+03  0.11583485582E+03  0.18364517369E+03  0.28101986516E+03  0.00000000000E+00 0. -1.
         22    1    1    2    0    0 -0.24000234743E+03 -0.18179909883E+03 -0.18126428197E+04  0.18374781716E+04  0.00000000000E+00 0. -1.
<mgrwt>
<rscale>  0 0.15108125E+04</rscale>
<asrwt>0</asrwt>
<pdfrwt beam="1">  1        2 0.45924534E-01 0.15108125E+04</pdfrwt>
<pdfrwt beam="2">  1       -2 0.29409639E+00 0.15108125E+04</pdfrwt>
<totfact> 0.36932700E+00</totfact>
</mgrwt>
</event>
<event>
 6    1  0.1934315E-005  0.1730286E+04  0.7818608E-02  0.8744277E-01
          2   -1    0    0  501    0  0.00000000000E+00  0.00000000000E+00  0.81942868979E+03  0.81942868979E+03  0.00000000000E+00 0.  1.
         -2   -1    0    0    0  501 -0.00000000000E+00 -0.00000000000E+00 -0.91340813912E+03  0.91340813912E+03  0.00000000000E+00 0. -1.
         23    2    1    2    0    0  0.25952517156E+03  0.57661456778E+03  0.54058723718E+03  0.83700617857E+03  0.92233982441E+02 0.  0.
         13    1    3    3    0    0  0.64961557255E+02  0.21380041972E+03  0.23513974262E+03  0.32437836234E+03  0.00000000000E+00 0. -1.
        -13    1    3    3    0    0  0.19456361431E+03  0.36281414806E+03  0.30544749456E+03  0.51262781623E+03  0.00000000000E+00 0.  1.
         22    1    1    2    0    0 -0.25952517156E+03 -0.57661456778E+03 -0.63456668651E+03  0.89583065034E+03  0.00000000000E+00 0. -1.
<mgrwt>
<rscale>  0 0.17302865E+04</rscale>
<asrwt>0</asrwt>
<pdfrwt beam="1">  1        2 0.12606595E+00 0.17302865E+04</pdfrwt>
<pdfrwt beam="2">  1       -2 0.14052433E+00 0.17302865E+04</pdfrwt>
<totfact> 0.11259539E+01</totfact>
</mgrwt>
</event>
<event>
 6    1  0.1934315E-005  0.2079945E+04  0.7818608E-02  0.8570129E-01
         -2   -1    0    0    0  501 -0.00000000000E+00  0.00000000000E+00  0.48448584611E+03  0.48448584611E+03  0.00000000000E+00 0. -1.
          2   -1    0    0  501    0  0.00000000000E+00 -0.00000000000E+00 -0.22323524587E+04  0.22323524587E+04  0.00000000000E+00 0.  1.
         23    2    1    2    0    0 -0.39333866620E+03 -0.28886806547E+03  0.32097234371E+03  0.59121964364E+03  0.91418575918E+02 0.  0.
         13    1    3    3    0    0 -0.33359645454E+03 -0.28023073917E+03  0.29004450368E+03  0.52339437882E+03  0.00000000000E+00 0. -1.
        -13    1    3    3    0    0 -0.59742211661E+02 -0.86373262939E+01  0.30927840027E+02  0.67825264824E+02  0.00000000000E+00 0.  1.
         22    1    1    2    0    0  0.39333866620E+03  0.28886806547E+03 -0.20688389563E+04  0.21256186612E+04  0.00000000000E+00 0.  1.
<mgrwt>
<rscale>  0 0.20799454E+04</rscale>
<asrwt>0</asrwt>
<pdfrwt beam="1">  1        2 0.34343884E+00 0.20799454E+04</pdfrwt>
<pdfrwt beam="2">  1       -2 0.74536285E-01 0.20799454E+04</pdfrwt>
<totfact> 0.73991431E+00</totfact>
</mgrwt>
</event>
<event>
 6    1  0.1934315E-005  0.1455548E+04  0.7818608E-02  0.8914563E-01
          2   -1    0    0  501    0  0.00000000000E+00  0.00000000000E+00  0.35310116978E+04  0.35310116978E+04  0.00000000000E+00 0.  1.
         -2   -1    0    0    0  501 -0.00000000000E+00 -0.00000000000E+00 -0.15000091461E+03  0.15000091461E+03  0.00000000000E+00 0. -1.
         23    2    1    2    0    0  0.13375015019E+03  0.97641342141E+01  0.34988415676E+04  0.35024950089E+04  0.87146609371E+02 0.  0.
         11    1    3    3    0    0  0.67571753348E+02 -0.10819771875E+02  0.85116053217E+03  0.85390705632E+03  0.00000000000E+00 0.  1.
        -11    1    3    3    0    0  0.66178396838E+02  0.20583906089E+02  0.26476810354E+04  0.26485879526E+04  0.00000000000E+00 0. -1.
         22    1    1    2    0    0 -0.13375015019E+03 -0.97641342141E+01 -0.11783078441E+03  0.17851760346E+03  0.00000000000E+00 0. -1.
<mgrwt>
<rscale>  0 0.14555480E+04</rscale>
<asrwt>0</asrwt>
<pdfrwt beam="1">  1        2 0.54323251E+00 0.14555480E+04</pdfrwt>
<pdfrwt beam="2">  1       -2 0.23077066E-01 0.14555480E+04</pdfrwt>
<totfact> 0.12624161E+01</totfact>
</mgrwt>
</event>
<event>
 6    1  0.1934315E-005  0.4744456E+04  0.7818608E-02  0.7869184E-01
          2   -1    0    0  501    0  0.00000000000E+00  0.00000000000E+00  0.28208863780E+04  0.28208863780E+04  0.00000000000E+00 0.  1.
         -2   -1    0    0    0  501 -0.00000000000E+00 -0.00000000000E+00 -0.19949283852E+04  0.19949283852E+04  0.00000000000E+00 0. -1.
         23    2    1    2    0    0 -0.12271158059E+04  0.17512672929E+04 -0.62650002841E+03  0.22307838860E+04  0.10556575327E+03 0.  0.
         13    1    3    3    0    0 -0.78974696785E+03  0.12123887506E+04 -0.43032883938E+03  0.15095594277E+04  0.00000000000E+00 0.  1.
        -13    1    3    3    0    0 -0.43736883804E+03  0.53887854229E+03 -0.19617118903E+03  0.72122445829E+03  0.00000000000E+00 0. -1.
         22    1    1    2    0    0  0.12271158059E+04 -0.17512672929E+04  0.14524580212E+04  0.25850308771E+04  0.00000000000E+00 0.  1.
<mgrwt>
<rscale>  0 0.47444563E+04</rscale>
<asrwt>0</asrwt>
<pdfrwt beam="1">  1        2 0.43398252E+00 0.47444563E+04</pdfrwt>
<pdfrwt beam="2">  1       -2 0.30691206E+00 0.47444563E+04</pdfrwt>
<totfact> 0.48090354E-02</totfact>
</mgrwt>
</event>
<event>
 6    1  0.1934315E-005  0.2361720E+04  0.7818608E-02  0.8453976E-01
          2   -1    0    0  501    0  0.00000000000E+00  0.00000000000E+00  0.21102811046E+04  0.21102811046E+04  0.00000000000E+00 0.  1.
         -2   -1    0    0    0  501 -0.00000000000E+00 -0.00000000000E+00 -0.66077930935E+03  0.66077930935E+03  0.00000000000E+00 0. -1.
         23    2    1    2    0    0  0.49009063160E+03  0.83722121293E+03 -0.60484536408E+02  0.97629388084E+03  0.91450402173E+02 0.  0.
         13    1    3    3    0    0  0.22260084102E+03  0.41678692295E+03 -0.71345569952E+02  0.47786259941E+03  0.00000000000E+00 0. -1.
        -13    1    3    3    0    0  0.26748979058E+03  0.42043428998E+03  0.10861033543E+02  0.49843128143E+03  0.00000000000E+00 0.  1.
         22    1    1    2    0    0 -0.49009063160E+03 -0.83722121293E+03  0.15099863317E+04  0.17947665331E+04  0.00000000000E+00 0.  1.
<mgrwt>
<rscale>  0 0.23617198E+04</rscale>
<asrwt>0</asrwt>
<pdfrwt beam="1">  1        2 0.32465863E+00 0.23617198E+04</pdfrwt>
<pdfrwt beam="2">  1       -2 0.10165836E+00 0.23617198E+04</pdfrwt>
<totfact> 0.41541716E+00</totfact>
</mgrwt>
</event>
<event>
 6    1  0.1934315E-005  0.4098532E+04  0.7818608E-02  0.7984959E-01
         -2   -1    0    0    0  501 -0.00000000000E+00  0.00000000000E+00  0.16785563139E+04  0.16785563139E+04  0.00000000000E+00 0. -1.
          2   -1    0    0  501    0  0.00000000000E+00 -0.00000000000E+00 -0.25018471878E+04  0.25018471878E+04  0.00000000000E+00 0.  1.
         23    2    1    2    0    0 -0.11958798200E+03 -0.15837542127E+04 -0.17312861720E+04  0.23509133670E+04  0.82844179749E+02 0.  0.
         13    1    3    3    0    0 -0.78624410246E+02 -0.13888611102E+04 -0.15262063266E+04  0.20650478766E+04  0.00000000000E+00 0.  1.
        -13    1    3    3    0    0 -0.40963571756E+02 -0.19489310246E+03 -0.20507984541E+03  0.28586549038E+03  0.00000000000E+00 0. -1.
         22    1    1    2    0    0  0.11958798200E+03  0.15837542127E+04  0.90799529818E+03  0.18294901347E+04  0.00000000000E+00 0. -1.
<mgrwt>
<rscale>  0 0.40985321E+04</rscale>
<asrwt>0</asrwt>
<pdfrwt beam="1">  1        2 0.38489956E+00 0.40985321E+04</pdfrwt>
<pdfrwt beam="2">  1       -2 0.25823944E+00 0.40985321E+04</pdfrwt>
<totfact> 0.15544358E-01</totfact>
</mgrwt>
</event>
<event>
 6    1  0.1934315E-005  0.2037456E+04  0.7818608E-02  0.8589306E-01
          2   -1    0    0  501    0  0.00000000000E+00  0.00000000000E+00  0.18358690810E+04  0.18358690810E+04  0.00000000000E+00 0.  1.
         -2   -1    0    0    0  501 -0.00000000000E+00 -0.00000000000E+00 -0.56529449851E+03  0.56529449851E+03  0.00000000000E+00 0. -1.
         23    2    1    2    0    0 -0.91354765056E+03  0.10548445627E+03  0.12603335090E+03  0.93294325846E+03  0.93821306773E+02 0.  0.
         13    1    3    3    0    0 -0.65431077050E+03  0.11789618849E+03  0.92571711554E+02  0.67126121401E+03  0.00000000000E+00 0. -1.
        -13    1    3    3    0    0 -0.25923688006E+03 -0.12411732213E+02  0.33461639347E+02  0.26168204445E+03  0.00000000000E+00 0.  1.
         22    1    1    2    0    0  0.91354765056E+03 -0.10548445627E+03  0.11445412316E+04  0.14682203211E+04  0.00000000000E+00 0.  1.
<mgrwt>
<rscale>  0 0.20374560E+04</rscale>
<asrwt>0</asrwt>
<pdfrwt beam="1">  1        2 0.28244139E+00 0.20374560E+04</pdfrwt>
<pdfrwt beam="2">  1       -2 0.86968385E-01 0.20374560E+04</pdfrwt>
<totfact> 0.87291408E+00</totfact>
</mgrwt>
</event>
<event>
 6    1  0.1934315E-005  0.4020786E+04  0.7818608E-02  0.8000366E-01
         -2   -1    0    0    0  501 -0.00000000000E+00  0.00000000000E+00  0.87532052539E+03  0.87532052539E+03  0.00000000000E+00 0. -1.
          2   -1    0    0  501    0  0.00000000000E+00 -0.00000000000E+00 -0.46173710625E+04  0.46173710625E+04  0.00000000000E+00 0.  1.
         23    2    1    2    0    0  0.19810621469E+04 -0.30304617687E+03 -0.20688474827E+04  0.28819344800E+04  0.94721831127E+02 0.  0.
         13    1    3    3    0    0  0.11870193681E+04 -0.21841203475E+03 -0.12861413475E+04  0.17637682282E+04  0.00000000000E+00 0.  1.
        -13    1    3    3    0    0  0.79404277878E+03 -0.84634142121E+02 -0.78270613528E+03  0.11181662518E+04  0.00000000000E+00 0. -1.
         22    1    1    2    0    0 -0.19810621469E+04  0.30304617687E+03 -0.16732030543E+04  0.26107571078E+04  0.00000000000E+00 0. -1.
<mgrwt>
<rscale>  0 0.40207858E+04</rscale>
<asrwt>0</asrwt>
<pdfrwt beam="1">  1        2 0.71036478E+00 0.40207858E+04</pdfrwt>
<pdfrwt beam="2">  1       -2 0.13466470E+00 0.40207858E+04</pdfrwt>
<totfact> 0.29083988E-02</totfact>
</mgrwt>
</event>
<event>
 6    1  0.1934315E-005  0.8256311E+03  0.7818608E-02  0.9523641E-01
         -1   -1    0    0    0  501 -0.00000000000E+00  0.00000000000E+00  0.12671890328E+04  0.12671890328E+04  0.00000000000E+00 0. -1.
          1   -1    0    0  501    0  0.00000000000E+00 -0.00000000000E+00 -0.13448402210E+03  0.13448402210E+03  0.00000000000E+00 0.  1.
         23    2    1    2    0    0  0.15580304106E+03 -0.25817704172E+03  0.10703480488E+03  0.33259431898E+03  0.90733450766E+02 0.  0.
         13    1    3    3    0    0  0.30067663367E+02 -0.69752413864E+02  0.69551777288E+02  0.10298987010E+03  0.00000000000E+00 0. -1.
        -13    1    3    3    0    0  0.12573537770E+03 -0.18842462785E+03  0.37483027591E+02  0.22960444888E+03  0.00000000000E+00 0.  1.
         22    1    1    2    0    0 -0.15580304106E+03  0.25817704172E+03  0.10256702059E+04  0.10690787359E+04  0.00000000000E+00 0. -1.
<mgrwt>
<rscale>  0 0.82563110E+03</rscale>
<asrwt>0</asrwt>
<pdfrwt beam="1">  1        1 0.20689850E-01 0.82563110E+03</pdfrwt>
<pdfrwt beam="2">  1       -1 0.19495215E+00 0.82563110E+03</pdfrwt>
<totfact> 0.41598125E+01</totfact>
</mgrwt>
</event>
<event>
 6    1  0.1934315E-005  0.1838240E+04  0.7818608E-02  0.8686224E-01
          2   -1    0    0  501    0  0.00000000000E+00  0.00000000000E+00  0.11488187399E+04  0.11488187399E+04  0.00000000000E+00 0.  1.
         -2   -1    0    0    0  501 -0.00000000000E+00 -0.00000000000E+00 -0.73534783783E+03  0.73534783783E+03  0.00000000000E+00 0. -1.
         23    2    1    2    0    0  0.32591519362E+03 -0.26554773694E+03  0.10421608574E+04  0.11278681088E+04  0.96181621027E+02 0.  0.
         11    1    3    3    0    0  0.28819998368E+03 -0.18694393307E+03  0.85344338244E+03  0.91998525626E+03  0.00000000000E+00 0.  1.
        -11    1    3    3    0    0  0.37715209943E+02 -0.78603803862E+02  0.18871747495E+03  0.20788285257E+03  0.00000000000E+00 0. -1.
         22    1    1    2    0    0 -0.32591519362E+03  0.26554773694E+03 -0.62868995536E+03  0.75629846886E+03  0.00000000000E+00 0. -1.
<mgrwt>
<rscale>  0 0.18382398E+04</rscale>
<asrwt>0</asrwt>
<pdfrwt beam="1">  1        2 0.17674134E+00 0.18382398E+04</pdfrwt>
<pdfrwt beam="2">  1       -2 0.11313044E+00 0.18382398E+04</pdfrwt>
<totfact> 0.11748313E+01</totfact>
</mgrwt>
</event>
<event>
 6    1  0.1934315E-005  0.2680296E+04  0.7818608E-02  0.8341427E-01
          2   -1    0    0  501    0  0.00000000000E+00  0.00000000000E+00  0.12377344662E+04  0.12377344662E+04  0.00000000000E+00 0.  1.
         -2   -1    0    0    0  501 -0.00000000000E+00 -0.00000000000E+00 -0.14510351196E+04  0.14510351196E+04  0.00000000000E+00 0. -1.
         23    2    1    2    0    0 -0.33002215775E+03  0.12213293359E+04 -0.54543692784E+03  0.13807655812E+04  0.91935720626E+02 0.  0.
         11    1    3    3    0    0 -0.10926181780E+03  0.57697139632E+03 -0.26187824499E+03  0.64297305713E+03  0.00000000000E+00 0. -1.
        -11    1    3    3    0    0 -0.22076033996E+03  0.64435793957E+03 -0.28355868285E+03  0.73779252409E+03  0.00000000000E+00 0.  1.
         22    1    1    2    0    0  0.33002215775E+03 -0.12213293359E+04  0.33213627441E+03  0.13080040046E+04  0.00000000000E+00 0.  1.
<mgrwt>
<rscale>  0 0.26802956E+04</rscale>
<asrwt>0</asrwt>
<pdfrwt beam="1">  1        2 0.19042069E+00 0.26802956E+04</pdfrwt>
<pdfrwt beam="2">  1       -2 0.22323617E+00 0.26802956E+04</pdfrwt>
<totfact> 0.14901103E+00</totfact>
</mgrwt>
</event>
<event>
 6    1  0.1934315E-005  0.1019228E+04  0.7818608E-02  0.9287704E-01
         -2   -1    0    0    0  501 -0.00000000000E+00  0.00000000000E+00  0.13401275443E+04  0.13401275443E+04  0.00000000000E+00 0. -1.
          2   -1    0    0  501    0  0.00000000000E+00 -0.00000000000E+00 -0.19379232289E+03  0.19379232289E+03  0.00000000000E+00 0.  1.
         23    2    1    2    0    0  0.45617283133E+03  0.20777023601E+03  0.47981790205E+03  0.69994896841E+03  0.91876091714E+02 0.  0.
         13    1    3    3    0    0  0.24776241019E+03  0.16243464467E+03  0.28446169476E+03  0.41071849420E+03  0.00000000000E+00 0. -1.
        -13    1    3    3    0    0  0.20841042114E+03  0.45335591338E+02  0.19535620729E+03  0.28923047421E+03  0.00000000000E+00 0.  1.
         22    1    1    2    0    0 -0.45617283133E+03 -0.20777023601E+03  0.66651731938E+03  0.83397089880E+03  0.00000000000E+00 0. -1.
<mgrwt>
<rscale>  0 0.10192280E+04</rscale>
<asrwt>0</asrwt>
<pdfrwt beam="1">  1        2 0.29814204E-01 0.10192280E+04</pdfrwt>
<pdfrwt beam="2">  1       -2 0.20617346E+00 0.10192280E+04</pdfrwt>
<totfact> 0.21709119E+01</totfact>
</mgrwt>
</event>
<event>
 6    1  0.1934315E-005  0.3686556E+04  0.7818608E-02  0.8070948E-01
          2   -1    0    0  501    0  0.00000000000E+00  0.00000000000E+00  0.36125846930E+04  0.36125846930E+04  0.00000000000E+00 0.  1.
         -2   -1    0    0    0  501 -0.00000000000E+00 -0.00000000000E+00 -0.94051063902E+03  0.94051063902E+03  0.00000000000E+00 0. -1.
         23    2    1    2    0    0  0.67891815697E+02 -0.89603908895E+03 -0.64997641707E+03  0.11116545466E+04  0.76230837542E+02 0.  0.
         13    1    3    3    0    0  0.17035909808E+02 -0.43575183234E+03 -0.27262871893E+03  0.51429203766E+03  0.00000000000E+00 0.  1.
        -13    1    3    3    0    0  0.50855905889E+02 -0.46028725660E+03 -0.37734769814E+03  0.59736250891E+03  0.00000000000E+00 0. -1.
         22    1    1    2    0    0 -0.67891815697E+02  0.89603908895E+03  0.33220504711E+04  0.34414407855E+04  0.00000000000E+00 0.  1.
<mgrwt>
<rscale>  0 0.36865563E+04</rscale>
<asrwt>0</asrwt>
<pdfrwt beam="1">  1        2 0.55578225E+00 0.36865563E+04</pdfrwt>
<pdfrwt beam="2">  1       -2 0.14469395E+00 0.36865563E+04</pdfrwt>
<totfact> 0.17993660E-01</totfact>
</mgrwt>
</event>
<event>
 6    1  0.1934315E-005  0.3545929E+04  0.7818608E-02  0.8102991E-01
          2   -1    0    0  501    0  0.00000000000E+00  0.00000000000E+00  0.22624664165E+04  0.22624664165E+04  0.00000000000E+00 0.  1.
         -2   -1    0    0    0  501 -0.00000000000E+00 -0.00000000000E+00 -0.13893700275E+04  0.13893700275E+04  0.00000000000E+00 0. -1.
         23    2    1    2    0    0 -0.13089291926E+04  0.58179175923E+03  0.15107898768E+04  0.20838982224E+04  0.91479326480E+02 0.  0.
         11    1    3    3    0    0 -0.57492044732E+03  0.20861740329E+03  0.62300476146E+03  0.87303474988E+03  0.00000000000E+00 0. -1.
        -11    1    3    3    0    0 -0.73400874526E+03  0.37317435594E+03  0.88778511534E+03  0.12108634725E+04  0.00000000000E+00 0.  1.
         22    1    1    2    0    0  0.13089291926E+04 -0.58179175923E+03 -0.63769348789E+03  0.15679382216E+04  0.00000000000E+00 0. -1.
<mgrwt>
<rscale>  0 0.35459289E+04</rscale>
<asrwt>0</asrwt>
<pdfrwt beam="1">  1        2 0.34807176E+00 0.35459289E+04</pdfrwt>
<pdfrwt beam="2">  1       -2 0.21374924E+00 0.35459289E+04</pdfrwt>
<totfact> 0.42224330E-01</totfact>
</mgrwt>
</event>
<event>
 6    1  0.1934315E-005  0.2265154E+04  0.7818608E-02  0.8491788E-01
          2   -1    0    0  501    0  0.00000000000E+00  0.00000000000E+00  0.11866554038E+04  0.11866554038E+04  0.00000000000E+00 0.  1.
         -2   -1    0    0    0  501 -0.00000000000E+00 -0.00000000000E+00 -0.10809634041E+04  0.10809634041E+04  0.00000000000E+00 0. -1.
         23    2    1    2    0    0  0.89814226124E+03  0.43384700177E+02  0.73922684866E+03  0.11676605548E+04  0.91831823476E+02 0.  0.
         13    1    3    3    0    0  0.35903052470E+03  0.22973145540E+02  0.23881440264E+03  0.43181361951E+03  0.00000000000E+00 0. -1.
        -13    1    3    3    0    0  0.53911173654E+03  0.20411554637E+02  0.50041244602E+03  0.73584693529E+03  0.00000000000E+00 0.  1.
         22    1    1    2    0    0 -0.89814226124E+03 -0.43384700177E+02 -0.63353484897E+03  0.10999582531E+04  0.00000000000E+00 0.  1.
<mgrwt>
<rscale>  0 0.22651544E+04</rscale>
<asrwt>0</asrwt>
<pdfrwt beam="1">  1        2 0.18256237E+00 0.22651544E+04</pdfrwt>
<pdfrwt beam="2">  1       -2 0.16630206E+00 0.22651544E+04</pdfrwt>
<totfact> 0.39740325E+00</totfact>
</mgrwt>
</event>
<event>
 6    1  0.1934315E-005  0.1376919E+04  0.7818608E-02  0.8970697E-01
         -2   -1    0    0    0  501 -0.00000000000E+00  0.00000000000E+00  0.17886166925E+03  0.17886166925E+03  0.00000000000E+00 0. -1.
          2   -1    0    0  501    0  0.00000000000E+00 -0.00000000000E+00 -0.26499621316E+04  0.26499621316E+04  0.00000000000E+00 0.  1.
         23    2    1    2    0    0 -0.12539596371E+02  0.67909048115E+03 -0.10553891673E+04  0.12586137531E+04  0.94557718031E+02 0.  0.
         13    1    3    3    0    0 -0.33840144852E+02  0.15455072706E+03 -0.29254420659E+03  0.33258562123E+03  0.00000000000E+00 0.  1.
        -13    1    3    3    0    0  0.21300548480E+02  0.52453975409E+03 -0.76284496070E+03  0.92602813189E+03  0.00000000000E+00 0. -1.
         22    1    1    2    0    0  0.12539596371E+02 -0.67909048115E+03 -0.14157112951E+04  0.15702100478E+04  0.00000000000E+00 0.  1.
<mgrwt>
<rscale>  0 0.13769192E+04</rscale>
<asrwt>0</asrwt>
<pdfrwt beam="1">  1        2 0.40768645E+00 0.13769192E+04</pdfrwt>
<pdfrwt beam="2">  1       -2 0.27517182E-01 0.13769192E+04</pdfrwt>
<totfact> 0.33550298E+01</totfact>
</mgrwt>
</event>
<event>
 6    1  0.1934315E-005  0.1972588E+04  0.7818608E-02  0.8619545E-01
         -2   -1    0    0    0  501 -0.00000000000E+00  0.00000000000E+00  0.37139482935E+03  0.37139482935E+03  0.00000000000E+00 0. -1.
          2   -1    0    0  501    0  0.00000000000E+00 -0.00000000000E+00 -0.26192502749E+04  0.26192502749E+04  0.00000000000E+00 0.  1.
         23    2    1    2    0    0  0.51399025397E+03  0.83644995048E+03 -0.12286161078E+04  0.15754831600E+04  0.93889010362E+02 0.  0.
         13    1    3    3    0    0  0.44205441699E+03  0.74439845947E+03 -0.11231023948E+04  0.14180621154E+04  0.00000000000E+00 0.  1.
        -13    1    3    3    0    0  0.71935836982E+02  0.92051491005E+02 -0.10551371299E+03  0.15742104455E+03  0.00000000000E+00 0. -1.
         22    1    1    2    0    0 -0.51399025397E+03 -0.83644995048E+03 -0.10192393378E+04  0.14151619443E+04  0.00000000000E+00 0.  1.
<mgrwt>
<rscale>  0 0.19725882E+04</rscale>
<asrwt>0</asrwt>
<pdfrwt beam="1">  1        2 0.40296157E+00 0.19725882E+04</pdfrwt>
<pdfrwt beam="2">  1       -2 0.57137668E-01 0.19725882E+04</pdfrwt>
<totfact> 0.79332090E+00</totfact>
</mgrwt>
</event>
<event>
 6    1  0.1934315E-005  0.2214972E+04  0.7818608E-02  0.8512222E-01
          2   -1    0    0  501    0  0.00000000000E+00  0.00000000000E+00  0.12439803358E+04  0.12439803358E+04  0.00000000000E+00 0. -1.
         -2   -1    0    0    0  501 -0.00000000000E+00 -0.00000000000E+00 -0.98596839353E+03  0.98596839353E+03  0.00000000000E+00 0.  1.
         23    2    1    2    0    0  0.52680601532E+03  0.30988181056E+03  0.10566528595E+04  0.12242755076E+04  0.93722669734E+02 0.  0.
         13    1    3    3    0    0  0.94821700578E+02  0.55099439124E+02  0.26914316426E+03  0.29062888012E+03  0.00000000000E+00 0. -1.
        -13    1    3    3    0    0  0.43198431475E+03  0.25478237144E+03  0.78750969521E+03  0.93364662750E+03  0.00000000000E+00 0.  1.
         22    1    1    2    0    0 -0.52680601532E+03 -0.30988181056E+03 -0.79864091718E+03  0.10056732217E+04  0.00000000000E+00 0.  1.
<mgrwt>
<rscale>  0 0.22149720E+04</rscale>
<asrwt>0</asrwt>
<pdfrwt beam="1">  1        2 0.19138159E+00 0.22149720E+04</pdfrwt>
<pdfrwt beam="2">  1       -2 0.15168745E+00 0.22149720E+04</pdfrwt>
<totfact> 0.47354354E+00</totfact>
</mgrwt>
</event>
<event>
 6    1  0.1934315E-005  0.3518130E+04  0.7818608E-02  0.8109507E-01
          2   -1    0    0  501    0  0.00000000000E+00  0.00000000000E+00  0.34908773401E+04  0.34908773401E+04  0.00000000000E+00 0.  1.
         -2   -1    0    0    0  501 -0.00000000000E+00 -0.00000000000E+00 -0.88639863835E+03  0.88639863835E+03  0.00000000000E+00 0. -1.
         23    2    1    2    0    0 -0.74409356964E+03  0.54781182533E+03  0.31637931733E+04  0.32971807445E+04  0.89669295190E+02 0.  0.
         11    1    3    3    0    0 -0.58548557408E+03  0.42469765206E+03  0.23378270588E+04  0.24471609694E+04  0.00000000000E+00 0. -1.
        -11    1    3    3    0    0 -0.15860799556E+03  0.12311417327E+03  0.82596611447E+03  0.85001977516E+03  0.00000000000E+00 0.  1.
         22    1    1    2    0    0  0.74409356964E+03 -0.54781182533E+03 -0.55931447150E+03  0.10800952339E+04  0.00000000000E+00 0. -1.
<mgrwt>
<rscale>  0 0.35181296E+04</rscale>
<asrwt>0</asrwt>
<pdfrwt beam="1">  1        2 0.53705805E+00 0.35181296E+04</pdfrwt>
<pdfrwt beam="2">  1       -2 0.13636902E+00 0.35181296E+04</pdfrwt>
<totfact> 0.25982797E-01</totfact>
</mgrwt>
</event>
<event>
 6    1  0.1934315E-005  0.3546135E+04  0.7818608E-02  0.8102943E-01
         -2   -1    0    0    0  501 -0.00000000000E+00  0.00000000000E+00  0.14213129265E+04  0.14213129265E+04  0.00000000000E+00 0. -1.
          2   -1    0    0  501    0  0.00000000000E+00 -0.00000000000E+00 -0.22118758253E+04  0.22118758253E+04  0.00000000000E+00 0.  1.
         23    2    1    2    0    0  0.78265485760E+03 -0.21725387408E+03  0.12178768510E+04  0.14667220199E+04  0.91113047314E+02 0.  0.
         11    1    3    3    0    0  0.59363296905E+03 -0.20256159986E+03  0.91291920812E+03  0.11076338674E+04  0.00000000000E+00 0. -1.
        -11    1    3    3    0    0  0.18902188855E+03 -0.14692274218E+02  0.30495764289E+03  0.35908815245E+03  0.00000000000E+00 0.  1.
         22    1    1    2    0    0 -0.78265485760E+03  0.21725387408E+03 -0.20084397498E+04  0.21664667319E+04  0.00000000000E+00 0.  1.
<mgrwt>
<rscale>  0 0.35461346E+04</rscale>
<asrwt>0</asrwt>
<pdfrwt beam="1">  1        2 0.34028859E+00 0.35461346E+04</pdfrwt>
<pdfrwt beam="2">  1       -2 0.21866353E+00 0.35461346E+04</pdfrwt>
<totfact> 0.41954204E-01</totfact>
</mgrwt>
</event>
<event>
 6    1  0.1934315E-005  0.1129165E+04  0.7818608E-02  0.9177222E-01
          2   -1    0    0  501    0  0.00000000000E+00  0.00000000000E+00  0.96322235937E+03  0.96322235937E+03  0.00000000000E+00 0.  1.
         -2   -1    0    0    0  501 -0.00000000000E+00 -0.00000000000E+00 -0.33092421144E+03  0.33092421144E+03  0.00000000000E+00 0. -1.
         23    2    1    2    0    0  0.13733744425E+02  0.47117206938E+03 -0.30255774370E+02  0.48102331161E+03  0.90974060716E+02 0.  0.
         11    1    3    3    0    0 -0.25357317911E+01  0.46439827442E+02 -0.31153168103E+02  0.55978633348E+02  0.00000000000E+00 0.  1.
        -11    1    3    3    0    0  0.16269476216E+02  0.42473224194E+03  0.89739373349E+00  0.42504467826E+03  0.00000000000E+00 0. -1.
         22    1    1    2    0    0 -0.13733744425E+02 -0.47117206938E+03  0.66255392230E+03  0.81312325920E+03  0.00000000000E+00 0.  1.
<mgrwt>
<rscale>  0 0.11291654E+04</rscale>
<asrwt>0</asrwt>
<pdfrwt beam="1">  1        2 0.14818805E+00 0.11291654E+04</pdfrwt>
<pdfrwt beam="2">  1       -2 0.50911417E-01 0.11291654E+04</pdfrwt>
<totfact> 0.96178682E+01</totfact>
</mgrwt>
</event>
<event>
 6    1  0.2238983E-005  0.4770953E+04  0.7818608E-02  0.7864845E-01
          1   -1    0    0  501    0  0.00000000000E+00  0.00000000000E+00  0.26919313377E+04  0.26919313377E+04  0.00000000000E+00 0.  1.
         -1   -1    0    0    0  501 -0.00000000000E+00 -0.00000000000E+00 -0.21139092607E+04  0.21139092607E+04  0.00000000000E+00 0. -1.
         23    2    1    2    0    0  0.25402758997E+03  0.16685966707E+04  0.19859215209E+04  0.26079039046E+04  0.92377608643E+02 0.  0.
         13    1    3    3    0    0  0.18860876052E+03  0.96058645313E+03  0.11224740818E+04  0.14893782806E+04  0.00000000000E+00 0.  1.
        -13    1    3    3    0    0  0.65418829451E+02  0.70801021758E+03  0.86344743907E+03  0.11185256240E+04  0.00000000000E+00 0. -1.
         22    1    1    2    0    0 -0.25402758997E+03 -0.16685966707E+04 -0.14078994438E+04  0.21979366938E+04  0.00000000000E+00 0. -1.
<mgrwt>
<rscale>  0 0.47709532E+04</rscale>
<asrwt>0</asrwt>
<pdfrwt beam="1">  1        1 0.41414329E+00 0.47709532E+04</pdfrwt>
<pdfrwt beam="2">  1       -1 0.32521681E+00 0.47709532E+04</pdfrwt>
<totfact> 0.16541567E-02</totfact>
</mgrwt>
</event>
<event>
 6    1  0.1934315E-005  0.1211442E+04  0.7818608E-02  0.9102900E-01
          2   -1    0    0  501    0  0.00000000000E+00  0.00000000000E+00  0.14817107811E+04  0.14817107811E+04  0.00000000000E+00 0.  1.
         -2   -1    0    0    0  501 -0.00000000000E+00 -0.00000000000E+00 -0.24761760683E+03  0.24761760683E+03  0.00000000000E+00 0. -1.
         23    2    1    2    0    0 -0.23137185675E+02  0.25355633737E+03  0.13996607068E+04  0.14256200519E+04  0.92283761654E+02 0.  0.
         13    1    3    3    0    0 -0.40725921178E+02  0.17431530174E+03  0.11271975018E+04  0.11413231939E+04  0.00000000000E+00 0. -1.
        -13    1    3    3    0    0  0.17588735503E+02  0.79241035633E+02  0.27246320505E+03  0.28429685797E+03  0.00000000000E+00 0.  1.
         22    1    1    2    0    0  0.23137185675E+02 -0.25355633737E+03 -0.16556753249E+03  0.30370833606E+03  0.00000000000E+00 0. -1.
<mgrwt>
<rscale>  0 0.12114416E+04</rscale>
<asrwt>0</asrwt>
<pdfrwt beam="1">  1        2 0.22795550E+00 0.12114416E+04</pdfrwt>
<pdfrwt beam="2">  1       -2 0.38095018E-01 0.12114416E+04</pdfrwt>
<totfact> 0.83338888E+01</totfact>
</mgrwt>
</event>
<event>
 6    1  0.1934315E-005  0.2298429E+04  0.7818608E-02  0.8478541E-01
          2   -1    0    0  501    0  0.00000000000E+00  0.00000000000E+00  0.11145585502E+04  0.11145585502E+04  0.00000000000E+00 0.  1.
         -2   -1    0    0    0  501 -0.00000000000E+00 -0.00000000000E+00 -0.11849480446E+04  0.11849480446E+04  0.00000000000E+00 0. -1.
         23    2    1    2    0    0  0.11466898987E+03  0.92451297473E+03 -0.70546509435E+03  0.11720340961E+04  0.90053903044E+02 0.  0.
         11    1    3    3    0    0  0.11903971805E+03  0.64283979107E+03 -0.47595669836E+03  0.80867065618E+03  0.00000000000E+00 0. -1.
        -11    1    3    3    0    0 -0.43707281778E+01  0.28167318366E+03 -0.22950839600E+03  0.36336343995E+03  0.00000000000E+00 0.  1.
         22    1    1    2    0    0 -0.11466898987E+03 -0.92451297473E+03  0.63507559989E+03  0.11274724987E+04  0.00000000000E+00 0.  1.
<mgrwt>
<rscale>  0 0.22984290E+04</rscale>
<asrwt>0</asrwt>
<pdfrwt beam="1">  1        2 0.17147055E+00 0.22984290E+04</pdfrwt>
<pdfrwt beam="2">  1       -2 0.18229970E+00 0.22984290E+04</pdfrwt>
<totfact> 0.33827286E+00</totfact>
</mgrwt>
</event>
<event>
 6    1  0.1934315E-005  0.1179338E+04  0.7818608E-02  0.9131136E-01
         -2   -1    0    0    0  501 -0.00000000000E+00  0.00000000000E+00  0.23867196418E+03  0.23867196418E+03  0.00000000000E+00 0.  1.
          2   -1    0    0  501    0  0.00000000000E+00 -0.00000000000E+00 -0.14568521600E+04  0.14568521600E+04  0.00000000000E+00 0. -1.
         23    2    1    2    0    0  0.50284267481E+03  0.12864190285E+03 -0.22219306526E+03  0.57240798636E+03  0.94242505427E+02 0.  0.
         11    1    3    3    0    0  0.28669508627E+03  0.89947481024E+02 -0.80477691044E+02  0.31106475305E+03  0.00000000000E+00 0. -1.
        -11    1    3    3    0    0  0.21614758854E+03  0.38694421824E+02 -0.14171537421E+03  0.26134323331E+03  0.00000000000E+00 0.  1.
         22    1    1    2    0    0 -0.50284267481E+03 -0.12864190285E+03 -0.99598713056E+03  0.11231161378E+04  0.00000000000E+00 0.  1.
<mgrwt>
<rscale>  0 0.11793384E+04</rscale>
<asrwt>0</asrwt>
<pdfrwt beam="1">  1        2 0.22413110E+00 0.11793384E+04</pdfrwt>
<pdfrwt beam="2">  1       -2 0.36718764E-01 0.11793384E+04</pdfrwt>
<totfact> 0.92634192E+01</totfact>
</mgrwt>
</event>
<event>
 6    1  0.1934315E-005  0.3709125E+04  0.7818608E-02  0.8065943E-01
          2   -1    0    0  501    0  0.00000000000E+00  0.00000000000E+00  0.28806671877E+04  0.28806671877E+04  0.00000000000E+00 0.  1.
         -2   -1    0    0    0  501 -0.00000000000E+00 -0.00000000000E+00 -0.11939601154E+04  0.11939601154E+04  0.00000000000E+00 0. -1.
         23    2    1    2    0    0 -0.63721197458E+03 -0.13920088002E+04 -0.30341366932E+03  0.15637891629E+04  0.98229785692E+02 0.  0.
         13    1    3    3    0    0 -0.47984451877E+03 -0.96847173763E+03 -0.24449447607E+03  0.11081361909E+04  0.00000000000E+00 0.  1.
        -13    1    3    3    0    0 -0.15736745581E+03 -0.42353706261E+03 -0.58919193244E+02  0.45565297199E+03  0.00000000000E+00 0. -1.
         22    1    1    2    0    0  0.63721197458E+03  0.13920088002E+04  0.19901207416E+04  0.25108381403E+04  0.00000000000E+00 0. -1.
<mgrwt>
<rscale>  0 0.37091248E+04</rscale>
<asrwt>0</asrwt>
<pdfrwt beam="1">  1        2 0.44317957E+00 0.37091248E+04</pdfrwt>
<pdfrwt beam="2">  1       -2 0.18368617E+00 0.37091248E+04</pdfrwt>
<totfact> 0.28516338E-01</totfact>
</mgrwt>
</event>
<event>
 6    1  0.1934315E-005  0.1056750E+04  0.7818608E-02  0.9248402E-01
         -2   -1    0    0    0  501 -0.00000000000E+00  0.00000000000E+00  0.19474763689E+03  0.19474763689E+03  0.00000000000E+00 0. -1.
          2   -1    0    0  501    0  0.00000000000E+00 -0.00000000000E+00 -0.14335488779E+04  0.14335488779E+04  0.00000000000E+00 0.  1.
         23    2    1    2    0    0 -0.31295875238E+03 -0.29879866608E+03 -0.10803929364E+04  0.11675178103E+04  0.92871507074E+02 0.  0.
         13    1    3    3    0    0 -0.10660694701E+03 -0.16257820983E+03 -0.43938330835E+03  0.48047310760E+03  0.00000000000E+00 0. -1.
        -13    1    3    3    0    0 -0.20635180537E+03 -0.13622045625E+03 -0.64100962800E+03  0.68704470267E+03  0.00000000000E+00 0.  1.
         22    1    1    2    0    0  0.31295875238E+03  0.29879866608E+03 -0.15840830462E+03  0.46077870449E+03  0.00000000000E+00 0. -1.
<mgrwt>
<rscale>  0 0.10567502E+04</rscale>
<asrwt>0</asrwt>
<pdfrwt beam="1">  1        2 0.22054598E+00 0.10567502E+04</pdfrwt>
<pdfrwt beam="2">  1       -2 0.29961175E-01 0.10567502E+04</pdfrwt>
<totfact> 0.14151691E+02</totfact>
</mgrwt>
</event>
<event>
 6    1  0.1934315E-005  0.5667628E+04  0.7818608E-02  0.7733035E-01
         -2   -1    0    0    0  501 -0.00000000000E+00  0.00000000000E+00  0.25616696391E+04  0.25616696391E+04  0.00000000000E+00 0.  1.
          2   -1    0    0  501    0  0.00000000000E+00 -0.00000000000E+00 -0.31348706505E+04  0.31348706505E+04  0.00000000000E+00 0. -1.
         23    2    1    2    0    0 -0.54753623299E+03 -0.88330442536E+03 -0.29357216056E+04  0.31155470326E+04  0.90273654020E+02 0.  0.
         13    1    3    3    0    0 -0.21736537482E+03 -0.36138623568E+03 -0.13245994466E+04  0.13901120140E+04  0.00000000000E+00 0. -1.
        -13    1    3    3    0    0 -0.33017085817E+03 -0.52191818968E+03 -0.16111221590E+04  0.17254350186E+04  0.00000000000E+00 0.  1.
         22    1    1    2    0    0  0.54753623299E+03  0.88330442536E+03  0.23625205942E+04  0.25809932569E+04  0.00000000000E+00 0.  1.
<mgrwt>
<rscale>  0 0.56676284E+04</rscale>
<asrwt>0</asrwt>
<pdfrwt beam="1">  1        2 0.48228779E+00 0.56676284E+04</pdfrwt>
<pdfrwt beam="2">  1       -2 0.39410302E+00 0.56676284E+04</pdfrwt>
<totfact> 0.80071563E-03</totfact>
</mgrwt>
</event>
<event>
 6    1  0.1934315E-005  0.2814713E+04  0.7818608E-02  0.8298715E-01
         -2   -1    0    0    0  501 -0.00000000000E+00  0.00000000000E+00  0.59483808660E+03  0.59483808660E+03  0.00000000000E+00 0. -1.
          2   -1    0    0  501    0  0.00000000000E+00 -0.00000000000E+00 -0.33297333780E+04  0.33297333780E+04  0.00000000000E+00 0.  1.
         23    2    1    2    0    0 -0.13818124545E+04 -0.21086615727E+03 -0.11578770757E+04  0.18172374502E+04  0.88331377733E+02 0.  0.
         11    1    3    3    0    0 -0.57032715388E+03 -0.48526322965E+02 -0.44639671186E+03  0.72587732492E+03  0.00000000000E+00 0. -1.
        -11    1    3    3    0    0 -0.81148530060E+03 -0.16233983431E+03 -0.71148036386E+03  0.10913601253E+04  0.00000000000E+00 0.  1.
         22    1    1    2    0    0  0.13818124545E+04  0.21086615727E+03 -0.15770182156E+04  0.21073340144E+04  0.00000000000E+00 0. -1.
<mgrwt>
<rscale>  0 0.28147129E+04</rscale>
<asrwt>0</asrwt>
<pdfrwt beam="1">  1        2 0.51226667E+00 0.28147129E+04</pdfrwt>
<pdfrwt beam="2">  1       -2 0.91513553E-01 0.28147129E+04</pdfrwt>
<totfact> 0.93986440E-01</totfact>
</mgrwt>
</event>
<event>
 6    1  0.1934315E-005  0.3062804E+04  0.7818608E-02  0.8226021E-01
         -2   -1    0    0    0  501 -0.00000000000E+00  0.00000000000E+00  0.94197854809E+03  0.94197854809E+03  0.00000000000E+00 0. -1.
          2   -1    0    0  501    0  0.00000000000E+00 -0.00000000000E+00 -0.24896440902E+04  0.24896440902E+04  0.00000000000E+00 0.  1.
         23    2    1    2    0    0 -0.98354929452E+03  0.51572579377E+03  0.40466430275E+03  0.11855295565E+04  0.91568675027E+02 0.  0.
         11    1    3    3    0    0 -0.49230175479E+03  0.22202156681E+03  0.23129880859E+03  0.58749785766E+03  0.00000000000E+00 0. -1.
        -11    1    3    3    0    0 -0.49124753973E+03  0.29370422696E+03  0.17336549416E+03  0.59803169882E+03  0.00000000000E+00 0.  1.
         22    1    1    2    0    0  0.98354929452E+03 -0.51572579377E+03 -0.19523298449E+04  0.22460930818E+04  0.00000000000E+00 0.  1.
<mgrwt>
<rscale>  0 0.30628035E+04</rscale>
<asrwt>0</asrwt>
<pdfrwt beam="1">  1        2 0.38302216E+00 0.30628035E+04</pdfrwt>
<pdfrwt beam="2">  1       -2 0.14491978E+00 0.30628035E+04</pdfrwt>
<totfact> 0.98618133E-01</totfact>
</mgrwt>
</event>
<event>
 6    1  0.1934315E-005  0.1229201E+04  0.7818608E-02  0.9087674E-01
         -2   -1    0    0    0  501 -0.00000000000E+00  0.00000000000E+00  0.11588259115E+03  0.11588259115E+03  0.00000000000E+00 0. -1.
          2   -1    0    0  501    0  0.00000000000E+00 -0.00000000000E+00 -0.32596260538E+04  0.32596260538E+04  0.00000000000E+00 0.  1.
         23    2    1    2    0    0 -0.45815538029E+03  0.17394106906E+03 -0.25834518623E+04  0.26311374167E+04  0.92188571763E+02 0.  0.
         13    1    3    3    0    0 -0.33131192865E+03  0.15211198073E+03 -0.17261413547E+04  0.17642192678E+04  0.00000000000E+00 0. -1.
        -13    1    3    3    0    0 -0.12684345165E+03  0.21829088327E+02 -0.85731050764E+03  0.86691814887E+03  0.00000000000E+00 0.  1.
         22    1    1    2    0    0  0.45815538029E+03 -0.17394106906E+03 -0.56029160034E+03  0.74437122823E+03  0.00000000000E+00 0.  1.
<mgrwt>
<rscale>  0 0.12292012E+04</rscale>
<asrwt>0</asrwt>
<pdfrwt beam="1">  1        2 0.50148096E+00 0.12292012E+04</pdfrwt>
<pdfrwt beam="2">  1       -2 0.17828090E-01 0.12292012E+04</pdfrwt>
<totfact> 0.31058441E+01</totfact>
</mgrwt>
</event>
<event>
 6    1  0.1934315E-005  0.1768449E+04  0.7818608E-02  0.8723260E-01
          2   -1    0    0  501    0  0.00000000000E+00  0.00000000000E+00  0.12376681753E+04  0.12376681753E+04  0.00000000000E+00 0.  1.
         -2   -1    0    0    0  501 -0.00000000000E+00 -0.00000000000E+00 -0.63171466650E+03  0.63171466650E+03  0.00000000000E+00 0. -1.
         23    2    1    2    0    0 -0.74225975503E+03 -0.24326245374E+03 -0.12908260005E+03  0.79681384790E+03  0.90132265209E+02 0.  0.
         13    1    3    3    0    0 -0.10998150516E+03 -0.17650081048E+02 -0.45432062656E+02  0.12029766895E+03  0.00000000000E+00 0.  1.
        -13    1    3    3    0    0 -0.63227824987E+03 -0.22561237269E+03 -0.83650537391E+02  0.67651617895E+03  0.00000000000E+00 0. -1.
         22    1    1    2    0    0  0.74225975503E+03  0.24326245374E+03  0.73503610882E+03  0.10725689939E+04  0.00000000000E+00 0.  1.
<mgrwt>
<rscale>  0 0.17684492E+04</rscale>
<asrwt>0</asrwt>
<pdfrwt beam="1">  1        2 0.19041049E+00 0.17684492E+04</pdfrwt>
<pdfrwt beam="2">  1       -2 0.97186872E-01 0.17684492E+04</pdfrwt>
<totfact> 0.15044119E+01</totfact>
</mgrwt>
</event>
<event>
 6    1  0.1934315E-005  0.3969290E+03  0.7818608E-02  0.1044848E+00
          2   -1    0    0  501    0  0.00000000000E+00  0.00000000000E+00  0.57481426955E+03  0.57481426955E+03  0.00000000000E+00 0.  1.
         -2   -1    0    0    0  501 -0.00000000000E+00 -0.00000000000E+00 -0.68523290877E+02  0.68523290877E+02  0.00000000000E+00 0. -1.
         23    2    1    2    0    0 -0.17166345098E+02 -0.14089981181E+03  0.65929024265E+02  0.18066479133E+03  0.90253477582E+02 0.  0.
         11    1    3    3    0    0  0.36163641893E+02 -0.47439758680E+02  0.32802431146E+02  0.68075980990E+02  0.00000000000E+00 0.  1.
        -11    1    3    3    0    0 -0.53329986991E+02 -0.93460053127E+02  0.33126593119E+02  0.11258881034E+03  0.00000000000E+00 0. -1.
         22    1    1    2    0    0  0.17166345098E+02  0.14089981181E+03  0.44036195441E+03  0.46267276909E+03  0.00000000000E+00 0.  1.
<mgrwt>
<rscale>  0 0.39692904E+03</rscale>
<asrwt>0</asrwt>
<pdfrwt beam="1">  1        2 0.88432961E-01 0.39692904E+03</pdfrwt>
<pdfrwt beam="2">  1       -2 0.10542045E-01 0.39692904E+03</pdfrwt>
<totfact> 0.32528986E+03</totfact>
</mgrwt>
</event>
<event>
 6    1  0.1934315E-005  0.2011985E+04  0.7818608E-02  0.8601038E-01
          2   -1    0    0  501    0  0.00000000000E+00  0.00000000000E+00  0.21506674622E+04  0.21506674622E+04  0.00000000000E+00 0.  1.
         -2   -1    0    0    0  501 -0.00000000000E+00 -0.00000000000E+00 -0.47056117703E+03  0.47056117703E+03  0.00000000000E+00 0. -1.
         23    2    1    2    0    0  0.70645576172E+03  0.47972919037E+03  0.15400672678E+03  0.87245772758E+03  0.90799642907E+02 0.  0.
         13    1    3    3    0    0  0.50094095462E+03  0.31909900568E+03  0.68093674520E+02  0.59783171876E+03  0.00000000000E+00 0.  1.
        -13    1    3    3    0    0  0.20551480710E+03  0.16063018469E+03  0.85913052264E+02  0.27462600882E+03  0.00000000000E+00 0. -1.
         22    1    1    2    0    0 -0.70645576172E+03 -0.47972919037E+03  0.15260995584E+04  0.17487709117E+04  0.00000000000E+00 0. -1.
<mgrwt>
<rscale>  0 0.20119847E+04</rscale>
<asrwt>0</asrwt>
<pdfrwt beam="1">  1        2 0.33087191E+00 0.20119847E+04</pdfrwt>
<pdfrwt beam="2">  1       -2 0.72394029E-01 0.20119847E+04</pdfrwt>
<totfact> 0.88209763E+00</totfact>
</mgrwt>
</event>
<event>
 6    1  0.1934315E-005  0.1756407E+04  0.7818608E-02  0.8729832E-01
          2   -1    0    0  501    0  0.00000000000E+00  0.00000000000E+00  0.98311565227E+03  0.98311565227E+03  0.00000000000E+00 0.  1.
         -2   -1    0    0    0  501 -0.00000000000E+00 -0.00000000000E+00 -0.78448681431E+03  0.78448681431E+03  0.00000000000E+00 0. -1.
         23    2    1    2    0    0 -0.24037700368E+03 -0.75813261935E+03  0.46866179041E+03  0.92768344200E+03  0.91687089316E+02 0.  0.
         11    1    3    3    0    0 -0.13123515801E+03 -0.43620721430E+03  0.31992874651E+03  0.55664513233E+03  0.00000000000E+00 0.  1.
        -11    1    3    3    0    0 -0.10914184567E+03 -0.32192540505E+03  0.14873304391E+03  0.37103830967E+03  0.00000000000E+00 0. -1.
         22    1    1    2    0    0  0.24037700368E+03  0.75813261935E+03 -0.27003295246E+03  0.83991902457E+03  0.00000000000E+00 0. -1.
<mgrwt>
<rscale>  0 0.17564069E+04</rscale>
<asrwt>0</asrwt>
<pdfrwt beam="1">  1        2 0.15124856E+00 0.17564069E+04</pdfrwt>
<pdfrwt beam="2">  1       -2 0.12069028E+00 0.17564069E+04</pdfrwt>
<totfact> 0.12809525E+01</totfact>
</mgrwt>
</event>
<event>
 6    1  0.1934315E-005  0.3899054E+03  0.7818608E-02  0.1047332E+00
          1   -1    0    0  501    0  0.00000000000E+00  0.00000000000E+00  0.22063773829E+03  0.22063773829E+03  0.00000000000E+00 0.  1.
         -1   -1    0    0    0  501 -0.00000000000E+00 -0.00000000000E+00 -0.17225774074E+03  0.17225774074E+03  0.00000000000E+00 0. -1.
         23    2    1    2    0    0 -0.93138775092E+02 -0.13495954993E+03  0.11380805486E+03  0.21634593293E+03  0.83452847758E+02 0.  0.
         11    1    3    3    0    0 -0.85319205730E+02 -0.10904219180E+03  0.50298703698E+02  0.14730758994E+03  0.00000000000E+00 0.  1.
        -11    1    3    3    0    0 -0.78195693619E+01 -0.25917358132E+02  0.63509351166E+02  0.69038342992E+02  0.00000000000E+00 0. -1.
         22    1    1    2    0    0  0.93138775092E+02  0.13495954993E+03 -0.65428057312E+02  0.17654954610E+03  0.00000000000E+00 0. -1.
<mgrwt>
<rscale>  0 0.38990542E+03</rscale>
<asrwt>0</asrwt>
<pdfrwt beam="1">  1        1 0.33944267E-01 0.38990542E+03</pdfrwt>
<pdfrwt beam="2">  1       -1 0.26501191E-01 0.38990542E+03</pdfrwt>
<totfact> 0.16415569E+03</totfact>
</mgrwt>
</event>
<event>
 6    1  0.1934315E-005  0.9606737E+03  0.7818608E-02  0.9352761E-01
         -2   -1    0    0    0  501 -0.00000000000E+00  0.00000000000E+00  0.96987045738E+02  0.96987045738E+02  0.00000000000E+00 0. -1.
          2   -1    0    0  501    0  0.00000000000E+00 -0.00000000000E+00 -0.23789103201E+04  0.23789103201E+04  0.00000000000E+00 0.  1.
         23    2    1    2    0    0 -0.27612732563E+03  0.37343043410E+03 -0.14180090261E+04  0.14950587362E+04  0.93565151015E+02 0.  0.
         11    1    3    3    0    0 -0.11439384124E+03  0.21249832417E+03 -0.62844027324E+03  0.67318546161E+03  0.00000000000E+00 0. -1.
        -11    1    3    3    0    0 -0.16173348439E+03  0.16093210992E+03 -0.78956875287E+03  0.82187327459E+03  0.00000000000E+00 0.  1.
         22    1    1    2    0    0  0.27612732563E+03 -0.37343043410E+03 -0.86391424829E+03  0.98083862968E+03  0.00000000000E+00 0. -1.
<mgrwt>
<rscale>  0 0.96067369E+03</rscale>
<asrwt>0</asrwt>
<pdfrwt beam="1">  1        2 0.36598616E+00 0.96067369E+03</pdfrwt>
<pdfrwt beam="2">  1       -2 0.14921086E-01 0.96067369E+03</pdfrwt>
<totfact> 0.14655323E+02</totfact>
</mgrwt>
</event>
<event>
 6    1  0.1934315E-005  0.7617740E+03  0.7818608E-02  0.9617058E-01
         -2   -1    0    0    0  501 -0.00000000000E+00  0.00000000000E+00  0.99583679461E+02  0.99583679461E+02  0.00000000000E+00 0.  1.
          2   -1    0    0  501    0  0.00000000000E+00 -0.00000000000E+00 -0.14568140070E+04  0.14568140070E+04  0.00000000000E+00 0. -1.
         23    2    1    2    0    0  0.23796354635E+03 -0.16791393299E+03 -0.20506697678E+03  0.36799450357E+03  0.92443233429E+02 0.  0.
         13    1    3    3    0    0  0.75115596207E+02 -0.91873832818E+01 -0.31727845496E+02  0.82057400549E+02  0.00000000000E+00 0.  1.
        -13    1    3    3    0    0  0.16284795014E+03 -0.15872654971E+03 -0.17333913129E+03  0.28593710302E+03  0.00000000000E+00 0. -1.
         22    1    1    2    0    0 -0.23796354635E+03  0.16791393299E+03 -0.11521633508E+04  0.11884031829E+04  0.00000000000E+00 0. -1.
<mgrwt>
<rscale>  0 0.76177398E+03</rscale>
<asrwt>0</asrwt>
<pdfrwt beam="1">  1        2 0.22412520E+00 0.76177398E+03</pdfrwt>
<pdfrwt beam="2">  1       -2 0.15320568E-01 0.76177398E+03</pdfrwt>
<totfact> 0.45896246E+02</totfact>
</mgrwt>
</event>
<event>
 6    1  0.1934315E-005  0.4460828E+04  0.7818608E-02  0.7917531E-01
          2   -1    0    0  501    0  0.00000000000E+00  0.00000000000E+00  0.24801910081E+04  0.24801910081E+04  0.00000000000E+00 0.  1.
         -2   -1    0    0    0  501 -0.00000000000E+00 -0.00000000000E+00 -0.20057916973E+04  0.20057916973E+04  0.00000000000E+00 0. -1.
         23    2    1    2    0    0  0.15550629810E+03  0.74326703081E+03  0.23452373391E+04  0.24669079132E+04  0.94172117735E+02 0.  0.
         11    1    3    3    0    0  0.82212780935E+02  0.41944774972E+03  0.14673481384E+04  0.15283343598E+04  0.00000000000E+00 0. -1.
        -11    1    3    3    0    0  0.73293517168E+02  0.32381928109E+03  0.87788920072E+03  0.93857355343E+03  0.00000000000E+00 0.  1.
         22    1    1    2    0    0 -0.15550629810E+03 -0.74326703081E+03 -0.18708380284E+04  0.20190747921E+04  0.00000000000E+00 0. -1.
<mgrwt>
<rscale>  0 0.44608280E+04</rscale>
<asrwt>0</asrwt>
<pdfrwt beam="1">  1        2 0.38156785E+00 0.44608280E+04</pdfrwt>
<pdfrwt beam="2">  1       -2 0.30858334E+00 0.44608280E+04</pdfrwt>
<totfact> 0.76492321E-02</totfact>
</mgrwt>
</event>
<event>
 6    1  0.1934315E-005  0.5248464E+04  0.7818608E-02  0.7791282E-01
          2   -1    0    0  501    0  0.00000000000E+00  0.00000000000E+00  0.37277286750E+04  0.37277286750E+04  0.00000000000E+00 0.  1.
         -2   -1    0    0    0  501 -0.00000000000E+00 -0.00000000000E+00 -0.18473968788E+04  0.18473968788E+04  0.00000000000E+00 0. -1.
         23    2    1    2    0    0  0.22678413983E+04  0.13029028228E+04  0.72139004661E+03  0.27143902720E+04  0.82768205885E+02 0.  0.
         13    1    3    3    0    0  0.17724595113E+04  0.10163042794E+04  0.59879362550E+03  0.21290939184E+04  0.00000000000E+00 0.  1.
        -13    1    3    3    0    0  0.49538188709E+03  0.28659854341E+03  0.12259642111E+03  0.58529635366E+03  0.00000000000E+00 0. -1.
         22    1    1    2    0    0 -0.22678413983E+04 -0.13029028228E+04  0.11589417496E+04  0.28607352818E+04  0.00000000000E+00 0.  1.
<mgrwt>
<rscale>  0 0.52484643E+04</rscale>
<asrwt>0</asrwt>
<pdfrwt beam="1">  1        2 0.57349672E+00 0.52484643E+04</pdfrwt>
<pdfrwt beam="2">  1       -2 0.28421491E+00 0.52484643E+04</pdfrwt>
<totfact> 0.15723514E-02</totfact>
</mgrwt>
</event>
<event>
 6    1  0.1934315E-005  0.2183612E+04  0.7818608E-02  0.8525280E-01
         -2   -1    0    0    0  501 -0.00000000000E+00  0.00000000000E+00  0.38875349227E+03  0.38875349227E+03  0.00000000000E+00 0. -1.
          2   -1    0    0  501    0  0.00000000000E+00 -0.00000000000E+00 -0.30663129052E+04  0.30663129052E+04  0.00000000000E+00 0.  1.
         23    2    1    2    0    0 -0.30587019556E+03 -0.53008118842E+03 -0.27681417378E+04  0.28364002513E+04  0.89526880028E+02 0.  0.
         13    1    3    3    0    0 -0.68815700073E+02 -0.18676611533E+03 -0.78415494471E+03  0.80902173007E+03  0.00000000000E+00 0.  1.
        -13    1    3    3    0    0 -0.23705449549E+03 -0.34331507309E+03 -0.19839867931E+04  0.20273785213E+04  0.00000000000E+00 0. -1.
         22    1    1    2    0    0  0.30587019556E+03  0.53008118842E+03  0.90582324849E+02  0.61866614618E+03  0.00000000000E+00 0. -1.
<mgrwt>
<rscale>  0 0.21836115E+04</rscale>
<asrwt>0</asrwt>
<pdfrwt beam="1">  1        2 0.47174044E+00 0.21836115E+04</pdfrwt>
<pdfrwt beam="2">  1       -2 0.59808230E-01 0.21836115E+04</pdfrwt>
<totfact> 0.37794744E+00</totfact>
</mgrwt>
</event>
<event>
 6    1  0.1934315E-005  0.3131123E+04  0.7818608E-02  0.8207248E-01
         -4   -1    0    0    0  501 -0.00000000000E+00  0.00000000000E+00  0.22060196254E+04  0.22060196254E+04  0.00000000000E+00 0. -1.
          4   -1    0    0  501    0  0.00000000000E+00 -0.00000000000E+00 -0.11110431373E+04  0.11110431373E+04  0.00000000000E+00 0.  1.
         23    2    1    2    0    0  0.16174416552E+03 -0.15465747811E+04  0.72801830107E+03  0.17193415607E+04  0.89833328336E+02 0.  0.
         13    1    3    3    0    0  0.13418696763E+03 -0.99814881247E+03  0.43667187452E+03  0.10977201465E+04  0.00000000000E+00 0. -1.
        -13    1    3    3    0    0  0.27557197899E+02 -0.54842596862E+03  0.29134642656E+03  0.62162141411E+03  0.00000000000E+00 0.  1.
         22    1    1    2    0    0 -0.16174416552E+03  0.15465747811E+04  0.36695818700E+03  0.15977212021E+04  0.00000000000E+00 0. -1.
<mgrwt>
<rscale>  0 0.31311231E+04</rscale>
<asrwt>0</asrwt>
<pdfrwt beam="1">  1        4 0.17092971E+00 0.31311231E+04</pdfrwt>
<pdfrwt beam="2">  1       -4 0.33938764E+00 0.31311231E+04</pdfrwt>
<totfact> 0.60728179E-03</totfact>
</mgrwt>
</event>
<event>
 6    1  0.1934315E-005  0.1501793E+04  0.7818608E-02  0.8883262E-01
          2   -1    0    0  501    0  0.00000000000E+00  0.00000000000E+00  0.22979815449E+04  0.22979815449E+04  0.00000000000E+00 0.  1.
         -2   -1    0    0    0  501 -0.00000000000E+00 -0.00000000000E+00 -0.24536549546E+03  0.24536549546E+03  0.00000000000E+00 0. -1.
         23    2    1    2    0    0 -0.20286302522E+03 -0.53146695449E+03  0.18529919255E+04  0.19404703353E+04  0.90749740636E+02 0.  0.
         13    1    3    3    0    0 -0.60147765990E+02 -0.15087237872E+03  0.40064771451E+03  0.43231796118E+03  0.00000000000E+00 0. -1.
        -13    1    3    3    0    0 -0.14271525923E+03 -0.38059457576E+03  0.14523442110E+04  0.15081523741E+04  0.00000000000E+00 0.  1.
         22    1    1    2    0    0  0.20286302522E+03  0.53146695449E+03  0.19962412400E+03  0.60287670514E+03  0.00000000000E+00 0. -1.
<mgrwt>
<rscale>  0 0.15017928E+04</rscale>
<asrwt>0</asrwt>
<pdfrwt beam="1">  1        2 0.35353561E+00 0.15017928E+04</pdfrwt>
<pdfrwt beam="2">  1       -2 0.37748539E-01 0.15017928E+04</pdfrwt>
<totfact> 0.29123408E+01</totfact>
</mgrwt>
</event>
<event>
 6    1  0.1934315E-005  0.2246880E+04  0.7818608E-02  0.8499165E-01
         -2   -1    0    0    0  501 -0.00000000000E+00  0.00000000000E+00  0.57660020371E+03  0.57660020371E+03  0.00000000000E+00 0. -1.
          2   -1    0    0  501    0  0.00000000000E+00 -0.00000000000E+00 -0.21888944502E+04  0.21888944502E+04  0.00000000000E+00 0.  1.
         23    2    1    2    0    0 -0.62480771094E+03 -0.77984907702E+03 -0.14343953130E+04  0.17505083047E+04  0.90775285154E+02 0.  0.
         11    1    3    3    0    0 -0.30905408400E+03 -0.35425272333E+03 -0.60339454349E+03  0.76491463179E+03  0.00000000000E+00 0.  1.
        -11    1    3    3    0    0 -0.31575362694E+03 -0.42559635369E+03 -0.83100076949E+03  0.98559367292E+03  0.00000000000E+00 0. -1.
         22    1    1    2    0    0  0.62480771094E+03  0.77984907702E+03 -0.17789893355E+03  0.10149863492E+04  0.00000000000E+00 0. -1.
<mgrwt>
<rscale>  0 0.22468796E+04</rscale>
<asrwt>0</asrwt>
<pdfrwt beam="1">  1        2 0.33675300E+00 0.22468796E+04</pdfrwt>
<pdfrwt beam="2">  1       -2 0.88707722E-01 0.22468796E+04</pdfrwt>
<totfact> 0.52112959E+00</totfact>
</mgrwt>
</event>
<event>
 6    1  0.1934315E-005  0.1235133E+04  0.7818608E-02  0.9082649E-01
         -2   -1    0    0    0  501 -0.00000000000E+00  0.00000000000E+00  0.72930484078E+03  0.72930484078E+03  0.00000000000E+00 0. -1.
          2   -1    0    0  501    0  0.00000000000E+00 -0.00000000000E+00 -0.52294786827E+03  0.52294786827E+03  0.00000000000E+00 0.  1.
         23    2    1    2    0    0 -0.15234511471E+03  0.36645121030E+03 -0.36798870465E+03  0.55413489637E+03  0.11897173239E+03 0.  0.
         13    1    3    3    0    0 -0.76044665359E+02  0.57988896668E+02 -0.70027327241E+02  0.11852986892E+03  0.00000000000E+00 0. -1.
        -13    1    3    3    0    0 -0.76300449354E+02  0.30846231364E+03 -0.29796137741E+03  0.43560502744E+03  0.00000000000E+00 0.  1.
         22    1    1    2    0    0  0.15234511471E+03 -0.36645121030E+03  0.57434567717E+03  0.69811781269E+03  0.00000000000E+00 0. -1.
<mgrwt>
<rscale>  0 0.12351330E+04</rscale>
<asrwt>0</asrwt>
<pdfrwt beam="1">  1        2 0.80453518E-01 0.12351330E+04</pdfrwt>
<pdfrwt beam="2">  1       -2 0.11220074E+00 0.12351330E+04</pdfrwt>
<totfact> 0.36016554E+01</totfact>
</mgrwt>
</event>
<event>
 6    1  0.2251549E-005  0.2666074E+04  0.7818608E-02  0.8346097E-01
         -2   -1    0    0    0  501 -0.00000000000E+00  0.00000000000E+00  0.68370294234E+03  0.68370294234E+03  0.00000000000E+00 0. -1.
          2   -1    0    0  501    0  0.00000000000E+00 -0.00000000000E+00 -0.25990643393E+04  0.25990643393E+04  0.00000000000E+00 0.  1.
         23    2    1    2    0    0 -0.96054896164E+03  0.11989744523E+03 -0.20845594134E+04  0.23000884563E+04  0.89382625750E+02 0.  0.
         11    1    3    3    0    0 -0.18646645949E+03 -0.11800344614E+02 -0.41208669645E+03  0.45246484288E+03  0.00000000000E+00 0.  1.
        -11    1    3    3    0    0 -0.77408250214E+03  0.13169778985E+03 -0.16724727169E+04  0.18476236134E+04  0.00000000000E+00 0. -1.
         22    1    1    2    0    0  0.96054896164E+03 -0.11989744523E+03  0.16919801640E+03  0.98267882537E+03  0.00000000000E+00 0. -1.
<mgrwt>
<rscale>  0 0.26660742E+04</rscale>
<asrwt>0</asrwt>
<pdfrwt beam="1">  1        2 0.39985606E+00 0.26660742E+04</pdfrwt>
<pdfrwt beam="2">  1       -2 0.10518507E+00 0.26660742E+04</pdfrwt>
<totfact> 0.19616628E+00</totfact>
</mgrwt>
</event>
<event>
 6    1  0.1934315E-005  0.6594439E+03  0.7818608E-02  0.9789218E-01
          2   -1    0    0  501    0  0.00000000000E+00  0.00000000000E+00  0.19841861084E+04  0.19841861084E+04  0.00000000000E+00 0. -1.
         -2   -1    0    0    0  501 -0.00000000000E+00 -0.00000000000E+00 -0.54791515144E+02  0.54791515144E+02  0.00000000000E+00 0.  1.
         23    2    1    2    0    0  0.61656030881E+02  0.28223278642E+03  0.53242431465E+03  0.61244940048E+03  0.90342711118E+02 0.  0.
         13    1    3    3    0    0  0.51070328942E+02  0.26479717997E+03  0.52593540688E+03  0.59104464910E+03  0.00000000000E+00 0. -1.
        -13    1    3    3    0    0  0.10585701939E+02  0.17435606451E+02  0.64889077654E+01  0.21404751385E+02  0.00000000000E+00 0.  1.
         22    1    1    2    0    0 -0.61656030881E+02 -0.28223278642E+03  0.13969702786E+04  0.14265282231E+04  0.00000000000E+00 0. -1.
<mgrwt>
<rscale>  0 0.65944390E+03</rscale>
<asrwt>0</asrwt>
<pdfrwt beam="1">  1        2 0.30525935E+00 0.65944390E+03</pdfrwt>
<pdfrwt beam="2">  1       -2 0.84294654E-02 0.65944390E+03</pdfrwt>
<totfact> 0.63503933E+02</totfact>
</mgrwt>
</event>
<event>
 6    1  0.1934315E-005  0.3272623E+04  0.7818608E-02  0.8169897E-01
          2   -1    0    0  501    0  0.00000000000E+00  0.00000000000E+00  0.89545542243E+03  0.89545542243E+03  0.00000000000E+00 0.  1.
         -2   -1    0    0    0  501 -0.00000000000E+00 -0.00000000000E+00 -0.29901162679E+04  0.29901162679E+04  0.00000000000E+00 0. -1.
         23    2    1    2    0    0  0.73988111078E+02 -0.14776468021E+04 -0.18745525135E+04  0.23897902925E+04  0.90753533536E+02 0.  0.
         13    1    3    3    0    0  0.82706475960E+02 -0.13162627527E+04 -0.16313391320E+04  0.20977739056E+04  0.00000000000E+00 0.  1.
        -13    1    3    3    0    0 -0.87183648821E+01 -0.16138404945E+03 -0.24321338147E+03  0.29201638692E+03  0.00000000000E+00 0. -1.
         22    1    1    2    0    0 -0.73988111078E+02  0.14776468021E+04 -0.22010833202E+03  0.14957813979E+04  0.00000000000E+00 0.  1.
<mgrwt>
<rscale>  0 0.32726233E+04</rscale>
<asrwt>0</asrwt>
<pdfrwt beam="1">  1        2 0.13776237E+00 0.32726233E+04</pdfrwt>
<pdfrwt beam="2">  1       -2 0.46001789E+00 0.32726233E+04</pdfrwt>
<totfact> 0.73571167E-02</totfact>
</mgrwt>
</event>
<event>
 6    1  0.1934315E-005  0.1712831E+04  0.7818608E-02  0.8754080E-01
          2   -1    0    0  501    0  0.00000000000E+00  0.00000000000E+00  0.20218130654E+04  0.20218130654E+04  0.00000000000E+00 0.  1.
         -2   -1    0    0    0  501 -0.00000000000E+00 -0.00000000000E+00 -0.36276716624E+03  0.36276716624E+03  0.00000000000E+00 0. -1.
         23    2    1    2    0    0  0.84455088143E+03 -0.12594579043E+03  0.84480083495E+03  0.12046973739E+04  0.92080282606E+02 0.  0.
         11    1    3    3    0    0  0.60678853431E+03 -0.11521010787E+03  0.56176327812E+03  0.83489141508E+03  0.00000000000E+00 0. -1.
        -11    1    3    3    0    0  0.23776234712E+03 -0.10735682557E+02  0.28303755683E+03  0.36980595880E+03  0.00000000000E+00 0.  1.
         22    1    1    2    0    0 -0.84455088143E+03  0.12594579043E+03  0.81424506421E+03  0.11798828578E+04  0.00000000000E+00 0.  1.
<mgrwt>
<rscale>  0 0.17128309E+04</rscale>
<asrwt>0</asrwt>
<pdfrwt beam="1">  1        2 0.31104816E+00 0.17128309E+04</pdfrwt>
<pdfrwt beam="2">  1       -2 0.55810334E-01 0.17128309E+04</pdfrwt>
<totfact> 0.18626567E+01</totfact>
</mgrwt>
</event>
<event>
 6    1  0.1934315E-005  0.2429856E+04  0.7818608E-02  0.8428410E-01
         -2   -1    0    0    0  501 -0.00000000000E+00  0.00000000000E+00  0.13685383865E+04  0.13685383865E+04  0.00000000000E+00 0. -1.
          2   -1    0    0  501    0  0.00000000000E+00 -0.00000000000E+00 -0.10785593588E+04  0.10785593588E+04  0.00000000000E+00 0.  1.
         23    2    1    2    0    0  0.69299410013E+03 -0.66599348883E+03 -0.60044586808E+03  0.11368898820E+04  0.90527417248E+02 0.  0.
         11    1    3    3    0    0  0.30250243134E+03 -0.31129792939E+03 -0.22117701848E+03  0.48716875445E+03  0.00000000000E+00 0.  1.
        -11    1    3    3    0    0  0.39049166878E+03 -0.35469555944E+03 -0.37926884960E+03  0.64972112752E+03  0.00000000000E+00 0. -1.
         22    1    1    2    0    0 -0.69299410013E+03  0.66599348883E+03  0.89042489580E+03  0.13102078633E+04  0.00000000000E+00 0. -1.
<mgrwt>
<rscale>  0 0.24298559E+04</rscale>
<asrwt>0</asrwt>
<pdfrwt beam="1">  1        2 0.16593221E+00 0.24298559E+04</pdfrwt>
<pdfrwt beam="2">  1       -2 0.21054437E+00 0.24298559E+04</pdfrwt>
<totfact> 0.22885817E+00</totfact>
</mgrwt>
</event>
<event>
 6    1  0.1934315E-005  0.5603146E+03  0.7818608E-02  0.9991343E-01
         -2   -1    0    0    0  501 -0.00000000000E+00  0.00000000000E+00  0.35258703005E+03  0.35258703005E+03  0.00000000000E+00 0. -1.
          2   -1    0    0  501    0  0.00000000000E+00 -0.00000000000E+00 -0.22260638330E+03  0.22260638330E+03  0.00000000000E+00 0.  1.
         23    2    1    2    0    0  0.17684620118E+03  0.16974823053E+03  0.18961763057E+03  0.32291259664E+03  0.90711954068E+02 0.  0.
         13    1    3    3    0    0  0.53345970595E+02  0.14472413121E+02  0.76975718008E+02  0.94765523705E+02  0.00000000000E+00 0. -1.
        -13    1    3    3    0    0  0.12350023059E+03  0.15527581741E+03  0.11264191256E+03  0.22814707294E+03  0.00000000000E+00 0.  1.
         22    1    1    2    0    0 -0.17684620118E+03 -0.16974823053E+03 -0.59636983815E+02  0.25228081671E+03  0.00000000000E+00 0.  1.
<mgrwt>
<rscale>  0 0.56031464E+03</rscale>
<asrwt>0</asrwt>
<pdfrwt beam="1">  1        2 0.34247136E-01 0.56031464E+03</pdfrwt>
<pdfrwt beam="2">  1       -2 0.54244158E-01 0.56031464E+03</pdfrwt>
<totfact> 0.49459660E+02</totfact>
</mgrwt>
</event>
<event>
 6    1  0.1934315E-005  0.3558648E+04  0.7818608E-02  0.8100030E-01
          2   -1    0    0  501    0  0.00000000000E+00  0.00000000000E+00  0.28817492193E+04  0.28817492193E+04  0.00000000000E+00 0.  1.
         -2   -1    0    0    0  501 -0.00000000000E+00 -0.00000000000E+00 -0.10986360780E+04  0.10986360780E+04  0.00000000000E+00 0. -1.
         23    2    1    2    0    0  0.85932836064E+03  0.19691545765E+03 -0.83519748939E+03  0.12176382064E+04  0.88696260625E+02 0.  0.
         13    1    3    3    0    0  0.14919381017E+03  0.57610104978E+02 -0.11772044262E+03  0.19858454069E+03  0.00000000000E+00 0.  1.
        -13    1    3    3    0    0  0.71013455047E+03  0.13930535267E+03 -0.71747704678E+03  0.10190536658E+04  0.00000000000E+00 0. -1.
         22    1    1    2    0    0 -0.85932836064E+03 -0.19691545765E+03  0.26183106307E+04  0.27627470908E+04  0.00000000000E+00 0.  1.
<mgrwt>
<rscale>  0 0.35586479E+04</rscale>
<asrwt>0</asrwt>
<pdfrwt beam="1">  1        2 0.44334603E+00 0.35586479E+04</pdfrwt>
<pdfrwt beam="2">  1       -2 0.16902094E+00 0.35586479E+04</pdfrwt>
<totfact> 0.36497946E-01</totfact>
</mgrwt>
</event>
<event>
 6    1  0.1934315E-005  0.2967224E+04  0.7818608E-02  0.8253153E-01
          2   -1    0    0  501    0  0.00000000000E+00  0.00000000000E+00  0.12124887636E+04  0.12124887636E+04  0.00000000000E+00 0.  1.
         -2   -1    0    0    0  501 -0.00000000000E+00 -0.00000000000E+00 -0.18153608209E+04  0.18153608209E+04  0.00000000000E+00 0. -1.
         23    2    1    2    0    0  0.21347535549E+02 -0.14520541274E+04 -0.60389347890E+03  0.15756381849E+04  0.95033939742E+02 0.  0.
         11    1    3    3    0    0  0.45800371490E+02 -0.12124417748E+04 -0.48021333529E+03  0.13048822087E+04  0.00000000000E+00 0. -1.
        -11    1    3    3    0    0 -0.24452835941E+02 -0.23961235261E+03 -0.12368014361E+03  0.27075597617E+03  0.00000000000E+00 0.  1.
         22    1    1    2    0    0 -0.21347535549E+02  0.14520541274E+04  0.10214215826E+01  0.14522113997E+04  0.00000000000E+00 0. -1.
<mgrwt>
<rscale>  0 0.29672240E+04</rscale>
<asrwt>0</asrwt>
<pdfrwt beam="1">  1        2 0.18653673E+00 0.29672240E+04</pdfrwt>
<pdfrwt beam="2">  1       -2 0.27928628E+00 0.29672240E+04</pdfrwt>
<totfact> 0.67973048E-01</totfact>
</mgrwt>
</event>
<event>
 6    1  0.1934315E-005  0.3925870E+04  0.7818608E-02  0.8019670E-01
          2   -1    0    0  501    0  0.00000000000E+00  0.00000000000E+00  0.33320915410E+04  0.33320915410E+04  0.00000000000E+00 0.  1.
         -2   -1    0    0    0  501 -0.00000000000E+00 -0.00000000000E+00 -0.11563651341E+04  0.11563651341E+04  0.00000000000E+00 0. -1.
         23    2    1    2    0    0 -0.12202735900E+04  0.13379201450E+04  0.22541973571E+03  0.18271047516E+04  0.91650244270E+02 0.  0.
         11    1    3    3    0    0 -0.33486681445E+03  0.41080525277E+03  0.36222158418E+02  0.53123326692E+03  0.00000000000E+00 0. -1.
        -11    1    3    3    0    0 -0.88540677558E+03  0.92711489219E+03  0.18919757729E+03  0.12958714847E+04  0.00000000000E+00 0.  1.
         22    1    1    2    0    0  0.12202735900E+04 -0.13379201450E+04  0.19503066713E+04  0.26613519235E+04  0.00000000000E+00 0.  1.
<mgrwt>
<rscale>  0 0.39258703E+04</rscale>
<asrwt>0</asrwt>
<pdfrwt beam="1">  1        2 0.51262946E+00 0.39258703E+04</pdfrwt>
<pdfrwt beam="2">  1       -2 0.17790233E+00 0.39258703E+04</pdfrwt>
<totfact> 0.15752922E-01</totfact>
</mgrwt>
</event>
<event>
 6    1  0.1934315E-005  0.2169344E+04  0.7818608E-02  0.8531297E-01
          2   -1    0    0  501    0  0.00000000000E+00  0.00000000000E+00  0.26530443427E+04  0.26530443427E+04  0.00000000000E+00 0.  1.
         -2   -1    0    0    0  501 -0.00000000000E+00 -0.00000000000E+00 -0.44345767999E+03  0.44345767999E+03  0.00000000000E+00 0. -1.
         23    2    1    2    0    0 -0.21156605303E+03  0.72681525901E+03  0.13383572563E+01  0.76211105414E+03  0.88265803776E+02 0.  0.
         11    1    3    3    0    0 -0.18469708066E+03  0.61931805266E+03  0.32247827863E+02  0.64707633581E+03  0.00000000000E+00 0. -1.
        -11    1    3    3    0    0 -0.26868972368E+02  0.10749720634E+03 -0.30909470607E+02  0.11503471833E+03  0.00000000000E+00 0.  1.
         22    1    1    2    0    0  0.21156605303E+03 -0.72681525901E+03  0.22082483054E+04  0.23343909685E+04  0.00000000000E+00 0.  1.
<mgrwt>
<rscale>  0 0.21693436E+04</rscale>
<asrwt>0</asrwt>
<pdfrwt beam="1">  1        2 0.40816066E+00 0.21693436E+04</pdfrwt>
<pdfrwt beam="2">  1       -2 0.68224260E-01 0.21693436E+04</pdfrwt>
<totfact> 0.51036665E+00</totfact>
</mgrwt>
</event>
<event>
 6    1  0.1934315E-005  0.1838121E+04  0.7818608E-02  0.8686286E-01
          2   -1    0    0  501    0  0.00000000000E+00  0.00000000000E+00  0.71219064903E+03  0.71219064903E+03  0.00000000000E+00 0.  1.
         -2   -1    0    0    0  501 -0.00000000000E+00 -0.00000000000E+00 -0.11860202252E+04  0.11860202252E+04  0.00000000000E+00 0. -1.
         23    2    1    2    0    0 -0.52671286285E+03  0.67304696349E+02  0.53648967412E+03  0.75685144375E+03  0.55195791776E+02 0.  0.
         13    1    3    3    0    0 -0.46157490748E+03  0.57274549776E+02  0.44190363210E+03  0.64156885003E+03  0.00000000000E+00 0. -1.
        -13    1    3    3    0    0 -0.65137955368E+02  0.10030146573E+02  0.94586042015E+02  0.11528259372E+03  0.00000000000E+00 0.  1.
         22    1    1    2    0    0  0.52671286285E+03 -0.67304696349E+02 -0.10103192503E+04  0.11413594305E+04  0.00000000000E+00 0. -1.
<mgrwt>
<rscale>  0 0.18381213E+04</rscale>
<asrwt>0</asrwt>
<pdfrwt beam="1">  1        2 0.10956779E+00 0.18381213E+04</pdfrwt>
<pdfrwt beam="2">  1       -2 0.18246465E+00 0.18381213E+04</pdfrwt>
<totfact> 0.65738799E+00</totfact>
</mgrwt>
</event>
<event>
 6    1  0.1934315E-005  0.3108527E+03  0.7818608E-02  0.1079938E+00
          2   -1    0    0  501    0  0.00000000000E+00  0.00000000000E+00  0.16538682930E+04  0.16538682930E+04  0.00000000000E+00 0.  1.
         -2   -1    0    0    0  501 -0.00000000000E+00 -0.00000000000E+00 -0.14606576573E+02  0.14606576573E+02  0.00000000000E+00 0. -1.
         23    2    1    2    0    0 -0.64868233787E+02 -0.87112294335E+02  0.13841259489E+04  0.13911831469E+04  0.88257953121E+02 0.  0.
         11    1    3    3    0    0 -0.34172925668E+02 -0.72778769419E+02  0.12586194652E+04  0.12611849572E+04  0.00000000000E+00 0.  1.
        -11    1    3    3    0    0 -0.30695308118E+02 -0.14333524916E+02  0.12550648373E+03  0.12999818974E+03  0.00000000000E+00 0. -1.
         22    1    1    2    0    0  0.64868233787E+02  0.87112294335E+02  0.25513576754E+03  0.27729172266E+03  0.00000000000E+00 0. -1.
<mgrwt>
<rscale>  0 0.31085272E+03</rscale>
<asrwt>0</asrwt>
<pdfrwt beam="1">  1        2 0.25444113E+00 0.31085272E+03</pdfrwt>
<pdfrwt beam="2">  1       -2 0.22471669E-02 0.31085272E+03</pdfrwt>
<totfact> 0.73668543E+03</totfact>
</mgrwt>
</event>
<event>
 6    1  0.1934315E-005  0.2199886E+04  0.7818608E-02  0.8518475E-01
         -2   -1    0    0    0  501 -0.00000000000E+00  0.00000000000E+00  0.35928945925E+03  0.35928945925E+03  0.00000000000E+00 0. -1.
          2   -1    0    0  501    0  0.00000000000E+00 -0.00000000000E+00 -0.33674101540E+04  0.33674101540E+04  0.00000000000E+00 0.  1.
         23    2    1    2    0    0 -0.10367955079E+04  0.24150831118E+03 -0.10500220442E+04  0.14979283116E+04  0.89284623534E+02 0.  0.
         13    1    3    3    0    0 -0.27418002059E+03  0.23869015251E+02 -0.26775650811E+03  0.38397651128E+03  0.00000000000E+00 0. -1.
        -13    1    3    3    0    0 -0.76261548730E+03  0.21763929593E+03 -0.78226553607E+03  0.11139518004E+04  0.00000000000E+00 0.  1.
         22    1    1    2    0    0  0.10367955079E+04 -0.24150831118E+03 -0.19580986505E+04  0.22287713016E+04  0.00000000000E+00 0.  1.
<mgrwt>
<rscale>  0 0.21998863E+04</rscale>
<asrwt>0</asrwt>
<pdfrwt beam="1">  1        2 0.51806309E+00 0.21998863E+04</pdfrwt>
<pdfrwt beam="2">  1       -2 0.55275302E-01 0.21998863E+04</pdfrwt>
<totfact> 0.28297546E+00</totfact>
</mgrwt>
</event>
<event>
 6    1  0.1934315E-005  0.2145277E+04  0.7818608E-02  0.8541557E-01
         -2   -1    0    0    0  501 -0.00000000000E+00  0.00000000000E+00  0.95088972482E+03  0.95088972482E+03  0.00000000000E+00 0. -1.
          2   -1    0    0  501    0  0.00000000000E+00 -0.00000000000E+00 -0.12099751577E+04  0.12099751577E+04  0.00000000000E+00 0.  1.
         23    2    1    2    0    0  0.10331726545E+04 -0.27843178414E+03 -0.92101541689E+02  0.10778812204E+04  0.91516331481E+02 0.  0.
         11    1    3    3    0    0  0.39249814574E+03 -0.64894015020E+02 -0.14210475902E+02  0.39808035020E+03  0.00000000000E+00 0.  1.
        -11    1    3    3    0    0  0.64067450877E+03 -0.21353776912E+03 -0.77891065787E+02  0.67980087022E+03  0.00000000000E+00 0. -1.
         22    1    1    2    0    0 -0.10331726545E+04  0.27843178414E+03 -0.16698389119E+03  0.10829836621E+04  0.00000000000E+00 0.  1.
<mgrwt>
<rscale>  0 0.21452766E+04</rscale>
<asrwt>0</asrwt>
<pdfrwt beam="1">  1        2 0.18615002E+00 0.21452766E+04</pdfrwt>
<pdfrwt beam="2">  1       -2 0.14629073E+00 0.21452766E+04</pdfrwt>
<totfact> 0.54917780E+00</totfact>
</mgrwt>
</event>
<event>
 6    1  0.1934315E-005  0.2419903E+04  0.7818608E-02  0.8432090E-01
         -2   -1    0    0    0  501 -0.00000000000E+00  0.00000000000E+00  0.10560237320E+04  0.10560237320E+04  0.00000000000E+00 0. -1.
          2   -1    0    0  501    0  0.00000000000E+00 -0.00000000000E+00 -0.13863161959E+04  0.13863161959E+04  0.00000000000E+00 0.  1.
         23    2    1    2    0    0 -0.10371164016E+04 -0.58931810301E+03  0.28559974005E+02  0.11966749130E+04  0.91153268081E+02 0.  0.
         13    1    3    3    0    0 -0.11222275069E+03 -0.47140615039E+02  0.26529993391E+02  0.12457938798E+03  0.00000000000E+00 0. -1.
        -13    1    3    3    0    0 -0.92489365095E+03 -0.54217748797E+03  0.20299806147E+01  0.10720955251E+04  0.00000000000E+00 0.  1.
         22    1    1    2    0    0  0.10371164016E+04  0.58931810301E+03 -0.35885243784E+03  0.12456650149E+04  0.00000000000E+00 0.  1.
<mgrwt>
<rscale>  0 0.24199031E+04</rscale>
<asrwt>0</asrwt>
<pdfrwt beam="1">  1        2 0.21327941E+00 0.24199031E+04</pdfrwt>
<pdfrwt beam="2">  1       -2 0.16246519E+00 0.24199031E+04</pdfrwt>
<totfact> 0.31961241E+00</totfact>
</mgrwt>
</event>
<event>
 6    1  0.1934315E-005  0.4139988E+04  0.7818608E-02  0.7976887E-01
         -2   -1    0    0    0  501 -0.00000000000E+00  0.00000000000E+00  0.12416551636E+04  0.12416551636E+04  0.00000000000E+00 0. -1.
          2   -1    0    0  501    0  0.00000000000E+00 -0.00000000000E+00 -0.34509376368E+04  0.34509376368E+04  0.00000000000E+00 0.  1.
         23    2    1    2    0    0  0.16366310432E+04 -0.10944925526E+04 -0.38417487737E+03  0.20079153793E+04  0.87514085213E+02 0.  0.
         13    1    3    3    0    0  0.15469419489E+04 -0.10401851525E+04 -0.34389260103E+03  0.18955940140E+04  0.00000000000E+00 0.  1.
        -13    1    3    3    0    0  0.89689094243E+02 -0.54307400094E+02 -0.40282276341E+02  0.11232136537E+03  0.00000000000E+00 0. -1.
         22    1    1    2    0    0 -0.16366310432E+04  0.10944925526E+04 -0.18251075958E+04  0.26846774211E+04  0.00000000000E+00 0.  1.
<mgrwt>
<rscale>  0 0.41399877E+04</rscale>
<asrwt>0</asrwt>
<pdfrwt beam="1">  1        2 0.53091348E+00 0.41399877E+04</pdfrwt>
<pdfrwt beam="2">  1       -2 0.19102387E+00 0.41399877E+04</pdfrwt>
<totfact> 0.10449318E-01</totfact>
</mgrwt>
</event>
<event>
 6    1  0.1934315E-005  0.5728602E+04  0.7818608E-02  0.7724994E-01
          2   -1    0    0  501    0  0.00000000000E+00  0.00000000000E+00  0.30193016162E+04  0.30193016162E+04  0.00000000000E+00 0. -1.
         -2   -1    0    0    0  501 -0.00000000000E+00 -0.00000000000E+00 -0.27172576860E+04  0.27172576860E+04  0.00000000000E+00 0.  1.
         23    2    1    2    0    0  0.25478088341E+04  0.11708483696E+04 -0.43099460533E+03  0.28383596447E+04  0.91177645505E+02 0.  0.
         11    1    3    3    0    0  0.18556209870E+04  0.85720915743E+03 -0.35488701145E+03  0.20746280577E+04  0.00000000000E+00 0. -1.
        -11    1    3    3    0    0  0.69218784714E+03  0.31363921216E+03 -0.76107593878E+02  0.76373158700E+03  0.00000000000E+00 0.  1.
         22    1    1    2    0    0 -0.25478088341E+04 -0.11708483696E+04  0.73303853550E+03  0.28981996575E+04  0.00000000000E+00 0. -1.
<mgrwt>
<rscale>  0 0.57286021E+04</rscale>
<asrwt>0</asrwt>
<pdfrwt beam="1">  1        2 0.46450794E+00 0.57286021E+04</pdfrwt>
<pdfrwt beam="2">  1       -2 0.41803964E+00 0.57286021E+04</pdfrwt>
<totfact> 0.65840918E-03</totfact>
</mgrwt>
</event>
<event>
 6    1  0.1934315E-005  0.6253588E+03  0.7818608E-02  0.9854148E-01
         -2   -1    0    0    0  501 -0.00000000000E+00  0.00000000000E+00  0.69858452282E+02  0.69858452282E+02  0.00000000000E+00 0. -1.
          2   -1    0    0  501    0  0.00000000000E+00 -0.00000000000E+00 -0.13995215551E+04  0.13995215551E+04  0.00000000000E+00 0.  1.
         23    2    1    2    0    0 -0.18333472799E+03 -0.55870974139E+01 -0.12547917425E+04  0.12712675173E+04  0.89308147422E+02 0.  0.
         11    1    3    3    0    0 -0.40664691250E+02 -0.10567699471E+02 -0.58108110196E+03  0.58259809512E+03  0.00000000000E+00 0.  1.
        -11    1    3    3    0    0 -0.14267003674E+03  0.49806020572E+01 -0.67371064056E+03  0.68866942214E+03  0.00000000000E+00 0. -1.
         22    1    1    2    0    0  0.18333472799E+03  0.55870974139E+01 -0.74871360278E+02  0.19811249010E+03  0.00000000000E+00 0. -1.
<mgrwt>
<rscale>  0 0.62535881E+03</rscale>
<asrwt>0</asrwt>
<pdfrwt beam="1">  1        2 0.21531100E+00 0.62535881E+03</pdfrwt>
<pdfrwt beam="2">  1       -2 0.10747454E-01 0.62535881E+03</pdfrwt>
<totfact> 0.89729669E+02</totfact>
</mgrwt>
</event>
<event>
 6    1  0.1934315E-005  0.3427331E+03  0.7818608E-02  0.1065638E+00
         -2   -1    0    0    0  501 -0.00000000000E+00  0.00000000000E+00  0.75447866697E+02  0.75447866697E+02  0.00000000000E+00 0. -1.
          2   -1    0    0  501    0  0.00000000000E+00 -0.00000000000E+00 -0.38922904013E+03  0.38922904013E+03  0.00000000000E+00 0.  1.
         23    2    1    2    0    0  0.94872518318E+02 -0.77525982373E+02 -0.29870323943E+02  0.15545782085E+03  0.90905583632E+02 0.  0.
         11    1    3    3    0    0  0.16032716074E+02 -0.33062492230E+02 -0.50664349642E+02  0.62586361947E+02  0.00000000000E+00 0. -1.
        -11    1    3    3    0    0  0.78839802244E+02 -0.44463490143E+02  0.20794025699E+02  0.92871458901E+02  0.00000000000E+00 0.  1.
         22    1    1    2    0    0 -0.94872518318E+02  0.77525982373E+02 -0.28391084949E+03  0.30921908598E+03  0.00000000000E+00 0.  1.
<mgrwt>
<rscale>  0 0.34273314E+03</rscale>
<asrwt>0</asrwt>
<pdfrwt beam="1">  1        2 0.59881391E-01 0.34273314E+03</pdfrwt>
<pdfrwt beam="2">  1       -2 0.11607364E-01 0.34273314E+03</pdfrwt>
<totfact> 0.43054307E+03</totfact>
</mgrwt>
</event>
<event>
 6    1  0.1934315E-005  0.2384344E+04  0.7818608E-02  0.8445388E-01
         -2   -1    0    0    0  501 -0.00000000000E+00  0.00000000000E+00  0.92068154858E+03  0.92068154858E+03  0.00000000000E+00 0. -1.
          2   -1    0    0  501    0  0.00000000000E+00 -0.00000000000E+00 -0.15437190045E+04  0.15437190045E+04  0.00000000000E+00 0.  1.
         23    2    1    2    0    0 -0.70543995058E+03 -0.81860290666E+03  0.20509217553E+03  0.11029473115E+04  0.81692892743E+02 0.  0.
         11    1    3    3    0    0 -0.55595034942E+03 -0.59178353962E+03  0.14735490271E+03  0.82522846300E+03  0.00000000000E+00 0.  1.
        -11    1    3    3    0    0 -0.14948960116E+03 -0.22681936703E+03  0.57737272818E+02  0.27771884846E+03  0.00000000000E+00 0. -1.
         22    1    1    2    0    0  0.70543995058E+03  0.81860290666E+03 -0.82812963147E+03  0.13614532416E+04  0.00000000000E+00 0.  1.
<mgrwt>
<rscale>  0 0.23843436E+04</rscale>
<asrwt>0</asrwt>
<pdfrwt beam="1">  1        2 0.23749523E+00 0.23843436E+04</pdfrwt>
<pdfrwt beam="2">  1       -2 0.14164332E+00 0.23843436E+04</pdfrwt>
<totfact> 0.37629215E+00</totfact>
</mgrwt>
</event>
<event>
 6    1  0.1934315E-005  0.1489759E+04  0.7818608E-02  0.8891292E-01
         -2   -1    0    0    0  501 -0.00000000000E+00  0.00000000000E+00  0.58592397302E+03  0.58592397302E+03  0.00000000000E+00 0.  1.
          2   -1    0    0  501    0  0.00000000000E+00 -0.00000000000E+00 -0.94695796394E+03  0.94695796394E+03  0.00000000000E+00 0. -1.
         23    2    1    2    0    0 -0.55199628930E+03 -0.42084379596E+03  0.85257081893E+02  0.70766370784E+03  0.10821159541E+03 0.  0.
         13    1    3    3    0    0 -0.43049587500E+03 -0.32078033536E+03  0.19908966286E+02  0.53723652973E+03  0.00000000000E+00 0.  1.
        -13    1    3    3    0    0 -0.12150041430E+03 -0.10006346060E+03  0.65348115607E+02  0.17042717811E+03  0.00000000000E+00 0. -1.
         22    1    1    2    0    0  0.55199628930E+03  0.42084379596E+03 -0.44629107281E+03  0.82521822912E+03  0.00000000000E+00 0. -1.
<mgrwt>
<rscale>  0 0.14897589E+04</rscale>
<asrwt>0</asrwt>
<pdfrwt beam="1">  1        2 0.14568584E+00 0.14897589E+04</pdfrwt>
<pdfrwt beam="2">  1       -2 0.90142150E-01 0.14897589E+04</pdfrwt>
<totfact> 0.27777840E+01</totfact>
</mgrwt>
</event>
<event>
 6    1  0.1934315E-005  0.2154295E+04  0.7818608E-02  0.8537696E-01
         -1   -1    0    0    0  501 -0.00000000000E+00  0.00000000000E+00  0.85042020885E+03  0.85042020885E+03  0.00000000000E+00 0. -1.
          1   -1    0    0  501    0  0.00000000000E+00 -0.00000000000E+00 -0.13643215331E+04  0.13643215331E+04  0.00000000000E+00 0.  1.
         23    2    1    2    0    0 -0.71986514547E+03 -0.56353187857E+03  0.32445431880E+03  0.97433286175E+03  0.90994036441E+02 0.  0.
         11    1    3    3    0    0 -0.58097462323E+03 -0.45772010921E+03  0.29947714701E+03  0.79795098395E+03  0.00000000000E+00 0. -1.
        -11    1    3    3    0    0 -0.13889052225E+03 -0.10581176936E+03  0.24977171786E+02  0.17638187780E+03  0.00000000000E+00 0.  1.
         22    1    1    2    0    0  0.71986514547E+03  0.56353187857E+03 -0.83835564301E+03  0.12404088802E+04  0.00000000000E+00 0.  1.
<mgrwt>
<rscale>  0 0.21542949E+04</rscale>
<asrwt>0</asrwt>
<pdfrwt beam="1">  1        1 0.20989562E+00 0.21542949E+04</pdfrwt>
<pdfrwt beam="2">  1       -1 0.13083388E+00 0.21542949E+04</pdfrwt>
<totfact> 0.37187223E+00</totfact>
</mgrwt>
</event>
<event>
 6    1  0.1934315E-005  0.2938996E+04  0.7818608E-02  0.8261369E-01
          2   -1    0    0  501    0  0.00000000000E+00  0.00000000000E+00  0.14305278102E+04  0.14305278102E+04  0.00000000000E+00 0.  1.
         -2   -1    0    0    0  501 -0.00000000000E+00 -0.00000000000E+00 -0.15095294820E+04  0.15095294820E+04  0.00000000000E+00 0. -1.
         23    2    1    2    0    0 -0.12033389568E+03  0.66983759519E+03 -0.13406593346E+04  0.15065501564E+04  0.95724981175E+02 0.  0.
         13    1    3    3    0    0 -0.36980382073E+02  0.52222766065E+02 -0.13047545192E+03  0.14532243291E+03  0.00000000000E+00 0. -1.
        -13    1    3    3    0    0 -0.83353513607E+02  0.61761482912E+03 -0.12101838827E+04  0.13612277235E+04  0.00000000000E+00 0.  1.
         22    1    1    2    0    0  0.12033389568E+03 -0.66983759519E+03  0.12616576627E+04  0.14335071358E+04  0.00000000000E+00 0.  1.
<mgrwt>
<rscale>  0 0.29389957E+04</rscale>
<asrwt>0</asrwt>
<pdfrwt beam="1">  1        2 0.22008120E+00 0.29389957E+04</pdfrwt>
<pdfrwt beam="2">  1       -2 0.23223530E+00 0.29389957E+04</pdfrwt>
<totfact> 0.99011489E-01</totfact>
</mgrwt>
</event>
<event>
 6    1  0.1934315E-005  0.3824525E+04  0.7818608E-02  0.8040912E-01
          2   -1    0    0  501    0  0.00000000000E+00  0.00000000000E+00  0.16008247540E+04  0.16008247540E+04  0.00000000000E+00 0.  1.
         -2   -1    0    0    0  501 -0.00000000000E+00 -0.00000000000E+00 -0.22842895529E+04  0.22842895529E+04  0.00000000000E+00 0. -1.
         23    2    1    2    0    0  0.72151559263E+03  0.54032528469E+03 -0.20537789642E+04  0.22449017977E+04  0.95078304123E+02 0.  0.
         13    1    3    3    0    0  0.21388290416E+03  0.21413983064E+03 -0.71587929399E+03  0.77722900572E+03  0.00000000000E+00 0. -1.
        -13    1    3    3    0    0  0.50763268847E+03  0.32618545405E+03 -0.13378996702E+04  0.14676727920E+04  0.00000000000E+00 0.  1.
         22    1    1    2    0    0 -0.72151559263E+03 -0.54032528469E+03  0.13703141653E+04  0.16402125092E+04  0.00000000000E+00 0.  1.
<mgrwt>
<rscale>  0 0.38245247E+04</rscale>
<asrwt>0</asrwt>
<pdfrwt beam="1">  1        2 0.24628073E+00 0.38245247E+04</pdfrwt>
<pdfrwt beam="2">  1       -2 0.35142916E+00 0.38245247E+04</pdfrwt>
<totfact> 0.13579292E-01</totfact>
</mgrwt>
</event>
<event>
 6    1  0.1934315E-005  0.1228600E+04  0.7818608E-02  0.9088185E-01
          2   -1    0    0  501    0  0.00000000000E+00  0.00000000000E+00  0.38400474810E+04  0.38400474810E+04  0.00000000000E+00 0.  1.
         -2   -1    0    0    0  501 -0.00000000000E+00 -0.00000000000E+00 -0.98270800493E+02  0.98270800493E+02  0.00000000000E+00 0. -1.
         23    2    1    2    0    0  0.10696206242E+03  0.37798400363E+03  0.33778716549E+04  0.34028375093E+04  0.12236587509E+03 0.  0.
         11    1    3    3    0    0  0.39780915787E+02  0.20606081893E+03  0.13053913168E+04  0.13221535737E+04  0.00000000000E+00 0. -1.
        -11    1    3    3    0    0  0.67181146638E+02  0.17192318470E+03  0.20724803381E+04  0.20806839356E+04  0.00000000000E+00 0.  1.
         22    1    1    2    0    0 -0.10696206242E+03 -0.37798400363E+03  0.36390502556E+03  0.53548077223E+03  0.00000000000E+00 0. -1.
<mgrwt>
<rscale>  0 0.12286001E+04</rscale>
<asrwt>0</asrwt>
<pdfrwt beam="1">  1        2 0.59077642E+00 0.12286001E+04</pdfrwt>
<pdfrwt beam="2">  1       -2 0.15118588E-01 0.12286001E+04</pdfrwt>
<totfact> 0.16146825E+01</totfact>
</mgrwt>
</event>
<event>
 6    1  0.1934315E-005  0.2344474E+04  0.7818608E-02  0.8460589E-01
         -2   -1    0    0    0  501 -0.00000000000E+00  0.00000000000E+00  0.76437876694E+03  0.76437876694E+03  0.00000000000E+00 0. -1.
          2   -1    0    0  501    0  0.00000000000E+00 -0.00000000000E+00 -0.17977201775E+04  0.17977201775E+04  0.00000000000E+00 0.  1.
         23    2    1    2    0    0 -0.20388176434E+03 -0.11283549104E+04 -0.25985873350E+03  0.11789763796E+04  0.87784763064E+02 0.  0.
         11    1    3    3    0    0 -0.14655605593E+03 -0.56496239221E+03 -0.12852866470E+03  0.59764604893E+03  0.00000000000E+00 0. -1.
        -11    1    3    3    0    0 -0.57325708408E+02 -0.56339251819E+03 -0.13133006880E+03  0.58133033068E+03  0.00000000000E+00 0.  1.
         22    1    1    2    0    0  0.20388176434E+03  0.11283549104E+04 -0.77348267709E+03  0.13831225649E+04  0.00000000000E+00 0. -1.
<mgrwt>
<rscale>  0 0.23444736E+04</rscale>
<asrwt>0</asrwt>
<pdfrwt beam="1">  1        2 0.27657233E+00 0.23444736E+04</pdfrwt>
<pdfrwt beam="2">  1       -2 0.11759673E+00 0.23444736E+04</pdfrwt>
<totfact> 0.43645019E+00</totfact>
</mgrwt>
</event>
<event>
 6    1  0.1934315E-005  0.3502598E+04  0.7818608E-02  0.8113175E-01
          2   -1    0    0  501    0  0.00000000000E+00  0.00000000000E+00  0.23274964406E+04  0.23274964406E+04  0.00000000000E+00 0.  1.
         -2   -1    0    0    0  501 -0.00000000000E+00 -0.00000000000E+00 -0.13177453475E+04  0.13177453475E+04  0.00000000000E+00 0. -1.
         23    2    1    2    0    0 -0.27367365391E+03  0.12108330325E+04 -0.77748975814E+03  0.14691802628E+04  0.11395797123E+03 0.  0.
         13    1    3    3    0    0 -0.14712591944E+03  0.81920529167E+03 -0.56529894220E+03  0.10061343052E+04  0.00000000000E+00 0. -1.
        -13    1    3    3    0    0 -0.12654773447E+03  0.39162774085E+03 -0.21219081594E+03  0.46304595763E+03  0.00000000000E+00 0.  1.
         22    1    1    2    0    0  0.27367365391E+03 -0.12108330325E+04  0.17872408512E+04  0.21760615253E+04  0.00000000000E+00 0.  1.
<mgrwt>
<rscale>  0 0.35025977E+04</rscale>
<asrwt>0</asrwt>
<pdfrwt beam="1">  1        2 0.35807637E+00 0.35025977E+04</pdfrwt>
<pdfrwt beam="2">  1       -2 0.20273005E+00 0.35025977E+04</pdfrwt>
<totfact> 0.45856175E-01</totfact>
</mgrwt>
</event>
<event>
 6    1  0.5750682E-005  0.4341076E+04  0.7818608E-02  0.7939066E-01
         -2   -1    0    0    0  501 -0.00000000000E+00  0.00000000000E+00  0.19545152469E+04  0.19545152469E+04  0.00000000000E+00 0. -1.
          2   -1    0    0  501    0  0.00000000000E+00 -0.00000000000E+00 -0.24104366069E+04  0.24104366069E+04  0.00000000000E+00 0.  1.
         23    2    1    2    0    0  0.18890802155E+04 -0.10666635019E+04 -0.25485820587E+03  0.21862317068E+04  0.90891604813E+02 0.  0.
         11    1    3    3    0    0  0.10578748954E+04 -0.63190221984E+03 -0.11097686407E+03  0.12372209076E+04  0.00000000000E+00 0.  1.
        -11    1    3    3    0    0  0.83120532008E+03 -0.43476128206E+03 -0.14388134180E+03  0.94901079922E+03  0.00000000000E+00 0. -1.
         22    1    1    2    0    0 -0.18890802155E+04  0.10666635019E+04 -0.20106315411E+03  0.21787201470E+04  0.00000000000E+00 0. -1.
<mgrwt>
<rscale>  0 0.43410759E+04</rscale>
<asrwt>0</asrwt>
<pdfrwt beam="1">  1        2 0.37083640E+00 0.43410759E+04</pdfrwt>
<pdfrwt beam="2">  1       -2 0.30069466E+00 0.43410759E+04</pdfrwt>
<totfact> 0.94718525E-02</totfact>
</mgrwt>
</event>
<event>
 6    1  0.1934315E-005  0.1995551E+04  0.7818608E-02  0.8608703E-01
         -2   -1    0    0    0  501 -0.00000000000E+00  0.00000000000E+00  0.75296680915E+03  0.75296680915E+03  0.00000000000E+00 0. -1.
          2   -1    0    0  501    0  0.00000000000E+00 -0.00000000000E+00 -0.13221782821E+04  0.13221782821E+04  0.00000000000E+00 0.  1.
         23    2    1    2    0    0  0.41719121945E+03  0.32385354163E+03  0.59244759046E+03  0.79906460412E+03  0.92630794589E+02 0.  0.
         11    1    3    3    0    0  0.26492839933E+03  0.19978763707E+03  0.30349260380E+03  0.44967757033E+03  0.00000000000E+00 0. -1.
        -11    1    3    3    0    0  0.15226282012E+03  0.12406590456E+03  0.28895498666E+03  0.34938703379E+03  0.00000000000E+00 0.  1.
         22    1    1    2    0    0 -0.41719121945E+03 -0.32385354163E+03 -0.11616590634E+04  0.12760804871E+04  0.00000000000E+00 0.  1.
<mgrwt>
<rscale>  0 0.19955514E+04</rscale>
<asrwt>0</asrwt>
<pdfrwt beam="1">  1        2 0.20341204E+00 0.19955514E+04</pdfrwt>
<pdfrwt beam="2">  1       -2 0.11584105E+00 0.19955514E+04</pdfrwt>
<totfact> 0.86401605E+00</totfact>
</mgrwt>
</event>
<event>
 6    1  0.1934315E-005  0.8865679E+03  0.7818608E-02  0.9442530E-01
         -2   -1    0    0    0  501 -0.00000000000E+00  0.00000000000E+00  0.13219160332E+03  0.13219160332E+03  0.00000000000E+00 0. -1.
          2   -1    0    0  501    0  0.00000000000E+00 -0.00000000000E+00 -0.14864838133E+04  0.14864838133E+04  0.00000000000E+00 0.  1.
         23    2    1    2    0    0  0.16548167403E+03 -0.33350854630E+03 -0.26124258902E+03  0.46395917062E+03  0.91642167093E+02 0.  0.
         13    1    3    3    0    0  0.14320908394E+03 -0.21492970512E+03 -0.21001735324E+03  0.33288272489E+03  0.00000000000E+00 0. -1.
        -13    1    3    3    0    0  0.22272590086E+02 -0.11857884118E+03 -0.51225235780E+02  0.13107644573E+03  0.00000000000E+00 0.  1.
         22    1    1    2    0    0 -0.16548167403E+03  0.33350854630E+03 -0.10930496210E+04  0.11547162460E+04  0.00000000000E+00 0.  1.
<mgrwt>
<rscale>  0 0.88656794E+03</rscale>
<asrwt>0</asrwt>
<pdfrwt beam="1">  1        2 0.22868982E+00 0.88656794E+03</pdfrwt>
<pdfrwt beam="2">  1       -2 0.20337170E-01 0.88656794E+03</pdfrwt>
<totfact> 0.26898405E+02</totfact>
</mgrwt>
</event>
<event>
 6    1  0.1934315E-005  0.2065955E+04  0.7818608E-02  0.8576390E-01
          2   -1    0    0  501    0  0.00000000000E+00  0.00000000000E+00  0.13212351098E+04  0.13212351098E+04  0.00000000000E+00 0.  1.
         -2   -1    0    0    0  501 -0.00000000000E+00 -0.00000000000E+00 -0.80761002893E+03  0.80761002893E+03  0.00000000000E+00 0. -1.
         23    2    1    2    0    0  0.54567032151E+02  0.77106957009E+03 -0.44588836130E+03  0.89669584233E+03  0.87870131416E+02 0.  0.
         11    1    3    3    0    0  0.58188934728E+02  0.24611736074E+03 -0.15201996503E+03  0.29507588371E+03  0.00000000000E+00 0. -1.
        -11    1    3    3    0    0 -0.36219025764E+01  0.52495220935E+03 -0.29386839628E+03  0.60161995862E+03  0.00000000000E+00 0.  1.
         22    1    1    2    0    0 -0.54567032151E+02 -0.77106957009E+03  0.95951344220E+03  0.12321492964E+04  0.00000000000E+00 0. -1.
<mgrwt>
<rscale>  0 0.20659552E+04</rscale>
<asrwt>0</asrwt>
<pdfrwt beam="1">  1        2 0.20326694E+00 0.20659552E+04</pdfrwt>
<pdfrwt beam="2">  1       -2 0.12424770E+00 0.20659552E+04</pdfrwt>
<totfact> 0.72292032E+00</totfact>
</mgrwt>
</event>
<event>
 6    1  0.1934315E-005  0.1520324E+04  0.7818608E-02  0.8871049E-01
         -2   -1    0    0    0  501 -0.00000000000E+00  0.00000000000E+00  0.31286113278E+03  0.31286113278E+03  0.00000000000E+00 0. -1.
          2   -1    0    0  501    0  0.00000000000E+00 -0.00000000000E+00 -0.18469725088E+04  0.18469725088E+04  0.00000000000E+00 0.  1.
         23    2    1    2    0    0  0.56582788824E+03  0.46925049706E+03 -0.10286147265E+04  0.12677102809E+04  0.93187297779E+02 0.  0.
         13    1    3    3    0    0  0.19753640068E+03  0.21117921530E+03 -0.44970203770E+03  0.53464868211E+03  0.00000000000E+00 0.  1.
        -13    1    3    3    0    0  0.36829148756E+03  0.25807128175E+03 -0.57891268883E+03  0.73306159876E+03  0.00000000000E+00 0. -1.
         22    1    1    2    0    0 -0.56582788824E+03 -0.46925049706E+03 -0.50549664948E+03  0.89212336072E+03  0.00000000000E+00 0. -1.
<mgrwt>
<rscale>  0 0.15203235E+04</rscale>
<asrwt>0</asrwt>
<pdfrwt beam="1">  1        2 0.28414961E+00 0.15203235E+04</pdfrwt>
<pdfrwt beam="2">  1       -2 0.48132483E-01 0.15203235E+04</pdfrwt>
<totfact> 0.32056926E+01</totfact>
</mgrwt>
</event>
<event>
 6    1  0.1934315E-005  0.2147425E+04  0.7818608E-02  0.8540635E-01
         -2   -1    0    0    0  501 -0.00000000000E+00  0.00000000000E+00  0.39706746785E+03  0.39706746785E+03  0.00000000000E+00 0. -1.
          2   -1    0    0  501    0  0.00000000000E+00 -0.00000000000E+00 -0.29034333584E+04  0.29034333584E+04  0.00000000000E+00 0.  1.
         23    2    1    2    0    0  0.41671300470E+03 -0.45190765295E+03 -0.26048584255E+04  0.26779487927E+04  0.90840873538E+02 0.  0.
         13    1    3    3    0    0  0.10909716952E+03 -0.10303771430E+03 -0.48599416492E+03  0.50863473269E+03  0.00000000000E+00 0. -1.
        -13    1    3    3    0    0  0.30761583518E+03 -0.34886993865E+03 -0.21188642606E+04  0.21693140600E+04  0.00000000000E+00 0.  1.
         22    1    1    2    0    0 -0.41671300470E+03  0.45190765295E+03  0.98492534923E+02  0.62255203358E+03  0.00000000000E+00 0. -1.
<mgrwt>
<rscale>  0 0.21474254E+04</rscale>
<asrwt>0</asrwt>
<pdfrwt beam="1">  1        2 0.44668205E+00 0.21474254E+04</pdfrwt>
<pdfrwt beam="2">  1       -2 0.61087303E-01 0.21474254E+04</pdfrwt>
<totfact> 0.45811259E+00</totfact>
</mgrwt>
</event>
<event>
 6    1  0.1934315E-005  0.1364147E+04  0.7818608E-02  0.8980187E-01
          2   -1    0    0  501    0  0.00000000000E+00  0.00000000000E+00  0.16709660395E+04  0.16709660395E+04  0.00000000000E+00 0.  1.
         -2   -1    0    0    0  501 -0.00000000000E+00 -0.00000000000E+00 -0.27841654021E+03  0.27841654021E+03  0.00000000000E+00 0. -1.
         23    2    1    2    0    0 -0.65635523515E+03 -0.68747264656E+02  0.93007356237E+03  0.11435213179E+04  0.84117726744E+02 0.  0.
         11    1    3    3    0    0 -0.44962175081E+03 -0.10942886904E+02  0.60184825312E+03  0.75133267289E+03  0.00000000000E+00 0. -1.
        -11    1    3    3    0    0 -0.20673348434E+03 -0.57804377752E+02  0.32822530925E+03  0.39218864500E+03  0.00000000000E+00 0.  1.
         22    1    1    2    0    0  0.65635523515E+03  0.68747264656E+02  0.46247593696E+03  0.80586126186E+03  0.00000000000E+00 0.  1.
<mgrwt>
<rscale>  0 0.13641475E+04</rscale>
<asrwt>0</asrwt>
<pdfrwt beam="1">  1        2 0.25707169E+00 0.13641475E+04</pdfrwt>
<pdfrwt beam="2">  1       -2 0.42833315E-01 0.13641475E+04</pdfrwt>
<totfact> 0.51317186E+01</totfact>
</mgrwt>
</event>
<event>
 6    1  0.1934315E-005  0.6121993E+04  0.7818608E-02  0.7675458E-01
          2   -1    0    0  501    0  0.00000000000E+00  0.00000000000E+00  0.39375303066E+04  0.39375303066E+04  0.00000000000E+00 0.  1.
         -2   -1    0    0    0  501 -0.00000000000E+00 -0.00000000000E+00 -0.23795877478E+04  0.23795877478E+04  0.00000000000E+00 0. -1.
         23    2    1    2    0    0 -0.26796951215E+04 -0.64448543466E+03 -0.59342486247E+03  0.28207614935E+04  0.91732853386E+02 0.  0.
         13    1    3    3    0    0 -0.47374399213E+03 -0.80668953440E+02 -0.11654547308E+03  0.49449337450E+03  0.00000000000E+00 0. -1.
        -13    1    3    3    0    0 -0.22059511293E+04 -0.56381648122E+03 -0.47687938939E+03  0.23262681190E+04  0.00000000000E+00 0.  1.
         22    1    1    2    0    0  0.26796951215E+04  0.64448543466E+03  0.21513674212E+04  0.34963565608E+04  0.00000000000E+00 0.  1.
<mgrwt>
<rscale>  0 0.61219928E+04</rscale>
<asrwt>0</asrwt>
<pdfrwt beam="1">  1        2 0.60577389E+00 0.61219928E+04</pdfrwt>
<pdfrwt beam="2">  1       -2 0.36609042E+00 0.61219928E+04</pdfrwt>
<totfact> 0.31342175E-03</totfact>
</mgrwt>
</event>
<event>
 6    1  0.1934315E-005  0.4292383E+04  0.7818608E-02  0.7948028E-01
         -2   -1    0    0    0  501 -0.00000000000E+00  0.00000000000E+00  0.21071207206E+04  0.21071207206E+04  0.00000000000E+00 0. -1.
          2   -1    0    0  501    0  0.00000000000E+00 -0.00000000000E+00 -0.21859863845E+04  0.21859863845E+04  0.00000000000E+00 0.  1.
         23    2    1    2    0    0  0.86682900320E+02  0.62407541448E+03 -0.20904400391E+04  0.21851660444E+04  0.89593728697E+02 0.  0.
         13    1    3    3    0    0  0.99851746889E+02  0.45619460813E+03 -0.14804122724E+04  0.15523222565E+04  0.00000000000E+00 0. -1.
        -13    1    3    3    0    0 -0.13168846570E+02  0.16788080635E+03 -0.61002776676E+03  0.63284378790E+03  0.00000000000E+00 0.  1.
         22    1    1    2    0    0 -0.86682900320E+02 -0.62407541448E+03  0.20115743753E+04  0.21079410607E+04  0.00000000000E+00 0. -1.
<mgrwt>
<rscale>  0 0.42923827E+04</rscale>
<asrwt>0</asrwt>
<pdfrwt beam="1">  1        2 0.33630560E+00 0.42923827E+04</pdfrwt>
<pdfrwt beam="2">  1       -2 0.32417242E+00 0.42923827E+04</pdfrwt>
<totfact> 0.91411226E-02</totfact>
</mgrwt>
</event>
<event>
 6    1  0.1934315E-005  0.4443870E+04  0.7818608E-02  0.7920538E-01
          2   -1    0    0  501    0  0.00000000000E+00  0.00000000000E+00  0.45275041641E+04  0.45275041641E+04  0.00000000000E+00 0.  1.
         -2   -1    0    0    0  501 -0.00000000000E+00 -0.00000000000E+00 -0.10904453373E+04  0.10904453373E+04  0.00000000000E+00 0. -1.
         23    2    1    2    0    0  0.12376279414E+04 -0.11805609925E+04 -0.72037330695E+02  0.17142073197E+04  0.88714032884E+02 0.  0.
         13    1    3    3    0    0  0.88133869951E+03 -0.86898096365E+03 -0.18039353826E+02  0.12378252044E+04  0.00000000000E+00 0.  1.
        -13    1    3    3    0    0  0.35628924185E+03 -0.31158002887E+03 -0.53997976869E+02  0.47638211528E+03  0.00000000000E+00 0. -1.
         22    1    1    2    0    0 -0.12376279414E+04  0.11805609925E+04  0.35090961575E+04  0.39037421816E+04  0.00000000000E+00 0.  1.
<mgrwt>
<rscale>  0 0.44438703E+04</rscale>
<asrwt>0</asrwt>
<pdfrwt beam="1">  1        2 0.69653909E+00 0.44438703E+04</pdfrwt>
<pdfrwt beam="2">  1       -2 0.16776082E+00 0.44438703E+04</pdfrwt>
<totfact> 0.19292573E-02</totfact>
</mgrwt>
</event>
<event>
 6    1  0.1934315E-005  0.2025722E+04  0.7818608E-02  0.8594688E-01
          2   -1    0    0  501    0  0.00000000000E+00  0.00000000000E+00  0.80673383121E+03  0.80673383121E+03  0.00000000000E+00 0.  1.
         -2   -1    0    0    0  501 -0.00000000000E+00 -0.00000000000E+00 -0.12716550332E+04  0.12716550332E+04  0.00000000000E+00 0. -1.
         23    2    1    2    0    0  0.77308559851E+03 -0.47982352225E+02 -0.89922228930E+03  0.11903679844E+04  0.91714579123E+02 0.  0.
         13    1    3    3    0    0  0.56714303908E+03 -0.29316797404E+02 -0.71773565415E+03  0.91523503572E+03  0.00000000000E+00 0. -1.
        -13    1    3    3    0    0  0.20594255943E+03 -0.18665554822E+02 -0.18148663516E+03  0.27513294870E+03  0.00000000000E+00 0.  1.
         22    1    1    2    0    0 -0.77308559851E+03  0.47982352225E+02  0.43430108734E+03  0.88802087994E+03  0.00000000000E+00 0.  1.
<mgrwt>
<rscale>  0 0.20257217E+04</rscale>
<asrwt>0</asrwt>
<pdfrwt beam="1">  1        2 0.12411290E+00 0.20257217E+04</pdfrwt>
<pdfrwt beam="2">  1       -2 0.19563923E+00 0.20257217E+04</pdfrwt>
<totfact> 0.44859889E+00</totfact>
</mgrwt>
</event>
<event>
 6    1  0.1934315E-005  0.1968347E+04  0.7818608E-02  0.8621564E-01
          2   -1    0    0  501    0  0.00000000000E+00  0.00000000000E+00  0.99779978883E+03  0.99779978883E+03  0.00000000000E+00 0.  1.
         -2   -1    0    0    0  501 -0.00000000000E+00 -0.00000000000E+00 -0.97073375474E+03  0.97073375474E+03  0.00000000000E+00 0. -1.
         23    2    1    2    0    0 -0.44820429905E+03  0.53119280996E+03  0.70764340534E+03  0.99578565573E+03  0.88187232646E+02 0.  0.
         13    1    3    3    0    0 -0.21763916091E+03  0.29917771269E+03  0.42520376420E+03  0.56362429793E+03  0.00000000000E+00 0.  1.
        -13    1    3    3    0    0 -0.23056513814E+03  0.23201509727E+03  0.28243964114E+03  0.43216135780E+03  0.00000000000E+00 0. -1.
         22    1    1    2    0    0  0.44820429905E+03 -0.53119280996E+03 -0.68057737125E+03  0.97274788783E+03  0.00000000000E+00 0. -1.
<mgrwt>
<rscale>  0 0.19683475E+04</rscale>
<asrwt>0</asrwt>
<pdfrwt beam="1">  1        2 0.15350766E+00 0.19683475E+04</pdfrwt>
<pdfrwt beam="2">  1       -2 0.14934365E+00 0.19683475E+04</pdfrwt>
<totfact> 0.71341900E+00</totfact>
</mgrwt>
</event>
<event>
 6    1  0.1934315E-005  0.1198612E+04  0.7818608E-02  0.9114072E-01
          2   -1    0    0  501    0  0.00000000000E+00  0.00000000000E+00  0.15246515062E+04  0.15246515062E+04  0.00000000000E+00 0.  1.
         -2   -1    0    0    0  501 -0.00000000000E+00 -0.00000000000E+00 -0.23557374290E+03  0.23557374290E+03  0.00000000000E+00 0. -1.
         23    2    1    2    0    0  0.27016230505E+03  0.62399934280E+02  0.14226635576E+04  0.14524484025E+04  0.93559291529E+02 0.  0.
         11    1    3    3    0    0  0.10091072571E+03  0.49515823800E+02  0.76590472287E+03  0.77410905943E+03  0.00000000000E+00 0.  1.
        -11    1    3    3    0    0  0.16925157935E+03  0.12884110480E+02  0.65675883473E+03  0.67833934311E+03  0.00000000000E+00 0. -1.
         22    1    1    2    0    0 -0.27016230505E+03 -0.62399934280E+02 -0.13358579427E+03  0.30777684659E+03  0.00000000000E+00 0. -1.
<mgrwt>
<rscale>  0 0.11986123E+04</rscale>
<asrwt>0</asrwt>
<pdfrwt beam="1">  1        2 0.23456176E+00 0.11986123E+04</pdfrwt>
<pdfrwt beam="2">  1       -2 0.36242115E-01 0.11986123E+04</pdfrwt>
<totfact> 0.86867784E+01</totfact>
</mgrwt>
</event>
<event>
 6    1  0.1934315E-005  0.2679299E+04  0.7818608E-02  0.8341753E-01
         -2   -1    0    0    0  501 -0.00000000000E+00  0.00000000000E+00  0.10793374729E+04  0.10793374729E+04  0.00000000000E+00 0. -1.
          2   -1    0    0  501    0  0.00000000000E+00 -0.00000000000E+00 -0.16627424156E+04  0.16627424156E+04  0.00000000000E+00 0.  1.
         23    2    1    2    0    0 -0.12912224967E+04  0.32644594648E+03 -0.42506610442E+03  0.14008514666E+04  0.88775821504E+02 0.  0.
         11    1    3    3    0    0 -0.67300226065E+03  0.21364521063E+03 -0.23918169697E+03  0.74550935811E+03  0.00000000000E+00 0. -1.
        -11    1    3    3    0    0 -0.61822023605E+03  0.11280073585E+03 -0.18588440745E+03  0.65534210852E+03  0.00000000000E+00 0.  1.
         22    1    1    2    0    0  0.12912224967E+04 -0.32644594648E+03 -0.15833883833E+03  0.13412284219E+04  0.00000000000E+00 0.  1.
<mgrwt>
<rscale>  0 0.26792986E+04</rscale>
<asrwt>0</asrwt>
<pdfrwt beam="1">  1        2 0.25580653E+00 0.26792986E+04</pdfrwt>
<pdfrwt beam="2">  1       -2 0.16605192E+00 0.26792986E+04</pdfrwt>
<totfact> 0.20569097E+00</totfact>
</mgrwt>
</event>
<event>
 6    1  0.1934315E-005  0.2255538E+04  0.7818608E-02  0.8495661E-01
          2   -1    0    0  501    0  0.00000000000E+00  0.00000000000E+00  0.23895435583E+04  0.23895435583E+04  0.00000000000E+00 0.  1.
         -2   -1    0    0    0  501 -0.00000000000E+00 -0.00000000000E+00 -0.53226190838E+03  0.53226190838E+03  0.00000000000E+00 0. -1.
         23    2    1    2    0    0 -0.42355921303E+02 -0.87013582205E+03  0.18540903815E+04  0.20506335221E+04  0.92283943186E+02 0.  0.
         13    1    3    3    0    0  0.28796335992E+02 -0.24625679342E+03  0.54386247547E+03  0.59771065701E+03  0.00000000000E+00 0. -1.
        -13    1    3    3    0    0 -0.71152257295E+02 -0.62387902863E+03  0.13102279061E+04  0.14529228651E+04  0.00000000000E+00 0.  1.
         22    1    1    2    0    0  0.42355921303E+02  0.87013582205E+03  0.31912684253E+01  0.87117194461E+03  0.00000000000E+00 0. -1.
<mgrwt>
<rscale>  0 0.22555381E+04</rscale>
<asrwt>0</asrwt>
<pdfrwt beam="1">  1        2 0.36762208E+00 0.22555381E+04</pdfrwt>
<pdfrwt beam="2">  1       -2 0.81886449E-01 0.22555381E+04</pdfrwt>
<totfact> 0.48095799E+00</totfact>
</mgrwt>
</event>
<event>
 6    1  0.1934315E-005  0.7150679E+03  0.7818608E-02  0.9691806E-01
         -2   -1    0    0    0  501 -0.00000000000E+00  0.00000000000E+00  0.11894970882E+03  0.11894970882E+03  0.00000000000E+00 0. -1.
          2   -1    0    0  501    0  0.00000000000E+00 -0.00000000000E+00 -0.10746601501E+04  0.10746601501E+04  0.00000000000E+00 0.  1.
         23    2    1    2    0    0 -0.14214388334E+03  0.48037176256E+02 -0.10166013304E+04  0.10316834737E+04  0.91542728409E+02 0.  0.
         13    1    3    3    0    0  0.10767791113E+02  0.12106516153E+02 -0.15833232365E+03  0.15915915861E+03  0.00000000000E+00 0.  1.
        -13    1    3    3    0    0 -0.15291167446E+03  0.35930660102E+02 -0.85826900670E+03  0.87252431507E+03  0.00000000000E+00 0. -1.
         22    1    1    2    0    0  0.14214388334E+03 -0.48037176256E+02  0.60890889044E+02  0.16192638526E+03  0.00000000000E+00 0. -1.
<mgrwt>
<rscale>  0 0.71506786E+03</rscale>
<asrwt>0</asrwt>
<pdfrwt beam="1">  1        2 0.16533232E+00 0.71506786E+03</pdfrwt>
<pdfrwt beam="2">  1       -2 0.18299956E-01 0.71506786E+03</pdfrwt>
<totfact> 0.56710032E+02</totfact>
</mgrwt>
</event>
<event>
 6    1  0.1934315E-005  0.4149067E+04  0.7818608E-02  0.7975132E-01
         -2   -1    0    0    0  501 -0.00000000000E+00  0.00000000000E+00  0.31859553028E+04  0.31859553028E+04  0.00000000000E+00 0. -1.
          2   -1    0    0  501    0  0.00000000000E+00 -0.00000000000E+00 -0.13508317523E+04  0.13508317523E+04  0.00000000000E+00 0.  1.
         23    2    1    2    0    0  0.11212652767E+04  0.13210625464E+04 -0.32724803642E+03  0.17658137691E+04  0.92546841561E+02 0.  0.
         13    1    3    3    0    0  0.93054021715E+03  0.11290601649E+04 -0.24941906496E+03  0.14842142102E+04  0.00000000000E+00 0.  1.
        -13    1    3    3    0    0  0.19072505950E+03  0.19200238145E+03 -0.77828971455E+02  0.28159955895E+03  0.00000000000E+00 0. -1.
         22    1    1    2    0    0 -0.11212652767E+04 -0.13210625464E+04  0.21623715869E+04  0.27709732860E+04  0.00000000000E+00 0.  1.
<mgrwt>
<rscale>  0 0.41490672E+04</rscale>
<asrwt>0</asrwt>
<pdfrwt beam="1">  1        2 0.20782027E+00 0.41490672E+04</pdfrwt>
<pdfrwt beam="2">  1       -2 0.49014697E+00 0.41490672E+04</pdfrwt>
<totfact> 0.22933688E-02</totfact>
</mgrwt>
</event>
<event>
 6    1  0.1934315E-005  0.2203619E+04  0.7818608E-02  0.8516923E-01
         -2   -1    0    0    0  501 -0.00000000000E+00  0.00000000000E+00  0.10679766142E+04  0.10679766142E+04  0.00000000000E+00 0. -1.
          2   -1    0    0  501    0  0.00000000000E+00 -0.00000000000E+00 -0.11367143485E+04  0.11367143485E+04  0.00000000000E+00 0.  1.
         23    2    1    2    0    0 -0.33040658346E+03 -0.65421948684E+03  0.78646831323E+03  0.10783921431E+04  0.85003289848E+02 0.  0.
         11    1    3    3    0    0 -0.83873733130E+02 -0.20935460121E+03  0.29287620436E+03  0.36964932468E+03  0.00000000000E+00 0. -1.
        -11    1    3    3    0    0 -0.24653285033E+03 -0.44486488563E+03  0.49359210887E+03  0.70874281844E+03  0.00000000000E+00 0.  1.
         22    1    1    2    0    0  0.33040658346E+03  0.65421948684E+03 -0.85520604749E+03  0.11262988196E+04  0.00000000000E+00 0.  1.
<mgrwt>
<rscale>  0 0.22036192E+04</rscale>
<asrwt>0</asrwt>
<pdfrwt beam="1">  1        2 0.17487913E+00 0.22036192E+04</pdfrwt>
<pdfrwt beam="2">  1       -2 0.16430409E+00 0.22036192E+04</pdfrwt>
<totfact> 0.44269997E+00</totfact>
</mgrwt>
</event>
<event>
 6    1  0.1934315E-005  0.1610778E+04  0.7818608E-02  0.8813954E-01
         -2   -1    0    0    0  501 -0.00000000000E+00  0.00000000000E+00  0.26155459934E+03  0.26155459934E+03  0.00000000000E+00 0. -1.
          2   -1    0    0  501    0  0.00000000000E+00 -0.00000000000E+00 -0.24799852933E+04  0.24799852933E+04  0.00000000000E+00 0.  1.
         23    2    1    2    0    0  0.13475671770E+02  0.74178265294E+03 -0.59087272441E+03  0.95286215695E+03  0.91611220672E+02 0.  0.
         13    1    3    3    0    0  0.39677784965E+02  0.18122291634E+03 -0.16680579393E+03  0.24947994892E+03  0.00000000000E+00 0. -1.
        -13    1    3    3    0    0 -0.26202113195E+02  0.56055973660E+03 -0.42406693048E+03  0.70338220802E+03  0.00000000000E+00 0.  1.
         22    1    1    2    0    0 -0.13475671770E+02 -0.74178265294E+03 -0.16275579695E+04  0.17886777357E+04  0.00000000000E+00 0.  1.
<mgrwt>
<rscale>  0 0.16107781E+04</rscale>
<asrwt>0</asrwt>
<pdfrwt beam="1">  1        2 0.38153619E+00 0.16107781E+04</pdfrwt>
<pdfrwt beam="2">  1       -2 0.40239170E-01 0.16107781E+04</pdfrwt>
<totfact> 0.20064511E+01</totfact>
</mgrwt>
</event>
<event>
 6    1  0.1934315E-005  0.3037040E+04  0.7818608E-02  0.8233232E-01
         -2   -1    0    0    0  501 -0.00000000000E+00  0.00000000000E+00  0.11933720026E+04  0.11933720026E+04  0.00000000000E+00 0. -1.
          2   -1    0    0  501    0  0.00000000000E+00 -0.00000000000E+00 -0.19322577081E+04  0.19322577081E+04  0.00000000000E+00 0.  1.
         23    2    1    2    0    0  0.13250330185E+04  0.55669022021E+03  0.13007511056E+03  0.14461329404E+04  0.93618616123E+02 0.  0.
         11    1    3    3    0    0  0.62339381712E+03  0.29223575660E+03  0.99912727088E+02  0.69570406186E+03  0.00000000000E+00 0.  1.
        -11    1    3    3    0    0  0.70163920142E+03  0.26445446361E+03  0.30162383468E+02  0.75042887849E+03  0.00000000000E+00 0. -1.
         22    1    1    2    0    0 -0.13250330185E+04 -0.55669022021E+03 -0.86896081609E+03  0.16794967703E+04  0.00000000000E+00 0.  1.
<mgrwt>
<rscale>  0 0.30370395E+04</rscale>
<asrwt>0</asrwt>
<pdfrwt beam="1">  1        2 0.29727042E+00 0.30370395E+04</pdfrwt>
<pdfrwt beam="2">  1       -2 0.18359569E+00 0.30370395E+04</pdfrwt>
<totfact> 0.10652817E+00</totfact>
</mgrwt>
</event>
<event>
 6    1  0.1934315E-005  0.3510488E+04  0.7818608E-02  0.8111309E-01
          2   -1    0    0  501    0  0.00000000000E+00  0.00000000000E+00  0.16040202509E+04  0.16040202509E+04  0.00000000000E+00 0.  1.
         -2   -1    0    0    0  501 -0.00000000000E+00 -0.00000000000E+00 -0.19207245476E+04  0.19207245476E+04  0.00000000000E+00 0. -1.
         23    2    1    2    0    0  0.72395664758E+03 -0.11170547344E+04  0.98849639315E+03  0.16604826527E+04  0.90294039184E+02 0.  0.
         13    1    3    3    0    0  0.34636493592E+03 -0.45562890320E+03  0.43988674924E+03  0.72184951231E+03  0.00000000000E+00 0.  1.
        -13    1    3    3    0    0  0.37759171166E+03 -0.66142583123E+03  0.54860964391E+03  0.93863314044E+03  0.00000000000E+00 0. -1.
         22    1    1    2    0    0 -0.72395664758E+03  0.11170547344E+04 -0.13052006899E+04  0.18642621458E+04  0.00000000000E+00 0. -1.
<mgrwt>
<rscale>  0 0.35104878E+04</rscale>
<asrwt>0</asrwt>
<pdfrwt beam="1">  1        2 0.24677235E+00 0.35104878E+04</pdfrwt>
<pdfrwt beam="2">  1       -2 0.29549608E+00 0.35104878E+04</pdfrwt>
<totfact> 0.30844514E-01</totfact>
</mgrwt>
</event>
<event>
 6    1  0.1934315E-005  0.1239356E+04  0.7818608E-02  0.9079089E-01
         -2   -1    0    0    0  501 -0.00000000000E+00  0.00000000000E+00  0.25515718392E+03  0.25515718392E+03  0.00000000000E+00 0. -1.
          2   -1    0    0  501    0  0.00000000000E+00 -0.00000000000E+00 -0.15049586006E+04  0.15049586006E+04  0.00000000000E+00 0.  1.
         23    2    1    2    0    0  0.54629488524E+03 -0.25748438559E+03 -0.80210294223E+03  0.10083377358E+04  0.92949175001E+02 0.  0.
         13    1    3    3    0    0  0.32838675990E+03 -0.17862028536E+03 -0.42792987726E+03  0.56821391242E+03  0.00000000000E+00 0.  1.
        -13    1    3    3    0    0  0.21790812535E+03 -0.78864100231E+02 -0.37417306497E+03  0.44012382343E+03  0.00000000000E+00 0. -1.
         22    1    1    2    0    0 -0.54629488524E+03  0.25748438559E+03 -0.44769847450E+03  0.75177804872E+03  0.00000000000E+00 0. -1.
<mgrwt>
<rscale>  0 0.12393563E+04</rscale>
<asrwt>0</asrwt>
<pdfrwt beam="1">  1        2 0.23153209E+00 0.12393563E+04</pdfrwt>
<pdfrwt beam="2">  1       -2 0.39254952E-01 0.12393563E+04</pdfrwt>
<totfact> 0.76127968E+01</totfact>
</mgrwt>
</event>
<event>
 6    1  0.1934315E-005  0.4419006E+04  0.7818608E-02  0.7924972E-01
          2   -1    0    0  501    0  0.00000000000E+00  0.00000000000E+00  0.39962831712E+04  0.39962831712E+04  0.00000000000E+00 0.  1.
         -2   -1    0    0    0  501 -0.00000000000E+00 -0.00000000000E+00 -0.12216109329E+04  0.12216109329E+04  0.00000000000E+00 0. -1.
         23    2    1    2    0    0 -0.14239813236E+04 -0.42272154152E+02  0.33807156380E+04  0.36697344395E+04  0.90569787895E+02 0.  0.
         13    1    3    3    0    0 -0.96640037608E+02 -0.25694223998E+02  0.24414299330E+03  0.26382814708E+03  0.00000000000E+00 0.  1.
        -13    1    3    3    0    0 -0.13273412860E+04 -0.16577930153E+02  0.31365726447E+04  0.34059062924E+04  0.00000000000E+00 0. -1.
         22    1    1    2    0    0  0.14239813236E+04  0.42272154152E+02 -0.60604339968E+03  0.15481596646E+04  0.00000000000E+00 0. -1.
<mgrwt>
<rscale>  0 0.44190059E+04</rscale>
<asrwt>0</asrwt>
<pdfrwt beam="1">  1        2 0.61481279E+00 0.44190059E+04</pdfrwt>
<pdfrwt beam="2">  1       -2 0.18794015E+00 0.44190059E+04</pdfrwt>
<totfact> 0.41874478E-02</totfact>
</mgrwt>
</event>
<event>
 6    1  0.2050414E-005  0.4936169E+04  0.7818608E-02  0.7838430E-01
          2   -1    0    0  501    0  0.00000000000E+00  0.00000000000E+00  0.31290959176E+04  0.31290959176E+04  0.00000000000E+00 0.  1.
         -2   -1    0    0    0  501 -0.00000000000E+00 -0.00000000000E+00 -0.19467097213E+04  0.19467097213E+04  0.00000000000E+00 0. -1.
         23    2    1    2    0    0  0.10216143434E+04  0.10867349741E+04  0.26122868670E+04  0.30095760538E+04  0.93896631470E+02 0.  0.
         11    1    3    3    0    0  0.70166769351E+03  0.72810321353E+03  0.16842969209E+04  0.19645172332E+04  0.00000000000E+00 0.  1.
        -11    1    3    3    0    0  0.31994664985E+03  0.35863176054E+03  0.92798994609E+03  0.10450588206E+04  0.00000000000E+00 0. -1.
         22    1    1    2    0    0 -0.10216143434E+04 -0.10867349741E+04 -0.14299006707E+04  0.20662295851E+04  0.00000000000E+00 0. -1.
<mgrwt>
<rscale>  0 0.49361691E+04</rscale>
<asrwt>0</asrwt>
<pdfrwt beam="1">  1        2 0.48139937E+00 0.49361691E+04</pdfrwt>
<pdfrwt beam="2">  1       -2 0.29949380E+00 0.49361691E+04</pdfrwt>
<totfact> 0.33739134E-02</totfact>
</mgrwt>
</event>
<event>
 6    1  0.1934315E-005  0.2207816E+04  0.7818608E-02  0.8515182E-01
         -3   -1    0    0    0  501 -0.00000000000E+00  0.00000000000E+00  0.28163228985E+03  0.28163228985E+03  0.00000000000E+00 0. -1.
          3   -1    0    0  501    0  0.00000000000E+00 -0.00000000000E+00 -0.43269623819E+04  0.43269623819E+04  0.00000000000E+00 0.  1.
         23    2    1    2    0    0 -0.54485041290E+02  0.87080714870E+03 -0.62007094388E+03  0.10739555187E+04  0.87285570536E+02 0.  0.
         11    1    3    3    0    0 -0.56794747478E+02  0.65999037972E+03 -0.42735074134E+03  0.78831567331E+03  0.00000000000E+00 0. -1.
        -11    1    3    3    0    0  0.23097061878E+01  0.21081676897E+03 -0.19272020254E+03  0.28563984542E+03  0.00000000000E+00 0.  1.
         22    1    1    2    0    0  0.54485041290E+02 -0.87080714870E+03 -0.34252591482E+04  0.35346391530E+04  0.00000000000E+00 0.  1.
<mgrwt>
<rscale>  0 0.22078155E+04</rscale>
<asrwt>0</asrwt>
<pdfrwt beam="1">  1        3 0.66568652E+00 0.22078155E+04</pdfrwt>
<pdfrwt beam="2">  1       -3 0.43328045E-01 0.22078155E+04</pdfrwt>
<totfact> 0.66181401E-03</totfact>
</mgrwt>
</event>
<event>
 6    1  0.1934315E-005  0.1060460E+04  0.7818608E-02  0.9244610E-01
          2   -1    0    0  501    0  0.00000000000E+00  0.00000000000E+00  0.62082316318E+03  0.62082316318E+03  0.00000000000E+00 0.  1.
         -2   -1    0    0    0  501 -0.00000000000E+00 -0.00000000000E+00 -0.45285692922E+03  0.45285692922E+03  0.00000000000E+00 0. -1.
         23    2    1    2    0    0 -0.15718964326E+03 -0.26937252937E+03  0.51384824947E+03  0.60795000728E+03  0.91066153650E+02 0.  0.
         11    1    3    3    0    0 -0.26692940961E+02 -0.12820503124E+03  0.17815490234E+03  0.22110678950E+03  0.00000000000E+00 0.  1.
        -11    1    3    3    0    0 -0.13049670230E+03 -0.14116749813E+03  0.33569334713E+03  0.38684321779E+03  0.00000000000E+00 0. -1.
         22    1    1    2    0    0  0.15718964326E+03  0.26937252937E+03 -0.34588201552E+03  0.46573008512E+03  0.00000000000E+00 0. -1.
<mgrwt>
<rscale>  0 0.10604604E+04</rscale>
<asrwt>0</asrwt>
<pdfrwt beam="1">  1        2 0.95511256E-01 0.10604604E+04</pdfrwt>
<pdfrwt beam="2">  1       -2 0.69670297E-01 0.10604604E+04</pdfrwt>
<totfact> 0.88986731E+01</totfact>
</mgrwt>
</event>
<event>
 6    1  0.1934315E-005  0.2150661E+04  0.7818608E-02  0.8539249E-01
          2   -1    0    0  501    0  0.00000000000E+00  0.00000000000E+00  0.79749269183E+03  0.79749269183E+03  0.00000000000E+00 0.  1.
         -2   -1    0    0    0  501 -0.00000000000E+00 -0.00000000000E+00 -0.14499639525E+04  0.14499639525E+04  0.00000000000E+00 0. -1.
         23    2    1    2    0    0  0.31548054624E+03  0.31313332273E+03  0.69424721428E+03  0.82927784614E+03  0.90233578553E+02 0.  0.
         13    1    3    3    0    0  0.28085096678E+03  0.28765212920E+03  0.56774480575E+03  0.69566887054E+03  0.00000000000E+00 0.  1.
        -13    1    3    3    0    0  0.34629579452E+02  0.25481193529E+02  0.12650240853E+03  0.13360897560E+03  0.00000000000E+00 0. -1.
         22    1    1    2    0    0 -0.31548054624E+03 -0.31313332273E+03 -0.13467184749E+04  0.14181787981E+04  0.00000000000E+00 0. -1.
<mgrwt>
<rscale>  0 0.21506610E+04</rscale>
<asrwt>0</asrwt>
<pdfrwt beam="1">  1        2 0.12269118E+00 0.21506610E+04</pdfrwt>
<pdfrwt beam="2">  1       -2 0.22307138E+00 0.21506610E+04</pdfrwt>
<totfact> 0.29991143E+00</totfact>
</mgrwt>
</event>
<event>
 6    1  0.1934315E-005  0.9319777E+03  0.7818608E-02  0.9386468E-01
         -2   -1    0    0    0  501 -0.00000000000E+00  0.00000000000E+00  0.13286649931E+03  0.13286649931E+03  0.00000000000E+00 0. -1.
          2   -1    0    0  501    0  0.00000000000E+00 -0.00000000000E+00 -0.16343141124E+04  0.16343141124E+04  0.00000000000E+00 0.  1.
         23    2    1    2    0    0  0.30826151640E+03 -0.34193444318E+03 -0.80951485945E+03  0.93608780013E+03  0.94877478645E+02 0.  0.
         11    1    3    3    0    0  0.28132560617E+03 -0.30754220678E+03 -0.77663237195E+03  0.88141031693E+03  0.00000000000E+00 0. -1.
        -11    1    3    3    0    0  0.26935910226E+02 -0.34392236398E+02 -0.32882487503E+02  0.54677483195E+02  0.00000000000E+00 0.  1.
         22    1    1    2    0    0 -0.30826151640E+03  0.34193444318E+03 -0.69193275368E+03  0.83109281163E+03  0.00000000000E+00 0. -1.
<mgrwt>
<rscale>  0 0.93197767E+03</rscale>
<asrwt>0</asrwt>
<pdfrwt beam="1">  1        2 0.25143294E+00 0.93197767E+03</pdfrwt>
<pdfrwt beam="2">  1       -2 0.20441000E-01 0.93197767E+03</pdfrwt>
<totfact> 0.21994706E+02</totfact>
</mgrwt>
</event>
<event>
 6    1  0.1934315E-005  0.5529636E+03  0.7818608E-02  0.1000810E+00
         -2   -1    0    0    0  501 -0.00000000000E+00  0.00000000000E+00  0.19828658627E+03  0.19828658627E+03  0.00000000000E+00 0. -1.
          2   -1    0    0  501    0  0.00000000000E+00 -0.00000000000E+00 -0.38551363977E+03  0.38551363977E+03  0.00000000000E+00 0.  1.
         23    2    1    2    0    0  0.12894116228E+02 -0.26620156483E+03 -0.57580445149E+02  0.28742584387E+03  0.90931714553E+02 0.  0.
         11    1    3    3    0    0  0.29087411328E+02 -0.12247494768E+03 -0.66778734337E+02  0.14249768302E+03  0.00000000000E+00 0. -1.
        -11    1    3    3    0    0 -0.16193295100E+02 -0.14372661715E+03  0.91982891887E+01  0.14492816085E+03  0.00000000000E+00 0.  1.
         22    1    1    2    0    0 -0.12894116228E+02  0.26620156483E+03 -0.12964660836E+03  0.29637438217E+03  0.00000000000E+00 0. -1.
<mgrwt>
<rscale>  0 0.55296359E+03</rscale>
<asrwt>0</asrwt>
<pdfrwt beam="1">  1        2 0.59309791E-01 0.55296359E+03</pdfrwt>
<pdfrwt beam="2">  1       -2 0.30505629E-01 0.55296359E+03</pdfrwt>
<totfact> 0.82713509E+02</totfact>
</mgrwt>
</event>
<event>
 6    1  0.1934315E-005  0.2514856E+04  0.7818608E-02  0.8397712E-01
         -2   -1    0    0    0  501 -0.00000000000E+00  0.00000000000E+00  0.74984537970E+03  0.74984537970E+03  0.00000000000E+00 0. -1.
          2   -1    0    0  501    0  0.00000000000E+00 -0.00000000000E+00 -0.21086017453E+04  0.21086017453E+04  0.00000000000E+00 0.  1.
         23    2    1    2    0    0  0.61027666161E+03 -0.45432759721E+03 -0.18158507854E+04  0.19708737602E+04  0.90433039235E+02 0.  0.
         11    1    3    3    0    0  0.29339981091E+03 -0.27426740489E+03 -0.93712809498E+03  0.10195661454E+04  0.00000000000E+00 0. -1.
        -11    1    3    3    0    0  0.31687685070E+03 -0.18006019232E+03 -0.87872269041E+03  0.95130761481E+03  0.00000000000E+00 0.  1.
         22    1    1    2    0    0 -0.61027666161E+03  0.45432759721E+03  0.45709441979E+03  0.88757336479E+03  0.00000000000E+00 0. -1.
<mgrwt>
<rscale>  0 0.25148561E+04</rscale>
<asrwt>0</asrwt>
<pdfrwt beam="1">  1        2 0.32440027E+00 0.25148561E+04</pdfrwt>
<pdfrwt beam="2">  1       -2 0.11536083E+00 0.25148561E+04</pdfrwt>
<totfact> 0.30288386E+00</totfact>
</mgrwt>
</event>
<event>
 6    1  0.1934315E-005  0.4777195E+04  0.7818608E-02  0.7863827E-01
         -2   -1    0    0    0  501 -0.00000000000E+00  0.00000000000E+00  0.18774133402E+04  0.18774133402E+04  0.00000000000E+00 0. -1.
          2   -1    0    0  501    0  0.00000000000E+00 -0.00000000000E+00 -0.30389675481E+04  0.30389675481E+04  0.00000000000E+00 0.  1.
         23    2    1    2    0    0 -0.18307669661E+04 -0.61821583368E+03 -0.20244693468E+04  0.28001292402E+04  0.91373543656E+02 0.  0.
         13    1    3    3    0    0 -0.15046609839E+04 -0.47940602748E+03 -0.16855203614E+04  0.23097215643E+04  0.00000000000E+00 0.  1.
        -13    1    3    3    0    0 -0.32610598222E+03 -0.13880980620E+03 -0.33894898542E+03  0.49040767597E+03  0.00000000000E+00 0. -1.
         22    1    1    2    0    0  0.18307669661E+04  0.61821583368E+03  0.86291513892E+03  0.21162516481E+04  0.00000000000E+00 0. -1.
<mgrwt>
<rscale>  0 0.47771951E+04</rscale>
<asrwt>0</asrwt>
<pdfrwt beam="1">  1        2 0.46753347E+00 0.47771951E+04</pdfrwt>
<pdfrwt beam="2">  1       -2 0.28883282E+00 0.47771951E+04</pdfrwt>
<totfact> 0.45326911E-02</totfact>
</mgrwt>
</event>
<event>
 6    1  0.1934315E-005  0.1910764E+04  0.7818608E-02  0.8649517E-01
         -2   -1    0    0    0  501 -0.00000000000E+00  0.00000000000E+00  0.83623468923E+03  0.83623468923E+03  0.00000000000E+00 0. -1.
          2   -1    0    0  501    0  0.00000000000E+00 -0.00000000000E+00 -0.10915050239E+04  0.10915050239E+04  0.00000000000E+00 0.  1.
         23    2    1    2    0    0  0.90911577968E+03  0.24137916614E+03 -0.28380410700E+03  0.98669264796E+03  0.90896686863E+02 0.  0.
         13    1    3    3    0    0  0.25767143710E+03  0.11110013615E+03 -0.79646455741E+02  0.29168710576E+03  0.00000000000E+00 0. -1.
        -13    1    3    3    0    0  0.65144434257E+03  0.13027902999E+03 -0.20415765126E+03  0.69500554220E+03  0.00000000000E+00 0.  1.
         22    1    1    2    0    0 -0.90911577968E+03 -0.24137916614E+03  0.28533772320E+02  0.94104706517E+03  0.00000000000E+00 0. -1.
<mgrwt>
<rscale>  0 0.19107636E+04</rscale>
<asrwt>0</asrwt>
<pdfrwt beam="1">  1        2 0.16792385E+00 0.19107636E+04</pdfrwt>
<pdfrwt beam="2">  1       -2 0.12865149E+00 0.19107636E+04</pdfrwt>
<totfact> 0.92022402E+00</totfact>
</mgrwt>
</event>
<event>
 6    1  0.1934315E-005  0.2487073E+04  0.7818608E-02  0.8407605E-01
         -2   -1    0    0    0  501 -0.00000000000E+00  0.00000000000E+00  0.62661708323E+03  0.62661708323E+03  0.00000000000E+00 0. -1.
          2   -1    0    0  501    0  0.00000000000E+00 -0.00000000000E+00 -0.24678274946E+04  0.24678274946E+04  0.00000000000E+00 0.  1.
         23    2    1    2    0    0 -0.11320695936E+04  0.30648173150E+03 -0.41542862295E+03  0.12482684420E+04  0.10040192247E+03 0.  0.
         11    1    3    3    0    0 -0.82490308410E+03  0.20158939419E+03 -0.34215584879E+03  0.91551843612E+03  0.00000000000E+00 0.  1.
        -11    1    3    3    0    0 -0.30716650947E+03  0.10489233731E+03 -0.73272774166E+02  0.33275000587E+03  0.00000000000E+00 0. -1.
         22    1    1    2    0    0  0.11320695936E+04 -0.30648173150E+03 -0.14257817884E+04  0.18461761359E+04  0.00000000000E+00 0.  1.
<mgrwt>
<rscale>  0 0.24870729E+04</rscale>
<asrwt>0</asrwt>
<pdfrwt beam="1">  1        2 0.37966576E+00 0.24870729E+04</pdfrwt>
<pdfrwt beam="2">  1       -2 0.96402630E-01 0.24870729E+04</pdfrwt>
<totfact> 0.29210911E+00</totfact>
</mgrwt>
</event>
<event>
 6    1  0.2723004E-005  0.3183215E+04  0.7818608E-02  0.8193264E-01
         -2   -1    0    0    0  501 -0.00000000000E+00  0.00000000000E+00  0.17908269193E+04  0.17908269193E+04  0.00000000000E+00 0. -1.
          2   -1    0    0  501    0  0.00000000000E+00 -0.00000000000E+00 -0.14145498677E+04  0.14145498677E+04  0.00000000000E+00 0.  1.
         23    2    1    2    0    0 -0.12250156221E+04 -0.64671952460E+03  0.97413780117E+03  0.16966200493E+04  0.10327496301E+03 0.  0.
         13    1    3    3    0    0 -0.46223717063E+03 -0.24185459200E+03  0.42860832148E+03  0.67517548743E+03  0.00000000000E+00 0.  1.
        -13    1    3    3    0    0 -0.76277845147E+03 -0.40486493261E+03  0.54552947969E+03  0.10214445618E+04  0.00000000000E+00 0. -1.
         22    1    1    2    0    0  0.12250156221E+04  0.64671952460E+03 -0.59786074954E+03  0.15087567378E+04  0.00000000000E+00 0.  1.
<mgrwt>
<rscale>  0 0.31832147E+04</rscale>
<asrwt>0</asrwt>
<pdfrwt beam="1">  1        2 0.21762306E+00 0.31832147E+04</pdfrwt>
<pdfrwt beam="2">  1       -2 0.27551183E+00 0.31832147E+04</pdfrwt>
<totfact> 0.53688678E-01</totfact>
</mgrwt>
</event>
<event>
 6    1  0.1934315E-005  0.8372575E+03  0.7818608E-02  0.9507601E-01
          2   -1    0    0  501    0  0.00000000000E+00  0.00000000000E+00  0.12533773525E+04  0.12533773525E+04  0.00000000000E+00 0.  1.
         -2   -1    0    0    0  501 -0.00000000000E+00 -0.00000000000E+00 -0.13982223076E+03  0.13982223076E+03  0.00000000000E+00 0. -1.
         23    2    1    2    0    0  0.25307326524E+03 -0.29622675434E+03  0.79639055089E+03  0.89081553437E+03  0.86706626917E+02 0.  0.
         11    1    3    3    0    0  0.12010269972E+03 -0.19200192178E+03  0.39500377229E+03  0.45532117958E+03  0.00000000000E+00 0.  1.
        -11    1    3    3    0    0  0.13297056552E+03 -0.10422483256E+03  0.40138677860E+03  0.43549435479E+03  0.00000000000E+00 0. -1.
         22    1    1    2    0    0 -0.25307326524E+03  0.29622675434E+03  0.31716457084E+03  0.50238404887E+03  0.00000000000E+00 0. -1.
<mgrwt>
<rscale>  0 0.83725747E+03</rscale>
<asrwt>0</asrwt>
<pdfrwt beam="1">  1        2 0.19282728E+00 0.83725747E+03</pdfrwt>
<pdfrwt beam="2">  1       -2 0.21511113E-01 0.83725747E+03</pdfrwt>
<totfact> 0.33203171E+02</totfact>
</mgrwt>
</event>
<event>
 6    1  0.1934315E-005  0.4501836E+04  0.7818608E-02  0.7910315E-01
          2   -1    0    0  501    0  0.00000000000E+00  0.00000000000E+00  0.27977716851E+04  0.27977716851E+04  0.00000000000E+00 0.  1.
         -2   -1    0    0    0  501 -0.00000000000E+00 -0.00000000000E+00 -0.18109529781E+04  0.18109529781E+04  0.00000000000E+00 0. -1.
         23    2    1    2    0    0  0.20144023701E+04  0.96657261489E+03  0.22213550131E+03  0.22471955116E+04  0.91999769936E+02 0.  0.
         13    1    3    3    0    0  0.87135122284E+03  0.41689712318E+03  0.14184939601E+03  0.97630805385E+03  0.00000000000E+00 0. -1.
        -13    1    3    3    0    0  0.11430511473E+04  0.54967549171E+03  0.80286105302E+02  0.12708874577E+04  0.00000000000E+00 0.  1.
         22    1    1    2    0    0 -0.20144023701E+04 -0.96657261489E+03  0.76468320565E+03  0.23615291516E+04  0.00000000000E+00 0.  1.
<mgrwt>
<rscale>  0 0.45018365E+04</rscale>
<asrwt>0</asrwt>
<pdfrwt beam="1">  1        2 0.43042641E+00 0.45018365E+04</pdfrwt>
<pdfrwt beam="2">  1       -2 0.27860815E+00 0.45018365E+04</pdfrwt>
<totfact> 0.75450022E-02</totfact>
</mgrwt>
</event>
<event>
 6    1  0.1934315E-005  0.1446882E+04  0.7818608E-02  0.8920565E-01
         -2   -1    0    0    0  501 -0.00000000000E+00  0.00000000000E+00  0.41286296713E+03  0.41286296713E+03  0.00000000000E+00 0. -1.
          2   -1    0    0  501    0  0.00000000000E+00 -0.00000000000E+00 -0.12676524271E+04  0.12676524271E+04  0.00000000000E+00 0.  1.
         23    2    1    2    0    0 -0.35011168886E+03 -0.34865152586E+03 -0.10382461603E+04  0.11534552060E+04  0.91475360980E+02 0.  0.
         11    1    3    3    0    0 -0.33018558059E+03 -0.32528317836E+03 -0.90585128923E+03  0.10175451941E+04  0.00000000000E+00 0.  1.
        -11    1    3    3    0    0 -0.19926108275E+02 -0.23368347497E+02 -0.13239487104E+03  0.13591001190E+03  0.00000000000E+00 0. -1.
         22    1    1    2    0    0  0.35011168886E+03  0.34865152586E+03  0.18345670031E+03  0.52706018826E+03  0.00000000000E+00 0. -1.
<mgrwt>
<rscale>  0 0.14468818E+04</rscale>
<asrwt>0</asrwt>
<pdfrwt beam="1">  1        2 0.19502345E+00 0.14468818E+04</pdfrwt>
<pdfrwt beam="2">  1       -2 0.63517380E-01 0.14468818E+04</pdfrwt>
<totfact> 0.38426900E+01</totfact>
</mgrwt>
</event>
<event>
 6    1  0.1934315E-005  0.3535166E+04  0.7818608E-02  0.8105506E-01
          2   -1    0    0  501    0  0.00000000000E+00  0.00000000000E+00  0.24322687324E+04  0.24322687324E+04  0.00000000000E+00 0.  1.
         -2   -1    0    0    0  501 -0.00000000000E+00 -0.00000000000E+00 -0.12845413272E+04  0.12845413272E+04  0.00000000000E+00 0. -1.
         23    2    1    2    0    0 -0.94789564379E+03 -0.39729578155E+03 -0.93620121102E+03  0.13932118656E+04  0.90644941790E+02 0.  0.
         11    1    3    3    0    0 -0.77012810164E+03 -0.35298073947E+03 -0.74112077455E+03  0.11255899333E+04  0.00000000000E+00 0. -1.
        -11    1    3    3    0    0 -0.17776754215E+03 -0.44315042073E+02 -0.19508043647E+03  0.26762193238E+03  0.00000000000E+00 0.  1.
         22    1    1    2    0    0  0.94789564379E+03  0.39729578155E+03  0.20839286162E+04  0.23235981940E+04  0.00000000000E+00 0.  1.
<mgrwt>
<rscale>  0 0.35351660E+04</rscale>
<asrwt>0</asrwt>
<pdfrwt beam="1">  1        2 0.37419519E+00 0.35351660E+04</pdfrwt>
<pdfrwt beam="2">  1       -2 0.19762174E+00 0.35351660E+04</pdfrwt>
<totfact> 0.43035296E-01</totfact>
</mgrwt>
</event>
<event>
 6    1  0.1934315E-005  0.2985221E+04  0.7818608E-02  0.8247964E-01
         -2   -1    0    0    0  501 -0.00000000000E+00  0.00000000000E+00  0.23516224091E+04  0.23516224091E+04  0.00000000000E+00 0. -1.
          2   -1    0    0  501    0  0.00000000000E+00 -0.00000000000E+00 -0.94738254685E+03  0.94738254685E+03  0.00000000000E+00 0.  1.
         23    2    1    2    0    0  0.96260350598E+02 -0.78087111636E+03 -0.69710903724E+03  0.10551928085E+04  0.91897214014E+02 0.  0.
         13    1    3    3    0    0  0.60430669961E+01 -0.35603211695E+03 -0.34893415183E+03  0.49854832191E+03  0.00000000000E+00 0. -1.
        -13    1    3    3    0    0  0.90217283602E+02 -0.42483899941E+03 -0.34817488541E+03  0.55664448664E+03  0.00000000000E+00 0.  1.
         22    1    1    2    0    0 -0.96260350598E+02  0.78087111636E+03  0.21013488995E+04  0.22438121474E+04  0.00000000000E+00 0. -1.
<mgrwt>
<rscale>  0 0.29852209E+04</rscale>
<asrwt>0</asrwt>
<pdfrwt beam="1">  1        2 0.14575116E+00 0.29852209E+04</pdfrwt>
<pdfrwt beam="2">  1       -2 0.36178806E+00 0.29852209E+04</pdfrwt>
<totfact> 0.30593678E-01</totfact>
</mgrwt>
</event>
<event>
 6    1  0.1934315E-005  0.2004818E+04  0.7818608E-02  0.8604371E-01
         -2   -1    0    0    0  501 -0.00000000000E+00  0.00000000000E+00  0.83895075417E+03  0.83895075417E+03  0.00000000000E+00 0. -1.
          2   -1    0    0  501    0  0.00000000000E+00 -0.00000000000E+00 -0.11977154657E+04  0.11977154657E+04  0.00000000000E+00 0.  1.
         23    2    1    2    0    0  0.63651910554E+03 -0.29709495629E+03 -0.90336878118E+03  0.11478380152E+04  0.89637991260E+02 0.  0.
         13    1    3    3    0    0  0.44663677346E+03 -0.19959777779E+03 -0.69184447413E+03  0.84733255378E+03  0.00000000000E+00 0. -1.
        -13    1    3    3    0    0  0.18988233208E+03 -0.97497178505E+02 -0.21152430705E+03  0.30050546139E+03  0.00000000000E+00 0.  1.
         22    1    1    2    0    0 -0.63651910554E+03  0.29709495629E+03  0.54460406966E+03  0.88882820469E+03  0.00000000000E+00 0. -1.
<mgrwt>
<rscale>  0 0.20048185E+04</rscale>
<asrwt>0</asrwt>
<pdfrwt beam="1">  1        2 0.18426392E+00 0.20048185E+04</pdfrwt>
<pdfrwt beam="2">  1       -2 0.12906935E+00 0.20048185E+04</pdfrwt>
<totfact> 0.78054144E+00</totfact>
</mgrwt>
</event>
<event>
 6    1  0.1934315E-005  0.2174992E+04  0.7818608E-02  0.8528910E-01
         -1   -1    0    0    0  501 -0.00000000000E+00  0.00000000000E+00  0.62291636715E+03  0.62291636715E+03  0.00000000000E+00 0.  1.
          1   -1    0    0  501    0  0.00000000000E+00 -0.00000000000E+00 -0.18985652004E+04  0.18985652004E+04  0.00000000000E+00 0. -1.
         23    2    1    2    0    0  0.67155107928E+03  0.68483120267E+02 -0.16240585628E+04  0.17618368285E+04  0.10407691905E+03 0.  0.
         13    1    3    3    0    0  0.17461606662E+03  0.37315069218E+02 -0.32848533282E+03  0.37387939096E+03  0.00000000000E+00 0. -1.
        -13    1    3    3    0    0  0.49693501267E+03  0.31168051049E+02 -0.12955732300E+04  0.13879574376E+04  0.00000000000E+00 0.  1.
         22    1    1    2    0    0 -0.67155107928E+03 -0.68483120267E+02  0.34840972957E+03  0.75964473901E+03  0.00000000000E+00 0.  1.
<mgrwt>
<rscale>  0 0.21749918E+04</rscale>
<asrwt>0</asrwt>
<pdfrwt beam="1">  1        1 0.29208695E+00 0.21749918E+04</pdfrwt>
<pdfrwt beam="2">  1       -1 0.95833288E-01 0.21749918E+04</pdfrwt>
<totfact> 0.33493094E+00</totfact>
</mgrwt>
</event>
<event>
 6    1  0.2401739E-005  0.3773155E+04  0.7818608E-02  0.8051940E-01
         -1   -1    0    0    0  501 -0.00000000000E+00  0.00000000000E+00  0.15395173582E+04  0.15395173582E+04  0.00000000000E+00 0. -1.
          1   -1    0    0  501    0  0.00000000000E+00 -0.00000000000E+00 -0.23118772680E+04  0.23118772680E+04  0.00000000000E+00 0.  1.
         23    2    1    2    0    0  0.62078468494E+03 -0.17791004913E+04 -0.45597003335E+03  0.19407207300E+04  0.88972453099E+02 0.  0.
         13    1    3    3    0    0  0.27560210811E+03 -0.77204040239E+03 -0.15345208691E+03  0.83399667139E+03  0.00000000000E+00 0.  1.
        -13    1    3    3    0    0  0.34518257683E+03 -0.10070600889E+04 -0.30251794644E+03  0.11067240586E+04  0.00000000000E+00 0. -1.
         22    1    1    2    0    0 -0.62078468494E+03  0.17791004913E+04 -0.31638987646E+03  0.19106738961E+04  0.00000000000E+00 0. -1.
<mgrwt>
<rscale>  0 0.37731553E+04</rscale>
<asrwt>0</asrwt>
<pdfrwt beam="1">  1        1 0.35567342E+00 0.37731553E+04</pdfrwt>
<pdfrwt beam="2">  1       -1 0.23684883E+00 0.37731553E+04</pdfrwt>
<totfact> 0.12387843E-01</totfact>
</mgrwt>
</event>
<event>
 6    1  0.1934315E-005  0.1155275E+04  0.7818608E-02  0.9152931E-01
         -2   -1    0    0    0  501 -0.00000000000E+00  0.00000000000E+00  0.17616842336E+03  0.17616842336E+03  0.00000000000E+00 0. -1.
          2   -1    0    0  501    0  0.00000000000E+00 -0.00000000000E+00 -0.18940112777E+04  0.18940112777E+04  0.00000000000E+00 0.  1.
         23    2    1    2    0    0 -0.18509369327E+03 -0.51265056739E+03 -0.54142334108E+03  0.77363307610E+03  0.91096776192E+02 0.  0.
         11    1    3    3    0    0 -0.11367028855E+03 -0.41165929908E+03 -0.39245741953E+03  0.58000615441E+03  0.00000000000E+00 0. -1.
        -11    1    3    3    0    0 -0.71423404716E+02 -0.10099126832E+03 -0.14896592156E+03  0.19362692169E+03  0.00000000000E+00 0.  1.
         22    1    1    2    0    0  0.18509369327E+03  0.51265056739E+03 -0.11764195132E+04  0.12965466250E+04  0.00000000000E+00 0.  1.
<mgrwt>
<rscale>  0 0.11552748E+04</rscale>
<asrwt>0</asrwt>
<pdfrwt beam="1">  1        2 0.29138636E+00 0.11552748E+04</pdfrwt>
<pdfrwt beam="2">  1       -2 0.27102833E-01 0.11552748E+04</pdfrwt>
<totfact> 0.93810896E+01</totfact>
</mgrwt>
</event>
<event>
 6    1  0.1934315E-005  0.4743254E+04  0.7818608E-02  0.7869381E-01
          2   -1    0    0  501    0  0.00000000000E+00  0.00000000000E+00  0.11876011266E+04  0.11876011266E+04  0.00000000000E+00 0.  1.
         -2   -1    0    0    0  501 -0.00000000000E+00 -0.00000000000E+00 -0.47361148151E+04  0.47361148151E+04  0.00000000000E+00 0. -1.
         23    2    1    2    0    0  0.15068212570E+04  0.12463270494E+04 -0.34488730706E+04  0.39657144945E+04  0.91239134898E+02 0.  0.
         13    1    3    3    0    0  0.27059644226E+03  0.27074483873E+03 -0.67358579833E+03  0.77475352854E+03  0.00000000000E+00 0. -1.
        -13    1    3    3    0    0  0.12362248148E+04  0.97558221066E+03 -0.27752872723E+04  0.31909609659E+04  0.00000000000E+00 0.  1.
         22    1    1    2    0    0 -0.15068212570E+04 -0.12463270494E+04 -0.99640617939E+02  0.19580014472E+04  0.00000000000E+00 0.  1.
<mgrwt>
<rscale>  0 0.47432543E+04</rscale>
<asrwt>0</asrwt>
<pdfrwt beam="1">  1        2 0.18270786E+00 0.47432543E+04</pdfrwt>
<pdfrwt beam="2">  1       -2 0.72863305E+00 0.47432543E+04</pdfrwt>
<totfact> 0.25482758E-03</totfact>
</mgrwt>
</event>
<event>
 6    1  0.1934315E-005  0.4756590E+03  0.7818608E-02  0.1020335E+00
          2   -1    0    0  501    0  0.00000000000E+00  0.00000000000E+00  0.85347263691E+03  0.85347263691E+03  0.00000000000E+00 0.  1.
         -2   -1    0    0    0  501 -0.00000000000E+00 -0.00000000000E+00 -0.66273798366E+02  0.66273798366E+02  0.00000000000E+00 0. -1.
         23    2    1    2    0    0 -0.49526813400E+02 -0.20887493012E+03  0.56249234859E+03  0.60898181646E+03  0.91539985134E+02 0.  0.
         11    1    3    3    0    0  0.27733283930E+01 -0.33442584288E+02  0.20097867405E+03  0.20376095116E+03  0.00000000000E+00 0. -1.
        -11    1    3    3    0    0 -0.52300141793E+02 -0.17543234584E+03  0.36151367454E+03  0.40522086530E+03  0.00000000000E+00 0.  1.
         22    1    1    2    0    0  0.49526813400E+02  0.20887493012E+03  0.22470648996E+03  0.31076461882E+03  0.00000000000E+00 0. -1.
<mgrwt>
<rscale>  0 0.47565901E+03</rscale>
<asrwt>0</asrwt>
<pdfrwt beam="1">  1        2 0.13130347E+00 0.47565901E+03</pdfrwt>
<pdfrwt beam="2">  1       -2 0.10195970E-01 0.47565901E+03</pdfrwt>
<totfact> 0.21031405E+03</totfact>
</mgrwt>
</event>
<event>
 6    1  0.1934315E-005  0.1249444E+04  0.7818608E-02  0.9070646E-01
         -2   -1    0    0    0  501 -0.00000000000E+00  0.00000000000E+00  0.18024187060E+03  0.18024187060E+03  0.00000000000E+00 0. -1.
          2   -1    0    0  501    0  0.00000000000E+00 -0.00000000000E+00 -0.21653005755E+04  0.21653005755E+04  0.00000000000E+00 0.  1.
         23    2    1    2    0    0  0.15679260123E+02 -0.59190864374E+03 -0.64239599732E+03  0.87811448259E+03  0.88378421736E+02 0.  0.
         11    1    3    3    0    0  0.14615119781E+02 -0.55583857004E+03 -0.56497099918E+03  0.79269309798E+03  0.00000000000E+00 0. -1.
        -11    1    3    3    0    0  0.10641403421E+01 -0.36070073697E+02 -0.77424998144E+02  0.85421384610E+02  0.00000000000E+00 0.  1.
         22    1    1    2    0    0 -0.15679260123E+02  0.59190864374E+03 -0.13426627075E+04  0.14674279635E+04  0.00000000000E+00 0.  1.
<mgrwt>
<rscale>  0 0.12494444E+04</rscale>
<asrwt>0</asrwt>
<pdfrwt beam="1">  1        2 0.33312317E+00 0.12494444E+04</pdfrwt>
<pdfrwt beam="2">  1       -2 0.27729518E-01 0.12494444E+04</pdfrwt>
<totfact> 0.63184072E+01</totfact>
</mgrwt>
</event>
<event>
 6    1  0.1934315E-005  0.2349837E+04  0.7818608E-02  0.8458526E-01
          2   -1    0    0  501    0  0.00000000000E+00  0.00000000000E+00  0.41339281062E+04  0.41339281062E+04  0.00000000000E+00 0.  1.
         -2   -1    0    0    0  501 -0.00000000000E+00 -0.00000000000E+00 -0.33392777815E+03  0.33392777815E+03  0.00000000000E+00 0. -1.
         23    2    1    2    0    0 -0.95041744714E+03 -0.56642198756E+03  0.11605963879E+04  0.16059368864E+04  0.89006266767E+02 0.  0.
         13    1    3    3    0    0 -0.85630939747E+03 -0.48028654320E+03  0.10098480262E+04  0.14084509163E+04  0.00000000000E+00 0.  1.
        -13    1    3    3    0    0 -0.94108049664E+02 -0.86135444360E+02  0.15074836175E+03  0.19748597003E+03  0.00000000000E+00 0. -1.
         22    1    1    2    0    0  0.95041744714E+03  0.56642198756E+03  0.26394039402E+04  0.28619189980E+04  0.00000000000E+00 0.  1.
<mgrwt>
<rscale>  0 0.23498370E+04</rscale>
<asrwt>0</asrwt>
<pdfrwt beam="1">  1        2 0.63598890E+00 0.23498370E+04</pdfrwt>
<pdfrwt beam="2">  1       -2 0.51373507E-01 0.23498370E+04</pdfrwt>
<totfact> 0.86167025E-01</totfact>
</mgrwt>
</event>
<event>
 6    1  0.1934315E-005  0.1669355E+04  0.7818608E-02  0.8779038E-01
          2   -1    0    0  501    0  0.00000000000E+00  0.00000000000E+00  0.89024856250E+03  0.89024856250E+03  0.00000000000E+00 0.  1.
         -2   -1    0    0    0  501 -0.00000000000E+00 -0.00000000000E+00 -0.78257497221E+03  0.78257497221E+03  0.00000000000E+00 0. -1.
         23    2    1    2    0    0 -0.42736451535E+03 -0.58009190640E+03 -0.36334940182E+03  0.81200432724E+03  0.90449935324E+02 0.  0.
         11    1    3    3    0    0 -0.26752445599E+03 -0.31224152685E+03 -0.24341623690E+03  0.47782378554E+03  0.00000000000E+00 0. -1.
        -11    1    3    3    0    0 -0.15984005936E+03 -0.26785037955E+03 -0.11993316492E+03  0.33418054170E+03  0.00000000000E+00 0.  1.
         22    1    1    2    0    0  0.42736451535E+03  0.58009190640E+03  0.47102299211E+03  0.86081920747E+03  0.00000000000E+00 0.  1.
<mgrwt>
<rscale>  0 0.16693547E+04</rscale>
<asrwt>0</asrwt>
<pdfrwt beam="1">  1        2 0.13696132E+00 0.16693547E+04</pdfrwt>
<pdfrwt beam="2">  1       -2 0.12039615E+00 0.16693547E+04</pdfrwt>
<totfact> 0.14955942E+01</totfact>
</mgrwt>
</event>
<event>
 6    1  0.1934315E-005  0.1162415E+04  0.7818608E-02  0.9146406E-01
         -2   -1    0    0    0  501 -0.00000000000E+00  0.00000000000E+00  0.22974639939E+03  0.22974639939E+03  0.00000000000E+00 0. -1.
          2   -1    0    0  501    0  0.00000000000E+00 -0.00000000000E+00 -0.14703271071E+04  0.14703271071E+04  0.00000000000E+00 0.  1.
         23    2    1    2    0    0  0.52499732443E+03  0.23641394277E+03 -0.66613161822E+03  0.88674362298E+03  0.10521015686E+03 0.  0.
         11    1    3    3    0    0  0.43730011582E+03  0.19180497031E+03 -0.60563521521E+03  0.77124221347E+03  0.00000000000E+00 0.  1.
        -11    1    3    3    0    0  0.87697208606E+02  0.44608972466E+02 -0.60496403008E+02  0.11550140951E+03  0.00000000000E+00 0. -1.
         22    1    1    2    0    0 -0.52499732443E+03 -0.23641394277E+03 -0.57444908948E+03  0.81332988350E+03  0.00000000000E+00 0.  1.
<mgrwt>
<rscale>  0 0.11624153E+04</rscale>
<asrwt>0</asrwt>
<pdfrwt beam="1">  1        2 0.22620418E+00 0.11624153E+04</pdfrwt>
<pdfrwt beam="2">  1       -2 0.35345599E-01 0.11624153E+04</pdfrwt>
<totfact> 0.98047320E+01</totfact>
</mgrwt>
</event>
<event>
 6    1  0.1934315E-005  0.1726643E+04  0.7818608E-02  0.8746313E-01
         -2   -1    0    0    0  501 -0.00000000000E+00  0.00000000000E+00  0.28333376333E+03  0.28333376333E+03  0.00000000000E+00 0. -1.
          2   -1    0    0  501    0  0.00000000000E+00 -0.00000000000E+00 -0.26305519894E+04  0.26305519894E+04  0.00000000000E+00 0.  1.
         23    2    1    2    0    0 -0.33069639023E+01 -0.25020228387E+03 -0.25670425868E+04  0.25808168883E+04  0.91082653151E+02 0.  0.
         11    1    3    3    0    0  0.35659787108E+02 -0.74271027254E+02 -0.10180963775E+04  0.10214245149E+04  0.00000000000E+00 0.  1.
        -11    1    3    3    0    0 -0.38966751010E+02 -0.17593125662E+03 -0.15489462093E+04  0.15593923734E+04  0.00000000000E+00 0. -1.
         22    1    1    2    0    0  0.33069639023E+01  0.25020228387E+03  0.21982436073E+03  0.33306886441E+03  0.00000000000E+00 0. -1.
<mgrwt>
<rscale>  0 0.17266432E+04</rscale>
<asrwt>0</asrwt>
<pdfrwt beam="1">  1        2 0.40470030E+00 0.17266432E+04</pdfrwt>
<pdfrwt beam="2">  1       -2 0.43589810E-01 0.17266432E+04</pdfrwt>
<totfact> 0.13866079E+01</totfact>
</mgrwt>
</event>
<event>
 6    1  0.1934315E-005  0.5320919E+04  0.7818608E-02  0.7780823E-01
          2   -1    0    0  501    0  0.00000000000E+00  0.00000000000E+00  0.27161612029E+04  0.27161612029E+04  0.00000000000E+00 0.  1.
         -2   -1    0    0    0  501 -0.00000000000E+00 -0.00000000000E+00 -0.26058998945E+04  0.26058998945E+04  0.00000000000E+00 0. -1.
         23    2    1    2    0    0 -0.11013240975E+04  0.27923803260E+03  0.24604511582E+04  0.27116433192E+04  0.91109505466E+02 0.  0.
         13    1    3    3    0    0 -0.16342207924E+03  0.49763484327E+02  0.29977010232E+03  0.34502941121E+03  0.00000000000E+00 0.  1.
        -13    1    3    3    0    0 -0.93790201830E+03  0.22947454827E+03  0.21606810559E+04  0.23666139080E+04  0.00000000000E+00 0. -1.
         22    1    1    2    0    0  0.11013240975E+04 -0.27923803260E+03 -0.23501898498E+04  0.26104177782E+04  0.00000000000E+00 0. -1.
<mgrwt>
<rscale>  0 0.53209188E+04</rscale>
<asrwt>0</asrwt>
<pdfrwt beam="1">  1        2 0.41787095E+00 0.53209188E+04</pdfrwt>
<pdfrwt beam="2">  1       -2 0.40090768E+00 0.53209188E+04</pdfrwt>
<totfact> 0.13508420E-02</totfact>
</mgrwt>
</event>
<event>
 6    1  0.1934315E-005  0.2804600E+04  0.7818608E-02  0.8301842E-01
          2   -1    0    0  501    0  0.00000000000E+00  0.00000000000E+00  0.24622154256E+04  0.24622154256E+04  0.00000000000E+00 0.  1.
         -2   -1    0    0    0  501 -0.00000000000E+00 -0.00000000000E+00 -0.79864897300E+03  0.79864897300E+03  0.00000000000E+00 0. -1.
         23    2    1    2    0    0 -0.33176009753E+03  0.11179381741E+04  0.17350206805E+04  0.20925509859E+04  0.92856573921E+02 0.  0.
         11    1    3    3    0    0 -0.19283360168E+03  0.52536959978E+03  0.77759898407E+03  0.95804916071E+03  0.00000000000E+00 0. -1.
        -11    1    3    3    0    0 -0.13892649586E+03  0.59256857437E+03  0.95742169645E+03  0.11345018252E+04  0.00000000000E+00 0.  1.
         22    1    1    2    0    0  0.33176009753E+03 -0.11179381741E+04 -0.71454227935E+02  0.11683134127E+04  0.00000000000E+00 0. -1.
<mgrwt>
<rscale>  0 0.28046004E+04</rscale>
<asrwt>0</asrwt>
<pdfrwt beam="1">  1        2 0.37880237E+00 0.28046004E+04</pdfrwt>
<pdfrwt beam="2">  1       -2 0.12286907E+00 0.28046004E+04</pdfrwt>
<totfact> 0.15937700E+00</totfact>
</mgrwt>
</event>
<event>
 6    1  0.1934315E-005  0.4689500E+04  0.7818608E-02  0.7878276E-01
          2   -1    0    0  501    0  0.00000000000E+00  0.00000000000E+00  0.28815017947E+04  0.28815017947E+04  0.00000000000E+00 0. -1.
         -2   -1    0    0    0  501 -0.00000000000E+00 -0.00000000000E+00 -0.19079814777E+04  0.19079814777E+04  0.00000000000E+00 0.  1.
         23    2    1    2    0    0 -0.21361911581E+04 -0.80928447514E+03  0.10228941350E+04  0.25045999494E+04  0.91948188945E+02 0.  0.
         13    1    3    3    0    0 -0.80963037514E+03 -0.30359281331E+03  0.33863388296E+03  0.92862416904E+03  0.00000000000E+00 0.  1.
        -13    1    3    3    0    0 -0.13265607830E+04 -0.50569166183E+03  0.68426025209E+03  0.15759757804E+04  0.00000000000E+00 0. -1.
         22    1    1    2    0    0  0.21361911581E+04  0.80928447514E+03 -0.49373818067E+02  0.22848833230E+04  0.00000000000E+00 0.  1.
<mgrwt>
<rscale>  0 0.46894998E+04</rscale>
<asrwt>0</asrwt>
<pdfrwt beam="1">  1        2 0.44330797E+00 0.46894998E+04</pdfrwt>
<pdfrwt beam="2">  1       -2 0.29353561E+00 0.46894998E+04</pdfrwt>
<totfact> 0.53560391E-02</totfact>
</mgrwt>
</event>
<event>
 6    1  0.1934315E-005  0.3214544E+04  0.7818608E-02  0.8184987E-01
         -2   -1    0    0    0  501 -0.00000000000E+00  0.00000000000E+00  0.14713552742E+04  0.14713552742E+04  0.00000000000E+00 0. -1.
          2   -1    0    0  501    0  0.00000000000E+00 -0.00000000000E+00 -0.17557435455E+04  0.17557435455E+04  0.00000000000E+00 0.  1.
         23    2    1    2    0    0  0.35807944928E+03 -0.34319479586E+03  0.13914670780E+04  0.14793875415E+04  0.80020678459E+02 0.  0.
         11    1    3    3    0    0  0.19702258436E+03 -0.16808124699E+03  0.83371219794E+03  0.87300929739E+03  0.00000000000E+00 0.  1.
        -11    1    3    3    0    0  0.16105686492E+03 -0.17511354888E+03  0.55775488004E+03  0.60637824413E+03  0.00000000000E+00 0. -1.
         22    1    1    2    0    0 -0.35807944928E+03  0.34319479586E+03 -0.16758553493E+04  0.17477112781E+04  0.00000000000E+00 0.  1.
<mgrwt>
<rscale>  0 0.32145435E+04</rscale>
<asrwt>0</asrwt>
<pdfrwt beam="1">  1        2 0.27011439E+00 0.32145435E+04</pdfrwt>
<pdfrwt beam="2">  1       -2 0.22636235E+00 0.32145435E+04</pdfrwt>
<totfact> 0.69208262E-01</totfact>
</mgrwt>
</event>
<event>
 6    1  0.1934315E-005  0.7274843E+03  0.7818608E-02  0.9671351E-01
         -2   -1    0    0    0  501 -0.00000000000E+00  0.00000000000E+00  0.10622009658E+03  0.10622009658E+03  0.00000000000E+00 0. -1.
          2   -1    0    0  501    0  0.00000000000E+00 -0.00000000000E+00 -0.12456057716E+04  0.12456057716E+04  0.00000000000E+00 0.  1.
         23    2    1    2    0    0 -0.29397659374E+03  0.19724130626E+03 -0.47903413347E+03  0.60256588061E+03  0.91025100300E+02 0.  0.
         11    1    3    3    0    0 -0.42813285937E+02  0.69889190322E+02 -0.83272899542E+02  0.11684114076E+03  0.00000000000E+00 0.  1.
        -11    1    3    3    0    0 -0.25116330780E+03  0.12735211594E+03 -0.39576123392E+03  0.48572473984E+03  0.00000000000E+00 0. -1.
         22    1    1    2    0    0  0.29397659374E+03 -0.19724130626E+03 -0.66035154159E+03  0.74925998762E+03  0.00000000000E+00 0.  1.
<mgrwt>
<rscale>  0 0.72748434E+03</rscale>
<asrwt>0</asrwt>
<pdfrwt beam="1">  1        2 0.19163166E+00 0.72748434E+03</pdfrwt>
<pdfrwt beam="2">  1       -2 0.16341553E-01 0.72748434E+03</pdfrwt>
<totfact> 0.54380631E+02</totfact>
</mgrwt>
</event>
<event>
 6    1  0.1934315E-005  0.3222787E+04  0.7818608E-02  0.8182825E-01
         -2   -1    0    0    0  501 -0.00000000000E+00  0.00000000000E+00  0.16387277609E+04  0.16387277609E+04  0.00000000000E+00 0. -1.
          2   -1    0    0  501    0  0.00000000000E+00 -0.00000000000E+00 -0.15845151072E+04  0.15845151072E+04  0.00000000000E+00 0.  1.
         23    2    1    2    0    0  0.14460425009E+04 -0.63648530498E+03  0.33759235837E+03  0.16181084454E+04  0.90298851209E+02 0.  0.
         13    1    3    3    0    0  0.63094289871E+03 -0.27024181031E+03  0.10149802233E+03  0.69384539057E+03  0.00000000000E+00 0.  1.
        -13    1    3    3    0    0  0.81509960222E+03 -0.36624349467E+03  0.23609433604E+03  0.92426305479E+03  0.00000000000E+00 0. -1.
         22    1    1    2    0    0 -0.14460425009E+04  0.63648530498E+03 -0.28337970475E+03  0.16051344227E+04  0.00000000000E+00 0. -1.
<mgrwt>
<rscale>  0 0.32227869E+04</rscale>
<asrwt>0</asrwt>
<pdfrwt beam="1">  1        2 0.24377155E+00 0.32227869E+04</pdfrwt>
<pdfrwt beam="2">  1       -2 0.25211196E+00 0.32227869E+04</pdfrwt>
<totfact> 0.59638550E-01</totfact>
</mgrwt>
</event>
<event>
 6    1  0.1934315E-005  0.4705314E+04  0.7818608E-02  0.7875646E-01
         -2   -1    0    0    0  501 -0.00000000000E+00  0.00000000000E+00  0.24318086124E+04  0.24318086124E+04  0.00000000000E+00 0. -1.
          2   -1    0    0  501    0  0.00000000000E+00 -0.00000000000E+00 -0.22760817203E+04  0.22760817203E+04  0.00000000000E+00 0.  1.
         23    2    1    2    0    0 -0.84065894232E+03  0.19951581941E+04 -0.83981588688E+03  0.23249364721E+04  0.11258418363E+03 0.  0.
         11    1    3    3    0    0 -0.53529797991E+03  0.14006227869E+04 -0.59385079048E+03  0.16127451379E+04  0.00000000000E+00 0. -1.
        -11    1    3    3    0    0 -0.30536096242E+03  0.59453540723E+03 -0.24596509639E+03  0.71219133417E+03  0.00000000000E+00 0.  1.
         22    1    1    2    0    0  0.84065894232E+03 -0.19951581941E+04  0.99554277904E+03  0.23829538606E+04  0.00000000000E+00 0. -1.
<mgrwt>
<rscale>  0 0.47053141E+04</rscale>
<asrwt>0</asrwt>
<pdfrwt beam="1">  1        2 0.35016642E+00 0.47053141E+04</pdfrwt>
<pdfrwt beam="2">  1       -2 0.37412440E+00 0.47053141E+04</pdfrwt>
<totfact> 0.38084218E-02</totfact>
</mgrwt>
</event>
<event>
 6    1  0.1934315E-005  0.2736736E+04  0.7818608E-02  0.8323183E-01
         -2   -1    0    0    0  501 -0.00000000000E+00  0.00000000000E+00  0.70726618976E+03  0.70726618976E+03  0.00000000000E+00 0. -1.
          2   -1    0    0  501    0  0.00000000000E+00 -0.00000000000E+00 -0.26474198087E+04  0.26474198087E+04  0.00000000000E+00 0.  1.
         23    2    1    2    0    0  0.70344067117E+03 -0.10859403329E+04 -0.15113452957E+04  0.19916116195E+04  0.90868343134E+02 0.  0.
         11    1    3    3    0    0  0.13180326545E+03 -0.14586694920E+03 -0.21583513242E+03  0.29194874900E+03  0.00000000000E+00 0. -1.
        -11    1    3    3    0    0  0.57163740572E+03 -0.94007338366E+03 -0.12955101633E+04  0.16996628705E+04  0.00000000000E+00 0.  1.
         22    1    1    2    0    0 -0.70344067117E+03  0.10859403329E+04 -0.42880832320E+03  0.13630743789E+04  0.00000000000E+00 0. -1.
<mgrwt>
<rscale>  0 0.27367357E+04</rscale>
<asrwt>0</asrwt>
<pdfrwt beam="1">  1        2 0.40729535E+00 0.27367357E+04</pdfrwt>
<pdfrwt beam="2">  1       -2 0.10881019E+00 0.27367357E+04</pdfrwt>
<totfact> 0.16830624E+00</totfact>
</mgrwt>
</event>
<event>
 6    1  0.1934315E-005  0.2873799E+04  0.7818608E-02  0.8280716E-01
         -2   -1    0    0    0  501 -0.00000000000E+00  0.00000000000E+00  0.85179774211E+03  0.85179774211E+03  0.00000000000E+00 0. -1.
          2   -1    0    0  501    0  0.00000000000E+00 -0.00000000000E+00 -0.24239091744E+04  0.24239091744E+04  0.00000000000E+00 0.  1.
         23    2    1    2    0    0  0.91121716430E+02  0.14311253383E+04 -0.71406357918E+03  0.16045788486E+04  0.91452637524E+02 0.  0.
         13    1    3    3    0    0 -0.57152120281E+01  0.35532981105E+03 -0.20787081375E+03  0.41170646519E+03  0.00000000000E+00 0.  1.
        -13    1    3    3    0    0  0.96836928458E+02  0.10757955273E+04 -0.50619276543E+03  0.11928723834E+04  0.00000000000E+00 0. -1.
         22    1    1    2    0    0 -0.91121716430E+02 -0.14311253383E+04 -0.85804785308E+03  0.16711280679E+04  0.00000000000E+00 0. -1.
<mgrwt>
<rscale>  0 0.28737991E+04</rscale>
<asrwt>0</asrwt>
<pdfrwt beam="1">  1        2 0.37290910E+00 0.28737991E+04</pdfrwt>
<pdfrwt beam="2">  1       -2 0.13104581E+00 0.28737991E+04</pdfrwt>
<totfact> 0.14174991E+00</totfact>
</mgrwt>
</event>
<event>
 6    1  0.1934315E-005  0.1583112E+04  0.7818608E-02  0.8830990E-01
          2   -1    0    0  501    0  0.00000000000E+00  0.00000000000E+00  0.13453507778E+04  0.13453507778E+04  0.00000000000E+00 0.  1.
         -2   -1    0    0    0  501 -0.00000000000E+00 -0.00000000000E+00 -0.46572326876E+03  0.46572326876E+03  0.00000000000E+00 0. -1.
         23    2    1    2    0    0 -0.62312953262E+03  0.41916213264E+03  0.71826713660E+03  0.10429435383E+04  0.88522520983E+02 0.  0.
         13    1    3    3    0    0 -0.41172377749E+03  0.30129388688E+03  0.43601098484E+03  0.67111850974E+03  0.00000000000E+00 0. -1.
        -13    1    3    3    0    0 -0.21140575513E+03  0.11786824576E+03  0.28225615176E+03  0.37182502856E+03  0.00000000000E+00 0.  1.
         22    1    1    2    0    0  0.62312953262E+03 -0.41916213264E+03  0.16136037240E+03  0.76813050821E+03  0.00000000000E+00 0. -1.
<mgrwt>
<rscale>  0 0.15831123E+04</rscale>
<asrwt>0</asrwt>
<pdfrwt beam="1">  1        2 0.20697704E+00 0.15831123E+04</pdfrwt>
<pdfrwt beam="2">  1       -2 0.71649735E-01 0.15831123E+04</pdfrwt>
<totfact> 0.26386788E+01</totfact>
</mgrwt>
</event>
<event>
 6    1  0.1934315E-005  0.2306575E+04  0.7818608E-02  0.8475333E-01
         -2   -1    0    0    0  501 -0.00000000000E+00  0.00000000000E+00  0.43988263886E+03  0.43988263886E+03  0.00000000000E+00 0. -1.
          2   -1    0    0  501    0  0.00000000000E+00 -0.00000000000E+00 -0.30236964179E+04  0.30236964179E+04  0.00000000000E+00 0.  1.
         23    2    1    2    0    0 -0.94118974845E+03  0.38808637224E+03 -0.21018124886E+04  0.23371801848E+04  0.91358107736E+02 0.  0.
         13    1    3    3    0    0 -0.49595063281E+03  0.25057988411E+03 -0.11065071068E+04  0.12381903270E+04  0.00000000000E+00 0. -1.
        -13    1    3    3    0    0 -0.44523911564E+03  0.13750648813E+03 -0.99530538180E+03  0.10989898577E+04  0.00000000000E+00 0.  1.
         22    1    1    2    0    0  0.94118974845E+03 -0.38808637224E+03 -0.48200129044E+03  0.11263988720E+04  0.00000000000E+00 0. -1.
<mgrwt>
<rscale>  0 0.23065746E+04</rscale>
<asrwt>0</asrwt>
<pdfrwt beam="1">  1        2 0.46518407E+00 0.23065746E+04</pdfrwt>
<pdfrwt beam="2">  1       -2 0.67674251E-01 0.23065746E+04</pdfrwt>
<totfact> 0.30530085E+00</totfact>
</mgrwt>
</event>
<event>
 6    1  0.1934315E-005  0.2444292E+04  0.7818608E-02  0.8423105E-01
         -2   -1    0    0    0  501 -0.00000000000E+00  0.00000000000E+00  0.10839763245E+04  0.10839763245E+04  0.00000000000E+00 0. -1.
          2   -1    0    0  501    0  0.00000000000E+00 -0.00000000000E+00 -0.13779276548E+04  0.13779276548E+04  0.00000000000E+00 0.  1.
         23    2    1    2    0    0  0.10881624973E+04 -0.11300624429E+03 -0.69192525618E+03  0.12977513787E+04  0.92358264273E+02 0.  0.
         13    1    3    3    0    0  0.81473349450E+03 -0.46554706040E+02 -0.53070134579E+03  0.97344847123E+03  0.00000000000E+00 0. -1.
        -13    1    3    3    0    0  0.27342900278E+03 -0.66451538251E+02 -0.16122391040E+03  0.32430290745E+03  0.00000000000E+00 0.  1.
         22    1    1    2    0    0 -0.10881624973E+04  0.11300624429E+03  0.39797392591E+03  0.11641526006E+04  0.00000000000E+00 0. -1.
<mgrwt>
<rscale>  0 0.24442921E+04</rscale>
<asrwt>0</asrwt>
<pdfrwt beam="1">  1        2 0.21198887E+00 0.24442921E+04</pdfrwt>
<pdfrwt beam="2">  1       -2 0.16676559E+00 0.24442921E+04</pdfrwt>
<totfact> 0.30014187E+00</totfact>
</mgrwt>
</event>
<event>
 6    1  0.1934315E-005  0.8299900E+03  0.7818608E-02  0.9517594E-01
          2   -1    0    0  501    0  0.00000000000E+00  0.00000000000E+00  0.16986033532E+04  0.16986033532E+04  0.00000000000E+00 0.  1.
         -2   -1    0    0    0  501 -0.00000000000E+00 -0.00000000000E+00 -0.10138966851E+03  0.10138966851E+03  0.00000000000E+00 0. -1.
         23    2    1    2    0    0 -0.21984144223E+03 -0.22407843012E+03  0.23613231877E+03  0.40318097737E+03  0.90857173547E+02 0.  0.
         13    1    3    3    0    0 -0.16830202139E+02 -0.31159335714E+02  0.67629490535E+02  0.76340735497E+02  0.00000000000E+00 0.  1.
        -13    1    3    3    0    0 -0.20301124009E+03 -0.19291909440E+03  0.16850282823E+03  0.32684024188E+03  0.00000000000E+00 0. -1.
         22    1    1    2    0    0  0.21984144223E+03  0.22407843012E+03  0.13610813660E+04  0.13968120444E+04  0.00000000000E+00 0.  1.
<mgrwt>
<rscale>  0 0.82998995E+03</rscale>
<asrwt>0</asrwt>
<pdfrwt beam="1">  1        2 0.26132357E+00 0.82998995E+03</pdfrwt>
<pdfrwt beam="2">  1       -2 0.15598412E-01 0.82998995E+03</pdfrwt>
<totfact> 0.32572537E+02</totfact>
</mgrwt>
</event>
<event>
 6    1  0.1934315E-005  0.1530847E+04  0.7818608E-02  0.8864195E-01
          2   -1    0    0  501    0  0.00000000000E+00  0.00000000000E+00  0.20428404044E+04  0.20428404044E+04  0.00000000000E+00 0.  1.
         -2   -1    0    0    0  501 -0.00000000000E+00 -0.00000000000E+00 -0.28679343915E+03  0.28679343915E+03  0.00000000000E+00 0. -1.
         23    2    1    2    0    0  0.57679466206E+03 -0.23879385241E+03  0.21409566919E+03  0.66610494824E+03  0.90245555998E+02 0.  0.
         11    1    3    3    0    0  0.42180770117E+03 -0.13755602097E+03  0.17477110701E+03  0.47685253015E+03  0.00000000000E+00 0. -1.
        -11    1    3    3    0    0  0.15498696089E+03 -0.10123783144E+03  0.39324562177E+02  0.18925241809E+03  0.00000000000E+00 0.  1.
         22    1    1    2    0    0 -0.57679466206E+03  0.23879385241E+03  0.15419512961E+04  0.16635288953E+04  0.00000000000E+00 0. -1.
<mgrwt>
<rscale>  0 0.15308471E+04</rscale>
<asrwt>0</asrwt>
<pdfrwt beam="1">  1        2 0.31428313E+00 0.15308471E+04</pdfrwt>
<pdfrwt beam="2">  1       -2 0.44122069E-01 0.15308471E+04</pdfrwt>
<totfact> 0.29708670E+01</totfact>
</mgrwt>
</event>
<event>
 6    1  0.1934315E-005  0.2588100E+04  0.7818608E-02  0.8372255E-01
         -1   -1    0    0    0  501 -0.00000000000E+00  0.00000000000E+00  0.88378552617E+03  0.88378552617E+03  0.00000000000E+00 0. -1.
          1   -1    0    0  501    0  0.00000000000E+00 -0.00000000000E+00 -0.18947645077E+04  0.18947645077E+04  0.00000000000E+00 0.  1.
         23    2    1    2    0    0  0.12884446913E+03  0.99536659581E+03 -0.13802703272E+04  0.17090961287E+04  0.92237973566E+02 0.  0.
         11    1    3    3    0    0  0.69831192696E+02  0.44344221092E+03 -0.54281862771E+03  0.70439296737E+03  0.00000000000E+00 0. -1.
        -11    1    3    3    0    0  0.59013276429E+02  0.55192438489E+03 -0.83745169948E+03  0.10047031613E+04  0.00000000000E+00 0.  1.
         22    1    1    2    0    0 -0.12884446913E+03 -0.99536659581E+03  0.36929134566E+03  0.10694539052E+04  0.00000000000E+00 0. -1.
<mgrwt>
<rscale>  0 0.25881000E+04</rscale>
<asrwt>0</asrwt>
<pdfrwt beam="1">  1        1 0.29150223E+00 0.25881000E+04</pdfrwt>
<pdfrwt beam="2">  1       -1 0.13596700E+00 0.25881000E+04</pdfrwt>
<totfact> 0.14005273E+00</totfact>
</mgrwt>
</event>
<event>
 6    1  0.1934315E-005  0.2604067E+04  0.7818608E-02  0.8366821E-01
         -2   -1    0    0    0  501 -0.00000000000E+00  0.00000000000E+00  0.18847661238E+04  0.18847661238E+04  0.00000000000E+00 0. -1.
          2   -1    0    0  501    0  0.00000000000E+00 -0.00000000000E+00 -0.89947032855E+03  0.89947032855E+03  0.00000000000E+00 0.  1.
         23    2    1    2    0    0 -0.11921982472E+04 -0.28845141901E+03  0.95509605037E+03  0.15572674608E+04  0.91283062190E+02 0.  0.
         11    1    3    3    0    0 -0.10156343423E+04 -0.21169131308E+03  0.80553640780E+03  0.13134744891E+04  0.00000000000E+00 0. -1.
        -11    1    3    3    0    0 -0.17656390483E+03 -0.76760105937E+02  0.14955964257E+03  0.24379297167E+03  0.00000000000E+00 0.  1.
         22    1    1    2    0    0  0.11921982472E+04  0.28845141901E+03  0.30199744894E+02  0.12269689916E+04  0.00000000000E+00 0.  1.
<mgrwt>
<rscale>  0 0.26040670E+04</rscale>
<asrwt>0</asrwt>
<pdfrwt beam="1">  1        2 0.13838005E+00 0.26040670E+04</pdfrwt>
<pdfrwt beam="2">  1       -2 0.28996402E+00 0.26040670E+04</pdfrwt>
<totfact> 0.95000431E-01</totfact>
</mgrwt>
</event>
<event>
 6    1  0.1934315E-005  0.3102006E+04  0.7818608E-02  0.8215188E-01
          2   -1    0    0  501    0  0.00000000000E+00  0.00000000000E+00  0.30827625762E+04  0.30827625762E+04  0.00000000000E+00 0.  1.
         -2   -1    0    0    0  501 -0.00000000000E+00 -0.00000000000E+00 -0.78034238208E+03  0.78034238208E+03  0.00000000000E+00 0. -1.
         23    2    1    2    0    0  0.28801349749E+03  0.14699380447E+04  0.65754849456E+03  0.16384089031E+04  0.91345942211E+02 0.  0.
         13    1    3    3    0    0  0.17817410500E+03  0.95545015719E+03  0.47289645470E+03  0.10808617263E+04  0.00000000000E+00 0. -1.
        -13    1    3    3    0    0  0.10983939249E+03  0.51448788748E+03  0.18465203986E+03  0.55754717678E+03  0.00000000000E+00 0.  1.
         22    1    1    2    0    0 -0.28801349749E+03 -0.14699380447E+04  0.16448716996E+04  0.22246960552E+04  0.00000000000E+00 0.  1.
<mgrwt>
<rscale>  0 0.31020060E+04</rscale>
<asrwt>0</asrwt>
<pdfrwt beam="1">  1        2 0.47427116E+00 0.31020060E+04</pdfrwt>
<pdfrwt beam="2">  1       -2 0.12005268E+00 0.31020060E+04</pdfrwt>
<totfact> 0.69446140E-01</totfact>
</mgrwt>
</event>
<event>
 6    1  0.1934315E-005  0.1559713E+04  0.7818608E-02  0.8845687E-01
         -2   -1    0    0    0  501 -0.00000000000E+00  0.00000000000E+00  0.19955436173E+03  0.19955436173E+03  0.00000000000E+00 0. -1.
          2   -1    0    0  501    0  0.00000000000E+00 -0.00000000000E+00 -0.30476714813E+04  0.30476714813E+04  0.00000000000E+00 0.  1.
         23    2    1    2    0    0 -0.74923139044E+03 -0.11103871462E+03 -0.17900734385E+04  0.19460211306E+04  0.94646991475E+02 0.  0.
         13    1    3    3    0    0 -0.17125694896E+03 -0.66111652129E+02 -0.43535516213E+03  0.47247625370E+03  0.00000000000E+00 0.  1.
        -13    1    3    3    0    0 -0.57797444148E+03 -0.44927062491E+02 -0.13547182764E+04  0.14735448769E+04  0.00000000000E+00 0. -1.
         22    1    1    2    0    0  0.74923139044E+03  0.11103871462E+03 -0.10580436811E+04  0.13012047124E+04  0.00000000000E+00 0. -1.
<mgrwt>
<rscale>  0 0.15597130E+04</rscale>
<asrwt>0</asrwt>
<pdfrwt beam="1">  1        2 0.46887253E+00 0.15597130E+04</pdfrwt>
<pdfrwt beam="2">  1       -2 0.30700671E-01 0.15597130E+04</pdfrwt>
<totfact> 0.15455661E+01</totfact>
</mgrwt>
</event>
<event>
 6    1  0.1934315E-005  0.6699408E+03  0.7818608E-02  0.9770065E-01
          2   -1    0    0  501    0  0.00000000000E+00  0.00000000000E+00  0.19854020814E+04  0.19854020814E+04  0.00000000000E+00 0.  1.
         -2   -1    0    0    0  501 -0.00000000000E+00 -0.00000000000E+00 -0.56515092634E+02  0.56515092634E+02  0.00000000000E+00 0. -1.
         23    2    1    2    0    0  0.26679553849E+03 -0.15282340574E+03  0.13383224181E+04  0.13761083691E+04  0.89624192137E+02 0.  0.
         13    1    3    3    0    0  0.12827709881E+03 -0.11935075185E+03  0.65087634236E+03  0.67404720093E+03  0.00000000000E+00 0. -1.
        -13    1    3    3    0    0  0.13851843968E+03 -0.33472653892E+02  0.68744607577E+03  0.70206116812E+03  0.00000000000E+00 0.  1.
         22    1    1    2    0    0 -0.26679553849E+03  0.15282340574E+03  0.59056457068E+03  0.66580880502E+03  0.00000000000E+00 0. -1.
<mgrwt>
<rscale>  0 0.66994084E+03</rscale>
<asrwt>0</asrwt>
<pdfrwt beam="1">  1        2 0.30544642E+00 0.66994084E+03</pdfrwt>
<pdfrwt beam="2">  1       -2 0.86946312E-02 0.66994084E+03</pdfrwt>
<totfact> 0.60287806E+02</totfact>
</mgrwt>
</event>
<event>
 6    1  0.1934315E-005  0.1740456E+04  0.7818608E-02  0.8738621E-01
          2   -1    0    0  501    0  0.00000000000E+00  0.00000000000E+00  0.77756888800E+03  0.77756888800E+03  0.00000000000E+00 0.  1.
         -2   -1    0    0    0  501 -0.00000000000E+00 -0.00000000000E+00 -0.97392914542E+03  0.97392914542E+03  0.00000000000E+00 0. -1.
         23    2    1    2    0    0  0.13075012935E+03 -0.24019545220E+03  0.73024212820E+03  0.78538135692E+03  0.93706234747E+02 0.  0.
         11    1    3    3    0    0  0.12795509933E+03 -0.23270812423E+03  0.61532760475E+03  0.67018925662E+03  0.00000000000E+00 0. -1.
        -11    1    3    3    0    0  0.27950300186E+01 -0.74873279722E+01  0.11491452345E+03  0.11519210030E+03  0.00000000000E+00 0.  1.
         22    1    1    2    0    0 -0.13075012935E+03  0.24019545220E+03 -0.92660238561E+03  0.96611667649E+03  0.00000000000E+00 0. -1.
<mgrwt>
<rscale>  0 0.17404563E+04</rscale>
<asrwt>0</asrwt>
<pdfrwt beam="1">  1        2 0.11962598E+00 0.17404563E+04</pdfrwt>
<pdfrwt beam="2">  1       -2 0.14983525E+00 0.17404563E+04</pdfrwt>
<totfact> 0.10190979E+01</totfact>
</mgrwt>
</event>
<event>
 6    1  0.1934315E-005  0.2320764E+04  0.7818608E-02  0.8469779E-01
         -2   -1    0    0    0  501 -0.00000000000E+00  0.00000000000E+00  0.81790488915E+03  0.81790488915E+03  0.00000000000E+00 0. -1.
          2   -1    0    0  501    0  0.00000000000E+00 -0.00000000000E+00 -0.16462629451E+04  0.16462629451E+04  0.00000000000E+00 0.  1.
         23    2    1    2    0    0  0.80000075202E+03  0.17397147474E+03 -0.12852066813E+04  0.15266295984E+04  0.92598271856E+02 0.  0.
         13    1    3    3    0    0  0.45532191947E+03  0.86979354776E+02 -0.80859625052E+03  0.93204686301E+03  0.00000000000E+00 0.  1.
        -13    1    3    3    0    0  0.34467883255E+03  0.86992119965E+02 -0.47661043074E+03  0.59458273540E+03  0.00000000000E+00 0. -1.
         22    1    1    2    0    0 -0.80000075202E+03 -0.17397147474E+03  0.45684862529E+03  0.93753823585E+03  0.00000000000E+00 0. -1.
<mgrwt>
<rscale>  0 0.23207641E+04</rscale>
<asrwt>0</asrwt>
<pdfrwt beam="1">  1        2 0.25327122E+00 0.23207641E+04</pdfrwt>
<pdfrwt beam="2">  1       -2 0.12583152E+00 0.23207641E+04</pdfrwt>
<totfact> 0.44850471E+00</totfact>
</mgrwt>
</event>
<event>
 6    1  0.1934315E-005  0.3647937E+04  0.7818608E-02  0.8079598E-01
          1   -1    0    0  501    0  0.00000000000E+00  0.00000000000E+00  0.36610489069E+04  0.36610489069E+04  0.00000000000E+00 0.  1.
         -1   -1    0    0    0  501 -0.00000000000E+00 -0.00000000000E+00 -0.90871820237E+03  0.90871820237E+03  0.00000000000E+00 0. -1.
         23    2    1    2    0    0 -0.32031618181E+03  0.13081934687E+04 -0.16172544918E+03  0.13595185402E+04  0.90348947735E+02 0.  0.
         11    1    3    3    0    0 -0.26995823379E+03  0.10711983310E+04 -0.16659895162E+03  0.11171832988E+04  0.00000000000E+00 0.  1.
        -11    1    3    3    0    0 -0.50357948016E+02  0.23699513770E+03  0.48735024374E+01  0.24233524145E+03  0.00000000000E+00 0. -1.
         22    1    1    2    0    0  0.32031618181E+03 -0.13081934687E+04  0.29140561537E+04  0.32102485690E+04  0.00000000000E+00 0.  1.
<mgrwt>
<rscale>  0 0.36479374E+04</rscale>
<asrwt>0</asrwt>
<pdfrwt beam="1">  1        1 0.56323829E+00 0.36479374E+04</pdfrwt>
<pdfrwt beam="2">  1       -1 0.13980280E+00 0.36479374E+04</pdfrwt>
<totfact> 0.62819008E-02</totfact>
</mgrwt>
</event>
<event>
 6    1  0.1934315E-005  0.4185975E+04  0.7818608E-02  0.7968045E-01
          2   -1    0    0  501    0  0.00000000000E+00  0.00000000000E+00  0.39785656652E+04  0.39785656652E+04  0.00000000000E+00 0.  1.
         -2   -1    0    0    0  501 -0.00000000000E+00 -0.00000000000E+00 -0.11010491576E+04  0.11010491576E+04  0.00000000000E+00 0. -1.
         23    2    1    2    0    0  0.17334236854E+04 -0.87384398660E+03  0.23865434214E+04  0.30772623171E+04  0.74785559740E+02 0.  0.
         13    1    3    3    0    0  0.78600192112E+03 -0.39894610593E+03  0.10249579503E+04  0.13518490357E+04  0.00000000000E+00 0. -1.
        -13    1    3    3    0    0  0.94742176429E+03 -0.47489788067E+03  0.13615854710E+04  0.17254132814E+04  0.00000000000E+00 0.  1.
         22    1    1    2    0    0 -0.17334236854E+04  0.87384398660E+03  0.49097308627E+03  0.20023525058E+04  0.00000000000E+00 0.  1.
<mgrwt>
<rscale>  0 0.41859749E+04</rscale>
<asrwt>0</asrwt>
<pdfrwt beam="1">  1        2 0.61208702E+00 0.41859749E+04</pdfrwt>
<pdfrwt beam="2">  1       -2 0.16939218E+00 0.41859749E+04</pdfrwt>
<totfact> 0.59337864E-02</totfact>
</mgrwt>
</event>
<event>
 6    1  0.1934315E-005  0.3530683E+04  0.7818608E-02  0.8106557E-01
          2   -1    0    0  501    0  0.00000000000E+00  0.00000000000E+00  0.24774388587E+04  0.24774388587E+04  0.00000000000E+00 0.  1.
         -2   -1    0    0    0  501 -0.00000000000E+00 -0.00000000000E+00 -0.12579242942E+04  0.12579242942E+04  0.00000000000E+00 0. -1.
         23    2    1    2    0    0  0.76608447457E+03 -0.11352849845E+04 -0.56618288301E+03  0.14849247973E+04  0.93172841710E+02 0.  0.
         11    1    3    3    0    0  0.15360964262E+03 -0.16596833671E+03 -0.93508737340E+02  0.24471472177E+03  0.00000000000E+00 0.  1.
        -11    1    3    3    0    0  0.61247483195E+03 -0.96931664779E+03 -0.47267414567E+03  0.12402100755E+04  0.00000000000E+00 0. -1.
         22    1    1    2    0    0 -0.76608447457E+03  0.11352849845E+04  0.17856974475E+04  0.22504383555E+04  0.00000000000E+00 0.  1.
<mgrwt>
<rscale>  0 0.35306830E+04</rscale>
<asrwt>0</asrwt>
<pdfrwt beam="1">  1        2 0.38114444E+00 0.35306830E+04</pdfrwt>
<pdfrwt beam="2">  1       -2 0.19352681E+00 0.35306830E+04</pdfrwt>
<totfact> 0.43162319E-01</totfact>
</mgrwt>
</event>
<event>
 6    1  0.1934315E-005  0.2968187E+04  0.7818608E-02  0.8252874E-01
          2   -1    0    0  501    0  0.00000000000E+00  0.00000000000E+00  0.15188807047E+04  0.15188807047E+04  0.00000000000E+00 0.  1.
         -2   -1    0    0    0  501 -0.00000000000E+00 -0.00000000000E+00 -0.14501031750E+04  0.14501031750E+04  0.00000000000E+00 0. -1.
         23    2    1    2    0    0 -0.44801614669E+03 -0.16419235083E+03  0.14385699461E+04  0.15184636766E+04  0.92578894664E+02 0.  0.
         11    1    3    3    0    0 -0.22246518162E+03 -0.86079191398E+02  0.86305249772E+03  0.89541051928E+03  0.00000000000E+00 0.  1.
        -11    1    3    3    0    0 -0.22555096507E+03 -0.78113159435E+02  0.57551744836E+03  0.62305315735E+03  0.00000000000E+00 0. -1.
         22    1    1    2    0    0  0.44801614669E+03  0.16419235083E+03 -0.13697924164E+04  0.14505202031E+04  0.00000000000E+00 0. -1.
<mgrwt>
<rscale>  0 0.29681871E+04</rscale>
<asrwt>0</asrwt>
<pdfrwt beam="1">  1        2 0.23367396E+00 0.29681871E+04</pdfrwt>
<pdfrwt beam="2">  1       -2 0.22309280E+00 0.29681871E+04</pdfrwt>
<totfact> 0.10044483E+00</totfact>
</mgrwt>
</event>
<event>
 6    1  0.1934315E-005  0.6436715E+03  0.7818608E-02  0.9818727E-01
          2   -1    0    0  501    0  0.00000000000E+00  0.00000000000E+00  0.12894674994E+03  0.12894674994E+03  0.00000000000E+00 0.  1.
         -2   -1    0    0    0  501 -0.00000000000E+00 -0.00000000000E+00 -0.80326380672E+03  0.80326380672E+03  0.00000000000E+00 0. -1.
         23    2    1    2    0    0  0.12382936937E+03  0.19094615736E+03 -0.66007654095E+03  0.70418218119E+03  0.91527900994E+02 0.  0.
         11    1    3    3    0    0  0.96629751409E+01  0.69616488602E+02 -0.12080070013E+03  0.13975921338E+03  0.00000000000E+00 0.  1.
        -11    1    3    3    0    0  0.11416639423E+03  0.12132966876E+03 -0.53927584082E+03  0.56442296781E+03  0.00000000000E+00 0. -1.
         22    1    1    2    0    0 -0.12382936937E+03 -0.19094615736E+03 -0.14240515823E+02  0.22802837547E+03  0.00000000000E+00 0.  1.
<mgrwt>
<rscale>  0 0.64367152E+03</rscale>
<asrwt>0</asrwt>
<pdfrwt beam="1">  1        2 0.19837961E-01 0.64367152E+03</pdfrwt>
<pdfrwt beam="2">  1       -2 0.12357905E+00 0.64367152E+03</pdfrwt>
<totfact> 0.14338155E+02</totfact>
</mgrwt>
</event>
<event>
 6    1  0.1934315E-005  0.2237946E+04  0.7818608E-02  0.8502798E-01
         -2   -1    0    0    0  501 -0.00000000000E+00  0.00000000000E+00  0.40942764258E+03  0.40942764258E+03  0.00000000000E+00 0. -1.
          2   -1    0    0  501    0  0.00000000000E+00 -0.00000000000E+00 -0.30581726664E+04  0.30581726664E+04  0.00000000000E+00 0.  1.
         23    2    1    2    0    0  0.42049167667E+03 -0.58293453280E+03 -0.26515475349E+04  0.27488279015E+04  0.93405472904E+02 0.  0.
         11    1    3    3    0    0  0.18757049886E+03 -0.26923635285E+03 -0.13875141092E+04  0.14257862073E+04  0.00000000000E+00 0.  1.
        -11    1    3    3    0    0  0.23292117781E+03 -0.31369817996E+03 -0.12640334257E+04  0.13230416941E+04  0.00000000000E+00 0. -1.
         22    1    1    2    0    0 -0.42049167667E+03  0.58293453280E+03  0.28025111097E+01  0.71877240748E+03  0.00000000000E+00 0. -1.
<mgrwt>
<rscale>  0 0.22379459E+04</rscale>
<asrwt>0</asrwt>
<pdfrwt beam="1">  1        2 0.47048811E+00 0.22379459E+04</pdfrwt>
<pdfrwt beam="2">  1       -2 0.62988867E-01 0.22379459E+04</pdfrwt>
<totfact> 0.34092781E+00</totfact>
</mgrwt>
</event>
<event>
 6    1  0.1934315E-005  0.2240996E+04  0.7818608E-02  0.8501556E-01
         -2   -1    0    0    0  501 -0.00000000000E+00  0.00000000000E+00  0.68243978380E+03  0.68243978380E+03  0.00000000000E+00 0. -1.
          2   -1    0    0  501    0  0.00000000000E+00 -0.00000000000E+00 -0.18397452637E+04  0.18397452637E+04  0.00000000000E+00 0.  1.
         23    2    1    2    0    0 -0.73679214609E+03  0.57138259421E+03 -0.12755187845E+04  0.15823365912E+04  0.86603595967E+02 0.  0.
         13    1    3    3    0    0 -0.23650269720E+03  0.15080702135E+03 -0.43533293833E+03  0.51787165463E+03  0.00000000000E+00 0. -1.
        -13    1    3    3    0    0 -0.50028944888E+03  0.42057557285E+03 -0.84018584613E+03  0.10644649366E+04  0.00000000000E+00 0.  1.
         22    1    1    2    0    0  0.73679214609E+03 -0.57138259421E+03  0.11821330453E+03  0.93984845633E+03  0.00000000000E+00 0. -1.
<mgrwt>
<rscale>  0 0.22409956E+04</rscale>
<asrwt>0</asrwt>
<pdfrwt beam="1">  1        2 0.28303773E+00 0.22409956E+04</pdfrwt>
<pdfrwt beam="2">  1       -2 0.10499074E+00 0.22409956E+04</pdfrwt>
<totfact> 0.54932326E+00</totfact>
</mgrwt>
</event>
<event>
 6    1  0.1934315E-005  0.4643658E+04  0.7818608E-02  0.7885958E-01
          2   -1    0    0  501    0  0.00000000000E+00  0.00000000000E+00  0.33006577020E+04  0.33006577020E+04  0.00000000000E+00 0.  1.
         -2   -1    0    0    0  501 -0.00000000000E+00 -0.00000000000E+00 -0.16332775611E+04  0.16332775611E+04  0.00000000000E+00 0. -1.
         23    2    1    2    0    0  0.17281617004E+04  0.13833095685E+04  0.15750065917E+04  0.27183944492E+04  0.94521915099E+02 0.  0.
         13    1    3    3    0    0  0.25730171895E+03  0.23604843162E+03  0.21794636188E+03  0.41161104613E+03  0.00000000000E+00 0.  1.
        -13    1    3    3    0    0  0.14708599815E+04  0.11472611369E+04  0.13570602298E+04  0.23067834031E+04  0.00000000000E+00 0. -1.
         22    1    1    2    0    0 -0.17281617004E+04 -0.13833095685E+04  0.92373549144E+02  0.22155408138E+04  0.00000000000E+00 0. -1.
<mgrwt>
<rscale>  0 0.46436581E+04</rscale>
<asrwt>0</asrwt>
<pdfrwt beam="1">  1        2 0.50779349E+00 0.46436581E+04</pdfrwt>
<pdfrwt beam="2">  1       -2 0.25127347E+00 0.46436581E+04</pdfrwt>
<totfact> 0.52532098E-02</totfact>
</mgrwt>
</event>
<event>
 6    1  0.1934315E-005  0.1798046E+04  0.7818608E-02  0.8707339E-01
         -2   -1    0    0    0  501 -0.00000000000E+00  0.00000000000E+00  0.47683234875E+03  0.47683234875E+03  0.00000000000E+00 0. -1.
          2   -1    0    0  501    0  0.00000000000E+00 -0.00000000000E+00 -0.16950245294E+04  0.16950245294E+04  0.00000000000E+00 0.  1.
         23    2    1    2    0    0  0.54996608409E+03 -0.45341450469E+03  0.45741113148E+02  0.72079699727E+03  0.96998222295E+02 0.  0.
         11    1    3    3    0    0  0.80403893656E+02 -0.60917234420E+02  0.40703826272E+02  0.10877728181E+03  0.00000000000E+00 0. -1.
        -11    1    3    3    0    0  0.46956219044E+03 -0.39249727027E+03  0.50372868765E+01  0.61201971546E+03  0.00000000000E+00 0.  1.
         22    1    1    2    0    0 -0.54996608409E+03  0.45341450469E+03 -0.12639332938E+04  0.14510598808E+04  0.00000000000E+00 0.  1.
<mgrwt>
<rscale>  0 0.17980462E+04</rscale>
<asrwt>0</asrwt>
<pdfrwt beam="1">  1        2 0.26077300E+00 0.17980462E+04</pdfrwt>
<pdfrwt beam="2">  1       -2 0.73358823E-01 0.17980462E+04</pdfrwt>
<totfact> 0.15626455E+01</totfact>
</mgrwt>
</event>
<event>
 6    1  0.1934315E-005  0.2461138E+04  0.7818608E-02  0.8416963E-01
         -2   -1    0    0    0  501 -0.00000000000E+00  0.00000000000E+00  0.15295348849E+04  0.15295348849E+04  0.00000000000E+00 0. -1.
          2   -1    0    0  501    0  0.00000000000E+00 -0.00000000000E+00 -0.99003967975E+03  0.99003967975E+03  0.00000000000E+00 0.  1.
         23    2    1    2    0    0  0.78821232274E+03 -0.84983181569E+03 -0.14847242764E+03  0.11716902059E+04  0.85563404970E+02 0.  0.
         11    1    3    3    0    0  0.38132245219E+03 -0.45206075667E+03 -0.10840848000E+03  0.60126378471E+03  0.00000000000E+00 0.  1.
        -11    1    3    3    0    0  0.40688987055E+03 -0.39777105902E+03 -0.40063947641E+02  0.57042642124E+03  0.00000000000E+00 0. -1.
         22    1    1    2    0    0 -0.78821232274E+03  0.84983181569E+03  0.68796763279E+03  0.13478843587E+04  0.00000000000E+00 0. -1.
<mgrwt>
<rscale>  0 0.24611381E+04</rscale>
<asrwt>0</asrwt>
<pdfrwt beam="1">  1        2 0.15231380E+00 0.24611381E+04</pdfrwt>
<pdfrwt beam="2">  1       -2 0.23531306E+00 0.24611381E+04</pdfrwt>
<totfact> 0.18114738E+00</totfact>
</mgrwt>
</event>
<event>
 6    1  0.1934315E-005  0.1676798E+04  0.7818608E-02  0.8774709E-01
          2   -1    0    0  501    0  0.00000000000E+00  0.00000000000E+00  0.94054378356E+03  0.94054378356E+03  0.00000000000E+00 0.  1.
         -2   -1    0    0    0  501 -0.00000000000E+00 -0.00000000000E+00 -0.74734727360E+03  0.74734727360E+03  0.00000000000E+00 0. -1.
         23    2    1    2    0    0  0.77148064635E+02 -0.30919097209E+03  0.87477314956E+03  0.93549648198E+03  0.91513515399E+02 0.  0.
         11    1    3    3    0    0  0.13546751110E+02 -0.41731482416E+02  0.52154949712E+02  0.68155483050E+02  0.00000000000E+00 0.  1.
        -11    1    3    3    0    0  0.63601313526E+02 -0.26745948968E+03  0.82261819985E+03  0.86734099893E+03  0.00000000000E+00 0. -1.
         22    1    1    2    0    0 -0.77148064635E+02  0.30919097209E+03 -0.68157663961E+03  0.75239457518E+03  0.00000000000E+00 0. -1.
<mgrwt>
<rscale>  0 0.16767979E+04</rscale>
<asrwt>0</asrwt>
<pdfrwt beam="1">  1        2 0.14469904E+00 0.16767979E+04</pdfrwt>
<pdfrwt beam="2">  1       -2 0.11497650E+00 0.16767979E+04</pdfrwt>
<totfact> 0.15490999E+01</totfact>
</mgrwt>
</event>
<event>
 6    1  0.1934315E-005  0.5269214E+04  0.7818608E-02  0.7788269E-01
          2   -1    0    0  501    0  0.00000000000E+00  0.00000000000E+00  0.36355648607E+04  0.36355648607E+04  0.00000000000E+00 0.  1.
         -2   -1    0    0    0  501 -0.00000000000E+00 -0.00000000000E+00 -0.19092371130E+04  0.19092371130E+04  0.00000000000E+00 0. -1.
         23    2    1    2    0    0  0.37306407732E+03 -0.23024195225E+04  0.21507660960E+04  0.31740509587E+04  0.92153269742E+02 0.  0.
         13    1    3    3    0    0  0.49323787350E+02 -0.54812121002E+03  0.51132152260E+03  0.75121195168E+03  0.00000000000E+00 0. -1.
        -13    1    3    3    0    0  0.32374028997E+03 -0.17542983125E+04  0.16394445734E+04  0.24228390070E+04  0.00000000000E+00 0.  1.
         22    1    1    2    0    0 -0.37306407732E+03  0.23024195225E+04 -0.42443834836E+03  0.23707510150E+04  0.00000000000E+00 0. -1.
<mgrwt>
<rscale>  0 0.52692145E+04</rscale>
<asrwt>0</asrwt>
<pdfrwt beam="1">  1        2 0.55931767E+00 0.52692145E+04</pdfrwt>
<pdfrwt beam="2">  1       -2 0.29372879E+00 0.52692145E+04</pdfrwt>
<totfact> 0.16058406E-02</totfact>
</mgrwt>
</event>
<event>
 6    1  0.1934315E-005  0.3420619E+04  0.7818608E-02  0.8132864E-01
         -2   -1    0    0    0  501 -0.00000000000E+00  0.00000000000E+00  0.60047746680E+03  0.60047746680E+03  0.00000000000E+00 0. -1.
          2   -1    0    0  501    0  0.00000000000E+00 -0.00000000000E+00 -0.48713875465E+04  0.48713875465E+04  0.00000000000E+00 0.  1.
         23    2    1    2    0    0  0.11321061046E+04  0.11226251226E+04 -0.31218202038E+04  0.35065764999E+04  0.91465660527E+02 0.  0.
         13    1    3    3    0    0  0.72878846410E+03  0.73657920634E+03 -0.19339443148E+04  0.21940424256E+04  0.00000000000E+00 0.  1.
        -13    1    3    3    0    0  0.40331764049E+03  0.38604591626E+03 -0.11878758889E+04  0.13125340742E+04  0.00000000000E+00 0. -1.
         22    1    1    2    0    0 -0.11321061046E+04 -0.11226251226E+04 -0.11490898759E+04  0.19652885134E+04  0.00000000000E+00 0. -1.
<mgrwt>
<rscale>  0 0.34206189E+04</rscale>
<asrwt>0</asrwt>
<pdfrwt beam="1">  1        2 0.74944419E+00 0.34206189E+04</pdfrwt>
<pdfrwt beam="2">  1       -2 0.92381154E-01 0.34206189E+04</pdfrwt>
<totfact> 0.40279971E-02</totfact>
</mgrwt>
</event>
<event>
 6    1  0.1934315E-005  0.2212312E+04  0.7818608E-02  0.8513321E-01
         -2   -1    0    0    0  501 -0.00000000000E+00  0.00000000000E+00  0.22014928372E+04  0.22014928372E+04  0.00000000000E+00 0. -1.
          2   -1    0    0  501    0  0.00000000000E+00 -0.00000000000E+00 -0.55579632198E+03  0.55579632198E+03  0.00000000000E+00 0.  1.
         23    2    1    2    0    0 -0.29540146865E+03  0.16996414647E+03  0.21333659642E+04  0.21623342616E+04  0.91045499333E+02 0.  0.
         11    1    3    3    0    0 -0.23356378292E+03  0.15208965434E+03  0.14973573184E+04  0.15230765715E+04  0.00000000000E+00 0. -1.
        -11    1    3    3    0    0 -0.61837685730E+02  0.17874492133E+02  0.63600864577E+03  0.63925769009E+03  0.00000000000E+00 0.  1.
         22    1    1    2    0    0  0.29540146865E+03 -0.16996414647E+03 -0.48766944894E+03  0.59495489761E+03  0.00000000000E+00 0.  1.
<mgrwt>
<rscale>  0 0.22123125E+04</rscale>
<asrwt>0</asrwt>
<pdfrwt beam="1">  1        2 0.85507128E-01 0.22123125E+04</pdfrwt>
<pdfrwt beam="2">  1       -2 0.33869120E+00 0.22123125E+04</pdfrwt>
<totfact> 0.91077545E-01</totfact>
</mgrwt>
</event>
<event>
 6    1  0.1934315E-005  0.7451586E+03  0.7818608E-02  0.9642977E-01
          2   -1    0    0  501    0  0.00000000000E+00  0.00000000000E+00  0.25120611146E+03  0.25120611146E+03  0.00000000000E+00 0.  1.
         -2   -1    0    0    0  501 -0.00000000000E+00 -0.00000000000E+00 -0.55259531950E+03  0.55259531950E+03  0.00000000000E+00 0. -1.
         23    2    1    2    0    0  0.12772298699E+03  0.21848066238E+03  0.13560762279E+03  0.29881312278E+03  0.82782206696E+02 0.  0.
         13    1    3    3    0    0  0.39599689973E+02  0.38590221500E+02  0.67455650684E+02  0.87221588214E+02  0.00000000000E+00 0.  1.
        -13    1    3    3    0    0  0.88123297017E+02  0.17989044088E+03  0.68151972108E+02  0.21159153456E+03  0.00000000000E+00 0. -1.
         22    1    1    2    0    0 -0.12772298699E+03 -0.21848066238E+03 -0.43699683084E+03  0.50498830818E+03  0.00000000000E+00 0. -1.
<mgrwt>
<rscale>  0 0.74515856E+03</rscale>
<asrwt>0</asrwt>
<pdfrwt beam="1">  1        2 0.38647094E-01 0.74515856E+03</pdfrwt>
<pdfrwt beam="2">  1       -2 0.85014664E-01 0.74515856E+03</pdfrwt>
<totfact> 0.16266736E+02</totfact>
</mgrwt>
</event>
<event>
 6    1  0.1934315E-005  0.1956319E+04  0.7818608E-02  0.8627320E-01
          2   -1    0    0  501    0  0.00000000000E+00  0.00000000000E+00  0.24797136115E+04  0.24797136115E+04  0.00000000000E+00 0.  1.
         -2   -1    0    0    0  501 -0.00000000000E+00 -0.00000000000E+00 -0.38584953807E+03  0.38584953807E+03  0.00000000000E+00 0. -1.
         23    2    1    2    0    0 -0.10253328819E+03 -0.32954080369E+03  0.23865742743E+04  0.24130264348E+04  0.88597921804E+02 0.  0.
         13    1    3    3    0    0 -0.97418195626E+02 -0.22239008277E+03  0.18472550548E+04  0.18631422091E+04  0.00000000000E+00 0. -1.
        -13    1    3    3    0    0 -0.51150925641E+01 -0.10715072091E+03  0.53931921953E+03  0.54988422575E+03  0.00000000000E+00 0.  1.
         22    1    1    2    0    0  0.10253328819E+03  0.32954080369E+03 -0.29271020090E+03  0.45253671474E+03  0.00000000000E+00 0. -1.
<mgrwt>
<rscale>  0 0.19563194E+04</rscale>
<asrwt>0</asrwt>
<pdfrwt beam="1">  1        2 0.38149439E+00 0.19563194E+04</pdfrwt>
<pdfrwt beam="2">  1       -2 0.59361469E-01 0.19563194E+04</pdfrwt>
<totfact> 0.88395777E+00</totfact>
</mgrwt>
</event>
<event>
 6    1  0.1934315E-005  0.3264294E+04  0.7818608E-02  0.8172041E-01
         -2   -1    0    0    0  501 -0.00000000000E+00  0.00000000000E+00  0.67741879113E+03  0.67741879113E+03  0.00000000000E+00 0. -1.
          2   -1    0    0  501    0  0.00000000000E+00 -0.00000000000E+00 -0.39324337094E+04  0.39324337094E+04  0.00000000000E+00 0.  1.
         23    2    1    2    0    0  0.15253364742E+03  0.66966355872E+03 -0.37177125068E+04  0.37817191455E+04  0.91091254078E+02 0.  0.
         11    1    3    3    0    0 -0.76127653512E+01  0.11456155617E+03 -0.65690943272E+03  0.66686753343E+03  0.00000000000E+00 0. -1.
        -11    1    3    3    0    0  0.16014641277E+03  0.55510200256E+03 -0.30608030741E+04  0.31148516120E+04  0.00000000000E+00 0.  1.
         22    1    1    2    0    0 -0.15253364742E+03 -0.66966355872E+03  0.46269758847E+03  0.82813335512E+03  0.00000000000E+00 0. -1.
<mgrwt>
<rscale>  0 0.32642944E+04</rscale>
<asrwt>0</asrwt>
<pdfrwt beam="1">  1        2 0.60498981E+00 0.32642944E+04</pdfrwt>
<pdfrwt beam="2">  1       -2 0.10421827E+00 0.32642944E+04</pdfrwt>
<totfact> 0.24249573E-01</totfact>
</mgrwt>
</event>
<event>
 6    1  0.1934315E-005  0.3349375E+04  0.7818608E-02  0.8150444E-01
         -2   -1    0    0    0  501 -0.00000000000E+00  0.00000000000E+00  0.16322426162E+04  0.16322426162E+04  0.00000000000E+00 0. -1.
          2   -1    0    0  501    0  0.00000000000E+00 -0.00000000000E+00 -0.17182361532E+04  0.17182361532E+04  0.00000000000E+00 0.  1.
         23    2    1    2    0    0 -0.99394803521E+03  0.25150382140E+03  0.12800050053E+04  0.16425153955E+04  0.90868818210E+02 0.  0.
         11    1    3    3    0    0 -0.54753349796E+03  0.17947542272E+03  0.68282957231E+03  0.89345429853E+03  0.00000000000E+00 0.  1.
        -11    1    3    3    0    0 -0.44641453725E+03  0.72028398685E+02  0.59717543297E+03  0.74906109699E+03  0.00000000000E+00 0. -1.
         22    1    1    2    0    0  0.99394803521E+03 -0.25150382140E+03 -0.13659985423E+04  0.17079633739E+04  0.00000000000E+00 0.  1.
<mgrwt>
<rscale>  0 0.33493750E+04</rscale>
<asrwt>0</asrwt>
<pdfrwt beam="1">  1        2 0.26434402E+00 0.33493750E+04</pdfrwt>
<pdfrwt beam="2">  1       -2 0.25111425E+00 0.33493750E+04</pdfrwt>
<totfact> 0.50413536E-01</totfact>
</mgrwt>
</event>
<event>
 6    1  0.1934315E-005  0.8085072E+03  0.7818608E-02  0.9547784E-01
          2   -1    0    0  501    0  0.00000000000E+00  0.00000000000E+00  0.15446650874E+04  0.15446650874E+04  0.00000000000E+00 0.  1.
         -2   -1    0    0    0  501 -0.00000000000E+00 -0.00000000000E+00 -0.10579701726E+03  0.10579701726E+03  0.00000000000E+00 0. -1.
         23    2    1    2    0    0 -0.18894846976E+03  0.26412604699E+03  0.12023231092E+04  0.12486939981E+04  0.90508281598E+02 0.  0.
         11    1    3    3    0    0 -0.24119687539E+02  0.10588322299E+03  0.39632840346E+03  0.41093700201E+03  0.00000000000E+00 0. -1.
        -11    1    3    3    0    0 -0.16482878222E+03  0.15824282400E+03  0.80599470571E+03  0.83775699605E+03  0.00000000000E+00 0.  1.
         22    1    1    2    0    0  0.18894846976E+03 -0.26412604699E+03  0.23654496100E+03  0.40176810662E+03  0.00000000000E+00 0. -1.
<mgrwt>
<rscale>  0 0.80850716E+03</rscale>
<asrwt>0</asrwt>
<pdfrwt beam="1">  1        2 0.23764077E+00 0.80850716E+03</pdfrwt>
<pdfrwt beam="2">  1       -2 0.16276465E-01 0.80850716E+03</pdfrwt>
<totfact> 0.36887269E+02</totfact>
</mgrwt>
</event>
<event>
 6    1  0.1934315E-005  0.1457831E+04  0.7818608E-02  0.8912989E-01
          2   -1    0    0  501    0  0.00000000000E+00  0.00000000000E+00  0.27548690154E+04  0.27548690154E+04  0.00000000000E+00 0.  1.
         -2   -1    0    0    0  501 -0.00000000000E+00 -0.00000000000E+00 -0.19286503737E+03  0.19286503737E+03  0.00000000000E+00 0. -1.
         23    2    1    2    0    0 -0.35634482665E+03 -0.43362454678E+03  0.35470071516E+03  0.67019161029E+03  0.91281510306E+02 0.  0.
         11    1    3    3    0    0 -0.22480785220E+03 -0.20836667194E+03  0.16932435358E+03  0.35017992104E+03  0.00000000000E+00 0.  1.
        -11    1    3    3    0    0 -0.13153697445E+03 -0.22525787484E+03  0.18537636158E+03  0.32001168925E+03  0.00000000000E+00 0. -1.
         22    1    1    2    0    0  0.35634482665E+03  0.43362454678E+03  0.22073032629E+04  0.22775424425E+04  0.00000000000E+00 0.  1.
<mgrwt>
<rscale>  0 0.14578312E+04</rscale>
<asrwt>0</asrwt>
<pdfrwt beam="1">  1        2 0.42382597E+00 0.14578312E+04</pdfrwt>
<pdfrwt beam="2">  1       -2 0.29671546E-01 0.14578312E+04</pdfrwt>
<totfact> 0.25112448E+01</totfact>
</mgrwt>
</event>
<event>
 6    1  0.1934315E-005  0.8475145E+03  0.7818608E-02  0.9493679E-01
          2   -1    0    0  501    0  0.00000000000E+00  0.00000000000E+00  0.32758535183E+04  0.32758535183E+04  0.00000000000E+00 0.  1.
         -2   -1    0    0    0  501 -0.00000000000E+00 -0.00000000000E+00 -0.54816312637E+02  0.54816312637E+02  0.00000000000E+00 0. -1.
         23    2    1    2    0    0 -0.64795665382E+01  0.14857185984E+03  0.31679069385E+04  0.31727508403E+04  0.92725084275E+02 0.  0.
         11    1    3    3    0    0 -0.43120325378E+02  0.95735565365E+02  0.15404455333E+04  0.15440197867E+04  0.00000000000E+00 0. -1.
        -11    1    3    3    0    0  0.36640758840E+02  0.52836294476E+02  0.16274614053E+04  0.16287310536E+04  0.00000000000E+00 0.  1.
         22    1    1    2    0    0  0.64795665382E+01 -0.14857185984E+03  0.53130267170E+02  0.15791899065E+03  0.00000000000E+00 0. -1.
<mgrwt>
<rscale>  0 0.84751451E+03</rscale>
<asrwt>0</asrwt>
<pdfrwt beam="1">  1        2 0.50397731E+00 0.84751451E+03</pdfrwt>
<pdfrwt beam="2">  1       -2 0.84332814E-02 0.84751451E+03</pdfrwt>
<totfact> 0.11009010E+02</totfact>
</mgrwt>
</event>
<event>
 6    1  0.1934315E-005  0.2916495E+04  0.7818608E-02  0.8267987E-01
          2   -1    0    0  501    0  0.00000000000E+00  0.00000000000E+00  0.13502214813E+04  0.13502214813E+04  0.00000000000E+00 0.  1.
         -2   -1    0    0    0  501 -0.00000000000E+00 -0.00000000000E+00 -0.15749160006E+04  0.15749160006E+04  0.00000000000E+00 0. -1.
         23    2    1    2    0    0 -0.64554178955E+03  0.13012231650E+04 -0.64071123868E+00  0.14554075624E+04  0.91130867899E+02 0.  0.
         11    1    3    3    0    0 -0.22411981222E+03  0.50899386102E+03 -0.36507925920E+02  0.55734842732E+03  0.00000000000E+00 0. -1.
        -11    1    3    3    0    0 -0.42142197733E+03  0.79222930399E+03  0.35867214681E+02  0.89805913512E+03  0.00000000000E+00 0.  1.
         22    1    1    2    0    0  0.64554178955E+03 -0.13012231650E+04 -0.22405380814E+03  0.14697299195E+04  0.00000000000E+00 0. -1.
<mgrwt>
<rscale>  0 0.29164948E+04</rscale>
<asrwt>0</asrwt>
<pdfrwt beam="1">  1        2 0.20772638E+00 0.29164948E+04</pdfrwt>
<pdfrwt beam="2">  1       -2 0.24229477E+00 0.29164948E+04</pdfrwt>
<totfact> 0.95514741E-01</totfact>
</mgrwt>
</event>
<event>
 6    1  0.1934315E-005  0.3334958E+04  0.7818608E-02  0.8154057E-01
         -2   -1    0    0    0  501 -0.00000000000E+00  0.00000000000E+00  0.12095485948E+04  0.12095485948E+04  0.00000000000E+00 0. -1.
          2   -1    0    0  501    0  0.00000000000E+00 -0.00000000000E+00 -0.22987797952E+04  0.22987797952E+04  0.00000000000E+00 0.  1.
         23    2    1    2    0    0 -0.12004997399E+04  0.11448351542E+04 -0.71173433020E+03  0.18070491529E+04  0.83748006128E+02 0.  0.
         11    1    3    3    0    0 -0.95270373768E+03  0.90339524139E+03 -0.59959668458E+03  0.14433584302E+04  0.00000000000E+00 0.  1.
        -11    1    3    3    0    0 -0.24779600218E+03  0.24143991280E+03 -0.11213764561E+03  0.36369072267E+03  0.00000000000E+00 0. -1.
         22    1    1    2    0    0  0.12004997399E+04 -0.11448351542E+04 -0.37749687018E+03  0.17012792371E+04  0.00000000000E+00 0.  1.
<mgrwt>
<rscale>  0 0.33349578E+04</rscale>
<asrwt>0</asrwt>
<pdfrwt beam="1">  1        2 0.35365843E+00 0.33349578E+04</pdfrwt>
<pdfrwt beam="2">  1       -2 0.18608440E+00 0.33349578E+04</pdfrwt>
<totfact> 0.62295679E-01</totfact>
</mgrwt>
</event>
<event>
 6    1  0.1934315E-005  0.1117264E+04  0.7818608E-02  0.9188527E-01
          2   -1    0    0  501    0  0.00000000000E+00  0.00000000000E+00  0.11170041377E+04  0.11170041377E+04  0.00000000000E+00 0.  1.
         -2   -1    0    0    0  501 -0.00000000000E+00 -0.00000000000E+00 -0.27938104195E+03  0.27938104195E+03  0.00000000000E+00 0. -1.
         23    2    1    2    0    0 -0.21935994159E+03  0.48386024950E+03  0.62165988006E+03  0.82290489612E+03  0.92043123377E+02 0.  0.
         13    1    3    3    0    0 -0.58706107872E+02  0.70731283202E+02  0.14767970785E+03  0.17395004351E+03  0.00000000000E+00 0.  1.
        -13    1    3    3    0    0 -0.16065383372E+03  0.41312896630E+03  0.47398017221E+03  0.64895485262E+03  0.00000000000E+00 0. -1.
         22    1    1    2    0    0  0.21935994159E+03 -0.48386024950E+03  0.21596321566E+03  0.57348028348E+03  0.00000000000E+00 0. -1.
<mgrwt>
<rscale>  0 0.11172641E+04</rscale>
<asrwt>0</asrwt>
<pdfrwt beam="1">  1        2 0.17184679E+00 0.11172641E+04</pdfrwt>
<pdfrwt beam="2">  1       -2 0.42981699E-01 0.11172641E+04</pdfrwt>
<totfact> 0.10818668E+02</totfact>
</mgrwt>
</event>
<event>
 6    1  0.1934315E-005  0.3891964E+04  0.7818608E-02  0.8026703E-01
         -2   -1    0    0    0  501 -0.00000000000E+00  0.00000000000E+00  0.18690911432E+04  0.18690911432E+04  0.00000000000E+00 0.  1.
          2   -1    0    0  501    0  0.00000000000E+00 -0.00000000000E+00 -0.20260362151E+04  0.20260362151E+04  0.00000000000E+00 0. -1.
         23    2    1    2    0    0  0.70352051898E+03  0.15523161551E+04  0.85874600827E+03  0.19111276263E+04  0.10167364991E+03 0.  0.
         13    1    3    3    0    0  0.13986775981E+03  0.30327516676E+03  0.21435710965E+03  0.39684731001E+03  0.00000000000E+00 0. -1.
        -13    1    3    3    0    0  0.56365275917E+03  0.12490409884E+04  0.64438889861E+03  0.15142803163E+04  0.00000000000E+00 0.  1.
         22    1    1    2    0    0 -0.70352051898E+03 -0.15523161551E+04 -0.10156910802E+04  0.19839997320E+04  0.00000000000E+00 0. -1.
<mgrwt>
<rscale>  0 0.38919642E+04</rscale>
<asrwt>0</asrwt>
<pdfrwt beam="1">  1        2 0.31169788E+00 0.38919642E+04</pdfrwt>
<pdfrwt beam="2">  1       -2 0.28755248E+00 0.38919642E+04</pdfrwt>
<totfact> 0.19475684E-01</totfact>
</mgrwt>
</event>
<event>
 6    1  0.1934315E-005  0.5300163E+04  0.7818608E-02  0.7783802E-01
          2   -1    0    0  501    0  0.00000000000E+00  0.00000000000E+00  0.28135241440E+04  0.28135241440E+04  0.00000000000E+00 0.  1.
         -2   -1    0    0    0  501 -0.00000000000E+00 -0.00000000000E+00 -0.24961338418E+04  0.24961338418E+04  0.00000000000E+00 0. -1.
         23    2    1    2    0    0  0.11562764069E+04  0.22570834295E+04 -0.60868832580E+03  0.26098390359E+04  0.96734578691E+02 0.  0.
         11    1    3    3    0    0  0.49032086949E+03  0.89746168468E+03 -0.20547219372E+03  0.10431063478E+04  0.00000000000E+00 0. -1.
        -11    1    3    3    0    0  0.66595553741E+03  0.13596217448E+04 -0.40321613208E+03  0.15667326881E+04  0.00000000000E+00 0.  1.
         22    1    1    2    0    0 -0.11562764069E+04 -0.22570834295E+04  0.92607862804E+03  0.26998189499E+04  0.00000000000E+00 0.  1.
<mgrwt>
<rscale>  0 0.53001633E+04</rscale>
<asrwt>0</asrwt>
<pdfrwt beam="1">  1        2 0.43284987E+00 0.53001633E+04</pdfrwt>
<pdfrwt beam="2">  1       -2 0.38402059E+00 0.53001633E+04</pdfrwt>
<totfact> 0.15219142E-02</totfact>
</mgrwt>
</event>
<event>
 6    1  0.2886571E-005  0.2775533E+04  0.7818608E-02  0.8310905E-01
         -2   -1    0    0    0  501 -0.00000000000E+00  0.00000000000E+00  0.77105635942E+03  0.77105635942E+03  0.00000000000E+00 0. -1.
          2   -1    0    0  501    0  0.00000000000E+00 -0.00000000000E+00 -0.24977377047E+04  0.24977377047E+04  0.00000000000E+00 0.  1.
         23    2    1    2    0    0  0.93067456580E+03 -0.89249591762E+03 -0.26211070289E+03  0.13174685462E+04  0.65705701337E+02 0.  0.
         13    1    3    3    0    0  0.52898546032E+03 -0.51611703892E+03 -0.11765458481E+03  0.74836155462E+03  0.00000000000E+00 0.  1.
        -13    1    3    3    0    0  0.40168910548E+03 -0.37637887870E+03 -0.14445611808E+03  0.56910699156E+03  0.00000000000E+00 0. -1.
         22    1    1    2    0    0 -0.93067456580E+03  0.89249591762E+03 -0.14645706424E+04  0.19513255179E+04  0.00000000000E+00 0. -1.
<mgrwt>
<rscale>  0 0.27755335E+04</rscale>
<asrwt>0</asrwt>
<pdfrwt beam="1">  1        2 0.38426734E+00 0.27755335E+04</pdfrwt>
<pdfrwt beam="2">  1       -2 0.11862406E+00 0.27755335E+04</pdfrwt>
<totfact> 0.16631778E+00</totfact>
</mgrwt>
</event>
<event>
 6    1  0.1934315E-005  0.1078981E+04  0.7818608E-02  0.9225924E-01
         -2   -1    0    0    0  501 -0.00000000000E+00  0.00000000000E+00  0.26119457037E+03  0.26119457037E+03  0.00000000000E+00 0. -1.
          2   -1    0    0  501    0  0.00000000000E+00 -0.00000000000E+00 -0.11143041838E+04  0.11143041838E+04  0.00000000000E+00 0.  1.
         23    2    1    2    0    0 -0.59242652997E+01 -0.17799179542E+03  0.21571702950E+03  0.29193677220E+03  0.83528833263E+02 0.  0.
         11    1    3    3    0    0  0.18137283775E+02 -0.57407159700E+02  0.25377662310E+02  0.65334284966E+02  0.00000000000E+00 0. -1.
        -11    1    3    3    0    0 -0.24061549075E+02 -0.12058463572E+03  0.19033936719E+03  0.22660248723E+03  0.00000000000E+00 0.  1.
         22    1    1    2    0    0  0.59242652997E+01  0.17799179542E+03 -0.10688266430E+04  0.10835619820E+04  0.00000000000E+00 0.  1.
<mgrwt>
<rscale>  0 0.10789814E+04</rscale>
<asrwt>0</asrwt>
<pdfrwt beam="1">  1        2 0.17143141E+00 0.10789814E+04</pdfrwt>
<pdfrwt beam="2">  1       -2 0.40183780E-01 0.10789814E+04</pdfrwt>
<totfact> 0.12428862E+02</totfact>
</mgrwt>
</event>
<event>
 6    1  0.1934315E-005  0.2528460E+04  0.7818608E-02  0.8392916E-01
          2   -1    0    0  501    0  0.00000000000E+00  0.00000000000E+00  0.26493879923E+04  0.26493879923E+04  0.00000000000E+00 0.  1.
         -2   -1    0    0    0  501 -0.00000000000E+00 -0.00000000000E+00 -0.60326281739E+03  0.60326281739E+03  0.00000000000E+00 0. -1.
         23    2    1    2    0    0 -0.11479903948E+04  0.64518866372E+02  0.35730532033E+03  0.12095753995E+04  0.11558946517E+03 0.  0.
         11    1    3    3    0    0 -0.47077539749E+03 -0.21918862148E+01  0.94950053307E+02  0.48026012938E+03  0.00000000000E+00 0.  1.
        -11    1    3    3    0    0 -0.67721499729E+03  0.66710752587E+02  0.26235526703E+03  0.72931527010E+03  0.00000000000E+00 0. -1.
         22    1    1    2    0    0  0.11479903948E+04 -0.64518866372E+02  0.16888198546E+04  0.20430754102E+04  0.00000000000E+00 0.  1.
<mgrwt>
<rscale>  0 0.25284598E+04</rscale>
<asrwt>0</asrwt>
<pdfrwt beam="1">  1        2 0.40759815E+00 0.25284598E+04</pdfrwt>
<pdfrwt beam="2">  1       -2 0.92809665E-01 0.25284598E+04</pdfrwt>
<totfact> 0.24915967E+00</totfact>
</mgrwt>
</event>
<event>
 6    1  0.1934315E-005  0.3573574E+04  0.7818608E-02  0.8096572E-01
          2   -1    0    0  501    0  0.00000000000E+00  0.00000000000E+00  0.17783499294E+04  0.17783499294E+04  0.00000000000E+00 0.  1.
         -2   -1    0    0    0  501 -0.00000000000E+00 -0.00000000000E+00 -0.17952645314E+04  0.17952645314E+04  0.00000000000E+00 0. -1.
         23    2    1    2    0    0  0.14965839338E+04  0.30022162499E+03  0.91771859989E+03  0.17838000243E+04  0.99189732554E+02 0.  0.
         11    1    3    3    0    0  0.29727067190E+03  0.38104786819E+02  0.14210205889E+03  0.33168482373E+03  0.00000000000E+00 0.  1.
        -11    1    3    3    0    0  0.11993132619E+04  0.26211683818E+03  0.77561654100E+03  0.14521152005E+04  0.00000000000E+00 0. -1.
         22    1    1    2    0    0 -0.14965839338E+04 -0.30022162499E+03 -0.93463320195E+03  0.17898144365E+04  0.00000000000E+00 0. -1.
<mgrwt>
<rscale>  0 0.35735744E+04</rscale>
<asrwt>0</asrwt>
<pdfrwt beam="1">  1        2 0.27359230E+00 0.35735744E+04</pdfrwt>
<pdfrwt beam="2">  1       -2 0.27619454E+00 0.35735744E+04</pdfrwt>
<totfact> 0.32189748E-01</totfact>
</mgrwt>
</event>
<event>
 6    1  0.1934315E-005  0.1902394E+04  0.7818608E-02  0.8653666E-01
         -2   -1    0    0    0  501 -0.00000000000E+00  0.00000000000E+00  0.44105776668E+03  0.44105776668E+03  0.00000000000E+00 0. -1.
          2   -1    0    0  501    0  0.00000000000E+00 -0.00000000000E+00 -0.20513769543E+04  0.20513769543E+04  0.00000000000E+00 0.  1.
         23    2    1    2    0    0 -0.94358891858E+03 -0.92711894913E+02 -0.86703581352E+03  0.12876834118E+04  0.86150591148E+02 0.  0.
         13    1    3    3    0    0 -0.72118288747E+03 -0.77178836029E+02 -0.71010932584E+03  0.10150451145E+04  0.00000000000E+00 0. -1.
        -13    1    3    3    0    0 -0.22240603111E+03 -0.15533058884E+02 -0.15692648768E+03  0.27263829725E+03  0.00000000000E+00 0.  1.
         22    1    1    2    0    0  0.94358891858E+03  0.92711894913E+02 -0.74328337407E+03  0.12047513091E+04  0.00000000000E+00 0.  1.
<mgrwt>
<rscale>  0 0.19023940E+04</rscale>
<asrwt>0</asrwt>
<pdfrwt beam="1">  1        2 0.31559646E+00 0.19023940E+04</pdfrwt>
<pdfrwt beam="2">  1       -2 0.67855040E-01 0.19023940E+04</pdfrwt>
<totfact> 0.11651618E+01</totfact>
</mgrwt>
</event>
<event>
 6    1  0.1934315E-005  0.4019376E+04  0.7818608E-02  0.8000649E-01
         -2   -1    0    0    0  501 -0.00000000000E+00  0.00000000000E+00  0.14723749297E+04  0.14723749297E+04  0.00000000000E+00 0.  1.
          2   -1    0    0  501    0  0.00000000000E+00 -0.00000000000E+00 -0.27430820746E+04  0.27430820746E+04  0.00000000000E+00 0. -1.
         23    2    1    2    0    0  0.18382821170E+04  0.49327831645E+03  0.37309246904E+02  0.19060173493E+04  0.94369045884E+02 0.  0.
         13    1    3    3    0    0  0.44165217407E+03  0.80317120965E+02  0.24351479308E+02  0.44955586674E+03  0.00000000000E+00 0.  1.
        -13    1    3    3    0    0  0.13966299429E+04  0.41296119549E+03  0.12957767595E+02  0.14564614826E+04  0.00000000000E+00 0. -1.
         22    1    1    2    0    0 -0.18382821170E+04 -0.49327831645E+03 -0.13080163917E+04  0.23094396550E+04  0.00000000000E+00 0.  1.
<mgrwt>
<rscale>  0 0.40193757E+04</rscale>
<asrwt>0</asrwt>
<pdfrwt beam="1">  1        2 0.42201263E+00 0.40193757E+04</pdfrwt>
<pdfrwt beam="2">  1       -2 0.22651922E+00 0.40193757E+04</pdfrwt>
<totfact> 0.17717699E-01</totfact>
</mgrwt>
</event>
<event>
 6    1  0.1934315E-005  0.3376414E+04  0.7818608E-02  0.8143720E-01
         -3   -1    0    0    0  501 -0.00000000000E+00  0.00000000000E+00  0.28318632474E+04  0.28318632474E+04  0.00000000000E+00 0. -1.
          3   -1    0    0  501    0  0.00000000000E+00 -0.00000000000E+00 -0.10064194275E+04  0.10064194275E+04  0.00000000000E+00 0.  1.
         23    2    1    2    0    0  0.92309816059E+03  0.68317543508E+02 -0.69000198451E+03  0.11579384627E+04  0.89113657802E+02 0.  0.
         11    1    3    3    0    0  0.38053383801E+03  0.71683194788E+02 -0.27895346159E+03  0.47724156987E+03  0.00000000000E+00 0.  1.
        -11    1    3    3    0    0  0.54256432258E+03 -0.33656512801E+01 -0.41104852293E+03  0.68069689285E+03  0.00000000000E+00 0. -1.
         22    1    1    2    0    0 -0.92309816059E+03 -0.68317543508E+02  0.25154458044E+04  0.26803442122E+04  0.00000000000E+00 0. -1.
<mgrwt>
<rscale>  0 0.33764136E+04</rscale>
<asrwt>0</asrwt>
<pdfrwt beam="1">  1        3 0.15483376E+00 0.33764136E+04</pdfrwt>
<pdfrwt beam="2">  1       -3 0.43567126E+00 0.33764136E+04</pdfrwt>
<totfact> 0.43101037E-03</totfact>
</mgrwt>
</event>
<event>
 6    1  0.1934315E-005  0.3427445E+04  0.7818608E-02  0.8131203E-01
         -2   -1    0    0    0  501 -0.00000000000E+00  0.00000000000E+00  0.20521935636E+04  0.20521935636E+04  0.00000000000E+00 0. -1.
          2   -1    0    0  501    0  0.00000000000E+00 -0.00000000000E+00 -0.14310763075E+04  0.14310763075E+04  0.00000000000E+00 0.  1.
         23    2    1    2    0    0  0.44085763271E+03  0.11210953117E+04  0.15477361283E+04  0.19634564994E+04  0.92000825070E+02 0.  0.
         11    1    3    3    0    0  0.29811268247E+03  0.65354295261E+03  0.95971034987E+03  0.11987633286E+04  0.00000000000E+00 0. -1.
        -11    1    3    3    0    0  0.14274495024E+03  0.46755235911E+03  0.58802577847E+03  0.76469317080E+03  0.00000000000E+00 0.  1.
         22    1    1    2    0    0 -0.44085763271E+03 -0.11210953117E+04 -0.92661887226E+03  0.15198133717E+04  0.00000000000E+00 0.  1.
<mgrwt>
<rscale>  0 0.34274455E+04</rscale>
<asrwt>0</asrwt>
<pdfrwt beam="1">  1        2 0.22016559E+00 0.34274455E+04</pdfrwt>
<pdfrwt beam="2">  1       -2 0.31572209E+00 0.34274455E+04</pdfrwt>
<totfact> 0.29209861E-01</totfact>
</mgrwt>
</event>
<event>
 6    1  0.1934315E-005  0.1336002E+04  0.7818608E-02  0.9001492E-01
         -2   -1    0    0    0  501 -0.00000000000E+00  0.00000000000E+00  0.50834202819E+03  0.50834202819E+03  0.00000000000E+00 0. -1.
          2   -1    0    0  501    0  0.00000000000E+00 -0.00000000000E+00 -0.87780580932E+03  0.87780580932E+03  0.00000000000E+00 0.  1.
         23    2    1    2    0    0  0.20113666662E+03  0.33558550635E+03  0.37212755677E+03  0.54767821779E+03  0.91645627279E+02 0.  0.
         13    1    3    3    0    0  0.18843216727E+03  0.25045307551E+03  0.26639239156E+03  0.41133724725E+03  0.00000000000E+00 0. -1.
        -13    1    3    3    0    0  0.12704499347E+02  0.85132430842E+02  0.10573516521E+03  0.13634097054E+03  0.00000000000E+00 0.  1.
         22    1    1    2    0    0 -0.20113666662E+03 -0.33558550635E+03 -0.74159133790E+03  0.83846961971E+03  0.00000000000E+00 0.  1.
<mgrwt>
<rscale>  0 0.13360024E+04</rscale>
<asrwt>0</asrwt>
<pdfrwt beam="1">  1        2 0.13504705E+00 0.13360024E+04</pdfrwt>
<pdfrwt beam="2">  1       -2 0.78206467E-01 0.13360024E+04</pdfrwt>
<totfact> 0.43193492E+01</totfact>
</mgrwt>
</event>
<event>
 6    1  0.1934315E-005  0.3358923E+04  0.7818608E-02  0.8148062E-01
          2   -1    0    0  501    0  0.00000000000E+00  0.00000000000E+00  0.20524466438E+04  0.20524466438E+04  0.00000000000E+00 0.  1.
         -2   -1    0    0    0  501 -0.00000000000E+00 -0.00000000000E+00 -0.13742577099E+04  0.13742577099E+04  0.00000000000E+00 0. -1.
         23    2    1    2    0    0  0.12228455092E+04 -0.15371647058E+03 -0.82276103386E+03  0.14845841981E+04  0.89858944270E+02 0.  0.
         13    1    3    3    0    0  0.93418981476E+03 -0.14772067805E+03 -0.60191584812E+03  0.11210863914E+04  0.00000000000E+00 0. -1.
        -13    1    3    3    0    0  0.28865569441E+03 -0.59957925319E+01 -0.22084518574E+03  0.36349780674E+03  0.00000000000E+00 0.  1.
         22    1    1    2    0    0 -0.12228455092E+04  0.15371647058E+03  0.15009499678E+04  0.19421201555E+04  0.00000000000E+00 0.  1.
<mgrwt>
<rscale>  0 0.33589228E+04</rscale>
<asrwt>0</asrwt>
<pdfrwt beam="1">  1        2 0.31576102E+00 0.33589228E+04</pdfrwt>
<pdfrwt beam="2">  1       -2 0.21142426E+00 0.33589228E+04</pdfrwt>
<totfact> 0.58215910E-01</totfact>
</mgrwt>
</event>
<event>
 6    1  0.1934315E-005  0.4090061E+04  0.7818608E-02  0.7986621E-01
         -1   -1    0    0    0  501 -0.00000000000E+00  0.00000000000E+00  0.17257590712E+04  0.17257590712E+04  0.00000000000E+00 0. -1.
          1   -1    0    0  501    0  0.00000000000E+00 -0.00000000000E+00 -0.24233685631E+04  0.24233685631E+04  0.00000000000E+00 0.  1.
         23    2    1    2    0    0  0.15460498900E+04 -0.70300095616E+03 -0.15026158038E+04  0.22696288265E+04  0.94234543855E+02 0.  0.
         11    1    3    3    0    0  0.10510935463E+04 -0.48244284115E+03 -0.10807437180E+04  0.15828947286E+04  0.00000000000E+00 0.  1.
        -11    1    3    3    0    0  0.49495634374E+03 -0.22055811501E+03 -0.42187208582E+03  0.68673409782E+03  0.00000000000E+00 0. -1.
         22    1    1    2    0    0 -0.15460498900E+04  0.70300095616E+03  0.80500631194E+03  0.18794988079E+04  0.00000000000E+00 0. -1.
<mgrwt>
<rscale>  0 0.40900613E+04</rscale>
<asrwt>0</asrwt>
<pdfrwt beam="1">  1        1 0.37282593E+00 0.40900613E+04</pdfrwt>
<pdfrwt beam="2">  1       -1 0.26550140E+00 0.40900613E+04</pdfrwt>
<totfact> 0.65727159E-02</totfact>
</mgrwt>
</event>
<event>
 6    1  0.1934315E-005  0.2833564E+04  0.7818608E-02  0.8292923E-01
         -2   -1    0    0    0  501 -0.00000000000E+00  0.00000000000E+00  0.16250123384E+04  0.16250123384E+04  0.00000000000E+00 0. -1.
          2   -1    0    0  501    0  0.00000000000E+00 -0.00000000000E+00 -0.12352347941E+04  0.12352347941E+04  0.00000000000E+00 0.  1.
         23    2    1    2    0    0 -0.45600726907E+03  0.11194661755E+04  0.93816850794E+03  0.15328889304E+04  0.91875874032E+02 0.  0.
         11    1    3    3    0    0 -0.21496510754E+03  0.63867641958E+03  0.49867829350E+03  0.83833024925E+03  0.00000000000E+00 0. -1.
        -11    1    3    3    0    0 -0.24104216153E+03  0.48078975592E+03  0.43949021444E+03  0.69455868119E+03  0.00000000000E+00 0.  1.
         22    1    1    2    0    0  0.45600726907E+03 -0.11194661755E+04 -0.54839096368E+03  0.13273582021E+04  0.00000000000E+00 0.  1.
<mgrwt>
<rscale>  0 0.28335644E+04</rscale>
<asrwt>0</asrwt>
<pdfrwt beam="1">  1        2 0.19003612E+00 0.28335644E+04</pdfrwt>
<pdfrwt beam="2">  1       -2 0.25000190E+00 0.28335644E+04</pdfrwt>
<totfact> 0.10063534E+00</totfact>
</mgrwt>
</event>
<event>
 6    1  0.1934315E-005  0.1518378E+04  0.7818608E-02  0.8872323E-01
         -2   -1    0    0    0  501 -0.00000000000E+00  0.00000000000E+00  0.68084605408E+03  0.68084605408E+03  0.00000000000E+00 0. -1.
          2   -1    0    0  501    0  0.00000000000E+00 -0.00000000000E+00 -0.84654633060E+03  0.84654633060E+03  0.00000000000E+00 0.  1.
         23    2    1    2    0    0  0.41186676962E+03  0.44450865256E+03 -0.53898111083E+03  0.81566156521E+03  0.87068783229E+02 0.  0.
         13    1    3    3    0    0  0.16419354354E+03  0.19722421197E+03 -0.17438874048E+03  0.31027140109E+03  0.00000000000E+00 0.  1.
        -13    1    3    3    0    0  0.24767322608E+03  0.24728444059E+03 -0.36459237035E+03  0.50539016412E+03  0.00000000000E+00 0. -1.
         22    1    1    2    0    0 -0.41186676962E+03 -0.44450865256E+03  0.37328083431E+03  0.71173081947E+03  0.00000000000E+00 0. -1.
<mgrwt>
<rscale>  0 0.15183777E+04</rscale>
<asrwt>0</asrwt>
<pdfrwt beam="1">  1        2 0.13023790E+00 0.15183777E+04</pdfrwt>
<pdfrwt beam="2">  1       -2 0.10474555E+00 0.15183777E+04</pdfrwt>
<totfact> 0.22772574E+01</totfact>
</mgrwt>
</event>
<event>
 6    1  0.1934315E-005  0.9392042E+03  0.7818608E-02  0.9377859E-01
          2   -1    0    0  501    0  0.00000000000E+00  0.00000000000E+00  0.17680167958E+04  0.17680167958E+04  0.00000000000E+00 0.  1.
         -2   -1    0    0    0  501 -0.00000000000E+00 -0.00000000000E+00 -0.12473079931E+03  0.12473079931E+03  0.00000000000E+00 0. -1.
         23    2    1    2    0    0  0.41131755588E+03 -0.19948420054E+03  0.10046061621E+04  0.11073254100E+04  0.89218521769E+02 0.  0.
         13    1    3    3    0    0  0.25376647272E+03 -0.75977188755E+02  0.54243005667E+03  0.60365579784E+03  0.00000000000E+00 0. -1.
        -13    1    3    3    0    0  0.15755108316E+03 -0.12350701179E+03  0.46217610546E+03  0.50366961217E+03  0.00000000000E+00 0.  1.
         22    1    1    2    0    0 -0.41131755588E+03  0.19948420054E+03  0.63867983438E+03  0.78542218513E+03  0.00000000000E+00 0. -1.
<mgrwt>
<rscale>  0 0.93920423E+03</rscale>
<asrwt>0</asrwt>
<pdfrwt beam="1">  1        2 0.27200256E+00 0.93920423E+03</pdfrwt>
<pdfrwt beam="2">  1       -2 0.19189355E-01 0.93920423E+03</pdfrwt>
<totfact> 0.20726909E+02</totfact>
</mgrwt>
</event>
<event>
 6    1  0.1934315E-005  0.2172063E+04  0.7818608E-02  0.8530147E-01
          2   -1    0    0  501    0  0.00000000000E+00  0.00000000000E+00  0.24256682686E+04  0.24256682686E+04  0.00000000000E+00 0.  1.
         -2   -1    0    0    0  501 -0.00000000000E+00 -0.00000000000E+00 -0.48624307708E+03  0.48624307708E+03  0.00000000000E+00 0. -1.
         23    2    1    2    0    0 -0.71834431245E+03  0.33538768732E+03  0.19621729872E+04  0.21188029582E+04  0.10343931624E+03 0.  0.
         13    1    3    3    0    0 -0.31883100350E+03  0.93160684467E+02  0.83418173845E+03  0.89788155938E+03  0.00000000000E+00 0. -1.
        -13    1    3    3    0    0 -0.39951330896E+03  0.24222700285E+03  0.11279912487E+04  0.12209213989E+04  0.00000000000E+00 0.  1.
         22    1    1    2    0    0  0.71834431245E+03 -0.33538768732E+03 -0.22747795668E+02  0.79310838745E+03  0.00000000000E+00 0. -1.
<mgrwt>
<rscale>  0 0.21720630E+04</rscale>
<asrwt>0</asrwt>
<pdfrwt beam="1">  1        2 0.37317973E+00 0.21720630E+04</pdfrwt>
<pdfrwt beam="2">  1       -2 0.74806629E-01 0.21720630E+04</pdfrwt>
<totfact> 0.56542701E+00</totfact>
</mgrwt>
</event>
<event>
 6    1  0.1934315E-005  0.2721342E+04  0.7818608E-02  0.8328113E-01
         -2   -1    0    0    0  501 -0.00000000000E+00  0.00000000000E+00  0.25878590526E+04  0.25878590526E+04  0.00000000000E+00 0. -1.
          2   -1    0    0  501    0  0.00000000000E+00 -0.00000000000E+00 -0.71542761114E+03  0.71542761114E+03  0.00000000000E+00 0.  1.
         23    2    1    2    0    0  0.98226260056E+03 -0.14344113636E+03 -0.18970599073E+03  0.10146569503E+04  0.90139823498E+02 0.  0.
         11    1    3    3    0    0  0.82351307740E+03 -0.15037066112E+03 -0.14506997810E+03  0.84960603983E+03  0.00000000000E+00 0. -1.
        -11    1    3    3    0    0  0.15874952316E+03  0.69295247640E+01 -0.44636012626E+02  0.16505091045E+03  0.00000000000E+00 0.  1.
         22    1    1    2    0    0 -0.98226260056E+03  0.14344113636E+03  0.20621374322E+04  0.22886297135E+04  0.00000000000E+00 0. -1.
<mgrwt>
<rscale>  0 0.27213422E+04</rscale>
<asrwt>0</asrwt>
<pdfrwt beam="1">  1        2 0.11006579E+00 0.27213422E+04</pdfrwt>
<pdfrwt beam="2">  1       -2 0.39813216E+00 0.27213422E+04</pdfrwt>
<totfact> 0.26636175E-01</totfact>
</mgrwt>
</event>
<event>
 6    1  0.1934315E-005  0.4326993E+04  0.7818608E-02  0.7941646E-01
          2   -1    0    0  501    0  0.00000000000E+00  0.00000000000E+00  0.23414639205E+04  0.23414639205E+04  0.00000000000E+00 0.  1.
         -2   -1    0    0    0  501 -0.00000000000E+00 -0.00000000000E+00 -0.19990559531E+04  0.19990559531E+04  0.00000000000E+00 0. -1.
         23    2    1    2    0    0  0.15164353557E+04  0.62470147159E+03  0.15851742127E+04  0.22827793514E+04  0.92066096425E+02 0.  0.
         11    1    3    3    0    0  0.50196696440E+03  0.20522262741E+03  0.58515751279E+03  0.79780729184E+03  0.00000000000E+00 0. -1.
        -11    1    3    3    0    0  0.10144683913E+04  0.41947884418E+03  0.10000166999E+04  0.14849720595E+04  0.00000000000E+00 0.  1.
         22    1    1    2    0    0 -0.15164353557E+04 -0.62470147159E+03 -0.12427662452E+04  0.20577405222E+04  0.00000000000E+00 0. -1.
<mgrwt>
<rscale>  0 0.43269931E+04</rscale>
<asrwt>0</asrwt>
<pdfrwt beam="1">  1        2 0.36022522E+00 0.43269931E+04</pdfrwt>
<pdfrwt beam="2">  1       -2 0.30754707E+00 0.43269931E+04</pdfrwt>
<totfact> 0.94263066E-02</totfact>
</mgrwt>
</event>
<event>
 6    1  0.1934315E-005  0.9119635E+03  0.7818608E-02  0.9410749E-01
          2   -1    0    0  501    0  0.00000000000E+00  0.00000000000E+00  0.10944075201E+04  0.10944075201E+04  0.00000000000E+00 0.  1.
         -2   -1    0    0    0  501 -0.00000000000E+00 -0.00000000000E+00 -0.18998349976E+03  0.18998349976E+03  0.00000000000E+00 0. -1.
         23    2    1    2    0    0 -0.37923437422E+03  0.93771698155E+02  0.77531124619E+03  0.87295214179E+03  0.91247309122E+02 0.  0.
         11    1    3    3    0    0 -0.24187581991E+03  0.84386082895E+02  0.57935648216E+03  0.63346575019E+03  0.00000000000E+00 0.  1.
        -11    1    3    3    0    0 -0.13735855430E+03  0.93856152607E+01  0.19595476403E+03  0.23948639160E+03  0.00000000000E+00 0. -1.
         22    1    1    2    0    0  0.37923437422E+03 -0.93771698155E+02  0.12911277419E+03  0.41143887811E+03  0.00000000000E+00 0. -1.
<mgrwt>
<rscale>  0 0.91196353E+03</rscale>
<asrwt>0</asrwt>
<pdfrwt beam="1">  1        2 0.16837039E+00 0.91196353E+03</pdfrwt>
<pdfrwt beam="2">  1       -2 0.29228231E-01 0.91196353E+03</pdfrwt>
<totfact> 0.23655194E+02</totfact>
</mgrwt>
</event>
<event>
 6    1  0.1934315E-005  0.1283172E+04  0.7818608E-02  0.9043017E-01
          2   -1    0    0  501    0  0.00000000000E+00  0.00000000000E+00  0.26109843125E+04  0.26109843125E+04  0.00000000000E+00 0.  1.
         -2   -1    0    0    0  501 -0.00000000000E+00 -0.00000000000E+00 -0.15765421694E+03  0.15765421694E+03  0.00000000000E+00 0. -1.
         23    2    1    2    0    0 -0.12540836615E+03  0.55643883151E+03  0.61454995597E+03  0.84342066300E+03  0.91298055223E+02 0.  0.
         11    1    3    3    0    0 -0.11415553248E+01  0.12611645437E+03  0.17637684945E+03  0.21683047810E+03  0.00000000000E+00 0.  1.
        -11    1    3    3    0    0 -0.12426681083E+03  0.43032237714E+03  0.43817310652E+03  0.62659018491E+03  0.00000000000E+00 0. -1.
         22    1    1    2    0    0  0.12540836615E+03 -0.55643883151E+03  0.18387801396E+04  0.19252178665E+04  0.00000000000E+00 0.  1.
<mgrwt>
<rscale>  0 0.12831721E+04</rscale>
<asrwt>0</asrwt>
<pdfrwt beam="1">  1        2 0.40168986E+00 0.12831721E+04</pdfrwt>
<pdfrwt beam="2">  1       -2 0.24254497E-01 0.12831721E+04</pdfrwt>
<totfact> 0.44870546E+01</totfact>
</mgrwt>
</event>
<event>
 6    1  0.1934315E-005  0.1351928E+04  0.7818608E-02  0.8989370E-01
         -2   -1    0    0    0  501 -0.00000000000E+00  0.00000000000E+00  0.86790723913E+03  0.86790723913E+03  0.00000000000E+00 0. -1.
          2   -1    0    0  501    0  0.00000000000E+00 -0.00000000000E+00 -0.52647020539E+03  0.52647020539E+03  0.00000000000E+00 0.  1.
         23    2    1    2    0    0  0.54037500388E+03  0.26344102402E+02 -0.24101368262E+03  0.59942587773E+03  0.92328929038E+02 0.  0.
         11    1    3    3    0    0  0.30119500052E+03 -0.14928851766E+02 -0.17164880006E+03  0.34699367360E+03  0.00000000000E+00 0. -1.
        -11    1    3    3    0    0  0.23918000336E+03  0.41272954168E+02 -0.69364882554E+02  0.25243220413E+03  0.00000000000E+00 0.  1.
         22    1    1    2    0    0 -0.54037500388E+03 -0.26344102402E+02  0.58245071636E+03  0.79495156678E+03  0.00000000000E+00 0. -1.
<mgrwt>
<rscale>  0 0.13519280E+04</rscale>
<asrwt>0</asrwt>
<pdfrwt beam="1">  1        2 0.80995416E-01 0.13519280E+04</pdfrwt>
<pdfrwt beam="2">  1       -2 0.13352419E+00 0.13519280E+04</pdfrwt>
<totfact> 0.22959026E+01</totfact>
</mgrwt>
</event>
<event>
 6    1  0.1989423E-005  0.2842035E+04  0.7818608E-02  0.8290336E-01
         -2   -1    0    0    0  501 -0.00000000000E+00  0.00000000000E+00  0.92660647469E+03  0.92660647469E+03  0.00000000000E+00 0. -1.
          2   -1    0    0  501    0  0.00000000000E+00 -0.00000000000E+00 -0.21792317167E+04  0.21792317167E+04  0.00000000000E+00 0.  1.
         23    2    1    2    0    0 -0.15771130210E+03 -0.95553804055E+03 -0.17611721041E+04  0.20119708719E+04  0.91508509881E+02 0.  0.
         13    1    3    3    0    0 -0.11150074980E+03 -0.39879052583E+03 -0.74159050928E+03  0.84936610725E+03  0.00000000000E+00 0. -1.
        -13    1    3    3    0    0 -0.46210552301E+02 -0.55674751473E+03 -0.10195815948E+04  0.11626047646E+04  0.00000000000E+00 0.  1.
         22    1    1    2    0    0  0.15771130210E+03  0.95553804055E+03  0.50854686207E+03  0.10938673195E+04  0.00000000000E+00 0.  1.
<mgrwt>
<rscale>  0 0.28420346E+04</rscale>
<asrwt>0</asrwt>
<pdfrwt beam="1">  1        2 0.33526642E+00 0.28420346E+04</pdfrwt>
<pdfrwt beam="2">  1       -2 0.14255484E+00 0.28420346E+04</pdfrwt>
<totfact> 0.15759836E+00</totfact>
</mgrwt>
</event>
<event>
 6    1  0.1934315E-005  0.1478422E+04  0.7818608E-02  0.8898930E-01
          1   -1    0    0  501    0  0.00000000000E+00  0.00000000000E+00  0.12870674874E+04  0.12870674874E+04  0.00000000000E+00 0.  1.
         -1   -1    0    0    0  501 -0.00000000000E+00 -0.00000000000E+00 -0.42455664423E+03  0.42455664423E+03  0.00000000000E+00 0. -1.
         23    2    1    2    0    0  0.20218935801E+03  0.30137974350E+03 -0.30860097511E+03  0.48556818787E+03  0.93976682973E+02 0.  0.
         13    1    3    3    0    0  0.64507359500E+02  0.11485299111E+03 -0.57272124566E+02  0.14364019371E+03  0.00000000000E+00 0.  1.
        -13    1    3    3    0    0  0.13768199851E+03  0.18652675239E+03 -0.25132885055E+03  0.34192799416E+03  0.00000000000E+00 0. -1.
         22    1    1    2    0    0 -0.20218935801E+03 -0.30137974350E+03  0.11711118183E+04  0.12260559438E+04  0.00000000000E+00 0.  1.
<mgrwt>
<rscale>  0 0.14784222E+04</rscale>
<asrwt>0</asrwt>
<pdfrwt beam="1">  1        1 0.19801038E+00 0.14784222E+04</pdfrwt>
<pdfrwt beam="2">  1       -1 0.65316407E-01 0.14784222E+04</pdfrwt>
<totfact> 0.21278019E+01</totfact>
</mgrwt>
</event>
<event>
 6    1  0.1934315E-005  0.6760234E+03  0.7818608E-02  0.9759137E-01
         -2   -1    0    0    0  501 -0.00000000000E+00  0.00000000000E+00  0.59075439937E+02  0.59075439937E+02  0.00000000000E+00 0. -1.
          2   -1    0    0  501    0  0.00000000000E+00 -0.00000000000E+00 -0.19340001552E+04  0.19340001552E+04  0.00000000000E+00 0.  1.
         23    2    1    2    0    0  0.16449382868E+03 -0.17251569318E+03 -0.16371061304E+04  0.16563597455E+04  0.81186454052E+02 0.  0.
         11    1    3    3    0    0  0.10669091501E+03 -0.93159400379E+02 -0.12019227209E+04  0.12102395847E+04  0.00000000000E+00 0.  1.
        -11    1    3    3    0    0  0.57802913673E+02 -0.79356292803E+02 -0.43518340949E+03  0.44612016086E+03  0.00000000000E+00 0. -1.
         22    1    1    2    0    0 -0.16449382868E+03  0.17251569318E+03 -0.23781858482E+03  0.33671584957E+03  0.00000000000E+00 0. -1.
<mgrwt>
<rscale>  0 0.67602340E+03</rscale>
<asrwt>0</asrwt>
<pdfrwt beam="1">  1        2 0.29753846E+00 0.67602340E+03</pdfrwt>
<pdfrwt beam="2">  1       -2 0.90885300E-02 0.67602340E+03</pdfrwt>
<totfact> 0.59839775E+02</totfact>
</mgrwt>
</event>
<event>
 6    1  0.1934315E-005  0.4129194E+04  0.7818608E-02  0.7978979E-01
          2   -1    0    0  501    0  0.00000000000E+00  0.00000000000E+00  0.20210737707E+04  0.20210737707E+04  0.00000000000E+00 0.  1.
         -2   -1    0    0    0  501 -0.00000000000E+00 -0.00000000000E+00 -0.21090574169E+04  0.21090574169E+04  0.00000000000E+00 0. -1.
         23    2    1    2    0    0  0.93143858702E+03  0.10643934986E+04 -0.15468511267E+04  0.20981849070E+04  0.95499395105E+02 0.  0.
         11    1    3    3    0    0  0.46000820267E+03  0.47294829844E+03 -0.76906768089E+03  0.10132880821E+04  0.00000000000E+00 0.  1.
        -11    1    3    3    0    0  0.47143038436E+03  0.59144520019E+03 -0.77778344586E+03  0.10848968249E+04  0.00000000000E+00 0. -1.
         22    1    1    2    0    0 -0.93143858702E+03 -0.10643934986E+04  0.14588674805E+04  0.20319462806E+04  0.00000000000E+00 0.  1.
<mgrwt>
<rscale>  0 0.41291939E+04</rscale>
<asrwt>0</asrwt>
<pdfrwt beam="1">  1        2 0.31093443E+00 0.41291939E+04</pdfrwt>
<pdfrwt beam="2">  1       -2 0.32447037E+00 0.41291939E+04</pdfrwt>
<totfact> 0.11405540E-01</totfact>
</mgrwt>
</event>
<event>
 6    1  0.1934315E-005  0.2318691E+04  0.7818608E-02  0.8470588E-01
          1   -1    0    0  501    0  0.00000000000E+00  0.00000000000E+00  0.27016978851E+04  0.27016978851E+04  0.00000000000E+00 0.  1.
         -1   -1    0    0    0  501 -0.00000000000E+00 -0.00000000000E+00 -0.49749545888E+03  0.49749545888E+03  0.00000000000E+00 0. -1.
         23    2    1    2    0    0 -0.10555686402E+04  0.47198262972E+03  0.10281635801E+04  0.15499328659E+04  0.90436631677E+02 0.  0.
         13    1    3    3    0    0 -0.41891682976E+03  0.23071146322E+03  0.39720414873E+03  0.62168338025E+03  0.00000000000E+00 0.  1.
        -13    1    3    3    0    0 -0.63665181046E+03  0.24127116650E+03  0.63095943141E+03  0.92824948566E+03  0.00000000000E+00 0. -1.
         22    1    1    2    0    0  0.10555686402E+04 -0.47198262972E+03  0.11760388461E+04  0.16492604780E+04  0.00000000000E+00 0.  1.
<mgrwt>
<rscale>  0 0.23186914E+04</rscale>
<asrwt>0</asrwt>
<pdfrwt beam="1">  1        1 0.41564582E+00 0.23186914E+04</pdfrwt>
<pdfrwt beam="2">  1       -1 0.76537764E-01 0.23186914E+04</pdfrwt>
<totfact> 0.15131969E+00</totfact>
</mgrwt>
</event>
<event>
 6    1  0.1934315E-005  0.2689370E+04  0.7818608E-02  0.8338462E-01
         -2   -1    0    0    0  501 -0.00000000000E+00  0.00000000000E+00  0.85281840808E+03  0.85281840808E+03  0.00000000000E+00 0. -1.
          2   -1    0    0  501    0  0.00000000000E+00 -0.00000000000E+00 -0.21202369326E+04  0.21202369326E+04  0.00000000000E+00 0.  1.
         23    2    1    2    0    0 -0.34966294678E+03  0.61617281390E+03  0.62691162524E+03  0.95057670564E+03  0.92977279486E+02 0.  0.
         13    1    3    3    0    0 -0.11738278244E+03  0.13569858910E+03  0.18463486687E+03  0.25745457611E+03  0.00000000000E+00 0.  1.
        -13    1    3    3    0    0 -0.23228016434E+03  0.48047422480E+03  0.44227675837E+03  0.69312212953E+03  0.00000000000E+00 0. -1.
         22    1    1    2    0    0  0.34966294678E+03 -0.61617281390E+03 -0.18943301497E+04  0.20224786350E+04  0.00000000000E+00 0.  1.
<mgrwt>
<rscale>  0 0.26893695E+04</rscale>
<asrwt>0</asrwt>
<pdfrwt beam="1">  1        2 0.32619029E+00 0.26893695E+04</pdfrwt>
<pdfrwt beam="2">  1       -2 0.13120283E+00 0.26893695E+04</pdfrwt>
<totfact> 0.21325720E+00</totfact>
</mgrwt>
</event>
<event>
 6    1  0.1934315E-005  0.4060055E+04  0.7818608E-02  0.7992540E-01
          2   -1    0    0  501    0  0.00000000000E+00  0.00000000000E+00  0.25126165509E+04  0.25126165509E+04  0.00000000000E+00 0.  1.
         -2   -1    0    0    0  501 -0.00000000000E+00 -0.00000000000E+00 -0.16401276662E+04  0.16401276662E+04  0.00000000000E+00 0. -1.
         23    2    1    2    0    0 -0.51768041192E+03 -0.10657750575E+03 -0.15672090502E+04  0.16564514082E+04  0.91297792227E+02 0.  0.
         11    1    3    3    0    0 -0.89224544581E+02 -0.53387973602E+01 -0.17853053413E+03  0.19965638915E+03  0.00000000000E+00 0.  1.
        -11    1    3    3    0    0 -0.42845586733E+03 -0.10123870839E+03 -0.13886785161E+04  0.14567950190E+04  0.00000000000E+00 0. -1.
         22    1    1    2    0    0  0.51768041192E+03  0.10657750575E+03  0.24396979350E+04  0.24962928089E+04  0.00000000000E+00 0.  1.
<mgrwt>
<rscale>  0 0.40600551E+04</rscale>
<asrwt>0</asrwt>
<pdfrwt beam="1">  1        2 0.38655639E+00 0.40600551E+04</pdfrwt>
<pdfrwt beam="2">  1       -2 0.25232733E+00 0.40600551E+04</pdfrwt>
<totfact> 0.16708601E-01</totfact>
</mgrwt>
</event>
<event>
 6    1  0.1934315E-005  0.4226492E+04  0.7818608E-02  0.7960352E-01
         -2   -1    0    0    0  501 -0.00000000000E+00  0.00000000000E+00  0.14978404361E+04  0.14978404361E+04  0.00000000000E+00 0. -1.
          2   -1    0    0  501    0  0.00000000000E+00 -0.00000000000E+00 -0.29814981705E+04  0.29814981705E+04  0.00000000000E+00 0.  1.
         23    2    1    2    0    0 -0.86749002836E+03  0.15989824579E+04  0.39592295857E+03  0.18635963732E+04  0.83382269425E+02 0.  0.
         13    1    3    3    0    0 -0.75842652567E+03  0.13741852666E+04  0.31429018568E+03  0.16007417851E+04  0.00000000000E+00 0. -1.
        -13    1    3    3    0    0 -0.10906350269E+03  0.22479719133E+03  0.81632772889E+02  0.26285458805E+03  0.00000000000E+00 0.  1.
         22    1    1    2    0    0  0.86749002836E+03 -0.15989824579E+04 -0.18795806930E+04  0.26157422334E+04  0.00000000000E+00 0. -1.
<mgrwt>
<rscale>  0 0.42264919E+04</rscale>
<asrwt>0</asrwt>
<pdfrwt beam="1">  1        2 0.45869202E+00 0.42264919E+04</pdfrwt>
<pdfrwt beam="2">  1       -2 0.23043699E+00 0.42264919E+04</pdfrwt>
<totfact> 0.11762506E-01</totfact>
</mgrwt>
</event>
<event>
 6    1  0.1934315E-005  0.2310324E+04  0.7818608E-02  0.8473862E-01
          1   -1    0    0  501    0  0.00000000000E+00  0.00000000000E+00  0.24529966011E+04  0.24529966011E+04  0.00000000000E+00 0.  1.
         -1   -1    0    0    0  501 -0.00000000000E+00 -0.00000000000E+00 -0.54398729239E+03  0.54398729239E+03  0.00000000000E+00 0. -1.
         23    2    1    2    0    0  0.29898782815E+03 -0.28272071313E+03 -0.44162257383E+03  0.61060693872E+03  0.92117386439E+02 0.  0.
         13    1    3    3    0    0  0.21306545553E+03 -0.14503585400E+03 -0.24443200955E+03  0.35521724983E+03  0.00000000000E+00 0. -1.
        -13    1    3    3    0    0  0.85922372619E+02 -0.13768485913E+03 -0.19719056428E+03  0.25538968889E+03  0.00000000000E+00 0.  1.
         22    1    1    2    0    0 -0.29898782815E+03  0.28272071313E+03  0.23506318825E+04  0.23863769547E+04  0.00000000000E+00 0.  1.
<mgrwt>
<rscale>  0 0.23103238E+04</rscale>
<asrwt>0</asrwt>
<pdfrwt beam="1">  1        1 0.37738409E+00 0.23103238E+04</pdfrwt>
<pdfrwt beam="2">  1       -1 0.83690354E-01 0.23103238E+04</pdfrwt>
<totfact> 0.18669868E+00</totfact>
</mgrwt>
</event>
<event>
 6    1  0.1934315E-005  0.1056730E+04  0.7818608E-02  0.9248423E-01
          2   -1    0    0  501    0  0.00000000000E+00  0.00000000000E+00  0.13312319670E+04  0.13312319670E+04  0.00000000000E+00 0.  1.
         -2   -1    0    0    0  501 -0.00000000000E+00 -0.00000000000E+00 -0.20970779803E+03  0.20970779803E+03  0.00000000000E+00 0. -1.
         23    2    1    2    0    0 -0.45642650308E+03  0.10532251572E+03  0.90887035574E+03  0.10265084000E+04  0.90863560998E+02 0.  0.
         11    1    3    3    0    0 -0.38753561862E+03  0.11043414020E+03  0.71550787455E+03  0.82117663969E+03  0.00000000000E+00 0. -1.
        -11    1    3    3    0    0 -0.68890884464E+02 -0.51116244813E+01  0.19336248119E+03  0.20533176033E+03  0.00000000000E+00 0.  1.
         22    1    1    2    0    0  0.45642650308E+03 -0.10532251572E+03  0.21265381324E+03  0.51443136503E+03  0.00000000000E+00 0. -1.
<mgrwt>
<rscale>  0 0.10567303E+04</rscale>
<asrwt>0</asrwt>
<pdfrwt beam="1">  1        2 0.20480491E+00 0.10567303E+04</pdfrwt>
<pdfrwt beam="2">  1       -2 0.32262739E-01 0.10567303E+04</pdfrwt>
<totfact> 0.14098744E+02</totfact>
</mgrwt>
</event>
<event>
 6    1  0.1934315E-005  0.6228988E+03  0.7818608E-02  0.9859005E-01
          2   -1    0    0  501    0  0.00000000000E+00  0.00000000000E+00  0.24390613604E+04  0.24390613604E+04  0.00000000000E+00 0.  1.
         -2   -1    0    0    0  501 -0.00000000000E+00 -0.00000000000E+00 -0.39769698429E+02  0.39769698429E+02  0.00000000000E+00 0. -1.
         23    2    1    2    0    0  0.29830214135E+03 -0.47919947050E+02  0.13923491318E+04  0.14275395921E+04  0.89177875363E+02 0.  0.
         13    1    3    3    0    0  0.92429032597E+02 -0.43991131777E+02  0.33354764009E+03  0.34890166802E+03  0.00000000000E+00 0. -1.
        -13    1    3    3    0    0  0.20587310875E+03 -0.39288152736E+01  0.10588014917E+04  0.10786379241E+04  0.00000000000E+00 0.  1.
         22    1    1    2    0    0 -0.29830214135E+03  0.47919947050E+02  0.10069425302E+04  0.10512914667E+04  0.00000000000E+00 0. -1.
<mgrwt>
<rscale>  0 0.62289882E+03</rscale>
<asrwt>0</asrwt>
<pdfrwt beam="1">  1        2 0.37524009E+00 0.62289882E+03</pdfrwt>
<pdfrwt beam="2">  1       -2 0.61184171E-02 0.62289882E+03</pdfrwt>
<totfact> 0.59515146E+02</totfact>
</mgrwt>
</event>
<event>
 6    1  0.1934315E-005  0.2161134E+04  0.7818608E-02  0.8534781E-01
          2   -1    0    0  501    0  0.00000000000E+00  0.00000000000E+00  0.88122329046E+03  0.88122329046E+03  0.00000000000E+00 0.  1.
         -2   -1    0    0    0  501 -0.00000000000E+00 -0.00000000000E+00 -0.13250052146E+04  0.13250052146E+04  0.00000000000E+00 0. -1.
         23    2    1    2    0    0 -0.15591900243E+03 -0.12170516455E+03 -0.13048230963E+04  0.13227610281E+04  0.89501633753E+02 0.  0.
         11    1    3    3    0    0 -0.34746439234E+02 -0.53522794545E+02 -0.22011117245E+03  0.22917445934E+03  0.00000000000E+00 0. -1.
        -11    1    3    3    0    0 -0.12117256319E+03 -0.68182370008E+02 -0.10847119239E+04  0.10935865688E+04  0.00000000000E+00 0.  1.
         22    1    1    2    0    0  0.15591900243E+03  0.12170516455E+03  0.86104117224E+03  0.88346747687E+03  0.00000000000E+00 0.  1.
<mgrwt>
<rscale>  0 0.21611344E+04</rscale>
<asrwt>0</asrwt>
<pdfrwt beam="1">  1        2 0.13557281E+00 0.21611344E+04</pdfrwt>
<pdfrwt beam="2">  1       -2 0.20384696E+00 0.21611344E+04</pdfrwt>
<totfact> 0.34741423E+00</totfact>
</mgrwt>
</event>
<event>
 6    1  0.1934315E-005  0.1448111E+04  0.7818608E-02  0.8919711E-01
          1   -1    0    0  501    0  0.00000000000E+00  0.00000000000E+00  0.98242021646E+03  0.98242021646E+03  0.00000000000E+00 0. -1.
         -1   -1    0    0    0  501 -0.00000000000E+00 -0.00000000000E+00 -0.53363759068E+03  0.53363759068E+03  0.00000000000E+00 0.  1.
         23    2    1    2    0    0  0.52269656361E+03  0.48823119706E+03  0.32173942033E+03  0.78961346967E+03  0.91606645440E+02 0.  0.
         13    1    3    3    0    0  0.19188412030E+03  0.20814302937E+03  0.84286071637E+02  0.29537633312E+03  0.00000000000E+00 0. -1.
        -13    1    3    3    0    0  0.33081244332E+03  0.28008816769E+03  0.23745334870E+03  0.49423713655E+03  0.00000000000E+00 0.  1.
         22    1    1    2    0    0 -0.52269656361E+03 -0.48823119706E+03  0.12704320544E+03  0.72644433747E+03  0.00000000000E+00 0.  1.
<mgrwt>
<rscale>  0 0.14481110E+04</rscale>
<asrwt>0</asrwt>
<pdfrwt beam="1">  1        1 0.15114157E+00 0.14481110E+04</pdfrwt>
<pdfrwt beam="2">  1       -1 0.82098091E-01 0.14481110E+04</pdfrwt>
<totfact> 0.22397810E+01</totfact>
</mgrwt>
</event>
<event>
 6    1  0.1934315E-005  0.1079391E+04  0.7818608E-02  0.9225515E-01
          2   -1    0    0  501    0  0.00000000000E+00  0.00000000000E+00  0.14107737330E+04  0.14107737330E+04  0.00000000000E+00 0.  1.
         -2   -1    0    0    0  501 -0.00000000000E+00 -0.00000000000E+00 -0.20646195348E+03  0.20646195348E+03  0.00000000000E+00 0. -1.
         23    2    1    2    0    0 -0.20530204438E+03 -0.39856394057E+03  0.16653884246E+03  0.48676020552E+03  0.90543732420E+02 0.  0.
         13    1    3    3    0    0 -0.14122597114E+03 -0.18070336963E+03  0.67979889943E+02  0.23920649690E+03  0.00000000000E+00 0. -1.
        -13    1    3    3    0    0 -0.64076073238E+02 -0.21786057094E+03  0.98558952515E+02  0.24755370863E+03  0.00000000000E+00 0.  1.
         22    1    1    2    0    0  0.20530204438E+03  0.39856394057E+03  0.10377729371E+04  0.11304754810E+04  0.00000000000E+00 0.  1.
<mgrwt>
<rscale>  0 0.10793908E+04</rscale>
<asrwt>0</asrwt>
<pdfrwt beam="1">  1        2 0.21704211E+00 0.10793908E+04</pdfrwt>
<pdfrwt beam="2">  1       -2 0.31763378E-01 0.10793908E+04</pdfrwt>
<totfact> 0.13051649E+02</totfact>
</mgrwt>
</event>
<event>
 6    1  0.1934315E-005  0.1446558E+04  0.7818608E-02  0.8920790E-01
         -3   -1    0    0    0  501 -0.00000000000E+00  0.00000000000E+00  0.27540798670E+04  0.27540798670E+04  0.00000000000E+00 0. -1.
          3   -1    0    0  501    0  0.00000000000E+00 -0.00000000000E+00 -0.18994816584E+03  0.18994816584E+03  0.00000000000E+00 0.  1.
         23    2    1    2    0    0 -0.28322746274E+03 -0.54163393605E+02  0.26307878085E+04  0.26480643433E+04  0.89715127333E+02 0.  0.
         11    1    3    3    0    0 -0.25550168476E+03 -0.54181061383E+02  0.20436572455E+04  0.20602795042E+04  0.00000000000E+00 0. -1.
        -11    1    3    3    0    0 -0.27725777979E+02  0.17667778468E-01  0.58713056299E+03  0.58778483909E+03  0.00000000000E+00 0.  1.
         22    1    1    2    0    0  0.28322746274E+03  0.54163393605E+02 -0.66656107377E+02  0.29596368951E+03  0.00000000000E+00 0.  1.
<mgrwt>
<rscale>  0 0.14465579E+04</rscale>
<asrwt>0</asrwt>
<pdfrwt beam="1">  1        3 0.29222797E-01 0.14465579E+04</pdfrwt>
<pdfrwt beam="2">  1       -3 0.42370457E+00 0.14465579E+04</pdfrwt>
<totfact> 0.23002794E-01</totfact>
</mgrwt>
</event>
<event>
 6    1  0.1934315E-005  0.1430145E+04  0.7818608E-02  0.8932283E-01
         -1   -1    0    0    0  501 -0.00000000000E+00  0.00000000000E+00  0.21536998344E+03  0.21536998344E+03  0.00000000000E+00 0.  1.
          1   -1    0    0  501    0  0.00000000000E+00 -0.00000000000E+00 -0.23741857561E+04  0.23741857561E+04  0.00000000000E+00 0. -1.
         23    2    1    2    0    0  0.48867458824E+03  0.10000360729E+03 -0.16343164148E+03  0.53277150058E+03  0.91279766260E+02 0.  0.
         11    1    3    3    0    0  0.11900831051E+03  0.16662014656E+02 -0.20892871342E+00  0.12016923215E+03  0.00000000000E+00 0.  1.
        -11    1    3    3    0    0  0.36966627773E+03  0.83341592631E+02 -0.16322271277E+03  0.41260226844E+03  0.00000000000E+00 0. -1.
         22    1    1    2    0    0 -0.48867458824E+03 -0.10000360729E+03 -0.19953841311E+04  0.20567842389E+04  0.00000000000E+00 0. -1.
<mgrwt>
<rscale>  0 0.14301445E+04</rscale>
<asrwt>0</asrwt>
<pdfrwt beam="1">  1        1 0.36525935E+00 0.14301445E+04</pdfrwt>
<pdfrwt beam="2">  1       -1 0.33133844E-01 0.14301445E+04</pdfrwt>
<totfact> 0.13813782E+01</totfact>
</mgrwt>
</event>
<event>
 6    1  0.1934315E-005  0.1485899E+04  0.7818608E-02  0.8893884E-01
          2   -1    0    0  501    0  0.00000000000E+00  0.00000000000E+00  0.95571266643E+03  0.95571266643E+03  0.00000000000E+00 0.  1.
         -2   -1    0    0    0  501 -0.00000000000E+00 -0.00000000000E+00 -0.57755223692E+03  0.57755223692E+03  0.00000000000E+00 0. -1.
         23    2    1    2    0    0 -0.65832393435E+03 -0.64291459182E+02  0.53255459468E+03  0.85402904410E+03  0.90705113363E+02 0.  0.
         13    1    3    3    0    0 -0.44321206853E+03 -0.84735151848E+02  0.37249765684E+03  0.58512519002E+03  0.00000000000E+00 0. -1.
        -13    1    3    3    0    0 -0.21511186582E+03  0.20443692666E+02  0.16005693784E+03  0.26890385408E+03  0.00000000000E+00 0.  1.
         22    1    1    2    0    0  0.65832393435E+03  0.64291459182E+02 -0.15439416516E+03  0.67923585925E+03  0.00000000000E+00 0. -1.
<mgrwt>
<rscale>  0 0.14858990E+04</rscale>
<asrwt>0</asrwt>
<pdfrwt beam="1">  1        2 0.14703272E+00 0.14858990E+04</pdfrwt>
<pdfrwt beam="2">  1       -2 0.88854190E-01 0.14858990E+04</pdfrwt>
<totfact> 0.28344638E+01</totfact>
</mgrwt>
</event>
<event>
 6    1  0.1934315E-005  0.7198588E+03  0.7818608E-02  0.9683861E-01
          2   -1    0    0  501    0  0.00000000000E+00  0.00000000000E+00  0.55362362744E+03  0.55362362744E+03  0.00000000000E+00 0.  1.
         -2   -1    0    0    0  501 -0.00000000000E+00 -0.00000000000E+00 -0.23400225081E+03  0.23400225081E+03  0.00000000000E+00 0. -1.
         23    2    1    2    0    0 -0.76425118576E+02 -0.10281839920E+03 -0.19910075732E+03  0.25331784517E+03  0.90091049257E+02 0.  0.
         11    1    3    3    0    0 -0.23932345014E+02 -0.29871232466E+02 -0.14146889474E+03  0.14655543608E+03  0.00000000000E+00 0.  1.
        -11    1    3    3    0    0 -0.52492773562E+02 -0.72947166735E+02 -0.57631862579E+02  0.10676240909E+03  0.00000000000E+00 0. -1.
         22    1    1    2    0    0  0.76425118576E+02  0.10281839920E+03  0.51872213395E+03  0.53430803308E+03  0.00000000000E+00 0.  1.
<mgrwt>
<rscale>  0 0.71985881E+03</rscale>
<asrwt>0</asrwt>
<pdfrwt beam="1">  1        2 0.85172865E-01 0.71985881E+03</pdfrwt>
<pdfrwt beam="2">  1       -2 0.36000347E-01 0.71985881E+03</pdfrwt>
<totfact> 0.39920633E+02</totfact>
</mgrwt>
</event>
<event>
 6    1  0.1934315E-005  0.3372632E+04  0.7818608E-02  0.8144656E-01
          2   -1    0    0  501    0  0.00000000000E+00  0.00000000000E+00  0.23377555144E+04  0.23377555144E+04  0.00000000000E+00 0.  1.
         -2   -1    0    0    0  501 -0.00000000000E+00 -0.00000000000E+00 -0.12164069760E+04  0.12164069760E+04  0.00000000000E+00 0. -1.
         23    2    1    2    0    0  0.65386248804E+03  0.87454518695E+03 -0.79147459448E+03  0.13516053913E+04  0.89664167126E+02 0.  0.
         13    1    3    3    0    0  0.76763207295E+02  0.14813933030E+03 -0.14233743845E+03  0.21931210081E+03  0.00000000000E+00 0. -1.
        -13    1    3    3    0    0  0.57709928075E+03  0.72640585665E+03 -0.64913715604E+03  0.11322932905E+04  0.00000000000E+00 0.  1.
         22    1    1    2    0    0 -0.65386248804E+03 -0.87454518695E+03  0.19128231328E+04  0.22025570991E+04  0.00000000000E+00 0.  1.
<mgrwt>
<rscale>  0 0.33726323E+04</rscale>
<asrwt>0</asrwt>
<pdfrwt beam="1">  1        2 0.35965469E+00 0.33726323E+04</pdfrwt>
<pdfrwt beam="2">  1       -2 0.18713953E+00 0.33726323E+04</pdfrwt>
<totfact> 0.58049687E-01</totfact>
</mgrwt>
</event>
<event>
 6    1  0.1934315E-005  0.4240124E+03  0.7818608E-02  0.1035768E+00
         -4   -1    0    0    0  501 -0.00000000000E+00  0.00000000000E+00  0.54201600572E+03  0.54201600572E+03  0.00000000000E+00 0. -1.
          4   -1    0    0  501    0  0.00000000000E+00 -0.00000000000E+00 -0.82924918819E+02  0.82924918819E+02  0.00000000000E+00 0.  1.
         23    2    1    2    0    0  0.15956062680E+03 -0.10194110785E+03  0.13363910849E+03  0.24841659153E+03  0.89441648765E+02 0.  0.
         11    1    3    3    0    0  0.15504570112E+03 -0.78365936515E+02  0.14052482193E+03  0.22344488139E+03  0.00000000000E+00 0. -1.
        -11    1    3    3    0    0  0.45149256765E+01 -0.23575171339E+02 -0.68857134393E+01  0.24971710136E+02  0.00000000000E+00 0.  1.
         22    1    1    2    0    0 -0.15956062680E+03  0.10194110785E+03  0.32545197841E+03  0.37652433301E+03  0.00000000000E+00 0. -1.
<mgrwt>
<rscale>  0 0.42401242E+03</rscale>
<asrwt>0</asrwt>
<pdfrwt beam="1">  1        4 0.12757680E-01 0.42401242E+03</pdfrwt>
<pdfrwt beam="2">  1       -4 0.83387076E-01 0.42401242E+03</pdfrwt>
<totfact> 0.12571517E+02</totfact>
</mgrwt>
</event>
<event>
 6    1  0.1934315E-005  0.1110948E+04  0.7818608E-02  0.9194587E-01
          2   -1    0    0  501    0  0.00000000000E+00  0.00000000000E+00  0.10063468277E+04  0.10063468277E+04  0.00000000000E+00 0.  1.
         -2   -1    0    0    0  501 -0.00000000000E+00 -0.00000000000E+00 -0.30660512276E+03  0.30660512276E+03  0.00000000000E+00 0. -1.
         23    2    1    2    0    0 -0.23540615858E+03 -0.49298071862E+03  0.44491359584E+03  0.71013903290E+03  0.88900449077E+02 0.  0.
         13    1    3    3    0    0 -0.19093381947E+03 -0.30121298991E+03  0.28742646468E+03  0.45803816577E+03  0.00000000000E+00 0.  1.
        -13    1    3    3    0    0 -0.44472339113E+02 -0.19176772872E+03  0.15748713116E+03  0.25210086712E+03  0.00000000000E+00 0. -1.
         22    1    1    2    0    0  0.23540615858E+03  0.49298071862E+03  0.25482810915E+03  0.60281291762E+03  0.00000000000E+00 0.  1.
<mgrwt>
<rscale>  0 0.11109475E+04</rscale>
<asrwt>0</asrwt>
<pdfrwt beam="1">  1        2 0.15482259E+00 0.11109475E+04</pdfrwt>
<pdfrwt beam="2">  1       -2 0.47170019E-01 0.11109475E+04</pdfrwt>
<totfact> 0.10543318E+02</totfact>
</mgrwt>
</event>
<event>
 6    1  0.1934315E-005  0.1227432E+04  0.7818608E-02  0.9089178E-01
         -2   -1    0    0    0  501 -0.00000000000E+00  0.00000000000E+00  0.31879422654E+03  0.31879422654E+03  0.00000000000E+00 0. -1.
          2   -1    0    0  501    0  0.00000000000E+00 -0.00000000000E+00 -0.11814754821E+04  0.11814754821E+04  0.00000000000E+00 0.  1.
         23    2    1    2    0    0  0.17196003272E+03  0.24242376044E+03 -0.10852587654E+04  0.11289473683E+04  0.91629907933E+02 0.  0.
         13    1    3    3    0    0  0.11278638812E+03  0.10974887265E+03 -0.43311859215E+03  0.46082241619E+03  0.00000000000E+00 0. -1.
        -13    1    3    3    0    0  0.59173644594E+02  0.13267488779E+03 -0.65214017329E+03  0.66812495215E+03  0.00000000000E+00 0.  1.
         22    1    1    2    0    0 -0.17196003272E+03 -0.24242376044E+03  0.22257750990E+03  0.37132234028E+03  0.00000000000E+00 0. -1.
<mgrwt>
<rscale>  0 0.12274324E+04</rscale>
<asrwt>0</asrwt>
<pdfrwt beam="1">  1        2 0.18176546E+00 0.12274324E+04</pdfrwt>
<pdfrwt beam="2">  1       -2 0.49045265E-01 0.12274324E+04</pdfrwt>
<totfact> 0.75313041E+01</totfact>
</mgrwt>
</event>
<event>
 6    1  0.1934315E-005  0.3928926E+03  0.7818608E-02  0.1046269E+00
          2   -1    0    0  501    0  0.00000000000E+00  0.00000000000E+00  0.14114744872E+03  0.14114744872E+03  0.00000000000E+00 0.  1.
         -2   -1    0    0    0  501 -0.00000000000E+00 -0.00000000000E+00 -0.27341024341E+03  0.27341024341E+03  0.00000000000E+00 0. -1.
         23    2    1    2    0    0 -0.44142377075E+02  0.22485843805E+02  0.11935823351E+03  0.15810632354E+03  0.91088193596E+02 0.  0.
         13    1    3    3    0    0 -0.16448867505E+02 -0.34374153833E+02  0.29349773745E+02  0.48099448155E+02  0.00000000000E+00 0.  1.
        -13    1    3    3    0    0 -0.27693509570E+02  0.56859997638E+02  0.90008459760E+02  0.11000687539E+03  0.00000000000E+00 0. -1.
         22    1    1    2    0    0  0.44142377075E+02 -0.22485843805E+02 -0.25162102819E+03  0.25645136859E+03  0.00000000000E+00 0. -1.
<mgrwt>
<rscale>  0 0.39289265E+03</rscale>
<asrwt>0</asrwt>
<pdfrwt beam="1">  1        2 0.21714993E-01 0.39289265E+03</pdfrwt>
<pdfrwt beam="2">  1       -2 0.42063114E-01 0.39289265E+03</pdfrwt>
<totfact> 0.13746919E+03</totfact>
</mgrwt>
</event>
<event>
 6    1  0.1934315E-005  0.7335191E+04  0.7818608E-02  0.7543821E-01
         -2   -1    0    0    0  501 -0.00000000000E+00  0.00000000000E+00  0.42719323356E+04  0.42719323356E+04  0.00000000000E+00 0. -1.
          2   -1    0    0  501    0  0.00000000000E+00 -0.00000000000E+00 -0.31487523732E+04  0.31487523732E+04  0.00000000000E+00 0.  1.
         23    2    1    2    0    0  0.26750121570E+04 -0.82771525290E+02  0.30977291350E+04  0.40948185660E+04  0.95247727966E+02 0.  0.
         13    1    3    3    0    0  0.11871153037E+04 -0.60230338629E+02  0.13129459696E+04  0.17710724313E+04  0.00000000000E+00 0. -1.
        -13    1    3    3    0    0  0.14878968533E+04 -0.22541186661E+02  0.17847831654E+04  0.23237461347E+04  0.00000000000E+00 0.  1.
         22    1    1    2    0    0 -0.26750121570E+04  0.82771525290E+02 -0.19745491725E+04  0.33258661428E+04  0.00000000000E+00 0.  1.
<mgrwt>
<rscale>  0 0.73351911E+04</rscale>
<asrwt>0</asrwt>
<pdfrwt beam="1">  1        2 0.48442344E+00 0.73351911E+04</pdfrwt>
<pdfrwt beam="2">  1       -2 0.65722036E+00 0.73351911E+04</pdfrwt>
<totfact> 0.27919405E-04</totfact>
</mgrwt>
</event>
<event>
 6    1  0.1934315E-005  0.3204597E+04  0.7818608E-02  0.8187604E-01
          2   -1    0    0  501    0  0.00000000000E+00  0.00000000000E+00  0.20531501098E+04  0.20531501098E+04  0.00000000000E+00 0.  1.
         -2   -1    0    0    0  501 -0.00000000000E+00 -0.00000000000E+00 -0.12504495723E+04  0.12504495723E+04  0.00000000000E+00 0. -1.
         23    2    1    2    0    0  0.10229439844E+04 -0.71421641118E+03  0.14359664469E+04  0.19044766750E+04  0.92262082232E+02 0.  0.
         11    1    3    3    0    0  0.23524334634E+03 -0.17718619697E+03  0.28334567457E+03  0.40867976667E+03  0.00000000000E+00 0.  1.
        -11    1    3    3    0    0  0.78770063807E+03 -0.53703021421E+03  0.11526207723E+04  0.14957969083E+04  0.00000000000E+00 0. -1.
         22    1    1    2    0    0 -0.10229439844E+04  0.71421641118E+03 -0.63326590937E+03  0.13991230072E+04  0.00000000000E+00 0. -1.
<mgrwt>
<rscale>  0 0.32045971E+04</rscale>
<asrwt>0</asrwt>
<pdfrwt beam="1">  1        2 0.31586925E+00 0.32045971E+04</pdfrwt>
<pdfrwt beam="2">  1       -2 0.19237686E+00 0.32045971E+04</pdfrwt>
<totfact> 0.78497497E-01</totfact>
</mgrwt>
</event>
<event>
 6    1  0.2211597E-005  0.3532961E+04  0.7818608E-02  0.8106023E-01
         -2   -1    0    0    0  501 -0.00000000000E+00  0.00000000000E+00  0.20721679401E+04  0.20721679401E+04  0.00000000000E+00 0. -1.
          2   -1    0    0  501    0  0.00000000000E+00 -0.00000000000E+00 -0.15058880909E+04  0.15058880909E+04  0.00000000000E+00 0.  1.
         23    2    1    2    0    0  0.10761877940E+04 -0.13991748182E+04  0.26273482675E+03  0.17869642074E+04  0.91329895820E+02 0.  0.
         11    1    3    3    0    0  0.47208682833E+03 -0.60853558241E+03  0.16035774553E+03  0.78669952021E+03  0.00000000000E+00 0.  1.
        -11    1    3    3    0    0  0.60410096564E+03 -0.79063923574E+03  0.10237708122E+03  0.10002646872E+04  0.00000000000E+00 0. -1.
         22    1    1    2    0    0 -0.10761877940E+04  0.13991748182E+04  0.30354502240E+03  0.17910918235E+04  0.00000000000E+00 0.  1.
<mgrwt>
<rscale>  0 0.35329608E+04</rscale>
<asrwt>0</asrwt>
<pdfrwt beam="1">  1        2 0.23167509E+00 0.35329608E+04</pdfrwt>
<pdfrwt beam="2">  1       -2 0.31879507E+00 0.35329608E+04</pdfrwt>
<totfact> 0.25140529E-01</totfact>
</mgrwt>
</event>
<event>
 6    1  0.1934315E-005  0.4232330E+04  0.7818608E-02  0.7959251E-01
         -2   -1    0    0    0  501 -0.00000000000E+00  0.00000000000E+00  0.36508192808E+04  0.36508192808E+04  0.00000000000E+00 0. -1.
          2   -1    0    0  501    0  0.00000000000E+00 -0.00000000000E+00 -0.12266160333E+04  0.12266160333E+04  0.00000000000E+00 0.  1.
         23    2    1    2    0    0 -0.12374008680E+04  0.15047501117E+04  0.21624557085E+04  0.29117431762E+04  0.81239314753E+02 0.  0.
         13    1    3    3    0    0 -0.33584217871E+03  0.46648300706E+03  0.63258935740E+03  0.85473133789E+03  0.00000000000E+00 0. -1.
        -13    1    3    3    0    0 -0.90155868924E+03  0.10382671047E+04  0.15298663511E+04  0.20570118383E+04  0.00000000000E+00 0.  1.
         22    1    1    2    0    0  0.12374008680E+04 -0.15047501117E+04  0.26174753900E+03  0.19656921379E+04  0.00000000000E+00 0. -1.
<mgrwt>
<rscale>  0 0.42323296E+04</rscale>
<asrwt>0</asrwt>
<pdfrwt beam="1">  1        2 0.18871016E+00 0.42323296E+04</pdfrwt>
<pdfrwt beam="2">  1       -2 0.56166450E+00 0.42323296E+04</pdfrwt>
<totfact> 0.10583833E-02</totfact>
</mgrwt>
</event>
<event>
 6    1  0.1934315E-005  0.2035041E+04  0.7818608E-02  0.8590411E-01
         -2   -1    0    0    0  501 -0.00000000000E+00  0.00000000000E+00  0.34916854326E+03  0.34916854326E+03  0.00000000000E+00 0. -1.
          2   -1    0    0  501    0  0.00000000000E+00 -0.00000000000E+00 -0.29651814246E+04  0.29651814246E+04  0.00000000000E+00 0.  1.
         23    2    1    2    0    0 -0.92788875088E+03  0.30288037571E+03 -0.85433350404E+03  0.13003419529E+04  0.91046154677E+02 0.  0.
         11    1    3    3    0    0 -0.57534218949E+03  0.23316006835E+03 -0.55171802487E+03  0.83052696010E+03  0.00000000000E+00 0.  1.
        -11    1    3    3    0    0 -0.35254656139E+03  0.69720307357E+02 -0.30261547917E+03  0.46981499278E+03  0.00000000000E+00 0. -1.
         22    1    1    2    0    0  0.92788875088E+03 -0.30288037571E+03 -0.17616793773E+04  0.20140080149E+04  0.00000000000E+00 0.  1.
<mgrwt>
<rscale>  0 0.20350411E+04</rscale>
<asrwt>0</asrwt>
<pdfrwt beam="1">  1        2 0.45618178E+00 0.20350411E+04</pdfrwt>
<pdfrwt beam="2">  1       -2 0.53718235E-01 0.20350411E+04</pdfrwt>
<totfact> 0.55485822E+00</totfact>
</mgrwt>
</event>
<event>
 6    1  0.1934315E-005  0.3149097E+04  0.7818608E-02  0.8202391E-01
          2   -1    0    0  501    0  0.00000000000E+00  0.00000000000E+00  0.36079654618E+04  0.36079654618E+04  0.00000000000E+00 0.  1.
         -2   -1    0    0    0  501 -0.00000000000E+00 -0.00000000000E+00 -0.68714708224E+03  0.68714708224E+03  0.00000000000E+00 0. -1.
         23    2    1    2    0    0  0.49625852245E+03  0.43769149199E+03  0.34083500883E+04  0.34732040758E+04  0.91923142991E+02 0.  0.
         13    1    3    3    0    0  0.11868239361E+03  0.94843513373E+02  0.99711033762E+03  0.10086177809E+04  0.00000000000E+00 0.  1.
        -13    1    3    3    0    0  0.37757612884E+03  0.34284797862E+03  0.24112397507E+04  0.24645862949E+04  0.00000000000E+00 0. -1.
         22    1    1    2    0    0 -0.49625852245E+03 -0.43769149199E+03 -0.48753170871E+03  0.82190846830E+03  0.00000000000E+00 0. -1.
<mgrwt>
<rscale>  0 0.31490970E+04</rscale>
<asrwt>0</asrwt>
<pdfrwt beam="1">  1        2 0.55507160E+00 0.31490970E+04</pdfrwt>
<pdfrwt beam="2">  1       -2 0.10571494E+00 0.31490970E+04</pdfrwt>
<totfact> 0.41613607E-01</totfact>
</mgrwt>
</event>
<event>
 6    1  0.1934315E-005  0.2852976E+04  0.7818608E-02  0.8287008E-01
          2   -1    0    0  501    0  0.00000000000E+00  0.00000000000E+00  0.38185234975E+04  0.38185234975E+04  0.00000000000E+00 0.  1.
         -2   -1    0    0    0  501 -0.00000000000E+00 -0.00000000000E+00 -0.53289375498E+03  0.53289375498E+03  0.00000000000E+00 0. -1.
         23    2    1    2    0    0 -0.35212542193E+03 -0.12482010531E+04  0.74378597667E+03  0.14978286501E+04  0.90966500236E+02 0.  0.
         13    1    3    3    0    0 -0.31685545569E+03 -0.10574853740E+04  0.66299537522E+03  0.12877249565E+04  0.00000000000E+00 0. -1.
        -13    1    3    3    0    0 -0.35269966242E+02 -0.19071567907E+03  0.80790601447E+02  0.21010369355E+03  0.00000000000E+00 0.  1.
         22    1    1    2    0    0  0.35212542193E+03  0.12482010531E+04  0.25418437658E+04  0.28535886024E+04  0.00000000000E+00 0.  1.
<mgrwt>
<rscale>  0 0.28529755E+04</rscale>
<asrwt>0</asrwt>
<pdfrwt beam="1">  1        2 0.58746514E+00 0.28529755E+04</pdfrwt>
<pdfrwt beam="2">  1       -2 0.81983657E-01 0.28529755E+04</pdfrwt>
<totfact> 0.53873117E-01</totfact>
</mgrwt>
</event>
<event>
 6    1  0.1934315E-005  0.3112030E+04  0.7818608E-02  0.8212444E-01
          2   -1    0    0  501    0  0.00000000000E+00  0.00000000000E+00  0.79912962402E+03  0.79912962402E+03  0.00000000000E+00 0.  1.
         -2   -1    0    0    0  501 -0.00000000000E+00 -0.00000000000E+00 -0.30297751168E+04  0.30297751168E+04  0.00000000000E+00 0. -1.
         23    2    1    2    0    0  0.59042620815E+02  0.11566568276E+04  0.15977602956E+03  0.11726938865E+04  0.91331943313E+02 0.  0.
         13    1    3    3    0    0  0.44182994357E+02  0.43210264178E+03  0.21311253774E+02  0.43487814335E+03  0.00000000000E+00 0. -1.
        -13    1    3    3    0    0  0.14859626458E+02  0.72455418586E+03  0.13846477579E+03  0.73781574317E+03  0.00000000000E+00 0.  1.
         22    1    1    2    0    0 -0.59042620815E+02 -0.11566568276E+04 -0.23904215224E+04  0.26562108543E+04  0.00000000000E+00 0. -1.
<mgrwt>
<rscale>  0 0.31120302E+04</rscale>
<asrwt>0</asrwt>
<pdfrwt beam="1">  1        2 0.12294302E+00 0.31120302E+04</pdfrwt>
<pdfrwt beam="2">  1       -2 0.46611924E+00 0.31120302E+04</pdfrwt>
<totfact> 0.79390652E-02</totfact>
</mgrwt>
</event>
<event>
 6    1  0.1934315E-005  0.6998811E+04  0.7818608E-02  0.7577558E-01
         -2   -1    0    0    0  501 -0.00000000000E+00  0.00000000000E+00  0.39210071068E+04  0.39210071068E+04  0.00000000000E+00 0.  1.
          2   -1    0    0  501    0  0.00000000000E+00 -0.00000000000E+00 -0.31231360041E+04  0.31231360041E+04  0.00000000000E+00 0. -1.
         23    2    1    2    0    0  0.20471328137E+04 -0.18131025280E+04 -0.17977067210E+04  0.32738489880E+04  0.90797618003E+02 0.  0.
         11    1    3    3    0    0  0.92485074654E+03 -0.83314206629E+03 -0.76574071182E+03  0.14614490904E+04  0.00000000000E+00 0. -1.
        -11    1    3    3    0    0  0.11222820672E+04 -0.97996046176E+03 -0.10319660092E+04  0.18123998976E+04  0.00000000000E+00 0.  1.
         22    1    1    2    0    0 -0.20471328137E+04  0.18131025280E+04  0.25955778237E+04  0.37702941229E+04  0.00000000000E+00 0.  1.
<mgrwt>
<rscale>  0 0.69988109E+04</rscale>
<asrwt>0</asrwt>
<pdfrwt beam="1">  1        2 0.48048247E+00 0.69988109E+04</pdfrwt>
<pdfrwt beam="2">  1       -2 0.60323186E+00 0.69988109E+04</pdfrwt>
<totfact> 0.46024916E-04</totfact>
</mgrwt>
</event>
<event>
 6    1  0.1934315E-005  0.3344264E+04  0.7818608E-02  0.8151723E-01
         -2   -1    0    0    0  501 -0.00000000000E+00  0.00000000000E+00  0.95468982520E+03  0.95468982520E+03  0.00000000000E+00 0. -1.
          2   -1    0    0  501    0  0.00000000000E+00 -0.00000000000E+00 -0.29287268313E+04  0.29287268313E+04  0.00000000000E+00 0.  1.
         23    2    1    2    0    0 -0.21965398357E+03 -0.15852744544E+04 -0.43036834983E+03  0.16598483781E+04  0.92394552635E+02 0.  0.
         13    1    3    3    0    0 -0.62675134618E+02 -0.55881649822E+03 -0.19446990981E+03  0.59499798067E+03  0.00000000000E+00 0.  1.
        -13    1    3    3    0    0 -0.15697884895E+03 -0.10264579562E+04 -0.23589844003E+03  0.10648503974E+04  0.00000000000E+00 0. -1.
         22    1    1    2    0    0  0.21965398357E+03  0.15852744544E+04 -0.15436686562E+04  0.22235682784E+04  0.00000000000E+00 0.  1.
<mgrwt>
<rscale>  0 0.33442642E+04</rscale>
<asrwt>0</asrwt>
<pdfrwt beam="1">  1        2 0.45057336E+00 0.33442642E+04</pdfrwt>
<pdfrwt beam="2">  1       -2 0.14687536E+00 0.33442642E+04</pdfrwt>
<totfact> 0.50811708E-01</totfact>
</mgrwt>
</event>
<event>
 6    1  0.1934315E-005  0.2278327E+04  0.7818608E-02  0.8486516E-01
          2   -1    0    0  501    0  0.00000000000E+00  0.00000000000E+00  0.17636776656E+04  0.17636776656E+04  0.00000000000E+00 0.  1.
         -2   -1    0    0    0  501 -0.00000000000E+00 -0.00000000000E+00 -0.73578808288E+03  0.73578808288E+03  0.00000000000E+00 0. -1.
         23    2    1    2    0    0  0.73992222758E+03  0.85838097866E+03  0.40922500354E+03  0.12083233594E+04  0.90980382253E+02 0.  0.
         11    1    3    3    0    0  0.36919746315E+03  0.47336026498E+03  0.17966607674E+03  0.62662317735E+03  0.00000000000E+00 0. -1.
        -11    1    3    3    0    0  0.37072476443E+03  0.38502071367E+03  0.22955892680E+03  0.58170018205E+03  0.00000000000E+00 0.  1.
         22    1    1    2    0    0 -0.73992222758E+03 -0.85838097866E+03  0.61866457921E+03  0.12911423891E+04  0.00000000000E+00 0. -1.
<mgrwt>
<rscale>  0 0.22783266E+04</rscale>
<asrwt>0</asrwt>
<pdfrwt beam="1">  1        2 0.27133502E+00 0.22783266E+04</pdfrwt>
<pdfrwt beam="2">  1       -2 0.11319817E+00 0.22783266E+04</pdfrwt>
<totfact> 0.50311986E+00</totfact>
</mgrwt>
</event>
<event>
 6    1  0.1934315E-005  0.2432122E+04  0.7818608E-02  0.8427575E-01
          2   -1    0    0  501    0  0.00000000000E+00  0.00000000000E+00  0.27553925408E+04  0.27553925408E+04  0.00000000000E+00 0.  1.
         -2   -1    0    0    0  501 -0.00000000000E+00 -0.00000000000E+00 -0.53669462719E+03  0.53669462719E+03  0.00000000000E+00 0. -1.
         23    2    1    2    0    0  0.44003203961E+03  0.26745962411E+03 -0.37773937054E+03  0.64507953352E+03  0.90982009737E+02 0.  0.
         13    1    3    3    0    0  0.16460161500E+03  0.59533687523E+02 -0.15916201589E+03  0.23658085069E+03  0.00000000000E+00 0. -1.
        -13    1    3    3    0    0  0.27543042461E+03  0.20792593659E+03 -0.21857735465E+03  0.40849868283E+03  0.00000000000E+00 0.  1.
         22    1    1    2    0    0 -0.44003203961E+03 -0.26745962411E+03  0.25964372841E+04  0.26470076344E+04  0.00000000000E+00 0.  1.
<mgrwt>
<rscale>  0 0.24321220E+04</rscale>
<asrwt>0</asrwt>
<pdfrwt beam="1">  1        2 0.42390654E+00 0.24321220E+04</pdfrwt>
<pdfrwt beam="2">  1       -2 0.82568406E-01 0.24321220E+04</pdfrwt>
<totfact> 0.28400296E+00</totfact>
</mgrwt>
</event>
<event>
 6    1  0.1934315E-005  0.8839148E+03  0.7818608E-02  0.9445915E-01
          2   -1    0    0  501    0  0.00000000000E+00  0.00000000000E+00  0.52146933889E+03  0.52146933889E+03  0.00000000000E+00 0.  1.
         -2   -1    0    0    0  501 -0.00000000000E+00 -0.00000000000E+00 -0.37456915116E+03  0.37456915116E+03  0.00000000000E+00 0. -1.
         23    2    1    2    0    0 -0.12121114729E+03 -0.13830763356E+03 -0.32822628300E+03  0.38656198724E+03  0.88749836032E+02 0.  0.
         13    1    3    3    0    0 -0.79501132081E+02 -0.34423242048E+02 -0.99639035352E+02  0.13203532467E+03  0.00000000000E+00 0.  1.
        -13    1    3    3    0    0 -0.41710015204E+02 -0.10388439151E+03 -0.22858724765E+03  0.25452666256E+03  0.00000000000E+00 0. -1.
         22    1    1    2    0    0  0.12121114729E+03  0.13830763356E+03  0.47512647073E+03  0.50947650281E+03  0.00000000000E+00 0.  1.
<mgrwt>
<rscale>  0 0.88391476E+03</rscale>
<asrwt>0</asrwt>
<pdfrwt beam="1">  1        2 0.80226052E-01 0.88391476E+03</pdfrwt>
<pdfrwt beam="2">  1       -2 0.57626023E-01 0.88391476E+03</pdfrwt>
<totfact> 0.16606701E+02</totfact>
</mgrwt>
</event>
<event>
 6    1  0.1934315E-005  0.4002282E+04  0.7818608E-02  0.8004086E-01
         -2   -1    0    0    0  501 -0.00000000000E+00  0.00000000000E+00  0.10441584372E+04  0.10441584372E+04  0.00000000000E+00 0. -1.
          2   -1    0    0  501    0  0.00000000000E+00 -0.00000000000E+00 -0.38352080550E+04  0.38352080550E+04  0.00000000000E+00 0.  1.
         23    2    1    2    0    0 -0.18672817671E+04 -0.34580293478E+03 -0.21616144758E+04  0.28787392242E+04  0.90782770388E+02 0.  0.
         11    1    3    3    0    0 -0.13580487392E+04 -0.23118395922E+03 -0.16201945640E+04  0.21266811764E+04  0.00000000000E+00 0. -1.
        -11    1    3    3    0    0 -0.50923302791E+03 -0.11461897556E+03 -0.54141991177E+03  0.75205804771E+03  0.00000000000E+00 0.  1.
         22    1    1    2    0    0  0.18672817671E+04  0.34580293478E+03 -0.62943514199E+03  0.20006272680E+04  0.00000000000E+00 0.  1.
<mgrwt>
<rscale>  0 0.40022818E+04</rscale>
<asrwt>0</asrwt>
<pdfrwt beam="1">  1        2 0.59003201E+00 0.40022818E+04</pdfrwt>
<pdfrwt beam="2">  1       -2 0.16063976E+00 0.40022818E+04</pdfrwt>
<totfact> 0.90443200E-02</totfact>
</mgrwt>
</event>
<event>
 6    1  0.1934315E-005  0.3560838E+04  0.7818608E-02  0.8099521E-01
          2   -1    0    0  501    0  0.00000000000E+00  0.00000000000E+00  0.11338220954E+04  0.11338220954E+04  0.00000000000E+00 0.  1.
         -2   -1    0    0    0  501 -0.00000000000E+00 -0.00000000000E+00 -0.27957582234E+04  0.27957582234E+04  0.00000000000E+00 0. -1.
         23    2    1    2    0    0 -0.10243079916E+04  0.11389223114E+04 -0.18304105676E+04  0.23885629503E+04  0.92082727405E+02 0.  0.
         13    1    3    3    0    0 -0.63328505470E+03  0.72592966013E+03 -0.12156054234E+04  0.15510384835E+04  0.00000000000E+00 0. -1.
        -13    1    3    3    0    0 -0.39102293691E+03  0.41299265124E+03 -0.61480514421E+03  0.83752446682E+03  0.00000000000E+00 0.  1.
         22    1    1    2    0    0  0.10243079916E+04 -0.11389223114E+04  0.16847443961E+03  0.15410173684E+04  0.00000000000E+00 0.  1.
<mgrwt>
<rscale>  0 0.35608384E+04</rscale>
<asrwt>0</asrwt>
<pdfrwt beam="1">  1        2 0.17443417E+00 0.35608384E+04</pdfrwt>
<pdfrwt beam="2">  1       -2 0.43011664E+00 0.35608384E+04</pdfrwt>
<totfact> 0.79736273E-02</totfact>
</mgrwt>
</event>
<event>
 6    1  0.1934315E-005  0.2986700E+04  0.7818608E-02  0.8247539E-01
          2   -1    0    0  501    0  0.00000000000E+00  0.00000000000E+00  0.28163023057E+04  0.28163023057E+04  0.00000000000E+00 0.  1.
         -2   -1    0    0    0  501 -0.00000000000E+00 -0.00000000000E+00 -0.79185199649E+03  0.79185199649E+03  0.00000000000E+00 0. -1.
         23    2    1    2    0    0  0.83401659167E+02  0.11886529050E+04 -0.72014258365E+02  0.11967200301E+04  0.84268688295E+02 0.  0.
         11    1    3    3    0    0  0.69649695550E+02  0.43489559776E+03 -0.15207233180E+02  0.44070003515E+03  0.00000000000E+00 0.  1.
        -11    1    3    3    0    0  0.13751963617E+02  0.75375730723E+03 -0.56807025185E+02  0.75601999499E+03  0.00000000000E+00 0. -1.
         22    1    1    2    0    0 -0.83401659167E+02 -0.11886529050E+04  0.20964645676E+04  0.24114342721E+04  0.00000000000E+00 0.  1.
<mgrwt>
<rscale>  0 0.29867003E+04</rscale>
<asrwt>0</asrwt>
<pdfrwt beam="1">  1        2 0.43327727E+00 0.29867003E+04</pdfrwt>
<pdfrwt beam="2">  1       -2 0.12182339E+00 0.29867003E+04</pdfrwt>
<totfact> 0.99016835E-01</totfact>
</mgrwt>
</event>
<event>
 6    1  0.1934315E-005  0.3311758E+04  0.7818608E-02  0.8159910E-01
          2   -1    0    0  501    0  0.00000000000E+00  0.00000000000E+00  0.27016269695E+04  0.27016269695E+04  0.00000000000E+00 0.  1.
         -2   -1    0    0    0  501 -0.00000000000E+00 -0.00000000000E+00 -0.10149197652E+04  0.10149197652E+04  0.00000000000E+00 0. -1.
         23    2    1    2    0    0 -0.49345313195E+03 -0.10533396440E+04 -0.47661726960E+03  0.12603315205E+04  0.90835680251E+02 0.  0.
         11    1    3    3    0    0 -0.18720344720E+03 -0.49128899572E+03 -0.19010123423E+03  0.55906036098E+03  0.00000000000E+00 0.  1.
        -11    1    3    3    0    0 -0.30624968474E+03 -0.56205064825E+03 -0.28651603537E+03  0.70127115949E+03  0.00000000000E+00 0. -1.
         22    1    1    2    0    0  0.49345313195E+03  0.10533396440E+04  0.21633244739E+04  0.24562152142E+04  0.00000000000E+00 0.  1.
<mgrwt>
<rscale>  0 0.33117576E+04</rscale>
<asrwt>0</asrwt>
<pdfrwt beam="1">  1        2 0.41563491E+00 0.33117576E+04</pdfrwt>
<pdfrwt beam="2">  1       -2 0.15614150E+00 0.33117576E+04</pdfrwt>
<totfact> 0.59482215E-01</totfact>
</mgrwt>
</event>
<event>
 6    1  0.1934315E-005  0.1653964E+04  0.7818608E-02  0.8788065E-01
          2   -1    0    0  501    0  0.00000000000E+00  0.00000000000E+00  0.46846569145E+03  0.46846569145E+03  0.00000000000E+00 0.  1.
         -2   -1    0    0    0  501 -0.00000000000E+00 -0.00000000000E+00 -0.14598699490E+04  0.14598699490E+04  0.00000000000E+00 0. -1.
         23    2    1    2    0    0 -0.69323202627E+03 -0.45277650468E+02 -0.10148713131E+04  0.12332303171E+04  0.90953422508E+02 0.  0.
         11    1    3    3    0    0 -0.20179084182E+03 -0.54589684933E+02 -0.29524467654E+03  0.36175820180E+03  0.00000000000E+00 0.  1.
        -11    1    3    3    0    0 -0.49144118445E+03  0.93120344652E+01 -0.71962663655E+03  0.87147211532E+03  0.00000000000E+00 0. -1.
         22    1    1    2    0    0  0.69323202627E+03  0.45277650468E+02  0.23467055504E+02  0.69510532337E+03  0.00000000000E+00 0.  1.
<mgrwt>
<rscale>  0 0.16539637E+04</rscale>
<asrwt>0</asrwt>
<pdfrwt beam="1">  1        2 0.72071645E-01 0.16539637E+04</pdfrwt>
<pdfrwt beam="2">  1       -2 0.22459538E+00 0.16539637E+04</pdfrwt>
<totfact> 0.58589859E+00</totfact>
</mgrwt>
</event>
<event>
 6    1  0.1934315E-005  0.1960857E+04  0.7818608E-02  0.8625143E-01
         -2   -1    0    0    0  501 -0.00000000000E+00  0.00000000000E+00  0.72136054305E+03  0.72136054305E+03  0.00000000000E+00 0. -1.
          2   -1    0    0  501    0  0.00000000000E+00 -0.00000000000E+00 -0.13325371902E+04  0.13325371902E+04  0.00000000000E+00 0.  1.
         23    2    1    2    0    0 -0.62212064176E+03 -0.25506124067E+03 -0.10513606311E+04  0.12502483886E+04  0.75309542805E+02 0.  0.
         11    1    3    3    0    0 -0.28029596907E+03 -0.78313330239E+02 -0.48171360628E+03  0.56280263543E+03  0.00000000000E+00 0.  1.
        -11    1    3    3    0    0 -0.34182467269E+03 -0.17674791043E+03 -0.56964702478E+03  0.68744575317E+03  0.00000000000E+00 0. -1.
         22    1    1    2    0    0  0.62212064176E+03  0.25506124067E+03  0.44018398395E+03  0.80364934463E+03  0.00000000000E+00 0. -1.
<mgrwt>
<rscale>  0 0.19608567E+04</rscale>
<asrwt>0</asrwt>
<pdfrwt beam="1">  1        2 0.20500572E+00 0.19608567E+04</pdfrwt>
<pdfrwt beam="2">  1       -2 0.11097855E+00 0.19608567E+04</pdfrwt>
<totfact> 0.94866759E+00</totfact>
</mgrwt>
</event>
<event>
 6    1  0.1934315E-005  0.3761090E+04  0.7818608E-02  0.8054557E-01
          2   -1    0    0  501    0  0.00000000000E+00  0.00000000000E+00  0.41080112901E+04  0.41080112901E+04  0.00000000000E+00 0.  1.
         -2   -1    0    0    0  501 -0.00000000000E+00 -0.00000000000E+00 -0.86086638997E+03  0.86086638997E+03  0.00000000000E+00 0. -1.
         23    2    1    2    0    0  0.10495131143E+04  0.10559565162E+04  0.31399568594E+04  0.34762252700E+04  0.91055519080E+02 0.  0.
         11    1    3    3    0    0  0.87356553245E+03  0.83644710483E+03  0.25014462615E+04  0.27784876998E+04  0.00000000000E+00 0. -1.
        -11    1    3    3    0    0  0.17594758188E+03  0.21950941134E+03  0.63851059784E+03  0.69773757015E+03  0.00000000000E+00 0.  1.
         22    1    1    2    0    0 -0.10495131143E+04 -0.10559565162E+04  0.10718804071E+03  0.14926524101E+04  0.00000000000E+00 0. -1.
<mgrwt>
<rscale>  0 0.37610897E+04</rscale>
<asrwt>0</asrwt>
<pdfrwt beam="1">  1        2 0.63200172E+00 0.37610897E+04</pdfrwt>
<pdfrwt beam="2">  1       -2 0.13244099E+00 0.37610897E+04</pdfrwt>
<totfact> 0.92502225E-02</totfact>
</mgrwt>
</event>
<event>
 6    1  0.1934315E-005  0.2062291E+04  0.7818608E-02  0.8578039E-01
          2   -1    0    0  501    0  0.00000000000E+00  0.00000000000E+00  0.22986528394E+04  0.22986528394E+04  0.00000000000E+00 0.  1.
         -2   -1    0    0    0  501 -0.00000000000E+00 -0.00000000000E+00 -0.46255841264E+03  0.46255841264E+03  0.00000000000E+00 0. -1.
         23    2    1    2    0    0  0.71297064204E+03 -0.74235751340E+03  0.93074524375E+03  0.13904162428E+04  0.86883861548E+02 0.  0.
         11    1    3    3    0    0  0.63264185904E+03 -0.69241006016E+03  0.83335458998E+03  0.12546502644E+04  0.00000000000E+00 0.  1.
        -11    1    3    3    0    0  0.80328782996E+02 -0.49947453249E+02  0.97390653761E+02  0.13576597845E+03  0.00000000000E+00 0. -1.
         22    1    1    2    0    0 -0.71297064204E+03  0.74235751340E+03  0.90534918296E+03  0.13707950092E+04  0.00000000000E+00 0.  1.
<mgrwt>
<rscale>  0 0.20622912E+04</rscale>
<asrwt>0</asrwt>
<pdfrwt beam="1">  1        2 0.35363889E+00 0.20622912E+04</pdfrwt>
<pdfrwt beam="2">  1       -2 0.71162834E-01 0.20622912E+04</pdfrwt>
<totfact> 0.75279328E+00</totfact>
</mgrwt>
</event>
<event>
 6    1  0.1934315E-005  0.2250476E+04  0.7818608E-02  0.8497708E-01
         -2   -1    0    0    0  501 -0.00000000000E+00  0.00000000000E+00  0.66120109628E+03  0.66120109628E+03  0.00000000000E+00 0. -1.
          2   -1    0    0  501    0  0.00000000000E+00 -0.00000000000E+00 -0.19149408755E+04  0.19149408755E+04  0.00000000000E+00 0.  1.
         23    2    1    2    0    0 -0.35363368590E+03 -0.33293668190E+03  0.53160029983E+03  0.72591419774E+03  0.91918038128E+02 0.  0.
         13    1    3    3    0    0 -0.20218539472E+03 -0.24049173740E+03  0.30254887338E+03  0.43617775090E+03  0.00000000000E+00 0.  1.
        -13    1    3    3    0    0 -0.15144829119E+03 -0.92444944498E+02  0.22905142645E+03  0.28973644684E+03  0.00000000000E+00 0. -1.
         22    1    1    2    0    0  0.35363368590E+03  0.33293668190E+03 -0.17853400791E+04  0.18502277741E+04  0.00000000000E+00 0.  1.
<mgrwt>
<rscale>  0 0.22504764E+04</rscale>
<asrwt>0</asrwt>
<pdfrwt beam="1">  1        2 0.29460629E+00 0.22504764E+04</pdfrwt>
<pdfrwt beam="2">  1       -2 0.10172325E+00 0.22504764E+04</pdfrwt>
<totfact> 0.53779371E+00</totfact>
</mgrwt>
</event>
<event>
 6    1  0.1934315E-005  0.8404116E+03  0.7818608E-02  0.9503297E-01
         -1   -1    0    0    0  501 -0.00000000000E+00  0.00000000000E+00  0.96084417676E+02  0.96084417676E+02  0.00000000000E+00 0. -1.
          1   -1    0    0  501    0  0.00000000000E+00 -0.00000000000E+00 -0.18376851565E+04  0.18376851565E+04  0.00000000000E+00 0.  1.
         23    2    1    2    0    0  0.12969922764E+03 -0.32607343249E+03 -0.13917774184E+04  0.14382676786E+04  0.91781042922E+02 0.  0.
         11    1    3    3    0    0  0.12103278389E+03 -0.21122968601E+03 -0.10401394275E+04  0.10682494763E+04  0.00000000000E+00 0.  1.
        -11    1    3    3    0    0  0.86664437506E+01 -0.11484374648E+03 -0.35163799092E+03  0.37001820227E+03  0.00000000000E+00 0. -1.
         22    1    1    2    0    0 -0.12969922764E+03  0.32607343249E+03 -0.34982332042E+03  0.49550189560E+03  0.00000000000E+00 0.  1.
<mgrwt>
<rscale>  0 0.84041159E+03</rscale>
<asrwt>0</asrwt>
<pdfrwt beam="1">  1        1 0.28272079E+00 0.84041159E+03</pdfrwt>
<pdfrwt beam="2">  1       -1 0.14782218E-01 0.84041159E+03</pdfrwt>
<totfact> 0.13175196E+02</totfact>
</mgrwt>
</event>
<event>
 6    1  0.1934315E-005  0.7266123E+04  0.7818608E-02  0.7550596E-01
         -2   -1    0    0    0  501 -0.00000000000E+00  0.00000000000E+00  0.28905898838E+04  0.28905898838E+04  0.00000000000E+00 0. -1.
          2   -1    0    0  501    0  0.00000000000E+00 -0.00000000000E+00 -0.45662428545E+04  0.45662428545E+04  0.00000000000E+00 0.  1.
         23    2    1    2    0    0  0.14229447246E+04 -0.15357872286E+03  0.25883585382E+04  0.29590385833E+04  0.89170073036E+02 0.  0.
         13    1    3    3    0    0  0.10098590376E+04 -0.77889445965E+02  0.17745993114E+04  0.20433024147E+04  0.00000000000E+00 0.  1.
        -13    1    3    3    0    0  0.41308568695E+03 -0.75689276899E+02  0.81375922680E+03  0.91573616866E+03  0.00000000000E+00 0. -1.
         22    1    1    2    0    0 -0.14229447246E+04  0.15357872286E+03 -0.42640115089E+04  0.44977941551E+04  0.00000000000E+00 0.  1.
<mgrwt>
<rscale>  0 0.72661229E+04</rscale>
<asrwt>0</asrwt>
<pdfrwt beam="1">  1        2 0.70249890E+00 0.72661229E+04</pdfrwt>
<pdfrwt beam="2">  1       -2 0.44470614E+00 0.72661229E+04</pdfrwt>
<totfact> 0.24109509E-04</totfact>
</mgrwt>
</event>
<event>
 6    1  0.1934315E-005  0.2590505E+04  0.7818608E-02  0.8371434E-01
          2   -1    0    0  501    0  0.00000000000E+00  0.00000000000E+00  0.19857466237E+04  0.19857466237E+04  0.00000000000E+00 0.  1.
         -2   -1    0    0    0  501 -0.00000000000E+00 -0.00000000000E+00 -0.84486027033E+03  0.84486027033E+03  0.00000000000E+00 0. -1.
         23    2    1    2    0    0 -0.57483611680E+03 -0.92999613202E+03 -0.18444222930E+03  0.11125192307E+04  0.91382361809E+02 0.  0.
         13    1    3    3    0    0 -0.84511144070E+02 -0.19171745435E+03 -0.57005083684E+02  0.21713427951E+03  0.00000000000E+00 0. -1.
        -13    1    3    3    0    0 -0.49032497273E+03 -0.73827867767E+03 -0.12743714562E+03  0.89538495122E+03  0.00000000000E+00 0.  1.
         22    1    1    2    0    0  0.57483611680E+03  0.92999613202E+03  0.13253285827E+04  0.17180876633E+04  0.00000000000E+00 0.  1.
<mgrwt>
<rscale>  0 0.25905045E+04</rscale>
<asrwt>0</asrwt>
<pdfrwt beam="1">  1        2 0.30549948E+00 0.25905045E+04</pdfrwt>
<pdfrwt beam="2">  1       -2 0.12997850E+00 0.25905045E+04</pdfrwt>
<totfact> 0.26172450E+00</totfact>
</mgrwt>
</event>
<event>
 6    1  0.1934315E-005  0.5509241E+04  0.7818608E-02  0.7754419E-01
          2   -1    0    0  501    0  0.00000000000E+00  0.00000000000E+00  0.37208922162E+04  0.37208922162E+04  0.00000000000E+00 0.  1.
         -2   -1    0    0    0  501 -0.00000000000E+00 -0.00000000000E+00 -0.20392784391E+04  0.20392784391E+04  0.00000000000E+00 0. -1.
         23    2    1    2    0    0  0.17311563827E+04  0.72222044286E+03  0.29490803784E+04  0.34963295886E+04  0.93491843796E+02 0.  0.
         11    1    3    3    0    0  0.42179350715E+03  0.21063385061E+03  0.78769864370E+03  0.91801172921E+03  0.00000000000E+00 0. -1.
        -11    1    3    3    0    0  0.13093628755E+04  0.51158659224E+03  0.21613817347E+04  0.25783178594E+04  0.00000000000E+00 0.  1.
         22    1    1    2    0    0 -0.17311563827E+04 -0.72222044286E+03 -0.12674666013E+04  0.22638410666E+04  0.00000000000E+00 0. -1.
<mgrwt>
<rscale>  0 0.55092414E+04</rscale>
<asrwt>0</asrwt>
<pdfrwt beam="1">  1        2 0.57244495E+00 0.55092414E+04</pdfrwt>
<pdfrwt beam="2">  1       -2 0.31373515E+00 0.55092414E+04</pdfrwt>
<totfact> 0.10275747E-02</totfact>
</mgrwt>
</event>
<event>
 6    1  0.1934315E-005  0.1656428E+04  0.7818608E-02  0.8786613E-01
          2   -1    0    0  501    0  0.00000000000E+00  0.00000000000E+00  0.28928329816E+04  0.28928329816E+04  0.00000000000E+00 0.  1.
         -2   -1    0    0    0  501 -0.00000000000E+00 -0.00000000000E+00 -0.23711652893E+03  0.23711652893E+03  0.00000000000E+00 0. -1.
         23    2    1    2    0    0  0.59790914941E+03 -0.39699204275E+03  0.21034295215E+04  0.22243453546E+04  0.90545411000E+02 0.  0.
         11    1    3    3    0    0  0.28382018802E+03 -0.24120600685E+03  0.11165968706E+04  0.11770823286E+04  0.00000000000E+00 0.  1.
        -11    1    3    3    0    0  0.31408896139E+03 -0.15578603590E+03  0.98683265090E+03  0.10472630260E+04  0.00000000000E+00 0. -1.
         22    1    1    2    0    0 -0.59790914941E+03  0.39699204275E+03  0.55228693114E+03  0.90560415595E+03  0.00000000000E+00 0. -1.
<mgrwt>
<rscale>  0 0.16564281E+04</rscale>
<asrwt>0</asrwt>
<pdfrwt beam="1">  1        2 0.44505120E+00 0.16564281E+04</pdfrwt>
<pdfrwt beam="2">  1       -2 0.36479468E-01 0.16564281E+04</pdfrwt>
<totfact> 0.13770111E+01</totfact>
</mgrwt>
</event>
<event>
 6    1  0.1934315E-005  0.2482988E+04  0.7818608E-02  0.8409071E-01
          2   -1    0    0  501    0  0.00000000000E+00  0.00000000000E+00  0.15867528206E+04  0.15867528206E+04  0.00000000000E+00 0.  1.
         -2   -1    0    0    0  501 -0.00000000000E+00 -0.00000000000E+00 -0.97135981877E+03  0.97135981877E+03  0.00000000000E+00 0. -1.
         23    2    1    2    0    0 -0.65727850231E+03  0.70581727302E+03 -0.49462583890E+03  0.10876246662E+04  0.89886826091E+02 0.  0.
         11    1    3    3    0    0 -0.21818748554E+03  0.23670212230E+03 -0.11821980861E+03  0.34294255597E+03  0.00000000000E+00 0. -1.
        -11    1    3    3    0    0 -0.43909101677E+03  0.46911515072E+03 -0.37640603029E+03  0.74468211022E+03  0.00000000000E+00 0.  1.
         22    1    1    2    0    0  0.65727850231E+03 -0.70581727302E+03  0.11100188407E+04  0.14704879732E+04  0.00000000000E+00 0.  1.
<mgrwt>
<rscale>  0 0.24829885E+04</rscale>
<asrwt>0</asrwt>
<pdfrwt beam="1">  1        2 0.24411582E+00 0.24829885E+04</pdfrwt>
<pdfrwt beam="2">  1       -2 0.14943997E+00 0.24829885E+04</pdfrwt>
<totfact> 0.30664410E+00</totfact>
</mgrwt>
</event>
<event>
 6    1  0.1934315E-005  0.2548807E+04  0.7818608E-02  0.8385801E-01
          2   -1    0    0  501    0  0.00000000000E+00  0.00000000000E+00  0.29088052989E+04  0.29088052989E+04  0.00000000000E+00 0.  1.
         -2   -1    0    0    0  501 -0.00000000000E+00 -0.00000000000E+00 -0.55834068907E+03  0.55834068907E+03  0.00000000000E+00 0. -1.
         23    2    1    2    0    0  0.54827984123E+03 -0.96274635502E+03  0.32460167955E+03  0.11581176337E+04  0.91536193792E+02 0.  0.
         11    1    3    3    0    0  0.13409820891E+03 -0.21880040067E+03  0.11508803525E+03  0.28124935702E+03  0.00000000000E+00 0. -1.
        -11    1    3    3    0    0  0.41418163232E+03 -0.74394595435E+03  0.20951364430E+03  0.87686827670E+03  0.00000000000E+00 0.  1.
         22    1    1    2    0    0 -0.54827984123E+03  0.96274635502E+03  0.20258629303E+04  0.23090283543E+04  0.00000000000E+00 0.  1.
<mgrwt>
<rscale>  0 0.25488071E+04</rscale>
<asrwt>0</asrwt>
<pdfrwt beam="1">  1        2 0.44750850E+00 0.25488071E+04</pdfrwt>
<pdfrwt beam="2">  1       -2 0.85898569E-01 0.25488071E+04</pdfrwt>
<totfact> 0.20731766E+00</totfact>
</mgrwt>
</event>
<event>
 6    1  0.1934315E-005  0.1102716E+04  0.7818608E-02  0.9202549E-01
         -2   -1    0    0    0  501 -0.00000000000E+00  0.00000000000E+00  0.34684985885E+03  0.34684985885E+03  0.00000000000E+00 0. -1.
          2   -1    0    0  501    0  0.00000000000E+00 -0.00000000000E+00 -0.87644698785E+03  0.87644698785E+03  0.00000000000E+00 0.  1.
         23    2    1    2    0    0 -0.37410547053E+03 -0.40110933338E+02  0.17464338048E+03  0.42484929974E+03  0.91830425760E+02 0.  0.
         11    1    3    3    0    0 -0.26386260558E+03 -0.41124212946E+02  0.77912331339E+02  0.27818160775E+03  0.00000000000E+00 0.  1.
        -11    1    3    3    0    0 -0.11024286494E+03  0.10132796080E+01  0.96731049142E+02  0.14666769199E+03  0.00000000000E+00 0. -1.
         22    1    1    2    0    0  0.37410547053E+03  0.40110933338E+02 -0.70424050948E+03  0.79844754696E+03  0.00000000000E+00 0.  1.
<mgrwt>
<rscale>  0 0.11027158E+04</rscale>
<asrwt>0</asrwt>
<pdfrwt beam="1">  1        2 0.13483800E+00 0.11027158E+04</pdfrwt>
<pdfrwt beam="2">  1       -2 0.53361517E-01 0.11027158E+04</pdfrwt>
<totfact> 0.99995948E+01</totfact>
</mgrwt>
</event>
<event>
 6    1  0.1934315E-005  0.3666135E+04  0.7818608E-02  0.8075508E-01
         -2   -1    0    0    0  501 -0.00000000000E+00  0.00000000000E+00  0.15931547590E+04  0.15931547590E+04  0.00000000000E+00 0. -1.
          2   -1    0    0  501    0  0.00000000000E+00 -0.00000000000E+00 -0.21091086586E+04  0.21091086586E+04  0.00000000000E+00 0.  1.
         23    2    1    2    0    0  0.13901700126E+04  0.11846427592E+04 -0.39917804607E+03  0.18720755227E+04  0.96811771202E+02 0.  0.
         11    1    3    3    0    0  0.54819532466E+03  0.42278770435E+03 -0.11785044987E+03  0.70225087074E+03  0.00000000000E+00 0. -1.
        -11    1    3    3    0    0  0.84197468798E+03  0.76185505488E+03 -0.28132759620E+03  0.11698246519E+04  0.00000000000E+00 0.  1.
         22    1    1    2    0    0 -0.13901700126E+04 -0.11846427592E+04 -0.11677585355E+03  0.18301878950E+04  0.00000000000E+00 0. -1.
<mgrwt>
<rscale>  0 0.36661350E+04</rscale>
<asrwt>0</asrwt>
<pdfrwt beam="1">  1        2 0.32447826E+00 0.36661350E+04</pdfrwt>
<pdfrwt beam="2">  1       -2 0.24510073E+00 0.36661350E+04</pdfrwt>
<totfact> 0.32432366E-01</totfact>
</mgrwt>
</event>
<event>
 6    1  0.1934315E-005  0.2294624E+04  0.7818608E-02  0.8480044E-01
         -2   -1    0    0    0  501 -0.00000000000E+00  0.00000000000E+00  0.36675753169E+03  0.36675753169E+03  0.00000000000E+00 0. -1.
          2   -1    0    0  501    0  0.00000000000E+00 -0.00000000000E+00 -0.35890886065E+04  0.35890886065E+04  0.00000000000E+00 0.  1.
         23    2    1    2    0    0 -0.65615973318E+03 -0.11061118638E+03 -0.32209595449E+04  0.32904272392E+04  0.97727153765E+02 0.  0.
         11    1    3    3    0    0 -0.69316343822E+02  0.99189918484E+01 -0.24746285524E+03  0.25717893896E+03  0.00000000000E+00 0. -1.
        -11    1    3    3    0    0 -0.58684338936E+03 -0.12053017823E+03 -0.29734966896E+04  0.30332483002E+04  0.00000000000E+00 0.  1.
         22    1    1    2    0    0  0.65615973318E+03  0.11061118638E+03 -0.13715298829E+01  0.66541889896E+03  0.00000000000E+00 0. -1.
<mgrwt>
<rscale>  0 0.22946244E+04</rscale>
<asrwt>0</asrwt>
<pdfrwt beam="1">  1        2 0.55216748E+00 0.22946244E+04</pdfrwt>
<pdfrwt beam="2">  1       -2 0.56424235E-01 0.22946244E+04</pdfrwt>
<totfact> 0.18853030E+00</totfact>
</mgrwt>
</event>
<event>
 6    1  0.1934315E-005  0.2724025E+04  0.7818608E-02  0.8327252E-01
         -2   -1    0    0    0  501 -0.00000000000E+00  0.00000000000E+00  0.12757663091E+04  0.12757663091E+04  0.00000000000E+00 0. -1.
          2   -1    0    0  501    0  0.00000000000E+00 -0.00000000000E+00 -0.14540887589E+04  0.14540887589E+04  0.00000000000E+00 0.  1.
         23    2    1    2    0    0  0.66787391937E+03 -0.44067403168E+03 -0.11917538780E+04  0.14386182833E+04  0.95373397023E+02 0.  0.
         13    1    3    3    0    0  0.43577211435E+03 -0.34016299743E+03 -0.80875564217E+03  0.97963967315E+03  0.00000000000E+00 0. -1.
        -13    1    3    3    0    0  0.23210180502E+03 -0.10051103425E+03 -0.38299823586E+03  0.45897861015E+03  0.00000000000E+00 0.  1.
         22    1    1    2    0    0 -0.66787391937E+03  0.44067403168E+03  0.10134314282E+04  0.12912367847E+04  0.00000000000E+00 0. -1.
<mgrwt>
<rscale>  0 0.27240246E+04</rscale>
<asrwt>0</asrwt>
<pdfrwt beam="1">  1        2 0.22370596E+00 0.27240246E+04</pdfrwt>
<pdfrwt beam="2">  1       -2 0.19627174E+00 0.27240246E+04</pdfrwt>
<totfact> 0.16611908E+00</totfact>
</mgrwt>
</event>
<event>
 6    1  0.1934315E-005  0.3583739E+04  0.7818608E-02  0.8094227E-01
         -2   -1    0    0    0  501 -0.00000000000E+00  0.00000000000E+00  0.84117526413E+03  0.84117526413E+03  0.00000000000E+00 0. -1.
          2   -1    0    0  501    0  0.00000000000E+00 -0.00000000000E+00 -0.38170358269E+04  0.38170358269E+04  0.00000000000E+00 0.  1.
         23    2    1    2    0    0  0.44070269306E+03  0.81075453885E+03  0.50580359737E+03  0.10563328158E+04  0.91978000649E+02 0.  0.
         11    1    3    3    0    0  0.38773302414E+03  0.74153889304E+03  0.42992277249E+03  0.94077118270E+03  0.00000000000E+00 0.  1.
        -11    1    3    3    0    0  0.52969668921E+02  0.69215645808E+02  0.75880824875E+02  0.11556163305E+03  0.00000000000E+00 0. -1.
         22    1    1    2    0    0 -0.44070269306E+03 -0.81075453885E+03 -0.34816641601E+04  0.36018782753E+04  0.00000000000E+00 0.  1.
<mgrwt>
<rscale>  0 0.35837389E+04</rscale>
<asrwt>0</asrwt>
<pdfrwt beam="1">  1        2 0.58723628E+00 0.35837389E+04</pdfrwt>
<pdfrwt beam="2">  1       -2 0.12941158E+00 0.35837389E+04</pdfrwt>
<totfact> 0.17048251E-01</totfact>
</mgrwt>
</event>
<event>
 6    1  0.1934315E-005  0.5208210E+04  0.7818608E-02  0.7797168E-01
         -2   -1    0    0    0  501 -0.00000000000E+00  0.00000000000E+00  0.21138417927E+04  0.21138417927E+04  0.00000000000E+00 0. -1.
          2   -1    0    0  501    0  0.00000000000E+00 -0.00000000000E+00 -0.32080750776E+04  0.32080750776E+04  0.00000000000E+00 0.  1.
         23    2    1    2    0    0  0.65900964905E+01  0.12814794449E+04  0.17682051530E+04  0.21857110723E+04  0.92468542341E+02 0.  0.
         11    1    3    3    0    0  0.43187093145E+02  0.70254942965E+03  0.10091806224E+04  0.12304008919E+04  0.00000000000E+00 0. -1.
        -11    1    3    3    0    0 -0.36596996654E+02  0.57893001521E+03  0.75902453056E+03  0.95531018034E+03  0.00000000000E+00 0.  1.
         22    1    1    2    0    0 -0.65900964905E+01 -0.12814794449E+04 -0.28624384379E+04  0.31362057980E+04  0.00000000000E+00 0.  1.
<mgrwt>
<rscale>  0 0.52082101E+04</rscale>
<asrwt>0</asrwt>
<pdfrwt beam="1">  1        2 0.49355001E+00 0.52082101E+04</pdfrwt>
<pdfrwt beam="2">  1       -2 0.32520643E+00 0.52082101E+04</pdfrwt>
<totfact> 0.20375868E-02</totfact>
</mgrwt>
</event>
<event>
 6    1  0.1934315E-005  0.2440338E+04  0.7818608E-02  0.8424554E-01
         -4   -1    0    0    0  501 -0.00000000000E+00  0.00000000000E+00  0.23879429879E+04  0.23879429879E+04  0.00000000000E+00 0.  1.
          4   -1    0    0  501    0  0.00000000000E+00 -0.00000000000E+00 -0.62347067564E+03  0.62347067564E+03  0.00000000000E+00 0. -1.
         23    2    1    2    0    0  0.70543390127E+03 -0.54405140186E+03 -0.14243818637E+03  0.90667221465E+03  0.90205049579E+02 0.  0.
         13    1    3    3    0    0  0.42325942958E+03 -0.31932736382E+03 -0.12911251348E+03  0.54570005603E+03  0.00000000000E+00 0. -1.
        -13    1    3    3    0    0  0.28217447169E+03 -0.22472403804E+03 -0.13325672881E+02  0.36097215862E+03  0.00000000000E+00 0.  1.
         22    1    1    2    0    0 -0.70543390127E+03  0.54405140186E+03  0.19069104986E+04  0.21047414489E+04  0.00000000000E+00 0.  1.
<mgrwt>
<rscale>  0 0.24403380E+04</rscale>
<asrwt>0</asrwt>
<pdfrwt beam="1">  1        4 0.95918567E-01 0.24403380E+04</pdfrwt>
<pdfrwt beam="2">  1       -4 0.36737584E+00 0.24403380E+04</pdfrwt>
<totfact> 0.18575595E-02</totfact>
</mgrwt>
</event>
<event>
 6    1  0.1934315E-005  0.1740936E+04  0.7818608E-02  0.8738355E-01
          1   -1    0    0  501    0  0.00000000000E+00  0.00000000000E+00  0.85492263538E+03  0.85492263538E+03  0.00000000000E+00 0.  1.
         -1   -1    0    0    0  501 -0.00000000000E+00 -0.00000000000E+00 -0.88629586547E+03  0.88629586547E+03  0.00000000000E+00 0. -1.
         23    2    1    2    0    0  0.51395517939E+03  0.92328408761E+02  0.67801147117E+03  0.86036600703E+03  0.88632102138E+02 0.  0.
         13    1    3    3    0    0  0.14411597234E+03  0.65486696257E+02  0.22094557899E+03  0.27179931888E+03  0.00000000000E+00 0. -1.
        -13    1    3    3    0    0  0.36983920706E+03  0.26841712504E+02  0.45706589218E+03  0.58856668815E+03  0.00000000000E+00 0.  1.
         22    1    1    2    0    0 -0.51395517939E+03 -0.92328408761E+02 -0.70938470126E+03  0.88085249382E+03  0.00000000000E+00 0. -1.
<mgrwt>
<rscale>  0 0.17409358E+04</rscale>
<asrwt>0</asrwt>
<pdfrwt beam="1">  1        1 0.13152656E+00 0.17409358E+04</pdfrwt>
<pdfrwt beam="2">  1       -1 0.13635321E+00 0.17409358E+04</pdfrwt>
<totfact> 0.84475317E+00</totfact>
</mgrwt>
</event>
<event>
 6    1  0.1934315E-005  0.6406617E+03  0.7818608E-02  0.9824461E-01
          2   -1    0    0  501    0  0.00000000000E+00  0.00000000000E+00  0.14038683044E+04  0.14038683044E+04  0.00000000000E+00 0.  1.
         -2   -1    0    0    0  501 -0.00000000000E+00 -0.00000000000E+00 -0.73092213061E+02  0.73092213061E+02  0.00000000000E+00 0. -1.
         23    2    1    2    0    0 -0.30140938491E+03 -0.67295043338E+02  0.81159238288E+03  0.87286783973E+03  0.88542811752E+02 0.  0.
         11    1    3    3    0    0 -0.18739957272E+02  0.16773422873E+02  0.86968311360E+02  0.90531877780E+02  0.00000000000E+00 0.  1.
        -11    1    3    3    0    0 -0.28266942763E+03 -0.84068466211E+02  0.72462407152E+03  0.78233596195E+03  0.00000000000E+00 0. -1.
         22    1    1    2    0    0  0.30140938491E+03  0.67295043338E+02  0.51918370849E+03  0.60409267777E+03  0.00000000000E+00 0. -1.
<mgrwt>
<rscale>  0 0.64066166E+03</rscale>
<asrwt>0</asrwt>
<pdfrwt beam="1">  1        2 0.21597972E+00 0.64066166E+03</pdfrwt>
<pdfrwt beam="2">  1       -2 0.11244957E-01 0.64066166E+03</pdfrwt>
<totfact> 0.82801852E+02</totfact>
</mgrwt>
</event>
<event>
 6    1  0.1934315E-005  0.2461903E+04  0.7818608E-02  0.8416685E-01
          2   -1    0    0  501    0  0.00000000000E+00  0.00000000000E+00  0.26310170582E+04  0.26310170582E+04  0.00000000000E+00 0.  1.
         -2   -1    0    0    0  501 -0.00000000000E+00 -0.00000000000E+00 -0.57591471826E+03  0.57591471826E+03  0.00000000000E+00 0. -1.
         23    2    1    2    0    0 -0.78917859055E+03 -0.60098073322E+03  0.83423222539E+02  0.99978447022E+03  0.92891675441E+02 0.  0.
         11    1    3    3    0    0 -0.38170631768E+03 -0.31849913211E+03  0.82742987834E+02  0.50397203508E+03  0.00000000000E+00 0. -1.
        -11    1    3    3    0    0 -0.40747227287E+03 -0.28248160111E+03  0.68023470520E+00  0.49581243514E+03  0.00000000000E+00 0.  1.
         22    1    1    2    0    0  0.78917859055E+03  0.60098073322E+03  0.19716791174E+04  0.22071473062E+04  0.00000000000E+00 0.  1.
<mgrwt>
<rscale>  0 0.24619029E+04</rscale>
<asrwt>0</asrwt>
<pdfrwt beam="1">  1        2 0.40477185E+00 0.24619029E+04</pdfrwt>
<pdfrwt beam="2">  1       -2 0.88602266E-01 0.24619029E+04</pdfrwt>
<totfact> 0.28599324E+00</totfact>
</mgrwt>
</event>
<event>
 6    1  0.1934315E-005  0.1568013E+04  0.7818608E-02  0.8840443E-01
         -2   -1    0    0    0  501 -0.00000000000E+00  0.00000000000E+00  0.51296807138E+03  0.51296807138E+03  0.00000000000E+00 0. -1.
          2   -1    0    0  501    0  0.00000000000E+00 -0.00000000000E+00 -0.11982542425E+04  0.11982542425E+04  0.00000000000E+00 0.  1.
         23    2    1    2    0    0 -0.41231165748E+03 -0.39149158073E+03 -0.92858503787E+03  0.10927880820E+04  0.93000316901E+02 0.  0.
         13    1    3    3    0    0 -0.38007391876E+03 -0.34185546192E+03 -0.77723656585E+03  0.93027846361E+03  0.00000000000E+00 0. -1.
        -13    1    3    3    0    0 -0.32237738721E+02 -0.49636118814E+02 -0.15134847201E+03  0.16250961839E+03  0.00000000000E+00 0.  1.
         22    1    1    2    0    0  0.41231165748E+03  0.39149158073E+03  0.24329886670E+03  0.61843423192E+03  0.00000000000E+00 0. -1.
<mgrwt>
<rscale>  0 0.15680130E+04</rscale>
<asrwt>0</asrwt>
<pdfrwt beam="1">  1        2 0.18434681E+00 0.15680130E+04</pdfrwt>
<pdfrwt beam="2">  1       -2 0.78918165E-01 0.15680130E+04</pdfrwt>
<totfact> 0.26015786E+01</totfact>
</mgrwt>
</event>
<event>
 6    1  0.1934315E-005  0.4971969E+04  0.7818608E-02  0.7832846E-01
          2   -1    0    0  501    0  0.00000000000E+00  0.00000000000E+00  0.24906531382E+04  0.24906531382E+04  0.00000000000E+00 0.  1.
         -2   -1    0    0    0  501 -0.00000000000E+00 -0.00000000000E+00 -0.24813248433E+04  0.24813248433E+04  0.00000000000E+00 0. -1.
         23    2    1    2    0    0 -0.10253176246E+04 -0.19566037315E+04  0.11433052015E+04  0.24889399192E+04  0.90004135350E+02 0.  0.
         11    1    3    3    0    0 -0.11929459005E+03 -0.27048182569E+03  0.12710111764E+03  0.32178612672E+03  0.00000000000E+00 0.  1.
        -11    1    3    3    0    0 -0.90602303451E+03 -0.16861219058E+04  0.10162040839E+04  0.21671537925E+04  0.00000000000E+00 0. -1.
         22    1    1    2    0    0  0.10253176246E+04  0.19566037315E+04 -0.11339769066E+04  0.24830380622E+04  0.00000000000E+00 0. -1.
<mgrwt>
<rscale>  0 0.49719692E+04</rscale>
<asrwt>0</asrwt>
<pdfrwt beam="1">  1        2 0.38317741E+00 0.49719692E+04</pdfrwt>
<pdfrwt beam="2">  1       -2 0.38174228E+00 0.49719692E+04</pdfrwt>
<totfact> 0.25100533E-02</totfact>
</mgrwt>
</event>
<event>
 6    1  0.1934315E-005  0.1406041E+04  0.7818608E-02  0.8949458E-01
          1   -1    0    0  501    0  0.00000000000E+00  0.00000000000E+00  0.18644463552E+04  0.18644463552E+04  0.00000000000E+00 0.  1.
         -1   -1    0    0    0  501 -0.00000000000E+00 -0.00000000000E+00 -0.26508547130E+03  0.26508547130E+03  0.00000000000E+00 0. -1.
         23    2    1    2    0    0  0.16135873653E+03 -0.68064166790E+03  0.76906673710E+03  0.10438531944E+04  0.94106978883E+02 0.  0.
         13    1    3    3    0    0  0.78950820021E+02 -0.15870944405E+03  0.20255704592E+03  0.26916774781E+03  0.00000000000E+00 0.  1.
        -13    1    3    3    0    0  0.82407916509E+02 -0.52193222385E+03  0.56650969118E+03  0.77468544662E+03  0.00000000000E+00 0. -1.
         22    1    1    2    0    0 -0.16135873653E+03  0.68064166790E+03  0.83029414684E+03  0.10856786321E+04  0.00000000000E+00 0.  1.
<mgrwt>
<rscale>  0 0.14060407E+04</rscale>
<asrwt>0</asrwt>
<pdfrwt beam="1">  1        1 0.28683789E+00 0.14060407E+04</pdfrwt>
<pdfrwt beam="2">  1       -1 0.40782382E-01 0.14060407E+04</pdfrwt>
<totfact> 0.21110630E+01</totfact>
</mgrwt>
</event>
<event>
 6    1  0.1934315E-005  0.3153229E+04  0.7818608E-02  0.8201280E-01
          2   -1    0    0  501    0  0.00000000000E+00  0.00000000000E+00  0.12511648665E+04  0.12511648665E+04  0.00000000000E+00 0.  1.
         -2   -1    0    0    0  501 -0.00000000000E+00 -0.00000000000E+00 -0.19867197720E+04  0.19867197720E+04  0.00000000000E+00 0. -1.
         23    2    1    2    0    0 -0.77539400303E+03  0.85339842638E+03  0.73401820067E+03  0.13699526675E+04  0.91993794325E+02 0.  0.
         13    1    3    3    0    0 -0.32781313087E+03  0.32033779910E+03  0.24926641887E+03  0.52173892118E+03  0.00000000000E+00 0. -1.
        -13    1    3    3    0    0 -0.44758087216E+03  0.53306062728E+03  0.48475178180E+03  0.84821374632E+03  0.00000000000E+00 0.  1.
         22    1    1    2    0    0  0.77539400303E+03 -0.85339842638E+03 -0.14695731062E+04  0.18679319711E+04  0.00000000000E+00 0. -1.
<mgrwt>
<rscale>  0 0.31532294E+04</rscale>
<asrwt>0</asrwt>
<pdfrwt beam="1">  1        2 0.19248690E+00 0.31532294E+04</pdfrwt>
<pdfrwt beam="2">  1       -2 0.30564919E+00 0.31532294E+04</pdfrwt>
<totfact> 0.43803795E-01</totfact>
</mgrwt>
</event>
<event>
 6    1  0.1934315E-005  0.2916790E+04  0.7818608E-02  0.8267899E-01
         -2   -1    0    0    0  501 -0.00000000000E+00  0.00000000000E+00  0.16206325705E+04  0.16206325705E+04  0.00000000000E+00 0. -1.
          2   -1    0    0  501    0  0.00000000000E+00 -0.00000000000E+00 -0.13123987908E+04  0.13123987908E+04  0.00000000000E+00 0.  1.
         23    2    1    2    0    0 -0.10308586296E+04 -0.80209633794E+02  0.11862303216E+04  0.15765723581E+04  0.96617414893E+02 0.  0.
         11    1    3    3    0    0 -0.72735368876E+03 -0.22085278060E+02  0.87391695507E+03  0.11372167746E+04  0.00000000000E+00 0.  1.
        -11    1    3    3    0    0 -0.30350494086E+03 -0.58124355734E+02  0.31231336658E+03  0.43935558356E+03  0.00000000000E+00 0. -1.
         22    1    1    2    0    0  0.10308586296E+04  0.80209633794E+02 -0.87799654191E+03  0.13564590031E+04  0.00000000000E+00 0.  1.
<mgrwt>
<rscale>  0 0.29167902E+04</rscale>
<asrwt>0</asrwt>
<pdfrwt beam="1">  1        2 0.20190751E+00 0.29167902E+04</pdfrwt>
<pdfrwt beam="2">  1       -2 0.24932809E+00 0.29167902E+04</pdfrwt>
<totfact> 0.90911053E-01</totfact>
</mgrwt>
</event>
<event>
 6    1  0.1934315E-005  0.1652965E+04  0.7818608E-02  0.8788654E-01
         -2   -1    0    0    0  501 -0.00000000000E+00  0.00000000000E+00  0.31498863157E+03  0.31498863157E+03  0.00000000000E+00 0. -1.
          2   -1    0    0  501    0  0.00000000000E+00 -0.00000000000E+00 -0.21685662480E+04  0.21685662480E+04  0.00000000000E+00 0.  1.
         23    2    1    2    0    0  0.43799728643E+03  0.37083417136E+03 -0.41365431451E+02  0.58264125477E+03  0.91652208205E+02 0.  0.
         11    1    3    3    0    0  0.16815735985E+03  0.20062130335E+03 -0.84796076452E+01  0.26191164307E+03  0.00000000000E+00 0.  1.
        -11    1    3    3    0    0  0.26983992658E+03  0.17021286802E+03 -0.32885823806E+02  0.32072961170E+03  0.00000000000E+00 0. -1.
         22    1    1    2    0    0 -0.43799728643E+03 -0.37083417136E+03 -0.18122121850E+04  0.19009136248E+04  0.00000000000E+00 0.  1.
<mgrwt>
<rscale>  0 0.16529655E+04</rscale>
<asrwt>0</asrwt>
<pdfrwt beam="1">  1        2 0.33362558E+00 0.16529655E+04</pdfrwt>
<pdfrwt beam="2">  1       -2 0.48459788E-01 0.16529655E+04</pdfrwt>
<totfact> 0.20728220E+01</totfact>
</mgrwt>
</event>
<event>
 6    1  0.1934315E-005  0.3300502E+04  0.7818608E-02  0.8162768E-01
         -2   -1    0    0    0  501 -0.00000000000E+00  0.00000000000E+00  0.18464173600E+04  0.18464173600E+04  0.00000000000E+00 0. -1.
          2   -1    0    0  501    0  0.00000000000E+00 -0.00000000000E+00 -0.14749254597E+04  0.14749254597E+04  0.00000000000E+00 0.  1.
         23    2    1    2    0    0  0.10477981488E+04  0.28831689619E+03  0.14339417004E+04  0.18015378418E+04  0.91335656994E+02 0.  0.
         11    1    3    3    0    0  0.49630401722E+03  0.10858452753E+03  0.60908033397E+03  0.79315013104E+03  0.00000000000E+00 0. -1.
        -11    1    3    3    0    0  0.55149413153E+03  0.17973236866E+03  0.82486136640E+03  0.10083877108E+04  0.00000000000E+00 0.  1.
         22    1    1    2    0    0 -0.10477981488E+04 -0.28831689619E+03 -0.10624498001E+04  0.15198049779E+04  0.00000000000E+00 0.  1.
<mgrwt>
<rscale>  0 0.33005018E+04</rscale>
<asrwt>0</asrwt>
<pdfrwt beam="1">  1        2 0.22691161E+00 0.33005018E+04</pdfrwt>
<pdfrwt beam="2">  1       -2 0.28406421E+00 0.33005018E+04</pdfrwt>
<totfact> 0.43567021E-01</totfact>
</mgrwt>
</event>
<event>
 6    1  0.1934315E-005  0.8572008E+03  0.7818608E-02  0.9480723E-01
         -2   -1    0    0    0  501 -0.00000000000E+00  0.00000000000E+00  0.85154002820E+03  0.85154002820E+03  0.00000000000E+00 0. -1.
          2   -1    0    0  501    0  0.00000000000E+00 -0.00000000000E+00 -0.21572477619E+03  0.21572477619E+03  0.00000000000E+00 0.  1.
         23    2    1    2    0    0  0.34453608927E+03 -0.16652004224E+03  0.93300534241E+02  0.40337003843E+03  0.86996304186E+02 0.  0.
         13    1    3    3    0    0  0.22102302399E+03 -0.11034359675E+03  0.10230796963E+03  0.26738325887E+03  0.00000000000E+00 0. -1.
        -13    1    3    3    0    0  0.12351306528E+03 -0.56176445491E+02 -0.90074353914E+01  0.13598677956E+03  0.00000000000E+00 0.  1.
         22    1    1    2    0    0 -0.34453608927E+03  0.16652004224E+03  0.54251471777E+03  0.66389476596E+03  0.00000000000E+00 0. -1.
<mgrwt>
<rscale>  0 0.85720075E+03</rscale>
<asrwt>0</asrwt>
<pdfrwt beam="1">  1        2 0.33188428E-01 0.85720075E+03</pdfrwt>
<pdfrwt beam="2">  1       -2 0.13100616E+00 0.85720075E+03</pdfrwt>
<totfact> 0.67955438E+01</totfact>
</mgrwt>
</event>
<event>
 6    1  0.1934315E-005  0.3037391E+04  0.7818608E-02  0.8233133E-01
          2   -1    0    0  501    0  0.00000000000E+00  0.00000000000E+00  0.23070589628E+04  0.23070589628E+04  0.00000000000E+00 0.  1.
         -2   -1    0    0    0  501 -0.00000000000E+00 -0.00000000000E+00 -0.99973026474E+03  0.99973026474E+03  0.00000000000E+00 0. -1.
         23    2    1    2    0    0  0.26453462745E+03 -0.48279977014E+03 -0.88507684090E+03  0.10463210826E+04  0.91392594750E+02 0.  0.
         13    1    3    3    0    0  0.11196850204E+03 -0.17912083652E+03 -0.26161587338E+03  0.33625003305E+03  0.00000000000E+00 0. -1.
        -13    1    3    3    0    0  0.15256612542E+03 -0.30367893362E+03 -0.62346096751E+03  0.71007104952E+03  0.00000000000E+00 0.  1.
         22    1    1    2    0    0 -0.26453462745E+03  0.48279977014E+03  0.21924055389E+04  0.22604681449E+04  0.00000000000E+00 0.  1.
<mgrwt>
<rscale>  0 0.30373914E+04</rscale>
<asrwt>0</asrwt>
<pdfrwt beam="1">  1        2 0.35493215E+00 0.30373914E+04</pdfrwt>
<pdfrwt beam="2">  1       -2 0.15380466E+00 0.30373914E+04</pdfrwt>
<totfact> 0.10743283E+00</totfact>
</mgrwt>
</event>
<event>
 6    1  0.1934315E-005  0.1622600E+04  0.7818608E-02  0.8806783E-01
          2   -1    0    0  501    0  0.00000000000E+00  0.00000000000E+00  0.10757088738E+04  0.10757088738E+04  0.00000000000E+00 0.  1.
         -2   -1    0    0    0  501 -0.00000000000E+00 -0.00000000000E+00 -0.61188275495E+03  0.61188275495E+03  0.00000000000E+00 0. -1.
         23    2    1    2    0    0  0.59269039612E+03  0.21409502367E+03 -0.29405024127E+03  0.70194708733E+03  0.95632547832E+02 0.  0.
         11    1    3    3    0    0  0.80180439329E+02  0.52213113657E+00 -0.56202454089E+02  0.97917778353E+02  0.00000000000E+00 0.  1.
        -11    1    3    3    0    0  0.51250995679E+03  0.21357289253E+03 -0.23784778718E+03  0.60402930897E+03  0.00000000000E+00 0. -1.
         22    1    1    2    0    0 -0.59269039612E+03 -0.21409502367E+03  0.75787636011E+03  0.98564454142E+03  0.00000000000E+00 0.  1.
<mgrwt>
<rscale>  0 0.16226000E+04</rscale>
<asrwt>0</asrwt>
<pdfrwt beam="1">  1        2 0.16549367E+00 0.16226000E+04</pdfrwt>
<pdfrwt beam="2">  1       -2 0.94135808E-01 0.16226000E+04</pdfrwt>
<totfact> 0.20562451E+01</totfact>
</mgrwt>
</event>
<event>
 6    1  0.1934315E-005  0.2730428E+04  0.7818608E-02  0.8325199E-01
         -2   -1    0    0    0  501 -0.00000000000E+00  0.00000000000E+00  0.96728898066E+03  0.96728898066E+03  0.00000000000E+00 0. -1.
          2   -1    0    0  501    0  0.00000000000E+00 -0.00000000000E+00 -0.19268384004E+04  0.19268384004E+04  0.00000000000E+00 0.  1.
         23    2    1    2    0    0  0.26135604293E+02 -0.13565176339E+04 -0.62590712453E+03  0.14969372214E+04  0.90764285446E+02 0.  0.
         11    1    3    3    0    0 -0.23997296154E+02 -0.50690737224E+03 -0.20303972658E+03  0.54658584396E+03  0.00000000000E+00 0. -1.
        -11    1    3    3    0    0  0.50132900447E+02 -0.84961026167E+03 -0.42286739795E+03  0.95035137749E+03  0.00000000000E+00 0.  1.
         22    1    1    2    0    0 -0.26135604293E+02  0.13565176339E+04 -0.33364229517E+03  0.13971901596E+04  0.00000000000E+00 0. -1.
<mgrwt>
<rscale>  0 0.27304282E+04</rscale>
<asrwt>0</asrwt>
<pdfrwt beam="1">  1        2 0.29643668E+00 0.27304282E+04</pdfrwt>
<pdfrwt beam="2">  1       -2 0.14881369E+00 0.27304282E+04</pdfrwt>
<totfact> 0.19649549E+00</totfact>
</mgrwt>
</event>
<event>
 6    1  0.1934315E-005  0.2203349E+04  0.7818608E-02  0.8517035E-01
         -2   -1    0    0    0  501 -0.00000000000E+00  0.00000000000E+00  0.43901692772E+03  0.43901692772E+03  0.00000000000E+00 0. -1.
          2   -1    0    0  501    0  0.00000000000E+00 -0.00000000000E+00 -0.27645566012E+04  0.27645566012E+04  0.00000000000E+00 0.  1.
         23    2    1    2    0    0  0.58224466464E+03 -0.93270360183E+03 -0.11142101108E+04  0.15676443838E+04  0.84260813498E+02 0.  0.
         13    1    3    3    0    0  0.39539969622E+03 -0.69702046705E+03 -0.83332099312E+03  0.11561151884E+04  0.00000000000E+00 0. -1.
        -13    1    3    3    0    0  0.18684496842E+03 -0.23568313479E+03 -0.28088911766E+03  0.41152919540E+03  0.00000000000E+00 0.  1.
         22    1    1    2    0    0 -0.58224466464E+03  0.93270360183E+03 -0.12113295627E+04  0.16359291451E+04  0.00000000000E+00 0.  1.
<mgrwt>
<rscale>  0 0.22033494E+04</rscale>
<asrwt>0</asrwt>
<pdfrwt beam="1">  1        2 0.42531640E+00 0.22033494E+04</pdfrwt>
<pdfrwt beam="2">  1       -2 0.67541066E-01 0.22033494E+04</pdfrwt>
<totfact> 0.44632113E+00</totfact>
</mgrwt>
</event>
<event>
 6    1  0.1934315E-005  0.2177863E+04  0.7818608E-02  0.8527699E-01
          2   -1    0    0  501    0  0.00000000000E+00  0.00000000000E+00  0.30538623654E+04  0.30538623654E+04  0.00000000000E+00 0.  1.
         -2   -1    0    0    0  501 -0.00000000000E+00 -0.00000000000E+00 -0.38828597061E+03  0.38828597061E+03  0.00000000000E+00 0. -1.
         23    2    1    2    0    0  0.87836164515E+03  0.56781296399E+03  0.86842411059E+03  0.13628005839E+04  0.95573290106E+02 0.  0.
         13    1    3    3    0    0  0.24595230282E+03  0.20087742260E+03  0.22938056248E+03  0.39173934781E+03  0.00000000000E+00 0. -1.
        -13    1    3    3    0    0  0.63240934233E+03  0.36693554138E+03  0.63904354810E+03  0.97106123605E+03  0.00000000000E+00 0.  1.
         22    1    1    2    0    0 -0.87836164515E+03 -0.56781296399E+03  0.17971522842E+04  0.20793477522E+04  0.00000000000E+00 0. -1.
<mgrwt>
<rscale>  0 0.21778631E+04</rscale>
<asrwt>0</asrwt>
<pdfrwt beam="1">  1        2 0.46982496E+00 0.21778631E+04</pdfrwt>
<pdfrwt beam="2">  1       -2 0.59736305E-01 0.21778631E+04</pdfrwt>
<totfact> 0.38604439E+00</totfact>
</mgrwt>
</event>
<event>
 6    1  0.1934315E-005  0.2615051E+04  0.7818608E-02  0.8363107E-01
         -4   -1    0    0    0  501 -0.00000000000E+00  0.00000000000E+00  0.57609026716E+03  0.57609026716E+03  0.00000000000E+00 0.  1.
          4   -1    0    0  501    0  0.00000000000E+00 -0.00000000000E+00 -0.29676299838E+04  0.29676299838E+04  0.00000000000E+00 0. -1.
         23    2    1    2    0    0  0.98702150906E+03  0.79455275825E+03 -0.16257572081E+04  0.20631972368E+04  0.90392440573E+02 0.  0.
         11    1    3    3    0    0  0.58996104747E+03  0.43256704742E+03 -0.98593687232E+03  0.12276969513E+04  0.00000000000E+00 0. -1.
        -11    1    3    3    0    0  0.39706046159E+03  0.36198571083E+03 -0.63982033575E+03  0.83550028548E+03  0.00000000000E+00 0.  1.
         22    1    1    2    0    0 -0.98702150906E+03 -0.79455275825E+03 -0.76578250852E+03  0.14805230141E+04  0.00000000000E+00 0.  1.
<mgrwt>
<rscale>  0 0.26150509E+04</rscale>
<asrwt>0</asrwt>
<pdfrwt beam="1">  1        4 0.45655847E+00 0.26150509E+04</pdfrwt>
<pdfrwt beam="2">  1       -4 0.88629271E-01 0.26150509E+04</pdfrwt>
<totfact> 0.51016419E-03</totfact>
</mgrwt>
</event>
<event>
 6    1  0.1934315E-005  0.1709396E+04  0.7818608E-02  0.8756024E-01
          2   -1    0    0  501    0  0.00000000000E+00  0.00000000000E+00  0.76220930618E+03  0.76220930618E+03  0.00000000000E+00 0.  1.
         -2   -1    0    0    0  501 -0.00000000000E+00 -0.00000000000E+00 -0.95840933824E+03  0.95840933824E+03  0.00000000000E+00 0. -1.
         23    2    1    2    0    0  0.76150664545E+03  0.29237404934E+03  0.15039532388E+03  0.83433240592E+03  0.90093586545E+02 0.  0.
         13    1    3    3    0    0  0.36798437434E+03  0.18900629189E+03  0.82587246379E+02  0.42184894381E+03  0.00000000000E+00 0. -1.
        -13    1    3    3    0    0  0.39352227111E+03  0.10336775745E+03  0.67808077497E+02  0.41248346211E+03  0.00000000000E+00 0.  1.
         22    1    1    2    0    0 -0.76150664545E+03 -0.29237404934E+03 -0.34659535594E+03  0.88628623850E+03  0.00000000000E+00 0.  1.
<mgrwt>
<rscale>  0 0.17093958E+04</rscale>
<asrwt>0</asrwt>
<pdfrwt beam="1">  1        2 0.11726297E+00 0.17093958E+04</pdfrwt>
<pdfrwt beam="2">  1       -2 0.14744759E+00 0.17093958E+04</pdfrwt>
<totfact> 0.10942409E+01</totfact>
</mgrwt>
</event>
<event>
 6    1  0.1934315E-005  0.3142124E+04  0.7818608E-02  0.8204272E-01
         -2   -1    0    0    0  501 -0.00000000000E+00  0.00000000000E+00  0.19407129837E+04  0.19407129837E+04  0.00000000000E+00 0. -1.
          2   -1    0    0  501    0  0.00000000000E+00 -0.00000000000E+00 -0.12718187172E+04  0.12718187172E+04  0.00000000000E+00 0.  1.
         23    2    1    2    0    0  0.35799619881E+03  0.13753773725E+04  0.10161788070E+04  0.17495105981E+04  0.91344238422E+02 0.  0.
         11    1    3    3    0    0  0.25559452248E+03  0.99367365428E+03  0.78285701929E+03  0.12905739048E+04  0.00000000000E+00 0. -1.
        -11    1    3    3    0    0  0.10240167633E+03  0.38170371821E+03  0.23332178771E+03  0.45893669328E+03  0.00000000000E+00 0.  1.
         22    1    1    2    0    0 -0.35799619881E+03 -0.13753773725E+04 -0.34728454048E+03  0.14630211028E+04  0.00000000000E+00 0.  1.
<mgrwt>
<rscale>  0 0.31421235E+04</rscale>
<asrwt>0</asrwt>
<pdfrwt beam="1">  1        2 0.19566442E+00 0.31421235E+04</pdfrwt>
<pdfrwt beam="2">  1       -2 0.29857123E+00 0.31421235E+04</pdfrwt>
<totfact> 0.47112660E-01</totfact>
</mgrwt>
</event>
<event>
 6    1  0.1934315E-005  0.9045505E+03  0.7818608E-02  0.9419911E-01
          2   -1    0    0  501    0  0.00000000000E+00  0.00000000000E+00  0.20307003486E+04  0.20307003486E+04  0.00000000000E+00 0.  1.
         -2   -1    0    0    0  501 -0.00000000000E+00 -0.00000000000E+00 -0.10073021643E+03  0.10073021643E+03  0.00000000000E+00 0. -1.
         23    2    1    2    0    0  0.29885599408E+03  0.33239585924E+03  0.10329817754E+04  0.11292379565E+04  0.91241994799E+02 0.  0.
         11    1    3    3    0    0  0.21029918893E+03  0.28914589622E+03  0.79892010105E+03  0.87527391486E+03  0.00000000000E+00 0.  1.
        -11    1    3    3    0    0  0.88556805147E+02  0.43249963015E+02  0.23406167434E+03  0.25396404162E+03  0.00000000000E+00 0. -1.
         22    1    1    2    0    0 -0.29885599408E+03 -0.33239585924E+03  0.89698835676E+03  0.10021926085E+04  0.00000000000E+00 0.  1.
<mgrwt>
<rscale>  0 0.90455046E+03</rscale>
<asrwt>0</asrwt>
<pdfrwt beam="1">  1        2 0.31241541E+00 0.90455046E+03</pdfrwt>
<pdfrwt beam="2">  1       -2 0.15496958E-01 0.90455046E+03</pdfrwt>
<totfact> 0.21548482E+02</totfact>
</mgrwt>
</event>
<event>
 6    1  0.1934315E-005  0.2276992E+04  0.7818608E-02  0.8487049E-01
         -2   -1    0    0    0  501 -0.00000000000E+00  0.00000000000E+00  0.55062252390E+03  0.55062252390E+03  0.00000000000E+00 0. -1.
          2   -1    0    0  501    0  0.00000000000E+00 -0.00000000000E+00 -0.23540136308E+04  0.23540136308E+04  0.00000000000E+00 0.  1.
         23    2    1    2    0    0  0.52056678237E+03  0.50759497181E+03  0.21108272220E+03  0.76296689020E+03  0.94446437825E+02 0.  0.
         13    1    3    3    0    0  0.48449442044E+03  0.43072969302E+03  0.18623304581E+03  0.67449659691E+03  0.00000000000E+00 0. -1.
        -13    1    3    3    0    0  0.36072361927E+02  0.76865278793E+02  0.24849676387E+02  0.88470293294E+02  0.00000000000E+00 0.  1.
         22    1    1    2    0    0 -0.52056678237E+03 -0.50759497181E+03 -0.20144738291E+04  0.21416692645E+04  0.00000000000E+00 0.  1.
<mgrwt>
<rscale>  0 0.22769918E+04</rscale>
<asrwt>0</asrwt>
<pdfrwt beam="1">  1        2 0.36215594E+00 0.22769918E+04</pdfrwt>
<pdfrwt beam="2">  1       -2 0.84711158E-01 0.22769918E+04</pdfrwt>
<totfact> 0.46581670E+00</totfact>
</mgrwt>
</event>
<event>
 6    1  0.1934315E-005  0.4200988E+03  0.7818608E-02  0.1037034E+00
          2   -1    0    0  501    0  0.00000000000E+00  0.00000000000E+00  0.71978398301E+02  0.71978398301E+02  0.00000000000E+00 0.  1.
         -2   -1    0    0    0  501 -0.00000000000E+00 -0.00000000000E+00 -0.61297208290E+03  0.61297208290E+03  0.00000000000E+00 0. -1.
         23    2    1    2    0    0  0.15477840767E+03 -0.29329539466E+02 -0.48530763442E+03  0.51786513310E+03  0.88567593919E+02 0.  0.
         11    1    3    3    0    0  0.55552749682E+02 -0.24699037146E+02 -0.31408359320E+03  0.31991351011E+03  0.00000000000E+00 0. -1.
        -11    1    3    3    0    0  0.99225657984E+02 -0.46305023194E+01 -0.17122404122E+03  0.19795162299E+03  0.00000000000E+00 0.  1.
         22    1    1    2    0    0 -0.15477840767E+03  0.29329539466E+02 -0.55686050183E+02  0.16708534810E+03  0.00000000000E+00 0.  1.
<mgrwt>
<rscale>  0 0.42009879E+03</rscale>
<asrwt>0</asrwt>
<pdfrwt beam="1">  1        2 0.11073599E-01 0.42009879E+03</pdfrwt>
<pdfrwt beam="2">  1       -2 0.94303403E-01 0.42009879E+03</pdfrwt>
<totfact> 0.55763931E+02</totfact>
</mgrwt>
</event>
<event>
 6    1  0.1934315E-005  0.1112015E+04  0.7818608E-02  0.9193560E-01
          2   -1    0    0  501    0  0.00000000000E+00  0.00000000000E+00  0.30448893833E+04  0.30448893833E+04  0.00000000000E+00 0.  1.
         -2   -1    0    0    0  501 -0.00000000000E+00 -0.00000000000E+00 -0.10152890174E+03  0.10152890174E+03  0.00000000000E+00 0. -1.
         23    2    1    2    0    0  0.40477971662E+02 -0.48210989705E+03  0.22347469927E+04  0.22883964348E+04  0.92713009139E+02 0.  0.
         11    1    3    3    0    0  0.62204222280E+02 -0.36612004177E+03  0.15760043738E+04  0.16191673899E+04  0.00000000000E+00 0. -1.
        -11    1    3    3    0    0 -0.21726250618E+02 -0.11598985528E+03  0.65874261891E+03  0.66922904484E+03  0.00000000000E+00 0.  1.
         22    1    1    2    0    0 -0.40477971662E+02  0.48210989705E+03  0.70861348888E+03  0.85802185033E+03  0.00000000000E+00 0. -1.
<mgrwt>
<rscale>  0 0.11120149E+04</rscale>
<asrwt>0</asrwt>
<pdfrwt beam="1">  1        2 0.46844445E+00 0.11120149E+04</pdfrwt>
<pdfrwt beam="2">  1       -2 0.15619833E-01 0.11120149E+04</pdfrwt>
<totfact> 0.54088840E+01</totfact>
</mgrwt>
</event>
<event>
 6    1  0.1934315E-005  0.1062158E+04  0.7818608E-02  0.9242880E-01
         -2   -1    0    0    0  501 -0.00000000000E+00  0.00000000000E+00  0.32440305589E+03  0.32440305589E+03  0.00000000000E+00 0. -1.
          2   -1    0    0  501    0  0.00000000000E+00 -0.00000000000E+00 -0.86942806678E+03  0.86942806678E+03  0.00000000000E+00 0.  1.
         23    2    1    2    0    0 -0.29348615067E+03 -0.26998403296E+03 -0.66230217115E+03  0.77816367024E+03  0.88707570623E+02 0.  0.
         13    1    3    3    0    0 -0.13344354223E+03 -0.99105227199E+02 -0.20079505504E+03  0.26066775625E+03  0.00000000000E+00 0.  1.
        -13    1    3    3    0    0 -0.16004260844E+03 -0.17087880576E+03 -0.46150711611E+03  0.51749591399E+03  0.00000000000E+00 0. -1.
         22    1    1    2    0    0  0.29348615067E+03  0.26998403296E+03  0.11727716026E+03  0.41566745243E+03  0.00000000000E+00 0.  1.
<mgrwt>
<rscale>  0 0.10621584E+04</rscale>
<asrwt>0</asrwt>
<pdfrwt beam="1">  1        2 0.13375816E+00 0.10621584E+04</pdfrwt>
<pdfrwt beam="2">  1       -2 0.49908163E-01 0.10621584E+04</pdfrwt>
<totfact> 0.11627991E+02</totfact>
</mgrwt>
</event>
<event>
 6    1  0.1934315E-005  0.8662776E+03  0.7818608E-02  0.9468746E-01
          2   -1    0    0  501    0  0.00000000000E+00  0.00000000000E+00  0.20635596383E+03  0.20635596383E+03  0.00000000000E+00 0.  1.
         -2   -1    0    0    0  501 -0.00000000000E+00 -0.00000000000E+00 -0.90915347400E+03  0.90915347400E+03  0.00000000000E+00 0. -1.
         23    2    1    2    0    0  0.29256141685E+03  0.12929709038E+03 -0.71837250808E+03  0.79527124403E+03  0.11869023130E+03 0.  0.
         13    1    3    3    0    0  0.10165422875E+03  0.81814616940E+02 -0.40274098316E+03  0.42335270554E+03  0.00000000000E+00 0. -1.
        -13    1    3    3    0    0  0.19090718810E+03  0.47482473444E+02 -0.31563152492E+03  0.37191853849E+03  0.00000000000E+00 0.  1.
         22    1    1    2    0    0 -0.29256141685E+03 -0.12929709038E+03  0.15574997916E+02  0.32023819380E+03  0.00000000000E+00 0.  1.
<mgrwt>
<rscale>  0 0.86627765E+03</rscale>
<asrwt>0</asrwt>
<pdfrwt beam="1">  1        2 0.31747071E-01 0.86627765E+03</pdfrwt>
<pdfrwt beam="2">  1       -2 0.13986977E+00 0.86627765E+03</pdfrwt>
<totfact> 0.60378896E+01</totfact>
</mgrwt>
</event>
<event>
 6    1  0.1934315E-005  0.1208551E+04  0.7818608E-02  0.9105405E-01
         -2   -1    0    0    0  501 -0.00000000000E+00  0.00000000000E+00  0.63262810253E+03  0.63262810253E+03  0.00000000000E+00 0. -1.
          2   -1    0    0  501    0  0.00000000000E+00 -0.00000000000E+00 -0.57719338921E+03  0.57719338921E+03  0.00000000000E+00 0.  1.
         23    2    1    2    0    0  0.58377079490E+03  0.50796066860E+02  0.16037108737E+03  0.61452305902E+03  0.92472282426E+02 0.  0.
         11    1    3    3    0    0  0.50329369915E+02  0.23832083953E+02  0.35364960622E+02  0.65967371793E+02  0.00000000000E+00 0. -1.
        -11    1    3    3    0    0  0.53344142499E+03  0.26963982908E+02  0.12500612675E+03  0.54855568723E+03  0.00000000000E+00 0.  1.
         22    1    1    2    0    0 -0.58377079490E+03 -0.50796066860E+02 -0.10493637405E+03  0.59529843271E+03  0.00000000000E+00 0. -1.
<mgrwt>
<rscale>  0 0.12085508E+04</rscale>
<asrwt>0</asrwt>
<pdfrwt beam="1">  1        2 0.88798982E-01 0.12085508E+04</pdfrwt>
<pdfrwt beam="2">  1       -2 0.97327401E-01 0.12085508E+04</pdfrwt>
<totfact> 0.45144395E+01</totfact>
</mgrwt>
</event>
<event>
 6    1  0.1934315E-005  0.1391497E+04  0.7818608E-02  0.8959996E-01
         -2   -1    0    0    0  501 -0.00000000000E+00  0.00000000000E+00  0.15293999697E+03  0.15293999697E+03  0.00000000000E+00 0. -1.
          2   -1    0    0  501    0  0.00000000000E+00 -0.00000000000E+00 -0.31650732215E+04  0.31650732215E+04  0.00000000000E+00 0.  1.
         23    2    1    2    0    0 -0.16335511378E+03 -0.65889434754E+03 -0.11831669756E+04  0.13671302917E+04  0.91293415806E+02 0.  0.
         13    1    3    3    0    0 -0.92788173344E+02 -0.52920907345E+03 -0.92282404364E+03  0.10678371149E+04  0.00000000000E+00 0. -1.
        -13    1    3    3    0    0 -0.70566940439E+02 -0.12968527409E+03 -0.26034293197E+03  0.29929317671E+03  0.00000000000E+00 0.  1.
         22    1    1    2    0    0  0.16335511378E+03  0.65889434754E+03 -0.18289662489E+04  0.19508829268E+04  0.00000000000E+00 0. -1.
<mgrwt>
<rscale>  0 0.13914975E+04</rscale>
<asrwt>0</asrwt>
<pdfrwt beam="1">  1        2 0.48693433E+00 0.13914975E+04</pdfrwt>
<pdfrwt beam="2">  1       -2 0.23529231E-01 0.13914975E+04</pdfrwt>
<totfact> 0.21554250E+01</totfact>
</mgrwt>
</event>
<event>
 6    1  0.1934315E-005  0.2418716E+04  0.7818608E-02  0.8432529E-01
         -2   -1    0    0    0  501 -0.00000000000E+00  0.00000000000E+00  0.47138647977E+03  0.47138647977E+03  0.00000000000E+00 0. -1.
          2   -1    0    0  501    0  0.00000000000E+00 -0.00000000000E+00 -0.31026500819E+04  0.31026500819E+04  0.00000000000E+00 0.  1.
         23    2    1    2    0    0 -0.83723109534E+03  0.85657986133E+03 -0.15445398165E+04  0.19567383356E+04  0.92394281833E+02 0.  0.
         13    1    3    3    0    0 -0.32871197479E+03  0.39394987367E+03 -0.62508664478E+03  0.80869115169E+03  0.00000000000E+00 0.  1.
        -13    1    3    3    0    0 -0.50851912055E+03  0.46262998767E+03 -0.91945317174E+03  0.11480471839E+04  0.00000000000E+00 0. -1.
         22    1    1    2    0    0  0.83723109534E+03 -0.85657986133E+03 -0.10867237856E+04  0.16172982261E+04  0.00000000000E+00 0.  1.
<mgrwt>
<rscale>  0 0.24187164E+04</rscale>
<asrwt>0</asrwt>
<pdfrwt beam="1">  1        2 0.47733079E+00 0.24187164E+04</pdfrwt>
<pdfrwt beam="2">  1       -2 0.72520996E-01 0.24187164E+04</pdfrwt>
<totfact> 0.23163526E+00</totfact>
</mgrwt>
</event>
<event>
 6    1  0.1934315E-005  0.4856344E+04  0.7818608E-02  0.7851058E-01
          2   -1    0    0  501    0  0.00000000000E+00  0.00000000000E+00  0.28238867614E+04  0.28238867614E+04  0.00000000000E+00 0.  1.
         -2   -1    0    0    0  501 -0.00000000000E+00 -0.00000000000E+00 -0.20879096139E+04  0.20879096139E+04  0.00000000000E+00 0. -1.
         23    2    1    2    0    0 -0.73851453115E+02  0.23708160471E+04  0.88945298722E+03  0.25348702932E+04  0.90653297004E+02 0.  0.
         13    1    3    3    0    0 -0.90420725981E+02  0.15016201166E+04  0.56149704398E+03  0.16057141130E+04  0.00000000000E+00 0. -1.
        -13    1    3    3    0    0  0.16569272866E+02  0.86919593054E+03  0.32795594323E+03  0.92915618019E+03  0.00000000000E+00 0.  1.
         22    1    1    2    0    0  0.73851453115E+02 -0.23708160471E+04 -0.15347583974E+03  0.23769260821E+04  0.00000000000E+00 0.  1.
<mgrwt>
<rscale>  0 0.48563444E+04</rscale>
<asrwt>0</asrwt>
<pdfrwt beam="1">  1        2 0.43444412E+00 0.48563444E+04</pdfrwt>
<pdfrwt beam="2">  1       -2 0.32121686E+00 0.48563444E+04</pdfrwt>
<totfact> 0.38747797E-02</totfact>
</mgrwt>
</event>
<event>
 6    1  0.1934315E-005  0.1236405E+04  0.7818608E-02  0.9081575E-01
         -2   -1    0    0    0  501 -0.00000000000E+00  0.00000000000E+00  0.11884346266E+04  0.11884346266E+04  0.00000000000E+00 0. -1.
          2   -1    0    0  501    0  0.00000000000E+00 -0.00000000000E+00 -0.32157771207E+03  0.32157771207E+03  0.00000000000E+00 0.  1.
         23    2    1    2    0    0 -0.14383200349E+03 -0.78087255291E+02  0.11596599871E+04  0.11745739630E+04  0.89596005599E+02 0.  0.
         13    1    3    3    0    0 -0.12921000111E+03 -0.94952553975E+02  0.10802771926E+04  0.10921126429E+04  0.00000000000E+00 0.  1.
        -13    1    3    3    0    0 -0.14622002376E+02  0.16865298684E+02  0.79382794454E+02  0.82461320075E+02  0.00000000000E+00 0. -1.
         22    1    1    2    0    0  0.14383200349E+03  0.78087255291E+02 -0.29280307248E+03  0.33543837574E+03  0.00000000000E+00 0.  1.
<mgrwt>
<rscale>  0 0.12364046E+04</rscale>
<asrwt>0</asrwt>
<pdfrwt beam="1">  1        2 0.49473495E-01 0.12364046E+04</pdfrwt>
<pdfrwt beam="2">  1       -2 0.18283609E+00 0.12364046E+04</pdfrwt>
<totfact> 0.17318363E+01</totfact>
</mgrwt>
</event>
<event>
 6    1  0.2411329E-005  0.2754824E+04  0.7818608E-02  0.8317433E-01
          2   -1    0    0  501    0  0.00000000000E+00  0.00000000000E+00  0.21167197045E+04  0.21167197045E+04  0.00000000000E+00 0.  1.
         -2   -1    0    0    0  501 -0.00000000000E+00 -0.00000000000E+00 -0.89632235705E+03  0.89632235705E+03  0.00000000000E+00 0. -1.
         23    2    1    2    0    0 -0.60286307911E+03 -0.63153562154E+03  0.17739827677E+04  0.19792442327E+04  0.90065193779E+02 0.  0.
         11    1    3    3    0    0 -0.16356253535E+03 -0.20238306710E+03  0.45137445294E+03  0.52100912236E+03  0.00000000000E+00 0.  1.
        -11    1    3    3    0    0 -0.43930054376E+03 -0.42915255444E+03  0.13226083148E+04  0.14582351104E+04  0.00000000000E+00 0. -1.
         22    1    1    2    0    0  0.60286307911E+03  0.63153562154E+03 -0.55358542026E+03  0.10337978289E+04  0.00000000000E+00 0. -1.
<mgrwt>
<rscale>  0 0.27548235E+04</rscale>
<asrwt>0</asrwt>
<pdfrwt beam="1">  1        2 0.32564919E+00 0.27548235E+04</pdfrwt>
<pdfrwt beam="2">  1       -2 0.13789575E+00 0.27548235E+04</pdfrwt>
<totfact> 0.18761879E+00</totfact>
</mgrwt>
</event>
<event>
 6    1  0.1934315E-005  0.8054229E+03  0.7818608E-02  0.9552201E-01
         -2   -1    0    0    0  501 -0.00000000000E+00  0.00000000000E+00  0.10712435932E+03  0.10712435932E+03  0.00000000000E+00 0. -1.
          2   -1    0    0  501    0  0.00000000000E+00 -0.00000000000E+00 -0.15139087148E+04  0.15139087148E+04  0.00000000000E+00 0.  1.
         23    2    1    2    0    0  0.25911318423E+03  0.17645934746E+03 -0.12046604729E+04  0.12480295789E+04  0.89963500047E+02 0.  0.
         13    1    3    3    0    0  0.12464855392E+03  0.65922278924E+02 -0.38296633278E+03  0.40810074847E+03  0.00000000000E+00 0. -1.
        -13    1    3    3    0    0  0.13446463031E+03  0.11053706854E+03 -0.82169414009E+03  0.83992883043E+03  0.00000000000E+00 0.  1.
         22    1    1    2    0    0 -0.25911318423E+03 -0.17645934746E+03 -0.20212388264E+03  0.37300349527E+03  0.00000000000E+00 0. -1.
<mgrwt>
<rscale>  0 0.80542287E+03</rscale>
<asrwt>0</asrwt>
<pdfrwt beam="1">  1        2 0.23290901E+00 0.80542287E+03</pdfrwt>
<pdfrwt beam="2">  1       -2 0.16480672E-01 0.80542287E+03</pdfrwt>
<totfact> 0.37567014E+02</totfact>
</mgrwt>
</event>
<event>
 6    1  0.1934315E-005  0.2131490E+04  0.7818608E-02  0.8547497E-01
         -2   -1    0    0    0  501 -0.00000000000E+00  0.00000000000E+00  0.63541343580E+03  0.63541343580E+03  0.00000000000E+00 0. -1.
          2   -1    0    0  501    0  0.00000000000E+00 -0.00000000000E+00 -0.17875170716E+04  0.17875170716E+04  0.00000000000E+00 0.  1.
         23    2    1    2    0    0  0.10322534356E+04  0.10398799260E+03 -0.84440185686E+03  0.13407840096E+04  0.91250241433E+02 0.  0.
         11    1    3    3    0    0  0.27413551351E+03  0.60539680417E+02 -0.25907983242E+03  0.38201792136E+03  0.00000000000E+00 0. -1.
        -11    1    3    3    0    0  0.75811792212E+03  0.43448312185E+02 -0.58532202443E+03  0.95876608824E+03  0.00000000000E+00 0.  1.
         22    1    1    2    0    0 -0.10322534356E+04 -0.10398799260E+03 -0.30770177899E+03  0.10821464978E+04  0.00000000000E+00 0. -1.
<mgrwt>
<rscale>  0 0.21314900E+04</rscale>
<asrwt>0</asrwt>
<pdfrwt beam="1">  1        2 0.27500262E+00 0.21314900E+04</pdfrwt>
<pdfrwt beam="2">  1       -2 0.97755915E-01 0.21314900E+04</pdfrwt>
<totfact> 0.70235081E+00</totfact>
</mgrwt>
</event>
<event>
 6    1  0.1934315E-005  0.2328562E+04  0.7818608E-02  0.8466744E-01
         -2   -1    0    0    0  501 -0.00000000000E+00  0.00000000000E+00  0.11328778784E+04  0.11328778784E+04  0.00000000000E+00 0. -1.
          2   -1    0    0  501    0  0.00000000000E+00 -0.00000000000E+00 -0.11965549553E+04  0.11965549553E+04  0.00000000000E+00 0.  1.
         23    2    1    2    0    0 -0.98122663547E+03 -0.94231835408E+02 -0.64823535826E+03  0.11833989192E+04  0.92404401057E+02 0.  0.
         13    1    3    3    0    0 -0.56589315680E+03 -0.58289770191E+02 -0.42803045540E+03  0.71192895220E+03  0.00000000000E+00 0.  1.
        -13    1    3    3    0    0 -0.41533347867E+03 -0.35942065217E+02 -0.22020490285E+03  0.47146996702E+03  0.00000000000E+00 0. -1.
         22    1    1    2    0    0  0.98122663547E+03  0.94231835408E+02  0.58455828136E+03  0.11460339145E+04  0.00000000000E+00 0.  1.
<mgrwt>
<rscale>  0 0.23285623E+04</rscale>
<asrwt>0</asrwt>
<pdfrwt beam="1">  1        2 0.18408538E+00 0.23285623E+04</pdfrwt>
<pdfrwt beam="2">  1       -2 0.17428890E+00 0.23285623E+04</pdfrwt>
<totfact> 0.34213247E+00</totfact>
</mgrwt>
</event>
<event>
 6    1  0.1934315E-005  0.1912080E+04  0.7818608E-02  0.8648867E-01
         -2   -1    0    0    0  501 -0.00000000000E+00  0.00000000000E+00  0.52435374956E+03  0.52435374956E+03  0.00000000000E+00 0. -1.
          2   -1    0    0  501    0  0.00000000000E+00 -0.00000000000E+00 -0.17431216713E+04  0.17431216713E+04  0.00000000000E+00 0.  1.
         23    2    1    2    0    0 -0.32468371114E+03 -0.66199435013E+03 -0.13296626915E+04  0.15218524049E+04  0.66150111357E+02 0.  0.
         11    1    3    3    0    0 -0.17613139855E+03 -0.42288014248E+03 -0.85530843829E+03  0.97025893918E+03  0.00000000000E+00 0. -1.
        -11    1    3    3    0    0 -0.14855231258E+03 -0.23911420765E+03 -0.47435425326E+03  0.55159346576E+03  0.00000000000E+00 0.  1.
         22    1    1    2    0    0  0.32468371114E+03  0.66199435013E+03  0.11089476983E+03  0.74562301591E+03  0.00000000000E+00 0. -1.
<mgrwt>
<rscale>  0 0.19120799E+04</rscale>
<asrwt>0</asrwt>
<pdfrwt beam="1">  1        2 0.26817257E+00 0.19120799E+04</pdfrwt>
<pdfrwt beam="2">  1       -2 0.80669807E-01 0.19120799E+04</pdfrwt>
<totfact> 0.11778105E+01</totfact>
</mgrwt>
</event>
<event>
 6    1  0.1934315E-005  0.1654786E+04  0.7818608E-02  0.8787580E-01
         -2   -1    0    0    0  501 -0.00000000000E+00  0.00000000000E+00  0.34922881204E+03  0.34922881204E+03  0.00000000000E+00 0. -1.
          2   -1    0    0  501    0  0.00000000000E+00 -0.00000000000E+00 -0.19602606673E+04  0.19602606673E+04  0.00000000000E+00 0.  1.
         23    2    1    2    0    0 -0.16847671508E+03  0.68594295462E+03 -0.21396389155E+03  0.74401797345E+03  0.94234056532E+02 0.  0.
         11    1    3    3    0    0 -0.12565494166E+03  0.37326901144E+03 -0.15337696168E+03  0.42266229030E+03  0.00000000000E+00 0. -1.
        -11    1    3    3    0    0 -0.42821773421E+02  0.31267394318E+03 -0.60586929866E+02  0.32135568315E+03  0.00000000000E+00 0.  1.
         22    1    1    2    0    0  0.16847671508E+03 -0.68594295462E+03 -0.13970679637E+04  0.15654715059E+04  0.00000000000E+00 0.  1.
<mgrwt>
<rscale>  0 0.16547864E+04</rscale>
<asrwt>0</asrwt>
<pdfrwt beam="1">  1        2 0.30157857E+00 0.16547864E+04</pdfrwt>
<pdfrwt beam="2">  1       -2 0.53727509E-01 0.16547864E+04</pdfrwt>
<totfact> 0.21912436E+01</totfact>
</mgrwt>
</event>
<event>
 6    1  0.1934315E-005  0.9214106E+03  0.7818608E-02  0.9399206E-01
         -2   -1    0    0    0  501 -0.00000000000E+00  0.00000000000E+00  0.12601050360E+03  0.12601050360E+03  0.00000000000E+00 0. -1.
          2   -1    0    0  501    0  0.00000000000E+00 -0.00000000000E+00 -0.16843782894E+04  0.16843782894E+04  0.00000000000E+00 0.  1.
         23    2    1    2    0    0  0.28158860082E+03 -0.33224896691E+03 -0.10540731569E+04  0.11440596034E+04  0.90114593668E+02 0.  0.
         13    1    3    3    0    0  0.19624223235E+03 -0.25606590884E+03 -0.67564136363E+03  0.74871357386E+03  0.00000000000E+00 0.  1.
        -13    1    3    3    0    0  0.85346368478E+02 -0.76183058076E+02 -0.37843179328E+03  0.39534602959E+03  0.00000000000E+00 0. -1.
         22    1    1    2    0    0 -0.28158860082E+03  0.33224896691E+03 -0.50429462893E+03  0.66632918959E+03  0.00000000000E+00 0. -1.
<mgrwt>
<rscale>  0 0.92141056E+03</rscale>
<asrwt>0</asrwt>
<pdfrwt beam="1">  1        2 0.25913510E+00 0.92141056E+03</pdfrwt>
<pdfrwt beam="2">  1       -2 0.19386233E-01 0.92141056E+03</pdfrwt>
<totfact> 0.22663894E+02</totfact>
</mgrwt>
</event>
<event>
 6    1  0.1934315E-005  0.2390988E+04  0.7818608E-02  0.8442885E-01
          2   -1    0    0  501    0  0.00000000000E+00  0.00000000000E+00  0.18207370395E+04  0.18207370395E+04  0.00000000000E+00 0.  1.
         -2   -1    0    0    0  501 -0.00000000000E+00 -0.00000000000E+00 -0.78495978082E+03  0.78495978082E+03  0.00000000000E+00 0. -1.
         23    2    1    2    0    0  0.92510242727E+02  0.11883038491E+04  0.44752324643E+03  0.12765365720E+04  0.92975161381E+02 0.  0.
         13    1    3    3    0    0  0.21743181257E+02  0.82267513815E+03  0.31724190703E+03  0.88199182334E+03  0.00000000000E+00 0.  1.
        -13    1    3    3    0    0  0.70767061470E+02  0.36562871097E+03  0.13028133940E+03  0.39454474862E+03  0.00000000000E+00 0. -1.
         22    1    1    2    0    0 -0.92510242727E+02 -0.11883038491E+04  0.58825401224E+03  0.13291602483E+04  0.00000000000E+00 0. -1.
<mgrwt>
<rscale>  0 0.23909875E+04</rscale>
<asrwt>0</asrwt>
<pdfrwt beam="1">  1        2 0.28011339E+00 0.23909875E+04</pdfrwt>
<pdfrwt beam="2">  1       -2 0.12076304E+00 0.23909875E+04</pdfrwt>
<totfact> 0.39527978E+00</totfact>
</mgrwt>
</event>
<event>
 6    1  0.1934315E-005  0.3399987E+04  0.7818608E-02  0.8137909E-01
         -2   -1    0    0    0  501 -0.00000000000E+00  0.00000000000E+00  0.10829530799E+04  0.10829530799E+04  0.00000000000E+00 0. -1.
          2   -1    0    0  501    0  0.00000000000E+00 -0.00000000000E+00 -0.26686089983E+04  0.26686089983E+04  0.00000000000E+00 0.  1.
         23    2    1    2    0    0 -0.13170586930E+04 -0.50246288992E+03  0.25261973513E+03  0.14350194097E+04  0.91386098298E+02 0.  0.
         11    1    3    3    0    0 -0.37429339317E+03 -0.10289727692E+03  0.52668792030E+02  0.39173638511E+03  0.00000000000E+00 0. -1.
        -11    1    3    3    0    0 -0.94276529987E+03 -0.39956561299E+03  0.19995094310E+03  0.10432830246E+04  0.00000000000E+00 0.  1.
         22    1    1    2    0    0  0.13170586930E+04  0.50246288992E+03 -0.18382756536E+04  0.23165426685E+04  0.00000000000E+00 0.  1.
<mgrwt>
<rscale>  0 0.33999873E+04</rscale>
<asrwt>0</asrwt>
<pdfrwt beam="1">  1        2 0.41055523E+00 0.33999873E+04</pdfrwt>
<pdfrwt beam="2">  1       -2 0.16660817E+00 0.33999873E+04</pdfrwt>
<totfact> 0.51749043E-01</totfact>
</mgrwt>
</event>
<event>
 6    1  0.1934315E-005  0.1384026E+04  0.7818608E-02  0.8965463E-01
          2   -1    0    0  501    0  0.00000000000E+00  0.00000000000E+00  0.18204621257E+04  0.18204621257E+04  0.00000000000E+00 0. -1.
         -2   -1    0    0    0  501 -0.00000000000E+00 -0.00000000000E+00 -0.26305520187E+03  0.26305520187E+03  0.00000000000E+00 0.  1.
         23    2    1    2    0    0 -0.12079382950E+03 -0.66226813186E+03  0.56007822302E+03  0.88024895967E+03  0.89221002962E+02 0.  0.
         13    1    3    3    0    0 -0.11817676900E+03 -0.48953232153E+03  0.38148967142E+03  0.63177686880E+03  0.00000000000E+00 0. -1.
        -13    1    3    3    0    0 -0.26170605038E+01 -0.17273581033E+03  0.17858855160E+03  0.24847209086E+03  0.00000000000E+00 0.  1.
         22    1    1    2    0    0  0.12079382950E+03  0.66226813186E+03  0.99732870082E+03  0.12032683679E+04  0.00000000000E+00 0. -1.
<mgrwt>
<rscale>  0 0.13840261E+04</rscale>
<asrwt>0</asrwt>
<pdfrwt beam="1">  1        2 0.28007109E+00 0.13840261E+04</pdfrwt>
<pdfrwt beam="2">  1       -2 0.40470032E-01 0.13840261E+04</pdfrwt>
<totfact> 0.47350007E+01</totfact>
</mgrwt>
</event>
<event>
 6    1  0.1934315E-005  0.2517687E+04  0.7818608E-02  0.8396711E-01
          2   -1    0    0  501    0  0.00000000000E+00  0.00000000000E+00  0.13793594578E+04  0.13793594578E+04  0.00000000000E+00 0.  1.
         -2   -1    0    0    0  501 -0.00000000000E+00 -0.00000000000E+00 -0.11488575639E+04  0.11488575639E+04  0.00000000000E+00 0. -1.
         23    2    1    2    0    0 -0.12938617293E+03  0.55249392523E+03  0.12419146327E+04  0.13684989320E+04  0.91907849405E+02 0.  0.
         11    1    3    3    0    0 -0.19610650055E+02  0.52237157966E+02  0.19805921619E+03  0.20576868417E+03  0.00000000000E+00 0.  1.
        -11    1    3    3    0    0 -0.10977552287E+03  0.50025676726E+03  0.10438554166E+04  0.11627302479E+04  0.00000000000E+00 0. -1.
         22    1    1    2    0    0  0.12938617293E+03 -0.55249392523E+03 -0.10114127389E+04  0.11597180897E+04  0.00000000000E+00 0. -1.
<mgrwt>
<rscale>  0 0.25176875E+04</rscale>
<asrwt>0</asrwt>
<pdfrwt beam="1">  1        2 0.21220915E+00 0.25176875E+04</pdfrwt>
<pdfrwt beam="2">  1       -2 0.17674732E+00 0.25176875E+04</pdfrwt>
<totfact> 0.25300582E+00</totfact>
</mgrwt>
</event>
<event>
 6    1  0.1934315E-005  0.2459243E+04  0.7818608E-02  0.8417651E-01
         -2   -1    0    0    0  501 -0.00000000000E+00  0.00000000000E+00  0.14813163077E+04  0.14813163077E+04  0.00000000000E+00 0. -1.
          2   -1    0    0  501    0  0.00000000000E+00 -0.00000000000E+00 -0.10206927054E+04  0.10206927054E+04  0.00000000000E+00 0.  1.
         23    2    1    2    0    0 -0.51233556349E+03  0.37962084175E+03  0.12982632665E+04  0.14492792662E+04  0.91231404644E+02 0.  0.
         11    1    3    3    0    0 -0.11221882997E+03  0.41289987837E+02  0.26599779983E+03  0.29163806063E+03  0.00000000000E+00 0.  1.
        -11    1    3    3    0    0 -0.40011673352E+03  0.33833085392E+03  0.10322654666E+04  0.11576412055E+04  0.00000000000E+00 0. -1.
         22    1    1    2    0    0  0.51233556349E+03 -0.37962084175E+03 -0.83763966418E+03  0.10527297469E+04  0.00000000000E+00 0.  1.
<mgrwt>
<rscale>  0 0.24592428E+04</rscale>
<asrwt>0</asrwt>
<pdfrwt beam="1">  1        2 0.15702965E+00 0.24592428E+04</pdfrwt>
<pdfrwt beam="2">  1       -2 0.22789482E+00 0.24592428E+04</pdfrwt>
<totfact> 0.19265935E+00</totfact>
</mgrwt>
</event>
<event>
 6    1  0.1934315E-005  0.2833135E+04  0.7818608E-02  0.8293054E-01
         -2   -1    0    0    0  501 -0.00000000000E+00  0.00000000000E+00  0.75118810427E+03  0.75118810427E+03  0.00000000000E+00 0. -1.
          2   -1    0    0  501    0  0.00000000000E+00 -0.00000000000E+00 -0.26713203011E+04  0.26713203011E+04  0.00000000000E+00 0.  1.
         23    2    1    2    0    0 -0.56398238205E+03  0.11438510460E+04 -0.22049730470E+03  0.12976013229E+04  0.93160018096E+02 0.  0.
         11    1    3    3    0    0 -0.46313453022E+03  0.92792779098E+03 -0.14238269351E+03  0.10468124998E+04  0.00000000000E+00 0. -1.
        -11    1    3    3    0    0 -0.10084785183E+03  0.21592325505E+03 -0.78114611181E+02  0.25078882305E+03  0.00000000000E+00 0.  1.
         22    1    1    2    0    0  0.56398238205E+03 -0.11438510460E+04 -0.16996348921E+04  0.21249070825E+04  0.00000000000E+00 0.  1.
<mgrwt>
<rscale>  0 0.28331354E+04</rscale>
<asrwt>0</asrwt>
<pdfrwt beam="1">  1        2 0.41097234E+00 0.28331354E+04</pdfrwt>
<pdfrwt beam="2">  1       -2 0.11556740E+00 0.28331354E+04</pdfrwt>
<totfact> 0.13959023E+00</totfact>
</mgrwt>
</event>
<event>
 6    1  0.1934315E-005  0.3313609E+04  0.7818608E-02  0.8159441E-01
         -2   -1    0    0    0  501 -0.00000000000E+00  0.00000000000E+00  0.90126830386E+03  0.90126830386E+03  0.00000000000E+00 0. -1.
          2   -1    0    0  501    0  0.00000000000E+00 -0.00000000000E+00 -0.30457097815E+04  0.30457097815E+04  0.00000000000E+00 0.  1.
         23    2    1    2    0    0 -0.25688190854E+02  0.60369100397E+03 -0.29090785770E+04  0.29724153089E+04  0.86092333924E+02 0.  0.
         11    1    3    3    0    0 -0.27184503170E+02  0.35259532055E+03 -0.18946439980E+04  0.19273656468E+04  0.00000000000E+00 0. -1.
        -11    1    3    3    0    0  0.14963123162E+01  0.25109568342E+03 -0.10144345790E+04  0.10450496621E+04  0.00000000000E+00 0.  1.
         22    1    1    2    0    0  0.25688190854E+02 -0.60369100397E+03  0.76463709940E+03  0.97456277643E+03  0.00000000000E+00 0. -1.
<mgrwt>
<rscale>  0 0.33136093E+04</rscale>
<asrwt>0</asrwt>
<pdfrwt beam="1">  1        2 0.46857073E+00 0.33136093E+04</pdfrwt>
<pdfrwt beam="2">  1       -2 0.13865666E+00 0.33136093E+04</pdfrwt>
<totfact> 0.50023356E-01</totfact>
</mgrwt>
</event>
<event>
 6    1  0.1934315E-005  0.2158183E+04  0.7818608E-02  0.8536038E-01
          2   -1    0    0  501    0  0.00000000000E+00  0.00000000000E+00  0.18217089341E+04  0.18217089341E+04  0.00000000000E+00 0.  1.
         -2   -1    0    0    0  501 -0.00000000000E+00 -0.00000000000E+00 -0.63920098209E+03  0.63920098209E+03  0.00000000000E+00 0. -1.
         23    2    1    2    0    0  0.43231896612E+03 -0.36522509396E+03  0.16374325611E+04  0.17347932192E+04  0.89627360299E+02 0.  0.
         11    1    3    3    0    0  0.27866318088E+03 -0.28710772825E+03  0.11100418188E+04  0.11799478190E+04  0.00000000000E+00 0.  1.
        -11    1    3    3    0    0  0.15365578524E+03 -0.78117365711E+02  0.52739074227E+03  0.55484540026E+03  0.00000000000E+00 0. -1.
         22    1    1    2    0    0 -0.43231896612E+03  0.36522509396E+03 -0.45492460904E+03  0.72611669698E+03  0.00000000000E+00 0. -1.
<mgrwt>
<rscale>  0 0.21581827E+04</rscale>
<asrwt>0</asrwt>
<pdfrwt beam="1">  1        2 0.28026291E+00 0.21581827E+04</pdfrwt>
<pdfrwt beam="2">  1       -2 0.98338613E-01 0.21581827E+04</pdfrwt>
<totfact> 0.66150794E+00</totfact>
</mgrwt>
</event>
<event>
 6    1  0.1934315E-005  0.1664419E+04  0.7818608E-02  0.8781922E-01
          2   -1    0    0  501    0  0.00000000000E+00  0.00000000000E+00  0.21852300515E+04  0.21852300515E+04  0.00000000000E+00 0.  1.
         -2   -1    0    0    0  501 -0.00000000000E+00 -0.00000000000E+00 -0.31693349819E+03  0.31693349819E+03  0.00000000000E+00 0. -1.
         23    2    1    2    0    0  0.57429338151E+03  0.34684756791E+03  0.20510565128E+03  0.70875336235E+03  0.10073170823E+03 0.  0.
         13    1    3    3    0    0  0.20492691576E+03  0.17219294964E+03  0.10910309702E+03  0.28904833244E+03  0.00000000000E+00 0.  1.
        -13    1    3    3    0    0  0.36936646575E+03  0.17465461827E+03  0.96002554258E+02  0.41970502991E+03  0.00000000000E+00 0. -1.
         22    1    1    2    0    0 -0.57429338151E+03 -0.34684756791E+03  0.16631909020E+04  0.17934101873E+04  0.00000000000E+00 0.  1.
<mgrwt>
<rscale>  0 0.16644189E+04</rscale>
<asrwt>0</asrwt>
<pdfrwt beam="1">  1        2 0.33618923E+00 0.16644189E+04</pdfrwt>
<pdfrwt beam="2">  1       -2 0.48759001E-01 0.16644189E+04</pdfrwt>
<totfact> 0.20016475E+01</totfact>
</mgrwt>
</event>
<event>
 6    1  0.1934315E-005  0.7049582E+03  0.7818608E-02  0.9708790E-01
         -2   -1    0    0    0  501 -0.00000000000E+00  0.00000000000E+00  0.10695136413E+03  0.10695136413E+03  0.00000000000E+00 0. -1.
          2   -1    0    0  501    0  0.00000000000E+00 -0.00000000000E+00 -0.11616636530E+04  0.11616636530E+04  0.00000000000E+00 0.  1.
         23    2    1    2    0    0  0.24345211547E+03 -0.24163760001E+02 -0.97794099020E+03  0.10122039173E+04  0.91298247831E+02 0.  0.
         11    1    3    3    0    0  0.17053135945E+03  0.23530086034E+02 -0.59019341288E+03  0.61478685258E+03  0.00000000000E+00 0. -1.
        -11    1    3    3    0    0  0.72920756025E+02 -0.47693846035E+02 -0.38774757732E+03  0.39741706471E+03  0.00000000000E+00 0.  1.
         22    1    1    2    0    0 -0.24345211547E+03  0.24163760001E+02 -0.76771298697E+02  0.25641109986E+03  0.00000000000E+00 0. -1.
<mgrwt>
<rscale>  0 0.70495819E+03</rscale>
<asrwt>0</asrwt>
<pdfrwt beam="1">  1        2 0.17871749E+00 0.70495819E+03</pdfrwt>
<pdfrwt beam="2">  1       -2 0.16454056E-01 0.70495819E+03</pdfrwt>
<totfact> 0.60305412E+02</totfact>
</mgrwt>
</event>
<event>
 6    1  0.1934315E-005  0.8011546E+03  0.7818608E-02  0.9558347E-01
          1   -1    0    0  501    0  0.00000000000E+00  0.00000000000E+00  0.50923993274E+03  0.50923993274E+03  0.00000000000E+00 0. -1.
         -1   -1    0    0    0  501 -0.00000000000E+00 -0.00000000000E+00 -0.31510131950E+03  0.31510131950E+03  0.00000000000E+00 0.  1.
         23    2    1    2    0    0 -0.35281525283E+03  0.17534708679E+03  0.12691084415E+03  0.42466040905E+03  0.94894136694E+02 0.  0.
         11    1    3    3    0    0 -0.30422128125E+03  0.15755275030E+03  0.14184194531E+03  0.37079993871E+03  0.00000000000E+00 0. -1.
        -11    1    3    3    0    0 -0.48593971574E+02  0.17794336487E+02 -0.14931101152E+02  0.53860470347E+02  0.00000000000E+00 0.  1.
         22    1    1    2    0    0  0.35281525283E+03 -0.17534708679E+03  0.67227769083E+02  0.39968084319E+03  0.00000000000E+00 0.  1.
<mgrwt>
<rscale>  0 0.80115460E+03</rscale>
<asrwt>0</asrwt>
<pdfrwt beam="1">  1        1 0.78344605E-01 0.80115460E+03</pdfrwt>
<pdfrwt beam="2">  1       -1 0.48477126E-01 0.80115460E+03</pdfrwt>
<totfact> 0.18604187E+02</totfact>
</mgrwt>
</event>
<event>
 6    1  0.1934315E-005  0.3702082E+04  0.7818608E-02  0.8067501E-01
          2   -1    0    0  501    0  0.00000000000E+00  0.00000000000E+00  0.22994052939E+04  0.22994052939E+04  0.00000000000E+00 0.  1.
         -2   -1    0    0    0  501 -0.00000000000E+00 -0.00000000000E+00 -0.14901040480E+04  0.14901040480E+04  0.00000000000E+00 0. -1.
         23    2    1    2    0    0 -0.80306705023E+03  0.37865796032E+03 -0.12557039070E+04  0.15417226928E+04  0.10871072363E+03 0.  0.
         11    1    3    3    0    0 -0.52986810108E+03  0.29053306447E+03 -0.78940674772E+03  0.99414922393E+03  0.00000000000E+00 0.  1.
        -11    1    3    3    0    0 -0.27319894915E+03  0.88124895847E+02 -0.46629715925E+03  0.54757346887E+03  0.00000000000E+00 0. -1.
         22    1    1    2    0    0  0.80306705023E+03 -0.37865796032E+03  0.20650051529E+04  0.22477866490E+04  0.00000000000E+00 0.  1.
<mgrwt>
<rscale>  0 0.37020822E+04</rscale>
<asrwt>0</asrwt>
<pdfrwt beam="1">  1        2 0.35375466E+00 0.37020822E+04</pdfrwt>
<pdfrwt beam="2">  1       -2 0.22924678E+00 0.37020822E+04</pdfrwt>
<totfact> 0.31697776E-01</totfact>
</mgrwt>
</event>
<event>
 6    1  0.1934315E-005  0.3048046E+04  0.7818608E-02  0.8230143E-01
          2   -1    0    0  501    0  0.00000000000E+00  0.00000000000E+00  0.20026996943E+04  0.20026996943E+04  0.00000000000E+00 0.  1.
         -2   -1    0    0    0  501 -0.00000000000E+00 -0.00000000000E+00 -0.11597572653E+04  0.11597572653E+04  0.00000000000E+00 0. -1.
         23    2    1    2    0    0  0.30200341641E+02  0.86029405638E+03 -0.88123206132E+03  0.12353358952E+04  0.92015780950E+02 0.  0.
         11    1    3    3    0    0  0.61127671999E+02  0.45631843771E+03 -0.48113994082E+03  0.66592698663E+03  0.00000000000E+00 0. -1.
        -11    1    3    3    0    0 -0.30927330358E+02  0.40397561867E+03 -0.40009212051E+03  0.56940890855E+03  0.00000000000E+00 0.  1.
         22    1    1    2    0    0 -0.30200341641E+02 -0.86029405638E+03  0.17241744903E+04  0.19271210644E+04  0.00000000000E+00 0.  1.
<mgrwt>
<rscale>  0 0.30480456E+04</rscale>
<asrwt>0</asrwt>
<pdfrwt beam="1">  1        2 0.30810764E+00 0.30480456E+04</pdfrwt>
<pdfrwt beam="2">  1       -2 0.17842420E+00 0.30480456E+04</pdfrwt>
<totfact> 0.10557150E+00</totfact>
</mgrwt>
</event>
<event>
 6    1  0.1934315E-005  0.2018135E+04  0.7818608E-02  0.8598189E-01
         -2   -1    0    0    0  501 -0.00000000000E+00  0.00000000000E+00  0.48350465336E+03  0.48350465336E+03  0.00000000000E+00 0. -1.
          2   -1    0    0  501    0  0.00000000000E+00 -0.00000000000E+00 -0.21059097454E+04  0.21059097454E+04  0.00000000000E+00 0.  1.
         23    2    1    2    0    0  0.11651601046E+03 -0.62888420260E+03  0.18516792068E+03  0.67202254593E+03  0.90861556306E+02 0.  0.
         13    1    3    3    0    0  0.90179588909E+02 -0.24633149043E+03  0.66406142406E+02  0.27059441455E+03  0.00000000000E+00 0. -1.
        -13    1    3    3    0    0  0.26336421556E+02 -0.38255271216E+03  0.11876177828E+03  0.40142813138E+03  0.00000000000E+00 0.  1.
         22    1    1    2    0    0 -0.11651601046E+03  0.62888420260E+03 -0.18075730127E+04  0.19173918528E+04  0.00000000000E+00 0.  1.
<mgrwt>
<rscale>  0 0.20181349E+04</rscale>
<asrwt>0</asrwt>
<pdfrwt beam="1">  1        2 0.32398612E+00 0.20181349E+04</pdfrwt>
<pdfrwt beam="2">  1       -2 0.74385330E-01 0.20181349E+04</pdfrwt>
<totfact> 0.87968566E+00</totfact>
</mgrwt>
</event>
<event>
 6    1  0.1934315E-005  0.3844619E+04  0.7818608E-02  0.8036647E-01
         -2   -1    0    0    0  501 -0.00000000000E+00  0.00000000000E+00  0.12447985762E+04  0.12447985762E+04  0.00000000000E+00 0. -1.
          2   -1    0    0  501    0  0.00000000000E+00 -0.00000000000E+00 -0.29685721187E+04  0.29685721187E+04  0.00000000000E+00 0.  1.
         23    2    1    2    0    0 -0.69148015389E+03 -0.90136833137E+03 -0.25600595562E+04  0.28027027791E+04  0.10309347597E+03 0.  0.
         13    1    3    3    0    0 -0.32063179731E+03 -0.50254545471E+03 -0.13359447858E+04  0.14629098243E+04  0.00000000000E+00 0. -1.
        -13    1    3    3    0    0 -0.37084835658E+03 -0.39882287666E+03 -0.12241147704E+04  0.13397929548E+04  0.00000000000E+00 0.  1.
         22    1    1    2    0    0  0.69148015389E+03  0.90136833137E+03  0.83628601373E+03  0.14106679158E+04  0.00000000000E+00 0. -1.
<mgrwt>
<rscale>  0 0.38446193E+04</rscale>
<asrwt>0</asrwt>
<pdfrwt beam="1">  1        2 0.45670340E+00 0.38446193E+04</pdfrwt>
<pdfrwt beam="2">  1       -2 0.19150747E+00 0.38446193E+04</pdfrwt>
<totfact> 0.22027205E-01</totfact>
</mgrwt>
</event>
<event>
 6    1  0.1934315E-005  0.3730713E+04  0.7818608E-02  0.8061189E-01
          2   -1    0    0  501    0  0.00000000000E+00  0.00000000000E+00  0.78287542711E+03  0.78287542711E+03  0.00000000000E+00 0.  1.
         -2   -1    0    0    0  501 -0.00000000000E+00 -0.00000000000E+00 -0.44445835170E+04  0.44445835170E+04  0.00000000000E+00 0. -1.
         23    2    1    2    0    0  0.49230016744E+03 -0.17703972833E+04 -0.13919935366E+04  0.23071387307E+04  0.92612747748E+02 0.  0.
         13    1    3    3    0    0  0.36184554667E+02 -0.13190741003E+03 -0.74536610944E+02  0.15577096388E+03  0.00000000000E+00 0.  1.
        -13    1    3    3    0    0  0.45611561278E+03 -0.16384898733E+04 -0.13174569256E+04  0.21513677668E+04  0.00000000000E+00 0. -1.
         22    1    1    2    0    0 -0.49230016744E+03  0.17703972833E+04 -0.22697145533E+04  0.29203202135E+04  0.00000000000E+00 0. -1.
<mgrwt>
<rscale>  0 0.37307132E+04</rscale>
<asrwt>0</asrwt>
<pdfrwt beam="1">  1        2 0.12044237E+00 0.37307132E+04</pdfrwt>
<pdfrwt beam="2">  1       -2 0.68378210E+00 0.37307132E+04</pdfrwt>
<totfact> 0.73804917E-03</totfact>
</mgrwt>
</event>
<event>
 6    1  0.1934315E-005  0.2139210E+04  0.7818608E-02  0.8544165E-01
          1   -1    0    0  501    0  0.00000000000E+00  0.00000000000E+00  0.29247149220E+04  0.29247149220E+04  0.00000000000E+00 0.  1.
         -1   -1    0    0    0  501 -0.00000000000E+00 -0.00000000000E+00 -0.39116797671E+03  0.39116797671E+03  0.00000000000E+00 0. -1.
         23    2    1    2    0    0 -0.51005089774E+03 -0.42174099626E+03  0.25676810353E+04  0.26531744241E+04  0.91275624812E+02 0.  0.
         11    1    3    3    0    0 -0.14446023309E+03 -0.14480747985E+03  0.65064626526E+03  0.68203997512E+03  0.00000000000E+00 0.  1.
        -11    1    3    3    0    0 -0.36559066465E+03 -0.27693351641E+03  0.19170347700E+04  0.19711344490E+04  0.00000000000E+00 0. -1.
         22    1    1    2    0    0  0.51005089774E+03  0.42174099626E+03 -0.34134089978E+02  0.66270847460E+03  0.00000000000E+00 0. -1.
<mgrwt>
<rscale>  0 0.21392100E+04</rscale>
<asrwt>0</asrwt>
<pdfrwt beam="1">  1        1 0.44995613E+00 0.21392100E+04</pdfrwt>
<pdfrwt beam="2">  1       -1 0.60179691E-01 0.21392100E+04</pdfrwt>
<totfact> 0.17416830E+00</totfact>
</mgrwt>
</event>
<event>
 6    1  0.1934315E-005  0.2469848E+04  0.7818608E-02  0.8413807E-01
          2   -1    0    0  501    0  0.00000000000E+00  0.00000000000E+00  0.18448468707E+04  0.18448468707E+04  0.00000000000E+00 0.  1.
         -2   -1    0    0    0  501 -0.00000000000E+00 -0.00000000000E+00 -0.82664741208E+03  0.82664741208E+03  0.00000000000E+00 0. -1.
         23    2    1    2    0    0 -0.98107086252E+02  0.10719124416E+03  0.18344037261E+04  0.18424560631E+04  0.92153951873E+02 0.  0.
         13    1    3    3    0    0 -0.23335474459E+02  0.27240815437E+02  0.14006803380E+03  0.14458789882E+03  0.00000000000E+00 0.  1.
        -13    1    3    3    0    0 -0.74771611793E+02  0.79950428727E+02  0.16943356923E+04  0.16978681643E+04  0.00000000000E+00 0. -1.
         22    1    1    2    0    0  0.98107086252E+02 -0.10719124416E+03 -0.81620426757E+03  0.82903821962E+03  0.00000000000E+00 0. -1.
<mgrwt>
<rscale>  0 0.24698485E+04</rscale>
<asrwt>0</asrwt>
<pdfrwt beam="1">  1        2 0.28382259E+00 0.24698485E+04</pdfrwt>
<pdfrwt beam="2">  1       -2 0.12717653E+00 0.24698485E+04</pdfrwt>
<totfact> 0.33448372E+00</totfact>
</mgrwt>
</event>
<event>
 6    1  0.1934315E-005  0.1516383E+04  0.7818608E-02  0.8873631E-01
          2   -1    0    0  501    0  0.00000000000E+00  0.00000000000E+00  0.12350740210E+04  0.12350740210E+04  0.00000000000E+00 0.  1.
         -2   -1    0    0    0  501 -0.00000000000E+00 -0.00000000000E+00 -0.46544130831E+03  0.46544130831E+03  0.00000000000E+00 0. -1.
         23    2    1    2    0    0  0.38771723182E+01 -0.34222046974E+03  0.11410488534E+04  0.11954610431E+04  0.10002368432E+03 0.  0.
         13    1    3    3    0    0 -0.87677213567E+01 -0.15528666568E+03  0.68478479103E+03  0.70222576960E+03  0.00000000000E+00 0. -1.
        -13    1    3    3    0    0  0.12644893675E+02 -0.18693380406E+03  0.45626406235E+03  0.49323527350E+03  0.00000000000E+00 0.  1.
         22    1    1    2    0    0 -0.38771723182E+01  0.34222046974E+03 -0.37141614072E+03  0.50505428616E+03  0.00000000000E+00 0. -1.
<mgrwt>
<rscale>  0 0.15163832E+04</rscale>
<asrwt>0</asrwt>
<pdfrwt beam="1">  1        2 0.19001139E+00 0.15163832E+04</pdfrwt>
<pdfrwt beam="2">  1       -2 0.71606356E-01 0.15163832E+04</pdfrwt>
<totfact> 0.30812689E+01</totfact>
</mgrwt>
</event>
<event>
 6    1  0.1934315E-005  0.2717685E+04  0.7818608E-02  0.8329290E-01
         -2   -1    0    0    0  501 -0.00000000000E+00  0.00000000000E+00  0.14165575719E+04  0.14165575719E+04  0.00000000000E+00 0. -1.
          2   -1    0    0  501    0  0.00000000000E+00 -0.00000000000E+00 -0.13034789442E+04  0.13034789442E+04  0.00000000000E+00 0.  1.
         23    2    1    2    0    0 -0.86369558333E+03 -0.16572084464E+02  0.11043593005E+04  0.14051669154E+04  0.92951067692E+02 0.  0.
         11    1    3    3    0    0 -0.21226757579E+03 -0.93594232501E+01  0.21046011776E+03  0.29906284239E+03  0.00000000000E+00 0. -1.
        -11    1    3    3    0    0 -0.65142800754E+03 -0.72126612143E+01  0.89389918271E+03  0.11061040730E+04  0.00000000000E+00 0.  1.
         22    1    1    2    0    0  0.86369558333E+03  0.16572084464E+02 -0.99128067271E+03  0.13148696007E+04  0.00000000000E+00 0.  1.
<mgrwt>
<rscale>  0 0.27176850E+04</rscale>
<asrwt>0</asrwt>
<pdfrwt beam="1">  1        2 0.20053522E+00 0.27176850E+04</pdfrwt>
<pdfrwt beam="2">  1       -2 0.21793194E+00 0.27176850E+04</pdfrwt>
<totfact> 0.14684360E+00</totfact>
</mgrwt>
</event>
<event>
 6    1  0.1934315E-005  0.1386025E+04  0.7818608E-02  0.8963997E-01
          2   -1    0    0  501    0  0.00000000000E+00  0.00000000000E+00  0.82065596635E+03  0.82065596635E+03  0.00000000000E+00 0.  1.
         -2   -1    0    0    0  501 -0.00000000000E+00 -0.00000000000E+00 -0.58522276994E+03  0.58522276994E+03  0.00000000000E+00 0. -1.
         23    2    1    2    0    0  0.46312731796E+03 -0.44316372855E+03  0.37742624588E+03  0.74934006337E+03  0.90437583667E+02 0.  0.
         13    1    3    3    0    0  0.11159513142E+03 -0.16397632721E+03  0.12146064415E+03  0.23258202278E+03  0.00000000000E+00 0.  1.
        -13    1    3    3    0    0  0.35153218655E+03 -0.27918740134E+03  0.25596560173E+03  0.51675804059E+03  0.00000000000E+00 0. -1.
         22    1    1    2    0    0 -0.46312731796E+03  0.44316372855E+03 -0.14199304947E+03  0.65653867293E+03  0.00000000000E+00 0. -1.
<mgrwt>
<rscale>  0 0.13860253E+04</rscale>
<asrwt>0</asrwt>
<pdfrwt beam="1">  1        2 0.12625476E+00 0.13860253E+04</pdfrwt>
<pdfrwt beam="2">  1       -2 0.90034273E-01 0.13860253E+04</pdfrwt>
<totfact> 0.34256645E+01</totfact>
</mgrwt>
</event>
<event>
 6    1  0.1934315E-005  0.1637584E+04  0.7818608E-02  0.8797786E-01
          2   -1    0    0  501    0  0.00000000000E+00  0.00000000000E+00  0.11838875418E+04  0.11838875418E+04  0.00000000000E+00 0.  1.
         -2   -1    0    0    0  501 -0.00000000000E+00 -0.00000000000E+00 -0.56628687117E+03  0.56628687117E+03  0.00000000000E+00 0. -1.
         23    2    1    2    0    0 -0.68620216325E+03 -0.14594134649E+03  0.75576447324E+03  0.10351488737E+04  0.90448693647E+02 0.  0.
         13    1    3    3    0    0 -0.11471494552E+03 -0.34940314569E+02  0.85042460900E+02  0.14701212353E+03  0.00000000000E+00 0. -1.
        -13    1    3    3    0    0 -0.57148721773E+03 -0.11100103192E+03  0.67072201234E+03  0.88813675014E+03  0.00000000000E+00 0.  1.
         22    1    1    2    0    0  0.68620216325E+03  0.14594134649E+03 -0.13816380264E+03  0.71502553928E+03  0.00000000000E+00 0. -1.
<mgrwt>
<rscale>  0 0.16375836E+04</rscale>
<asrwt>0</asrwt>
<pdfrwt beam="1">  1        2 0.18213654E+00 0.16375836E+04</pdfrwt>
<pdfrwt beam="2">  1       -2 0.87121057E-01 0.16375836E+04</pdfrwt>
<totfact> 0.21093843E+01</totfact>
</mgrwt>
</event>
<event>
 6    1  0.1934315E-005  0.1031109E+04  0.7818608E-02  0.9275068E-01
          4   -1    0    0  501    0  0.00000000000E+00  0.00000000000E+00  0.23583557370E+03  0.23583557370E+03  0.00000000000E+00 0.  1.
         -4   -1    0    0    0  501 -0.00000000000E+00 -0.00000000000E+00 -0.11270410395E+04  0.11270410395E+04  0.00000000000E+00 0. -1.
         23    2    1    2    0    0 -0.25683085509E+03 -0.44211979843E+03 -0.47216075610E+03  0.70179380976E+03  0.90259445642E+02 0.  0.
         11    1    3    3    0    0 -0.14615205412E+03 -0.29240168373E+03 -0.24755267958E+03  0.41005060265E+03  0.00000000000E+00 0. -1.
        -11    1    3    3    0    0 -0.11067880097E+03 -0.14971811470E+03 -0.22460807652E+03  0.29174320711E+03  0.00000000000E+00 0.  1.
         22    1    1    2    0    0  0.25683085509E+03  0.44211979843E+03 -0.41904470971E+03  0.66108280346E+03  0.00000000000E+00 0.  1.
<mgrwt>
<rscale>  0 0.10311089E+04</rscale>
<asrwt>0</asrwt>
<pdfrwt beam="1">  1        4 0.36282397E-01 0.10311089E+04</pdfrwt>
<pdfrwt beam="2">  1       -4 0.17339093E+00 0.10311089E+04</pdfrwt>
<totfact> 0.29451276E+00</totfact>
</mgrwt>
</event>
<event>
 6    1  0.1934315E-005  0.1676856E+04  0.7818608E-02  0.8774675E-01
          2   -1    0    0  501    0  0.00000000000E+00  0.00000000000E+00  0.17955941980E+04  0.17955941980E+04  0.00000000000E+00 0. -1.
         -2   -1    0    0    0  501 -0.00000000000E+00 -0.00000000000E+00 -0.39149261109E+03  0.39149261109E+03  0.00000000000E+00 0.  1.
         23    2    1    2    0    0  0.29208273557E+03 -0.21708533712E+03  0.16856384978E+04  0.17269766047E+04  0.92912215125E+02 0.  0.
         11    1    3    3    0    0  0.31915803280E+02 -0.24591390705E+02  0.36692595493E+03  0.36913142835E+03  0.00000000000E+00 0.  1.
        -11    1    3    3    0    0  0.26016693229E+03 -0.19249394641E+03  0.13187125429E+04  0.13578451763E+04  0.00000000000E+00 0. -1.
         22    1    1    2    0    0 -0.29208273557E+03  0.21708533712E+03 -0.28153691091E+03  0.46011020442E+03  0.00000000000E+00 0.  1.
<mgrwt>
<rscale>  0 0.16768564E+04</rscale>
<asrwt>0</asrwt>
<pdfrwt beam="1">  1        2 0.27624526E+00 0.16768564E+04</pdfrwt>
<pdfrwt beam="2">  1       -2 0.60229634E-01 0.16768564E+04</pdfrwt>
<totfact> 0.21249669E+01</totfact>
</mgrwt>
</event>
<event>
 6    1  0.1934315E-005  0.9802033E+03  0.7818608E-02  0.9330528E-01
         -2   -1    0    0    0  501 -0.00000000000E+00  0.00000000000E+00  0.27865202417E+03  0.27865202417E+03  0.00000000000E+00 0. -1.
          2   -1    0    0  501    0  0.00000000000E+00 -0.00000000000E+00 -0.86200564386E+03  0.86200564386E+03  0.00000000000E+00 0.  1.
         23    2    1    2    0    0 -0.73021847977E+02  0.15348369404E+03 -0.82387853607E+03  0.84613827984E+03  0.91020392249E+02 0.  0.
         13    1    3    3    0    0 -0.35264070307E+02  0.12257763394E+03 -0.40969960854E+03  0.42909509463E+03  0.00000000000E+00 0. -1.
        -13    1    3    3    0    0 -0.37757777669E+02  0.30906060100E+02 -0.41417892753E+03  0.41704318521E+03  0.00000000000E+00 0.  1.
         22    1    1    2    0    0  0.73021847977E+02 -0.15348369404E+03  0.24052491638E+03  0.29451938819E+03  0.00000000000E+00 0. -1.
<mgrwt>
<rscale>  0 0.98020328E+03</rscale>
<asrwt>0</asrwt>
<pdfrwt beam="1">  1        2 0.13261625E+00 0.98020328E+03</pdfrwt>
<pdfrwt beam="2">  1       -2 0.42869542E-01 0.98020328E+03</pdfrwt>
<totfact> 0.16042072E+02</totfact>
</mgrwt>
</event>
<event>
 6    1  0.1934315E-005  0.7206565E+03  0.7818608E-02  0.9682545E-01
         -2   -1    0    0    0  501 -0.00000000000E+00  0.00000000000E+00  0.39935580422E+02  0.39935580422E+02  0.00000000000E+00 0. -1.
          2   -1    0    0  501    0  0.00000000000E+00 -0.00000000000E+00 -0.32511472990E+04  0.32511472990E+04  0.00000000000E+00 0.  1.
         23    2    1    2    0    0 -0.30829777789E+03  0.94882015725E+02 -0.23007968432E+04  0.23252126179E+04  0.94326497108E+02 0.  0.
         13    1    3    3    0    0 -0.29108727791E+02  0.25599454912E+02 -0.50882821830E+03  0.51030266104E+03  0.00000000000E+00 0. -1.
        -13    1    3    3    0    0 -0.27918905010E+03  0.69282560813E+02 -0.17919686249E+04  0.18149099568E+04  0.00000000000E+00 0.  1.
         22    1    1    2    0    0  0.30829777789E+03 -0.94882015725E+02 -0.91041487541E+03  0.96587026155E+03  0.00000000000E+00 0. -1.
<mgrwt>
<rscale>  0 0.72065652E+03</rscale>
<asrwt>0</asrwt>
<pdfrwt beam="1">  1        2 0.50017654E+00 0.72065652E+03</pdfrwt>
<pdfrwt beam="2">  1       -2 0.61439351E-02 0.72065652E+03</pdfrwt>
<totfact> 0.19195040E+02</totfact>
</mgrwt>
</event>
<event>
 6    1  0.1934315E-005  0.8233298E+03  0.7818608E-02  0.9526849E-01
         -2   -1    0    0    0  501 -0.00000000000E+00  0.00000000000E+00  0.14219017916E+03  0.14219017916E+03  0.00000000000E+00 0. -1.
          2   -1    0    0  501    0  0.00000000000E+00 -0.00000000000E+00 -0.11918401842E+04  0.11918401842E+04  0.00000000000E+00 0.  1.
         23    2    1    2    0    0 -0.33555911423E+03  0.22686230863E+03 -0.48149942508E+03  0.63627574478E+03  0.94544702790E+02 0.  0.
         13    1    3    3    0    0 -0.15965467215E+03  0.13821249745E+03 -0.18756165766E+03  0.28243881499E+03  0.00000000000E+00 0.  1.
        -13    1    3    3    0    0 -0.17590444208E+03  0.88649811176E+02 -0.29393776742E+03  0.35383692979E+03  0.00000000000E+00 0. -1.
         22    1    1    2    0    0  0.33555911423E+03 -0.22686230863E+03 -0.56815057994E+03  0.69775461855E+03  0.00000000000E+00 0. -1.
<mgrwt>
<rscale>  0 0.82332975E+03</rscale>
<asrwt>0</asrwt>
<pdfrwt beam="1">  1        2 0.18336003E+00 0.82332975E+03</pdfrwt>
<pdfrwt beam="2">  1       -2 0.21875412E-01 0.82332975E+03</pdfrwt>
<totfact> 0.35065193E+02</totfact>
</mgrwt>
</event>
<event>
 6    1  0.1934315E-005  0.3859501E+04  0.7818608E-02  0.8033505E-01
          2   -1    0    0  501    0  0.00000000000E+00  0.00000000000E+00  0.29875860881E+04  0.29875860881E+04  0.00000000000E+00 0.  1.
         -2   -1    0    0    0  501 -0.00000000000E+00 -0.00000000000E+00 -0.12464704929E+04  0.12464704929E+04  0.00000000000E+00 0. -1.
         23    2    1    2    0    0  0.16169051731E+04 -0.99677623582E+03  0.12377370962E+04  0.22690285617E+04  0.92478598421E+02 0.  0.
         11    1    3    3    0    0  0.85413098510E+03 -0.49194820950E+03  0.68443012789E+03  0.11999989085E+04  0.00000000000E+00 0. -1.
        -11    1    3    3    0    0  0.76277418803E+03 -0.50482802632E+03  0.55330696831E+03  0.10690296531E+04  0.00000000000E+00 0.  1.
         22    1    1    2    0    0 -0.16169051731E+04  0.99677623582E+03  0.50337849901E+03  0.19650280193E+04  0.00000000000E+00 0. -1.
<mgrwt>
<rscale>  0 0.38595015E+04</rscale>
<asrwt>0</asrwt>
<pdfrwt beam="1">  1        2 0.45962863E+00 0.38595015E+04</pdfrwt>
<pdfrwt beam="2">  1       -2 0.19176469E+00 0.38595015E+04</pdfrwt>
<totfact> 0.21321515E-01</totfact>
</mgrwt>
</event>
<event>
 6    1  0.1934315E-005  0.3471622E+04  0.7818608E-02  0.8120548E-01
          2   -1    0    0  501    0  0.00000000000E+00  0.00000000000E+00  0.19416511949E+04  0.19416511949E+04  0.00000000000E+00 0. -1.
         -2   -1    0    0    0  501 -0.00000000000E+00 -0.00000000000E+00 -0.15517921605E+04  0.15517921605E+04  0.00000000000E+00 0.  1.
         23    2    1    2    0    0  0.47465719538E+02 -0.76393638882E+03  0.17612955775E+04  0.19228733976E+04  0.97098873784E+02 0.  0.
         11    1    3    3    0    0  0.32965930490E+01 -0.41068083397E+03  0.10499688082E+04  0.11274325315E+04  0.00000000000E+00 0. -1.
        -11    1    3    3    0    0  0.44169126489E+02 -0.35325555485E+03  0.71132676931E+03  0.79544086613E+03  0.00000000000E+00 0.  1.
         22    1    1    2    0    0 -0.47465719538E+02  0.76393638882E+03 -0.13714365430E+04  0.15705699578E+04  0.00000000000E+00 0.  1.
<mgrwt>
<rscale>  0 0.34716216E+04</rscale>
<asrwt>0</asrwt>
<pdfrwt beam="1">  1        2 0.29871557E+00 0.34716216E+04</pdfrwt>
<pdfrwt beam="2">  1       -2 0.23873726E+00 0.34716216E+04</pdfrwt>
<totfact> 0.44726054E-01</totfact>
</mgrwt>
</event>
<event>
 6    1  0.1934315E-005  0.1952883E+04  0.7818608E-02  0.8628972E-01
          1   -1    0    0  501    0  0.00000000000E+00  0.00000000000E+00  0.14615523451E+04  0.14615523451E+04  0.00000000000E+00 0. -1.
         -1   -1    0    0    0  501 -0.00000000000E+00 -0.00000000000E+00 -0.65234644966E+03  0.65234644966E+03  0.00000000000E+00 0.  1.
         23    2    1    2    0    0 -0.15780269724E+03 -0.96095440956E+03  0.39526622478E+03  0.10557489380E+04  0.10017665914E+03 0.  0.
         11    1    3    3    0    0  0.11919361162E+02 -0.14179928529E+03  0.63116064087E+02  0.15566870600E+03  0.00000000000E+00 0. -1.
        -11    1    3    3    0    0 -0.16972205840E+03 -0.81915512426E+03  0.33215016069E+03  0.90008023196E+03  0.00000000000E+00 0.  1.
         22    1    1    2    0    0  0.15780269724E+03  0.96095440956E+03  0.41393967065E+03  0.10581498568E+04  0.00000000000E+00 0. -1.
<mgrwt>
<rscale>  0 0.19528835E+04</rscale>
<asrwt>0</asrwt>
<pdfrwt beam="1">  1        1 0.22485421E+00 0.19528835E+04</pdfrwt>
<pdfrwt beam="2">  1       -1 0.10036099E+00 0.19528835E+04</pdfrwt>
<totfact> 0.61251574E+00</totfact>
</mgrwt>
</event>
<event>
 6    1  0.1934315E-005  0.3417732E+04  0.7818608E-02  0.8133568E-01
          2   -1    0    0  501    0  0.00000000000E+00  0.00000000000E+00  0.19050470778E+04  0.19050470778E+04  0.00000000000E+00 0.  1.
         -2   -1    0    0    0  501 -0.00000000000E+00 -0.00000000000E+00 -0.15328876110E+04  0.15328876110E+04  0.00000000000E+00 0. -1.
         23    2    1    2    0    0 -0.40624466179E+03  0.53481568508E+03  0.17656235762E+04  0.18910653451E+04  0.87401284308E+02 0.  0.
         13    1    3    3    0    0 -0.30529389770E+03  0.37668699837E+03  0.11665568576E+04  0.12633100810E+04  0.00000000000E+00 0. -1.
        -13    1    3    3    0    0 -0.10095076409E+03  0.15812868671E+03  0.59906671857E+03  0.62775526412E+03  0.00000000000E+00 0.  1.
         22    1    1    2    0    0  0.40624466179E+03 -0.53481568508E+03 -0.13934641094E+04  0.15468693437E+04  0.00000000000E+00 0. -1.
<mgrwt>
<rscale>  0 0.34177320E+04</rscale>
<asrwt>0</asrwt>
<pdfrwt beam="1">  1        2 0.29308417E+00 0.34177320E+04</pdfrwt>
<pdfrwt beam="2">  1       -2 0.23582886E+00 0.34177320E+04</pdfrwt>
<totfact> 0.49076180E-01</totfact>
</mgrwt>
</event>
<event>
 6    1  0.1934315E-005  0.1748296E+04  0.7818608E-02  0.8734289E-01
          2   -1    0    0  501    0  0.00000000000E+00  0.00000000000E+00  0.10666427905E+04  0.10666427905E+04  0.00000000000E+00 0.  1.
         -2   -1    0    0    0  501 -0.00000000000E+00 -0.00000000000E+00 -0.71639265441E+03  0.71639265441E+03  0.00000000000E+00 0. -1.
         23    2    1    2    0    0 -0.28036477564E+03  0.24466871655E+03  0.97948317249E+03  0.10520078104E+04  0.94159225158E+02 0.  0.
         11    1    3    3    0    0 -0.14020351513E+03  0.11769442773E+03  0.61089174915E+03  0.63772857326E+03  0.00000000000E+00 0. -1.
        -11    1    3    3    0    0 -0.14016126051E+03  0.12697428881E+03  0.36859142333E+03  0.41427923714E+03  0.00000000000E+00 0.  1.
         22    1    1    2    0    0  0.28036477564E+03 -0.24466871655E+03 -0.62923303642E+03  0.73102763450E+03  0.00000000000E+00 0. -1.
<mgrwt>
<rscale>  0 0.17482964E+04</rscale>
<asrwt>0</asrwt>
<pdfrwt beam="1">  1        2 0.16409889E+00 0.17482964E+04</pdfrwt>
<pdfrwt beam="2">  1       -2 0.11021425E+00 0.17482964E+04</pdfrwt>
<totfact> 0.14167749E+01</totfact>
</mgrwt>
</event>
<event>
 6    1  0.1934315E-005  0.5515054E+03  0.7818608E-02  0.1001146E+00
          1   -1    0    0  501    0  0.00000000000E+00  0.00000000000E+00  0.86900160168E+02  0.86900160168E+02  0.00000000000E+00 0.  1.
         -1   -1    0    0    0  501 -0.00000000000E+00 -0.00000000000E+00 -0.87502212598E+03  0.87502212598E+03  0.00000000000E+00 0. -1.
         23    2    1    2    0    0  0.12792205406E+03  0.18232254252E+03 -0.14379191799E+03  0.28018423385E+03  0.90672640822E+02 0.  0.
         13    1    3    3    0    0  0.19027293003E+02  0.80130411554E+02 -0.88623242973E+02  0.12098346966E+03  0.00000000000E+00 0. -1.
        -13    1    3    3    0    0  0.10889476106E+03  0.10219213096E+03 -0.55168675018E+02  0.15920076420E+03  0.00000000000E+00 0.  1.
         22    1    1    2    0    0 -0.12792205406E+03 -0.18232254252E+03 -0.64433004782E+03  0.68173805230E+03  0.00000000000E+00 0. -1.
<mgrwt>
<rscale>  0 0.55150544E+03</rscale>
<asrwt>0</asrwt>
<pdfrwt beam="1">  1        1 0.13369255E-01 0.55150544E+03</pdfrwt>
<pdfrwt beam="2">  1       -1 0.13461879E+00 0.55150544E+03</pdfrwt>
<totfact> 0.21388421E+02</totfact>
</mgrwt>
</event>
<event>
 6    1  0.1934315E-005  0.1982525E+04  0.7818608E-02  0.8614835E-01
         -2   -1    0    0    0  501 -0.00000000000E+00  0.00000000000E+00  0.38776548396E+03  0.38776548396E+03  0.00000000000E+00 0. -1.
          2   -1    0    0  501    0  0.00000000000E+00 -0.00000000000E+00 -0.25340093208E+04  0.25340093208E+04  0.00000000000E+00 0.  1.
         23    2    1    2    0    0  0.56854325361E+03 -0.65605012730E+03 -0.17742516285E+04  0.19773059573E+04  0.90148804256E+02 0.  0.
         13    1    3    3    0    0  0.29782877633E+03 -0.37862222181E+03 -0.89511850962E+03  0.10165106557E+04  0.00000000000E+00 0. -1.
        -13    1    3    3    0    0  0.27071447728E+03 -0.27742790549E+03 -0.87913311888E+03  0.96079530164E+03  0.00000000000E+00 0.  1.
         22    1    1    2    0    0 -0.56854325361E+03  0.65605012730E+03 -0.37199220838E+03  0.94446884747E+03  0.00000000000E+00 0.  1.
<mgrwt>
<rscale>  0 0.19825250E+04</rscale>
<asrwt>0</asrwt>
<pdfrwt beam="1">  1        2 0.38984758E+00 0.19825250E+04</pdfrwt>
<pdfrwt beam="2">  1       -2 0.59656230E-01 0.19825250E+04</pdfrwt>
<totfact> 0.81184559E+00</totfact>
</mgrwt>
</event>
<event>
 6    1  0.1934315E-005  0.3963853E+04  0.7818608E-02  0.8011878E-01
          2   -1    0    0  501    0  0.00000000000E+00  0.00000000000E+00  0.11538754007E+04  0.11538754007E+04  0.00000000000E+00 0.  1.
         -2   -1    0    0    0  501 -0.00000000000E+00 -0.00000000000E+00 -0.34042087589E+04  0.34042087589E+04  0.00000000000E+00 0. -1.
         23    2    1    2    0    0  0.15024072108E+04 -0.90005875212E+02 -0.26066472614E+04  0.30113818346E+04  0.92098444148E+02 0.  0.
         11    1    3    3    0    0  0.12405332095E+04 -0.10491672259E+03 -0.21859728701E+04  0.25156326344E+04  0.00000000000E+00 0. -1.
        -11    1    3    3    0    0  0.26187400130E+03  0.14910847376E+02 -0.42067439133E+03  0.49574920014E+03  0.00000000000E+00 0.  1.
         22    1    1    2    0    0 -0.15024072108E+04  0.90005875212E+02  0.35631390320E+03  0.15467023250E+04  0.00000000000E+00 0.  1.
<mgrwt>
<rscale>  0 0.39638530E+04</rscale>
<asrwt>0</asrwt>
<pdfrwt beam="1">  1        2 0.17751929E+00 0.39638530E+04</pdfrwt>
<pdfrwt beam="2">  1       -2 0.52372442E+00 0.39638530E+04</pdfrwt>
<totfact> 0.19010261E-02</totfact>
</mgrwt>
</event>
<event>
 6    1  0.1934315E-005  0.9247992E+03  0.7818608E-02  0.9395101E-01
          4   -1    0    0  501    0  0.00000000000E+00  0.00000000000E+00  0.38744770428E+03  0.38744770428E+03  0.00000000000E+00 0.  1.
         -4   -1    0    0    0  501 -0.00000000000E+00 -0.00000000000E+00 -0.55185101761E+03  0.55185101761E+03  0.00000000000E+00 0. -1.
         23    2    1    2    0    0  0.35493734765E+03 -0.19887230116E+03  0.13008031805E+03  0.43705244557E+03  0.92537765894E+02 0.  0.
         13    1    3    3    0    0  0.26514743944E+03 -0.11146268157E+03  0.11894797061E+03  0.31124863652E+03  0.00000000000E+00 0.  1.
        -13    1    3    3    0    0  0.89789908203E+02 -0.87409619590E+02  0.11132347438E+02  0.12580380905E+03  0.00000000000E+00 0. -1.
         22    1    1    2    0    0 -0.35493734765E+03  0.19887230116E+03 -0.29448363138E+03  0.50224627631E+03  0.00000000000E+00 0. -1.
<mgrwt>
<rscale>  0 0.92479924E+03</rscale>
<asrwt>0</asrwt>
<pdfrwt beam="1">  1        4 0.59607339E-01 0.92479924E+03</pdfrwt>
<pdfrwt beam="2">  1       -4 0.84900157E-01 0.92479924E+03</pdfrwt>
<totfact> 0.64010703E+00</totfact>
</mgrwt>
</event>
<event>
 6    1  0.1934315E-005  0.1422755E+04  0.7818608E-02  0.8937510E-01
         -2   -1    0    0    0  501 -0.00000000000E+00  0.00000000000E+00  0.43766351193E+03  0.43766351193E+03  0.00000000000E+00 0. -1.
          2   -1    0    0  501    0  0.00000000000E+00 -0.00000000000E+00 -0.11562721688E+04  0.11562721688E+04  0.00000000000E+00 0.  1.
         23    2    1    2    0    0  0.19496032866E+03  0.18529738711E+03 -0.10950366073E+04  0.11312882411E+04  0.91450870560E+02 0.  0.
         13    1    3    3    0    0  0.43221074038E+02  0.96112867298E+02 -0.48805811994E+03  0.49930599129E+03  0.00000000000E+00 0. -1.
        -13    1    3    3    0    0  0.15173925462E+03  0.89184519807E+02 -0.60697848740E+03  0.63198224985E+03  0.00000000000E+00 0.  1.
         22    1    1    2    0    0 -0.19496032866E+03 -0.18529738711E+03  0.37642795050E+03  0.46264743956E+03  0.00000000000E+00 0. -1.
<mgrwt>
<rscale>  0 0.14227553E+04</rscale>
<asrwt>0</asrwt>
<pdfrwt beam="1">  1        2 0.17788802E+00 0.14227553E+04</pdfrwt>
<pdfrwt beam="2">  1       -2 0.67332849E-01 0.14227553E+04</pdfrwt>
<totfact> 0.39565542E+01</totfact>
</mgrwt>
</event>
<event>
 6    1  0.1934315E-005  0.3576375E+04  0.7818608E-02  0.8095925E-01
          2   -1    0    0  501    0  0.00000000000E+00  0.00000000000E+00  0.22748304827E+04  0.22748304827E+04  0.00000000000E+00 0.  1.
         -2   -1    0    0    0  501 -0.00000000000E+00 -0.00000000000E+00 -0.14056496693E+04  0.14056496693E+04  0.00000000000E+00 0. -1.
         23    2    1    2    0    0  0.25863179979E+03  0.92458762471E+03 -0.11162243635E+04  0.14751261214E+04  0.91036040837E+02 0.  0.
         11    1    3    3    0    0  0.16476445562E+03  0.43998913886E+03 -0.57713047412E+03  0.74418905683E+03  0.00000000000E+00 0. -1.
        -11    1    3    3    0    0  0.93867344165E+02  0.48459848585E+03 -0.53909388938E+03  0.73093706457E+03  0.00000000000E+00 0.  1.
         22    1    1    2    0    0 -0.25863179979E+03 -0.92458762471E+03  0.19854051769E+04  0.22053540305E+04  0.00000000000E+00 0.  1.
<mgrwt>
<rscale>  0 0.35763751E+04</rscale>
<asrwt>0</asrwt>
<pdfrwt beam="1">  1        2 0.34997392E+00 0.35763751E+04</pdfrwt>
<pdfrwt beam="2">  1       -2 0.21625380E+00 0.35763751E+04</pdfrwt>
<totfact> 0.39945979E-01</totfact>
</mgrwt>
</event>
<event>
 6    1  0.1934315E-005  0.2077107E+04  0.7818608E-02  0.8571396E-01
          2   -1    0    0  501    0  0.00000000000E+00  0.00000000000E+00  0.25635790013E+04  0.25635790013E+04  0.00000000000E+00 0.  1.
         -2   -1    0    0    0  501 -0.00000000000E+00 -0.00000000000E+00 -0.42073725469E+03  0.42073725469E+03  0.00000000000E+00 0. -1.
         23    2    1    2    0    0  0.22916782047E+03  0.63229971277E+03  0.22067069743E+04  0.23087427337E+04  0.91741612856E+02 0.  0.
         11    1    3    3    0    0  0.13758440037E+03  0.47715000171E+03  0.15373898480E+04  0.16156017876E+04  0.00000000000E+00 0. -1.
        -11    1    3    3    0    0  0.91583420099E+02  0.15514971106E+03  0.66931712629E+03  0.69314094614E+03  0.00000000000E+00 0.  1.
         22    1    1    2    0    0 -0.22916782047E+03 -0.63229971277E+03 -0.63865227642E+02  0.67557352228E+03  0.00000000000E+00 0. -1.
<mgrwt>
<rscale>  0 0.20771068E+04</rscale>
<asrwt>0</asrwt>
<pdfrwt beam="1">  1        2 0.39439676E+00 0.20771068E+04</pdfrwt>
<pdfrwt beam="2">  1       -2 0.64728810E-01 0.20771068E+04</pdfrwt>
<totfact> 0.65045817E+00</totfact>
</mgrwt>
</event>
<event>
 6    1  0.1934315E-005  0.1372133E+04  0.7818608E-02  0.8974241E-01
         -2   -1    0    0    0  501 -0.00000000000E+00  0.00000000000E+00  0.28003647666E+03  0.28003647666E+03  0.00000000000E+00 0. -1.
          2   -1    0    0  501    0  0.00000000000E+00 -0.00000000000E+00 -0.16808065534E+04  0.16808065534E+04  0.00000000000E+00 0.  1.
         23    2    1    2    0    0  0.52380480015E+03 -0.27059057301E+03 -0.21129514274E+03  0.63327331608E+03  0.93801538629E+02 0.  0.
         11    1    3    3    0    0  0.28263882581E+03 -0.13563976014E+03 -0.16082699488E+03  0.35234666547E+03  0.00000000000E+00 0. -1.
        -11    1    3    3    0    0  0.24116597434E+03 -0.13495081287E+03 -0.50468147865E+02  0.28092665061E+03  0.00000000000E+00 0.  1.
         22    1    1    2    0    0 -0.52380480015E+03  0.27059057301E+03 -0.11894749340E+04  0.13275697140E+04  0.00000000000E+00 0.  1.
<mgrwt>
<rscale>  0 0.13721329E+04</rscale>
<asrwt>0</asrwt>
<pdfrwt beam="1">  1        2 0.25858562E+00 0.13721329E+04</pdfrwt>
<pdfrwt beam="2">  1       -2 0.43082535E-01 0.13721329E+04</pdfrwt>
<totfact> 0.50065170E+01</totfact>
</mgrwt>
</event>
<event>
 6    1  0.1934315E-005  0.2201033E+04  0.7818608E-02  0.8517998E-01
         -2   -1    0    0    0  501 -0.00000000000E+00  0.00000000000E+00  0.10080570760E+04  0.10080570760E+04  0.00000000000E+00 0. -1.
          2   -1    0    0  501    0  0.00000000000E+00 -0.00000000000E+00 -0.12014561742E+04  0.12014561742E+04  0.00000000000E+00 0.  1.
         23    2    1    2    0    0  0.64075630717E+03  0.18138131412E+03 -0.97400641125E+03  0.11834452196E+04  0.91576592727E+02 0.  0.
         11    1    3    3    0    0  0.38240295991E+03  0.14017504029E+03 -0.64916370229E+03  0.76635147161E+03  0.00000000000E+00 0.  1.
        -11    1    3    3    0    0  0.25835334726E+03  0.41206273838E+02 -0.32484270895E+03  0.41709374798E+03  0.00000000000E+00 0. -1.
         22    1    1    2    0    0 -0.64075630717E+03 -0.18138131412E+03  0.78060731306E+03  0.10260680306E+04  0.00000000000E+00 0. -1.
<mgrwt>
<rscale>  0 0.22010328E+04</rscale>
<asrwt>0</asrwt>
<pdfrwt beam="1">  1        2 0.18483941E+00 0.22010328E+04</pdfrwt>
<pdfrwt beam="2">  1       -2 0.15508570E+00 0.22010328E+04</pdfrwt>
<totfact> 0.47361309E+00</totfact>
</mgrwt>
</event>
<event>
 6    1  0.1934315E-005  0.3577379E+04  0.7818608E-02  0.8095693E-01
          2   -1    0    0  501    0  0.00000000000E+00  0.00000000000E+00  0.18688139671E+04  0.18688139671E+04  0.00000000000E+00 0.  1.
         -2   -1    0    0    0  501 -0.00000000000E+00 -0.00000000000E+00 -0.17120004382E+04  0.17120004382E+04  0.00000000000E+00 0. -1.
         23    2    1    2    0    0  0.17520909714E+04  0.23629106535E+03  0.34283417282E+03  0.18031024153E+04  0.89368955329E+02 0.  0.
         13    1    3    3    0    0  0.12404403247E+04  0.20811147198E+03  0.24588875573E+03  0.12815864637E+04  0.00000000000E+00 0.  1.
        -13    1    3    3    0    0  0.51165064677E+03  0.28179593376E+02  0.96945417089E+02  0.52151595154E+03  0.00000000000E+00 0. -1.
         22    1    1    2    0    0 -0.17520909714E+04 -0.23629106535E+03 -0.18602064392E+03  0.17777119901E+04  0.00000000000E+00 0. -1.
<mgrwt>
<rscale>  0 0.35773791E+04</rscale>
<asrwt>0</asrwt>
<pdfrwt beam="1">  1        2 0.28750984E+00 0.35773791E+04</pdfrwt>
<pdfrwt beam="2">  1       -2 0.26338468E+00 0.35773791E+04</pdfrwt>
<totfact> 0.34326140E-01</totfact>
</mgrwt>
</event>
<event>
 6    1  0.1934315E-005  0.1716985E+04  0.7818608E-02  0.8751736E-01
         -2   -1    0    0    0  501 -0.00000000000E+00  0.00000000000E+00  0.24407769056E+03  0.24407769056E+03  0.00000000000E+00 0.  1.
          2   -1    0    0  501    0  0.00000000000E+00 -0.00000000000E+00 -0.30195692812E+04  0.30195692812E+04  0.00000000000E+00 0. -1.
         23    2    1    2    0    0  0.26776832345E+03  0.78470543693E+03 -0.98729706347E+03  0.12925807210E+04  0.92449613506E+02 0.  0.
         13    1    3    3    0    0  0.68055859048E+02  0.29558274739E+03 -0.31153602720E+03  0.43480507903E+03  0.00000000000E+00 0. -1.
        -13    1    3    3    0    0  0.19971246441E+03  0.48912268954E+03 -0.67576103627E+03  0.85777564200E+03  0.00000000000E+00 0.  1.
         22    1    1    2    0    0 -0.26776832345E+03 -0.78470543693E+03 -0.17881945272E+04  0.19710662507E+04  0.00000000000E+00 0. -1.
<mgrwt>
<rscale>  0 0.17169851E+04</rscale>
<asrwt>0</asrwt>
<pdfrwt beam="1">  1        2 0.46454914E+00 0.17169851E+04</pdfrwt>
<pdfrwt beam="2">  1       -2 0.37550412E-01 0.17169851E+04</pdfrwt>
<totfact> 0.10811728E+01</totfact>
</mgrwt>
</event>
<event>
 6    1  0.1934315E-005  0.3270940E+04  0.7818608E-02  0.8170329E-01
          2   -1    0    0  501    0  0.00000000000E+00  0.00000000000E+00  0.35373903990E+04  0.35373903990E+04  0.00000000000E+00 0.  1.
         -2   -1    0    0    0  501 -0.00000000000E+00 -0.00000000000E+00 -0.75613997801E+03  0.75613997801E+03  0.00000000000E+00 0. -1.
         23    2    1    2    0    0 -0.90072493695E+01  0.16025299399E+04  0.97154906270E+03  0.18762587032E+04  0.90861438918E+02 0.  0.
         13    1    3    3    0    0  0.27122706640E+02  0.24360487422E+03  0.13000536644E+03  0.27745336772E+03  0.00000000000E+00 0. -1.
        -13    1    3    3    0    0 -0.36129956010E+02  0.13589250657E+04  0.84154369626E+03  0.15988053355E+04  0.00000000000E+00 0.  1.
         22    1    1    2    0    0  0.90072493695E+01 -0.16025299399E+04  0.18097013583E+04  0.24172716738E+04  0.00000000000E+00 0. -1.
<mgrwt>
<rscale>  0 0.32709401E+04</rscale>
<asrwt>0</asrwt>
<pdfrwt beam="1">  1        2 0.54421390E+00 0.32709401E+04</pdfrwt>
<pdfrwt beam="2">  1       -2 0.11632923E+00 0.32709401E+04</pdfrwt>
<totfact> 0.36672117E-01</totfact>
</mgrwt>
</event>
<event>
 6    1  0.1934315E-005  0.3852515E+04  0.7818608E-02  0.8034978E-01
          2   -1    0    0  501    0  0.00000000000E+00  0.00000000000E+00  0.22678430156E+04  0.22678430156E+04  0.00000000000E+00 0.  1.
         -2   -1    0    0    0  501 -0.00000000000E+00 -0.00000000000E+00 -0.16361220526E+04  0.16361220526E+04  0.00000000000E+00 0. -1.
         23    2    1    2    0    0 -0.37485237943E+03 -0.86663710643E+03  0.20160305484E+04  0.22282899181E+04  0.96553646073E+02 0.  0.
         13    1    3    3    0    0 -0.19274911687E+03 -0.42206950877E+03  0.11018378594E+04  0.11955507353E+04  0.00000000000E+00 0. -1.
        -13    1    3    3    0    0 -0.18210326257E+03 -0.44456759766E+03  0.91419268899E+03  0.10327391828E+04  0.00000000000E+00 0.  1.
         22    1    1    2    0    0  0.37485237943E+03  0.86663710643E+03 -0.13843095853E+04  0.16756751501E+04  0.00000000000E+00 0. -1.
<mgrwt>
<rscale>  0 0.38525150E+04</rscale>
<asrwt>0</asrwt>
<pdfrwt beam="1">  1        2 0.34889893E+00 0.38525150E+04</pdfrwt>
<pdfrwt beam="2">  1       -2 0.25171108E+00 0.38525150E+04</pdfrwt>
<totfact> 0.23677392E-01</totfact>
</mgrwt>
</event>
<event>
 6    1  0.1934315E-005  0.4255432E+04  0.7818608E-02  0.7954911E-01
          2   -1    0    0  501    0  0.00000000000E+00  0.00000000000E+00  0.13160188946E+04  0.13160188946E+04  0.00000000000E+00 0.  1.
         -2   -1    0    0    0  501 -0.00000000000E+00 -0.00000000000E+00 -0.34400532881E+04  0.34400532881E+04  0.00000000000E+00 0. -1.
         23    2    1    2    0    0 -0.11606601396E+04 -0.16221887539E+04 -0.18871430632E+04  0.27474045109E+04  0.91073006583E+02 0.  0.
         13    1    3    3    0    0 -0.45424771450E+03 -0.55987626833E+03 -0.68544350241E+03  0.99480410984E+03  0.00000000000E+00 0.  1.
        -13    1    3    3    0    0 -0.70641242511E+03 -0.10623124856E+04 -0.12016995608E+04  0.17526004010E+04  0.00000000000E+00 0. -1.
         22    1    1    2    0    0  0.11606601396E+04  0.16221887539E+04 -0.23689133034E+03  0.20086676717E+04  0.00000000000E+00 0.  1.
<mgrwt>
<rscale>  0 0.42554319E+04</rscale>
<asrwt>0</asrwt>
<pdfrwt beam="1">  1        2 0.20246445E+00 0.42554319E+04</pdfrwt>
<pdfrwt beam="2">  1       -2 0.52923896E+00 0.42554319E+04</pdfrwt>
<totfact> 0.13866971E-02</totfact>
</mgrwt>
</event>
<event>
 6    1  0.1934315E-005  0.2269916E+04  0.7818608E-02  0.8489878E-01
          2   -1    0    0  501    0  0.00000000000E+00  0.00000000000E+00  0.20523732813E+04  0.20523732813E+04  0.00000000000E+00 0.  1.
         -2   -1    0    0    0  501 -0.00000000000E+00 -0.00000000000E+00 -0.62762925359E+03  0.62762925359E+03  0.00000000000E+00 0. -1.
         23    2    1    2    0    0 -0.62961436357E+03  0.18431110219E+03 -0.37737058649E+03  0.76219078397E+03  0.90229720234E+02 0.  0.
         11    1    3    3    0    0 -0.53328267345E+03  0.18719001413E+03 -0.33411362968E+03  0.65655344697E+03  0.00000000000E+00 0. -1.
        -11    1    3    3    0    0 -0.96331690120E+02 -0.28789119412E+01 -0.43256956817E+02  0.10563733700E+03  0.00000000000E+00 0.  1.
         22    1    1    2    0    0  0.62961436357E+03 -0.18431110219E+03  0.18021146142E+04  0.19178117509E+04  0.00000000000E+00 0.  1.
<mgrwt>
<rscale>  0 0.22699159E+04</rscale>
<asrwt>0</asrwt>
<pdfrwt beam="1">  1        2 0.31574973E+00 0.22699159E+04</pdfrwt>
<pdfrwt beam="2">  1       -2 0.96558348E-01 0.22699159E+04</pdfrwt>
<totfact> 0.50930517E+00</totfact>
</mgrwt>
</event>
<event>
 6    1  0.1934315E-005  0.3213528E+04  0.7818608E-02  0.8185254E-01
         -2   -1    0    0    0  501 -0.00000000000E+00  0.00000000000E+00  0.21575649281E+04  0.21575649281E+04  0.00000000000E+00 0. -1.
          2   -1    0    0  501    0  0.00000000000E+00 -0.00000000000E+00 -0.11965760858E+04  0.11965760858E+04  0.00000000000E+00 0.  1.
         23    2    1    2    0    0  0.82306163442E+03  0.10795312821E+04  0.13755574441E+04  0.19347448857E+04  0.90891406434E+02 0.  0.
         11    1    3    3    0    0  0.38069427744E+02  0.28001872244E+02  0.62894259374E+02  0.78670668232E+02  0.00000000000E+00 0. -1.
        -11    1    3    3    0    0  0.78499220668E+03  0.10515294099E+04  0.13126631847E+04  0.18560742175E+04  0.00000000000E+00 0.  1.
         22    1    1    2    0    0 -0.82306163442E+03 -0.10795312821E+04 -0.41456860181E+03  0.14193961282E+04  0.00000000000E+00 0.  1.
<mgrwt>
<rscale>  0 0.32135280E+04</rscale>
<asrwt>0</asrwt>
<pdfrwt beam="1">  1        2 0.18408863E+00 0.32135280E+04</pdfrwt>
<pdfrwt beam="2">  1       -2 0.33193307E+00 0.32135280E+04</pdfrwt>
<totfact> 0.32311736E-01</totfact>
</mgrwt>
</event>
<event>
 6    1  0.1934315E-005  0.2606006E+04  0.7818608E-02  0.8366164E-01
         -2   -1    0    0    0  501 -0.00000000000E+00  0.00000000000E+00  0.15921593387E+04  0.15921593387E+04  0.00000000000E+00 0. -1.
          2   -1    0    0  501    0  0.00000000000E+00 -0.00000000000E+00 -0.10663610074E+04  0.10663610074E+04  0.00000000000E+00 0.  1.
         23    2    1    2    0    0 -0.57327997979E+03  0.65251476982E+02  0.14532650007E+04  0.15662282086E+04  0.90465179922E+02 0.  0.
         13    1    3    3    0    0 -0.18549173804E+03 -0.15189718473E+02  0.52478074778E+03  0.55680584199E+03  0.00000000000E+00 0. -1.
        -13    1    3    3    0    0 -0.38778824176E+03  0.80441195454E+02  0.92848425293E+03  0.10094223667E+04  0.00000000000E+00 0.  1.
         22    1    1    2    0    0  0.57327997979E+03 -0.65251476982E+02 -0.92746666948E+03  0.10922921374E+04  0.00000000000E+00 0.  1.
<mgrwt>
<rscale>  0 0.26060059E+04</rscale>
<asrwt>0</asrwt>
<pdfrwt beam="1">  1        2 0.16405554E+00 0.26060059E+04</pdfrwt>
<pdfrwt beam="2">  1       -2 0.24494759E+00 0.26060059E+04</pdfrwt>
<totfact> 0.13952881E+00</totfact>
</mgrwt>
</event>
<event>
 6    1  0.1934315E-005  0.2923292E+04  0.7818608E-02  0.8265981E-01
         -2   -1    0    0    0  501 -0.00000000000E+00  0.00000000000E+00  0.75273311359E+03  0.75273311359E+03  0.00000000000E+00 0. -1.
          2   -1    0    0  501    0  0.00000000000E+00 -0.00000000000E+00 -0.28382017450E+04  0.28382017450E+04  0.00000000000E+00 0.  1.
         23    2    1    2    0    0 -0.11782672746E+03  0.12386146876E+04 -0.10488294874E+03  0.12519673239E+04  0.91500082887E+02 0.  0.
         11    1    3    3    0    0 -0.11410805578E+03  0.93650274115E+03 -0.10976680706E+03  0.94979302193E+03  0.00000000000E+00 0.  1.
        -11    1    3    3    0    0 -0.37186716810E+01  0.30211194643E+03  0.48838583234E+01  0.30217430196E+03  0.00000000000E+00 0. -1.
         22    1    1    2    0    0  0.11782672746E+03 -0.12386146876E+04 -0.19805856827E+04  0.23389675347E+04  0.00000000000E+00 0.  1.
<mgrwt>
<rscale>  0 0.29232916E+04</rscale>
<asrwt>0</asrwt>
<pdfrwt beam="1">  1        2 0.43664642E+00 0.29232916E+04</pdfrwt>
<pdfrwt beam="2">  1       -2 0.11580510E+00 0.29232916E+04</pdfrwt>
<totfact> 0.10941071E+00</totfact>
</mgrwt>
</event>
<event>
 6    1  0.1934315E-005  0.1504510E+04  0.7818608E-02  0.8881459E-01
         -2   -1    0    0    0  501 -0.00000000000E+00  0.00000000000E+00  0.41381955724E+03  0.41381955724E+03  0.00000000000E+00 0. -1.
          2   -1    0    0  501    0  0.00000000000E+00 -0.00000000000E+00 -0.13674748530E+04  0.13674748530E+04  0.00000000000E+00 0.  1.
         23    2    1    2    0    0 -0.46144834112E+03  0.24340270336E+03  0.15833085370E+03  0.55300590824E+03  0.92560400781E+02 0.  0.
         11    1    3    3    0    0 -0.20174875659E+03  0.14137244084E+03  0.11014230422E+03  0.26985191308E+03  0.00000000000E+00 0.  1.
        -11    1    3    3    0    0 -0.25969958453E+03  0.10203026252E+03  0.48188549483E+02  0.28315399516E+03  0.00000000000E+00 0. -1.
         22    1    1    2    0    0  0.46144834112E+03 -0.24340270336E+03 -0.11119861494E+04  0.12282885020E+04  0.00000000000E+00 0.  1.
<mgrwt>
<rscale>  0 0.15045103E+04</rscale>
<asrwt>0</asrwt>
<pdfrwt beam="1">  1        2 0.21038075E+00 0.15045103E+04</pdfrwt>
<pdfrwt beam="2">  1       -2 0.63664548E-01 0.15045103E+04</pdfrwt>
<totfact> 0.33305478E+01</totfact>
</mgrwt>
</event>
<event>
 6    1  0.1934315E-005  0.2053005E+04  0.7818608E-02  0.8582232E-01
          2   -1    0    0  501    0  0.00000000000E+00  0.00000000000E+00  0.22191712840E+04  0.22191712840E+04  0.00000000000E+00 0. -1.
         -2   -1    0    0    0  501 -0.00000000000E+00 -0.00000000000E+00 -0.47482005480E+03  0.47482005480E+03  0.00000000000E+00 0.  1.
         23    2    1    2    0    0  0.60568352441E+03 -0.41465356677E+03 -0.63940431149E+02  0.74239997762E+03  0.90990306397E+02 0.  0.
         13    1    3    3    0    0  0.30722722021E+03 -0.20874426560E+03 -0.77992067836E+02  0.37953326060E+03  0.00000000000E+00 0.  1.
        -13    1    3    3    0    0  0.29845630420E+03 -0.20590930117E+03  0.14051636687E+02  0.36286671702E+03  0.00000000000E+00 0. -1.
         22    1    1    2    0    0 -0.60568352441E+03  0.41465356677E+03  0.18082916603E+04  0.19515913612E+04  0.00000000000E+00 0. -1.
<mgrwt>
<rscale>  0 0.20530047E+04</rscale>
<asrwt>0</asrwt>
<pdfrwt beam="1">  1        2 0.34141096E+00 0.20530047E+04</pdfrwt>
<pdfrwt beam="2">  1       -2 0.73049240E-01 0.20530047E+04</pdfrwt>
<totfact> 0.78873365E+00</totfact>
</mgrwt>
</event>
<event>
 6    1  0.1934315E-005  0.2325167E+04  0.7818608E-02  0.8468064E-01
          2   -1    0    0  501    0  0.00000000000E+00  0.00000000000E+00  0.57235391487E+04  0.57235391487E+04  0.00000000000E+00 0.  1.
         -2   -1    0    0    0  501 -0.00000000000E+00 -0.00000000000E+00 -0.23614771681E+03  0.23614771681E+03  0.00000000000E+00 0. -1.
         23    2    1    2    0    0  0.10316383185E+04  0.37200095812E+03  0.37231310273E+04  0.38823623583E+04  0.91490443987E+02 0.  0.
         11    1    3    3    0    0  0.37675887663E+03  0.10318146196E+03  0.14358659579E+04  0.14880540025E+04  0.00000000000E+00 0.  1.
        -11    1    3    3    0    0  0.65487944192E+03  0.26881949616E+03  0.22872650694E+04  0.23943083558E+04  0.00000000000E+00 0. -1.
         22    1    1    2    0    0 -0.10316383185E+04 -0.37200095812E+03  0.17642604045E+04  0.20773245072E+04  0.00000000000E+00 0. -1.
<mgrwt>
<rscale>  0 0.23251673E+04</rscale>
<asrwt>0</asrwt>
<pdfrwt beam="1">  1        2 0.88054438E+00 0.23251673E+04</pdfrwt>
<pdfrwt beam="2">  1       -2 0.36330422E-01 0.23251673E+04</pdfrwt>
<totfact> 0.13667970E-02</totfact>
</mgrwt>
</event>
<event>
 6    1  0.1934315E-005  0.2831717E+04  0.7818608E-02  0.8293489E-01
         -2   -1    0    0    0  501 -0.00000000000E+00  0.00000000000E+00  0.18779491453E+04  0.18779491453E+04  0.00000000000E+00 0. -1.
          2   -1    0    0  501    0  0.00000000000E+00 -0.00000000000E+00 -0.10674702718E+04  0.10674702718E+04  0.00000000000E+00 0.  1.
         23    2    1    2    0    0  0.47127617856E+03 -0.84881424998E+03  0.14754383566E+04  0.17686620158E+04  0.93059736082E+02 0.  0.
         13    1    3    3    0    0  0.11984190073E+03 -0.29233752350E+03  0.43792120746E+03  0.53999841922E+03  0.00000000000E+00 0.  1.
        -13    1    3    3    0    0  0.35143427783E+03 -0.55647672649E+03  0.10375171491E+04  0.12286635965E+04  0.00000000000E+00 0. -1.
         22    1    1    2    0    0 -0.47127617856E+03  0.84881424998E+03 -0.66495948313E+03  0.11767574014E+04  0.00000000000E+00 0.  1.
<mgrwt>
<rscale>  0 0.28317167E+04</rscale>
<asrwt>0</asrwt>
<pdfrwt beam="1">  1        2 0.16422620E+00 0.28317167E+04</pdfrwt>
<pdfrwt beam="2">  1       -2 0.28891525E+00 0.28317167E+04</pdfrwt>
<totfact> 0.73595448E-01</totfact>
</mgrwt>
</event>
<event>
 6    1  0.1934315E-005  0.1407145E+04  0.7818608E-02  0.8948663E-01
         -2   -1    0    0    0  501 -0.00000000000E+00  0.00000000000E+00  0.13610619931E+04  0.13610619931E+04  0.00000000000E+00 0. -1.
          2   -1    0    0  501    0  0.00000000000E+00 -0.00000000000E+00 -0.36369682313E+03  0.36369682313E+03  0.00000000000E+00 0.  1.
         23    2    1    2    0    0 -0.57943512687E+03  0.30036378575E+03  0.81294415293E+03  0.10465445569E+04  0.91727006553E+02 0.  0.
         13    1    3    3    0    0 -0.19925591802E+03  0.89991870580E+02  0.20833772900E+03  0.30200342210E+03  0.00000000000E+00 0. -1.
        -13    1    3    3    0    0 -0.38017920885E+03  0.21037191517E+03  0.60460642393E+03  0.74454113478E+03  0.00000000000E+00 0.  1.
         22    1    1    2    0    0  0.57943512687E+03 -0.30036378575E+03  0.18442101704E+03  0.67821425933E+03  0.00000000000E+00 0.  1.
<mgrwt>
<rscale>  0 0.14071445E+04</rscale>
<asrwt>0</asrwt>
<pdfrwt beam="1">  1        2 0.55953358E-01 0.14071445E+04</pdfrwt>
<pdfrwt beam="2">  1       -2 0.20939415E+00 0.14071445E+04</pdfrwt>
<totfact> 0.99414182E+00</totfact>
</mgrwt>
</event>
<event>
 6    1  0.1934315E-005  0.8852004E+03  0.7818608E-02  0.9444273E-01
         -2   -1    0    0    0  501 -0.00000000000E+00  0.00000000000E+00  0.31866948740E+03  0.31866948740E+03  0.00000000000E+00 0. -1.
          2   -1    0    0  501    0  0.00000000000E+00 -0.00000000000E+00 -0.61472757333E+03  0.61472757333E+03  0.00000000000E+00 0.  1.
         23    2    1    2    0    0 -0.31747970106E+03 -0.25298746586E+03 -0.32269308043E+03  0.52657346088E+03  0.91393473942E+02 0.  0.
         13    1    3    3    0    0 -0.87634603718E+02 -0.12544174363E+03 -0.12718344049E+03  0.19897507972E+03  0.00000000000E+00 0. -1.
        -13    1    3    3    0    0 -0.22984509734E+03 -0.12754572223E+03 -0.19550963995E+03  0.32759838116E+03  0.00000000000E+00 0.  1.
         22    1    1    2    0    0  0.31747970106E+03  0.25298746586E+03  0.26634994503E+02  0.40682359985E+03  0.00000000000E+00 0. -1.
<mgrwt>
<rscale>  0 0.88520036E+03</rscale>
<asrwt>0</asrwt>
<pdfrwt beam="1">  1        2 0.94573472E-01 0.88520036E+03</pdfrwt>
<pdfrwt beam="2">  1       -2 0.49026075E-01 0.88520036E+03</pdfrwt>
<totfact> 0.19042603E+02</totfact>
</mgrwt>
</event>
<event>
 6    1  0.2267038E-005  0.2759502E+04  0.7818608E-02  0.8315953E-01
          2   -1    0    0  501    0  0.00000000000E+00  0.00000000000E+00  0.14086763964E+04  0.14086763964E+04  0.00000000000E+00 0.  1.
         -2   -1    0    0    0  501 -0.00000000000E+00 -0.00000000000E+00 -0.13514191284E+04  0.13514191284E+04  0.00000000000E+00 0. -1.
         23    2    1    2    0    0 -0.10356197741E+04  0.40322954436E+03 -0.78666705714E+03  0.13646347949E+04  0.90998256904E+02 0.  0.
         11    1    3    3    0    0 -0.63242955571E+03  0.20018799320E+03 -0.48321208799E+03  0.82069257188E+03  0.00000000000E+00 0.  1.
        -11    1    3    3    0    0 -0.40319021841E+03  0.20304155116E+03 -0.30345496915E+03  0.54394222305E+03  0.00000000000E+00 0. -1.
         22    1    1    2    0    0  0.10356197741E+04 -0.40322954436E+03  0.84392432512E+03  0.13954607298E+04  0.00000000000E+00 0.  1.
<mgrwt>
<rscale>  0 0.27595016E+04</rscale>
<asrwt>0</asrwt>
<pdfrwt beam="1">  1        2 0.21671945E+00 0.27595016E+04</pdfrwt>
<pdfrwt beam="2">  1       -2 0.20791063E+00 0.27595016E+04</pdfrwt>
<totfact> 0.14753645E+00</totfact>
</mgrwt>
</event>
<event>
 6    1  0.1934315E-005  0.1806836E+04  0.7818608E-02  0.8702672E-01
          1   -1    0    0  501    0  0.00000000000E+00  0.00000000000E+00  0.47451628676E+03  0.47451628676E+03  0.00000000000E+00 0.  1.
         -1   -1    0    0    0  501 -0.00000000000E+00 -0.00000000000E+00 -0.17199925838E+04  0.17199925838E+04  0.00000000000E+00 0. -1.
         23    2    1    2    0    0  0.80686673729E+03 -0.38428231936E+03 -0.76621446135E+03  0.11804089051E+04  0.87027293480E+02 0.  0.
         13    1    3    3    0    0  0.64975264187E+03 -0.29329577185E+03 -0.65083189384E+03  0.96528910667E+03  0.00000000000E+00 0. -1.
        -13    1    3    3    0    0  0.15711409542E+03 -0.90986547506E+02 -0.11538256751E+03  0.21511979846E+03  0.00000000000E+00 0.  1.
         22    1    1    2    0    0 -0.80686673729E+03  0.38428231936E+03 -0.47926183566E+03  0.10140999654E+04  0.00000000000E+00 0. -1.
<mgrwt>
<rscale>  0 0.18068365E+04</rscale>
<asrwt>0</asrwt>
<pdfrwt beam="1">  1        1 0.73002506E-01 0.18068365E+04</pdfrwt>
<pdfrwt beam="2">  1       -1 0.26461424E+00 0.18068365E+04</pdfrwt>
<totfact> 0.25163499E+00</totfact>
</mgrwt>
</event>
<event>
 6    1  0.1934315E-005  0.2655408E+04  0.7818608E-02  0.8349620E-01
         -2   -1    0    0    0  501 -0.00000000000E+00  0.00000000000E+00  0.12543756074E+04  0.12543756074E+04  0.00000000000E+00 0. -1.
          2   -1    0    0  501    0  0.00000000000E+00 -0.00000000000E+00 -0.14053189966E+04  0.14053189966E+04  0.00000000000E+00 0.  1.
         23    2    1    2    0    0  0.12734238295E+04  0.25786223736E+03  0.19046761410E+03  0.13163172720E+04  0.91170529997E+02 0.  0.
         11    1    3    3    0    0  0.10074763979E+04  0.24020693616E+03  0.14180966793E+03  0.10453793792E+04  0.00000000000E+00 0.  1.
        -11    1    3    3    0    0  0.26594743163E+03  0.17655301195E+02  0.48657946179E+02  0.27093789285E+03  0.00000000000E+00 0. -1.
         22    1    1    2    0    0 -0.12734238295E+04 -0.25786223736E+03 -0.34141100326E+03  0.13433773320E+04  0.00000000000E+00 0.  1.
<mgrwt>
<rscale>  0 0.26554080E+04</rscale>
<asrwt>0</asrwt>
<pdfrwt beam="1">  1        2 0.21620292E+00 0.26554080E+04</pdfrwt>
<pdfrwt beam="2">  1       -2 0.19298086E+00 0.26554080E+04</pdfrwt>
<totfact> 0.18732360E+00</totfact>
</mgrwt>
</event>
<event>
 6    1  0.1934315E-005  0.1697830E+04  0.7818608E-02  0.8762603E-01
          2   -1    0    0  501    0  0.00000000000E+00  0.00000000000E+00  0.11416390617E+04  0.11416390617E+04  0.00000000000E+00 0.  1.
         -2   -1    0    0    0  501 -0.00000000000E+00 -0.00000000000E+00 -0.63124707453E+03  0.63124707453E+03  0.00000000000E+00 0. -1.
         23    2    1    2    0    0  0.41980632692E+03  0.20672274371E+02  0.10231159585E+04  0.11099000384E+04  0.91908300320E+02 0.  0.
         13    1    3    3    0    0  0.26950670064E+02 -0.14766115690E+02  0.12954051596E+03  0.13313572798E+03  0.00000000000E+00 0. -1.
        -13    1    3    3    0    0  0.39285565685E+03  0.35438390061E+02  0.89357544257E+03  0.97676431045E+03  0.00000000000E+00 0.  1.
         22    1    1    2    0    0 -0.41980632692E+03 -0.20672274371E+02 -0.51272397136E+03  0.66298609779E+03  0.00000000000E+00 0. -1.
<mgrwt>
<rscale>  0 0.16978296E+04</rscale>
<asrwt>0</asrwt>
<pdfrwt beam="1">  1        2 0.17563678E+00 0.16978296E+04</pdfrwt>
<pdfrwt beam="2">  1       -2 0.97114934E-01 0.16978296E+04</pdfrwt>
<totfact> 0.17306557E+01</totfact>
</mgrwt>
</event>
<event>
 6    1  0.1934315E-005  0.2705463E+04  0.7818608E-02  0.8333235E-01
          1   -1    0    0  501    0  0.00000000000E+00  0.00000000000E+00  0.26307057489E+04  0.26307057489E+04  0.00000000000E+00 0.  1.
         -1   -1    0    0    0  501 -0.00000000000E+00 -0.00000000000E+00 -0.69558607133E+03  0.69558607133E+03  0.00000000000E+00 0. -1.
         23    2    1    2    0    0 -0.75957128331E+03 -0.83279260860E+03  0.52505265069E+02  0.11320427256E+04  0.90949800736E+02 0.  0.
         11    1    3    3    0    0 -0.10197232391E+03 -0.14924293273E+03 -0.13355069129E+02  0.18124614668E+03  0.00000000000E+00 0. -1.
        -11    1    3    3    0    0 -0.65759895940E+03 -0.68354967586E+03  0.65860334198E+02  0.95079657888E+03  0.00000000000E+00 0.  1.
         22    1    1    2    0    0  0.75957128331E+03  0.83279260860E+03  0.18826144125E+04  0.21942490947E+04  0.00000000000E+00 0.  1.
<mgrwt>
<rscale>  0 0.27054628E+04</rscale>
<asrwt>0</asrwt>
<pdfrwt beam="1">  1        1 0.40472396E+00 0.27054628E+04</pdfrwt>
<pdfrwt beam="2">  1       -1 0.10701324E+00 0.27054628E+04</pdfrwt>
<totfact> 0.78003721E-01</totfact>
</mgrwt>
</event>
<event>
 6    1  0.1934315E-005  0.3000703E+04  0.7818608E-02  0.8243530E-01
          2   -1    0    0  501    0  0.00000000000E+00  0.00000000000E+00  0.37697573780E+04  0.37697573780E+04  0.00000000000E+00 0.  1.
         -2   -1    0    0    0  501 -0.00000000000E+00 -0.00000000000E+00 -0.59713534201E+03  0.59713534201E+03  0.00000000000E+00 0. -1.
         23    2    1    2    0    0 -0.84353475157E+02  0.35019566217E+03  0.37053177652E+04  0.37238396503E+04  0.88597343562E+02 0.  0.
         13    1    3    3    0    0 -0.30219804317E+02  0.86976202540E+02  0.13747488910E+04  0.13778289479E+04  0.00000000000E+00 0. -1.
        -13    1    3    3    0    0 -0.54133670841E+02  0.26321945963E+03  0.23305688743E+04  0.23460107024E+04  0.00000000000E+00 0.  1.
         22    1    1    2    0    0  0.84353475157E+02 -0.35019566217E+03 -0.53269572922E+03  0.64305306974E+03  0.00000000000E+00 0. -1.
<mgrwt>
<rscale>  0 0.30007035E+04</rscale>
<asrwt>0</asrwt>
<pdfrwt beam="1">  1        2 0.57996266E+00 0.30007035E+04</pdfrwt>
<pdfrwt beam="2">  1       -2 0.91866978E-01 0.30007035E+04</pdfrwt>
<totfact> 0.44626497E-01</totfact>
</mgrwt>
</event>
<event>
 6    1  0.1934315E-005  0.2108789E+04  0.7818608E-02  0.8557382E-01
         -2   -1    0    0    0  501 -0.00000000000E+00  0.00000000000E+00  0.11506635843E+04  0.11506635843E+04  0.00000000000E+00 0. -1.
          2   -1    0    0  501    0  0.00000000000E+00 -0.00000000000E+00 -0.96617983593E+03  0.96617983593E+03  0.00000000000E+00 0.  1.
         23    2    1    2    0    0  0.65585948618E+03 -0.14309246953E+03 -0.72139541423E+03  0.98934877383E+03  0.88161965466E+02 0.  0.
         13    1    3    3    0    0  0.53150364306E+03 -0.15058977448E+03 -0.59306032932E+03  0.81048994872E+03  0.00000000000E+00 0. -1.
        -13    1    3    3    0    0  0.12435584312E+03  0.74973049565E+01 -0.12833508492E+03  0.17885882511E+03  0.00000000000E+00 0.  1.
         22    1    1    2    0    0 -0.65585948618E+03  0.14309246953E+03  0.90587916262E+03  0.11274946464E+04  0.00000000000E+00 0. -1.
<mgrwt>
<rscale>  0 0.21087892E+04</rscale>
<asrwt>0</asrwt>
<pdfrwt beam="1">  1        2 0.14864305E+00 0.21087892E+04</pdfrwt>
<pdfrwt beam="2">  1       -2 0.17702517E+00 0.21087892E+04</pdfrwt>
<totfact> 0.46384666E+00</totfact>
</mgrwt>
</event>
<event>
 6    1  0.1934315E-005  0.2251137E+04  0.7818608E-02  0.8497440E-01
          2   -1    0    0  501    0  0.00000000000E+00  0.00000000000E+00  0.12558026239E+04  0.12558026239E+04  0.00000000000E+00 0.  1.
         -2   -1    0    0    0  501 -0.00000000000E+00 -0.00000000000E+00 -0.10088407795E+04  0.10088407795E+04  0.00000000000E+00 0. -1.
         23    2    1    2    0    0  0.28090476453E+03 -0.10677028177E+04 -0.87052288008E+02  0.11111867573E+04  0.90890677223E+02 0.  0.
         13    1    3    3    0    0  0.62586796560E+02 -0.37922547589E+03 -0.54400216517E+02  0.38818610514E+03  0.00000000000E+00 0.  1.
        -13    1    3    3    0    0  0.21831796797E+03 -0.68847734181E+03 -0.32652071492E+02  0.72300065221E+03  0.00000000000E+00 0. -1.
         22    1    1    2    0    0 -0.28090476453E+03  0.10677028177E+04  0.33401413247E+03  0.11534566461E+04  0.00000000000E+00 0. -1.
<mgrwt>
<rscale>  0 0.22511374E+04</rscale>
<asrwt>0</asrwt>
<pdfrwt beam="1">  1        2 0.19320040E+00 0.22511374E+04</pdfrwt>
<pdfrwt beam="2">  1       -2 0.15520627E+00 0.22511374E+04</pdfrwt>
<totfact> 0.43698770E+00</totfact>
</mgrwt>
</event>
<event>
 6    1  0.1934315E-005  0.1277911E+04  0.7818608E-02  0.9047268E-01
          2   -1    0    0  501    0  0.00000000000E+00  0.00000000000E+00  0.78559259681E+03  0.78559259681E+03  0.00000000000E+00 0.  1.
         -2   -1    0    0    0  501 -0.00000000000E+00 -0.00000000000E+00 -0.51968951677E+03  0.51968951677E+03  0.00000000000E+00 0. -1.
         23    2    1    2    0    0  0.34925432418E+03 -0.48939021972E+03  0.34451499319E+03  0.69893138751E+03  0.91285999938E+02 0.  0.
         13    1    3    3    0    0  0.12992855022E+03 -0.11683184851E+03  0.80659714722E+02  0.19245024959E+03  0.00000000000E+00 0.  1.
        -13    1    3    3    0    0  0.21932577396E+03 -0.37255837121E+03  0.26385527847E+03  0.50648113791E+03  0.00000000000E+00 0. -1.
         22    1    1    2    0    0 -0.34925432418E+03  0.48939021972E+03 -0.78611913152E+02  0.60635072607E+03  0.00000000000E+00 0. -1.
<mgrwt>
<rscale>  0 0.12779112E+04</rscale>
<asrwt>0</asrwt>
<pdfrwt beam="1">  1        2 0.12086040E+00 0.12779112E+04</pdfrwt>
<pdfrwt beam="2">  1       -2 0.79952234E-01 0.12779112E+04</pdfrwt>
<totfact> 0.47968580E+01</totfact>
</mgrwt>
</event>
<event>
 6    1  0.1934315E-005  0.4767901E+04  0.7818608E-02  0.7865343E-01
         -2   -1    0    0    0  501 -0.00000000000E+00  0.00000000000E+00  0.20956398325E+04  0.20956398325E+04  0.00000000000E+00 0. -1.
          2   -1    0    0  501    0  0.00000000000E+00 -0.00000000000E+00 -0.27119257248E+04  0.27119257248E+04  0.00000000000E+00 0.  1.
         23    2    1    2    0    0 -0.10363839761E+04 -0.13714905826E+04  0.13558116284E+04  0.21914144159E+04  0.94835681441E+02 0.  0.
         13    1    3    3    0    0 -0.53821407712E+03 -0.71038786506E+03  0.76315514081E+03  0.11733418430E+04  0.00000000000E+00 0.  1.
        -13    1    3    3    0    0 -0.49816989895E+03 -0.66110271755E+03  0.59265648757E+03  0.10180725729E+04  0.00000000000E+00 0. -1.
         22    1    1    2    0    0  0.10363839761E+04  0.13714905826E+04 -0.19720975207E+04  0.26161511415E+04  0.00000000000E+00 0.  1.
<mgrwt>
<rscale>  0 0.47679008E+04</rscale>
<asrwt>0</asrwt>
<pdfrwt beam="1">  1        2 0.41721934E+00 0.47679008E+04</pdfrwt>
<pdfrwt beam="2">  1       -2 0.32240613E+00 0.47679008E+04</pdfrwt>
<totfact> 0.44817163E-02</totfact>
</mgrwt>
</event>
<event>
 6    1  0.1934315E-005  0.2803021E+04  0.7818608E-02  0.8302331E-01
         -2   -1    0    0    0  501 -0.00000000000E+00  0.00000000000E+00  0.10568726875E+04  0.10568726875E+04  0.00000000000E+00 0. -1.
          2   -1    0    0  501    0  0.00000000000E+00 -0.00000000000E+00 -0.18585322589E+04  0.18585322589E+04  0.00000000000E+00 0.  1.
         23    2    1    2    0    0 -0.39329518070E+03 -0.26162693081E+03 -0.17719700360E+04  0.18362237068E+04  0.93327074570E+02 0.  0.
         11    1    3    3    0    0 -0.20160031554E+03 -0.18666090402E+03 -0.10686920078E+04  0.11034435137E+04  0.00000000000E+00 0. -1.
        -11    1    3    3    0    0 -0.19169486517E+03 -0.74966026794E+02 -0.70327802818E+03  0.73278019311E+03  0.00000000000E+00 0.  1.
         22    1    1    2    0    0  0.39329518070E+03  0.26162693081E+03  0.97031046464E+03  0.10791812396E+04  0.00000000000E+00 0. -1.
<mgrwt>
<rscale>  0 0.28030212E+04</rscale>
<asrwt>0</asrwt>
<pdfrwt beam="1">  1        2 0.28592804E+00 0.28030212E+04</pdfrwt>
<pdfrwt beam="2">  1       -2 0.16259580E+00 0.28030212E+04</pdfrwt>
<totfact> 0.16792389E+00</totfact>
</mgrwt>
</event>
<event>
 6    1  0.1934315E-005  0.3832344E+04  0.7818608E-02  0.8039249E-01
          2   -1    0    0  501    0  0.00000000000E+00  0.00000000000E+00  0.26675015292E+04  0.26675015292E+04  0.00000000000E+00 0.  1.
         -2   -1    0    0    0  501 -0.00000000000E+00 -0.00000000000E+00 -0.13764619271E+04  0.13764619271E+04  0.00000000000E+00 0. -1.
         23    2    1    2    0    0  0.34968817119E+03  0.92571749176E+03  0.23760632886E+04  0.25754570409E+04  0.89819410027E+02 0.  0.
         11    1    3    3    0    0  0.28271632772E+03  0.75018622716E+03  0.20104595616E+04  0.21644065114E+04  0.00000000000E+00 0. -1.
        -11    1    3    3    0    0  0.66971843464E+02  0.17553126460E+03  0.36560372698E+03  0.41105052956E+03  0.00000000000E+00 0.  1.
         22    1    1    2    0    0 -0.34968817119E+03 -0.92571749176E+03 -0.10850236866E+04  0.14685064154E+04  0.00000000000E+00 0. -1.
<mgrwt>
<rscale>  0 0.38323436E+04</rscale>
<asrwt>0</asrwt>
<pdfrwt beam="1">  1        2 0.41038485E+00 0.38323436E+04</pdfrwt>
<pdfrwt beam="2">  1       -2 0.21176337E+00 0.38323436E+04</pdfrwt>
<totfact> 0.24763813E-01</totfact>
</mgrwt>
</event>
<event>
 6    1  0.1934315E-005  0.5356415E+04  0.7818608E-02  0.7775762E-01
          2   -1    0    0  501    0  0.00000000000E+00  0.00000000000E+00  0.28830022780E+04  0.28830022780E+04  0.00000000000E+00 0.  1.
         -2   -1    0    0    0  501 -0.00000000000E+00 -0.00000000000E+00 -0.24879599645E+04  0.24879599645E+04  0.00000000000E+00 0. -1.
         23    2    1    2    0    0  0.23011304142E+04 -0.13324906748E+04  0.51132834577E+03  0.27093358557E+04  0.91167539844E+02 0.  0.
         11    1    3    3    0    0  0.18292120823E+04 -0.10996274195E+04  0.40022961040E+03  0.21714928148E+04  0.00000000000E+00 0. -1.
        -11    1    3    3    0    0  0.47191833193E+03 -0.23286325533E+03  0.11109873537E+03  0.53784304095E+03  0.00000000000E+00 0.  1.
         22    1    1    2    0    0 -0.23011304142E+04  0.13324906748E+04 -0.11628603234E+03  0.26616263868E+04  0.00000000000E+00 0. -1.
<mgrwt>
<rscale>  0 0.53564146E+04</rscale>
<asrwt>0</asrwt>
<pdfrwt beam="1">  1        2 0.44353881E+00 0.53564146E+04</pdfrwt>
<pdfrwt beam="2">  1       -2 0.38276307E+00 0.53564146E+04</pdfrwt>
<totfact> 0.14000353E-02</totfact>
</mgrwt>
</event>
<event>
 6    1  0.1934315E-005  0.4506674E+04  0.7818608E-02  0.7909469E-01
          2   -1    0    0  501    0  0.00000000000E+00  0.00000000000E+00  0.22522044658E+04  0.22522044658E+04  0.00000000000E+00 0.  1.
         -2   -1    0    0    0  501 -0.00000000000E+00 -0.00000000000E+00 -0.22544701549E+04  0.22544701549E+04  0.00000000000E+00 0. -1.
         23    2    1    2    0    0 -0.14817654093E+04 -0.16533062827E+04  0.37878694290E+03  0.22540646897E+04  0.90981779934E+02 0.  0.
         11    1    3    3    0    0 -0.11286069949E+04 -0.12748710935E+04  0.32789991911E+03  0.17339459077E+04  0.00000000000E+00 0.  1.
        -11    1    3    3    0    0 -0.35315841449E+03 -0.37843518922E+03  0.50887023793E+02  0.52011878197E+03  0.00000000000E+00 0. -1.
         22    1    1    2    0    0  0.14817654093E+04  0.16533062827E+04 -0.38105263203E+03  0.22526099310E+04  0.00000000000E+00 0. -1.
<mgrwt>
<rscale>  0 0.45066741E+04</rscale>
<asrwt>0</asrwt>
<pdfrwt beam="1">  1        2 0.34649300E+00 0.45066741E+04</pdfrwt>
<pdfrwt beam="2">  1       -2 0.34684156E+00 0.45066741E+04</pdfrwt>
<totfact> 0.59517154E-02</totfact>
</mgrwt>
</event>
<event>
 6    1  0.1934315E-005  0.3759235E+04  0.7818608E-02  0.8054960E-01
          2   -1    0    0  501    0  0.00000000000E+00  0.00000000000E+00  0.32684505015E+04  0.32684505015E+04  0.00000000000E+00 0.  1.
         -2   -1    0    0    0  501 -0.00000000000E+00 -0.00000000000E+00 -0.10809288187E+04  0.10809288187E+04  0.00000000000E+00 0. -1.
         23    2    1    2    0    0 -0.18179507401E+04 -0.62215404433E+02  0.55266453677E+03  0.19036537555E+04  0.98203260931E+02 0.  0.
         13    1    3    3    0    0 -0.57774119675E+03 -0.55492363550E+01  0.13036505056E+03  0.59229277461E+03  0.00000000000E+00 0.  1.
        -13    1    3    3    0    0 -0.12402095433E+04 -0.56666168078E+02  0.42229948621E+03  0.13113609808E+04  0.00000000000E+00 0. -1.
         22    1    1    2    0    0  0.18179507401E+04  0.62215404433E+02  0.16348571460E+04  0.24457255647E+04  0.00000000000E+00 0.  1.
<mgrwt>
<rscale>  0 0.37592352E+04</rscale>
<asrwt>0</asrwt>
<pdfrwt beam="1">  1        2 0.50283853E+00 0.37592352E+04</pdfrwt>
<pdfrwt beam="2">  1       -2 0.16629674E+00 0.37592352E+04</pdfrwt>
<totfact> 0.21282542E-01</totfact>
</mgrwt>
</event>
<event>
 6    1  0.1934315E-005  0.3271256E+04  0.7818608E-02  0.8170248E-01
          2   -1    0    0  501    0  0.00000000000E+00  0.00000000000E+00  0.10566690723E+04  0.10566690723E+04  0.00000000000E+00 0.  1.
         -2   -1    0    0    0  501 -0.00000000000E+00 -0.00000000000E+00 -0.25318045831E+04  0.25318045831E+04  0.00000000000E+00 0. -1.
         23    2    1    2    0    0 -0.10020633278E+04  0.12579884946E+04 -0.10567419328E+04  0.19266315596E+04  0.92410435935E+02 0.  0.
         13    1    3    3    0    0 -0.44052703034E+03  0.60071946266E+03 -0.44707692474E+03  0.86879555358E+03  0.00000000000E+00 0.  1.
        -13    1    3    3    0    0 -0.56153629743E+03  0.65726903189E+03 -0.60966500802E+03  0.10578360060E+04  0.00000000000E+00 0. -1.
         22    1    1    2    0    0  0.10020633278E+04 -0.12579884946E+04 -0.41839357807E+03  0.16618420958E+04  0.00000000000E+00 0.  1.
<mgrwt>
<rscale>  0 0.32712564E+04</rscale>
<asrwt>0</asrwt>
<pdfrwt beam="1">  1        2 0.16256447E+00 0.32712564E+04</pdfrwt>
<pdfrwt beam="2">  1       -2 0.38950840E+00 0.32712564E+04</pdfrwt>
<totfact> 0.16849665E-01</totfact>
</mgrwt>
</event>
<event>
 6    1  0.1934315E-005  0.3792263E+04  0.7818608E-02  0.8047817E-01
         -2   -1    0    0    0  501 -0.00000000000E+00  0.00000000000E+00  0.23334825652E+04  0.23334825652E+04  0.00000000000E+00 0. -1.
          2   -1    0    0  501    0  0.00000000000E+00 -0.00000000000E+00 -0.15407503530E+04  0.15407503530E+04  0.00000000000E+00 0.  1.
         23    2    1    2    0    0 -0.44107154416E+03  0.75352065832E+03  0.21148630004E+04  0.22898190485E+04  0.91039962212E+02 0.  0.
         13    1    3    3    0    0 -0.39770644617E+03  0.61484862108E+03  0.17863205134E+04  0.19305828708E+04  0.00000000000E+00 0.  1.
        -13    1    3    3    0    0 -0.43365097989E+02  0.13867203724E+03  0.32854248698E+03  0.35923617773E+03  0.00000000000E+00 0. -1.
         22    1    1    2    0    0  0.44107154416E+03 -0.75352065832E+03 -0.13221307882E+04  0.15844138697E+04  0.00000000000E+00 0.  1.
<mgrwt>
<rscale>  0 0.37922627E+04</rscale>
<asrwt>0</asrwt>
<pdfrwt beam="1">  1        2 0.23703852E+00 0.37922627E+04</pdfrwt>
<pdfrwt beam="2">  1       -2 0.35899732E+00 0.37922627E+04</pdfrwt>
<totfact> 0.13176186E-01</totfact>
</mgrwt>
</event>
<event>
 6    1  0.1934315E-005  0.1242661E+04  0.7818608E-02  0.9076314E-01
         -2   -1    0    0    0  501 -0.00000000000E+00  0.00000000000E+00  0.64537568290E+03  0.64537568290E+03  0.00000000000E+00 0. -1.
          2   -1    0    0  501    0  0.00000000000E+00 -0.00000000000E+00 -0.59818121992E+03  0.59818121992E+03  0.00000000000E+00 0.  1.
         23    2    1    2    0    0 -0.58490190166E+03  0.10579318531E+03 -0.14537138359E+03  0.61874970226E+03  0.91738335794E+02 0.  0.
         13    1    3    3    0    0 -0.20808039495E+03  0.81873738665E+01 -0.17273593027E+02  0.20895660044E+03  0.00000000000E+00 0.  1.
        -13    1    3    3    0    0 -0.37682150671E+03  0.97605811447E+02 -0.12809779056E+03  0.40979310181E+03  0.00000000000E+00 0. -1.
         22    1    1    2    0    0  0.58490190166E+03 -0.10579318531E+03  0.19256584657E+03  0.62480720057E+03  0.00000000000E+00 0. -1.
<mgrwt>
<rscale>  0 0.12426610E+04</rscale>
<asrwt>0</asrwt>
<pdfrwt beam="1">  1        2 0.92027880E-01 0.12426610E+04</pdfrwt>
<pdfrwt beam="2">  1       -2 0.99288566E-01 0.12426610E+04</pdfrwt>
<totfact> 0.41159752E+01</totfact>
</mgrwt>
</event>
<event>
 6    1  0.1934315E-005  0.1172551E+04  0.7818608E-02  0.9137228E-01
         -2   -1    0    0    0  501 -0.00000000000E+00  0.00000000000E+00  0.13897097893E+03  0.13897097893E+03  0.00000000000E+00 0. -1.
          2   -1    0    0  501    0  0.00000000000E+00 -0.00000000000E+00 -0.24733140967E+04  0.24733140967E+04  0.00000000000E+00 0.  1.
         23    2    1    2    0    0 -0.46371582172E+03  0.76932508013E+02 -0.40691017440E+03  0.62836251532E+03  0.91173387123E+02 0.  0.
         13    1    3    3    0    0 -0.22242355002E+03  0.87108109525E+01 -0.14435700258E+03  0.26530559365E+03  0.00000000000E+00 0.  1.
        -13    1    3    3    0    0 -0.24129227170E+03  0.68221697060E+02 -0.26255317182E+03  0.36305692166E+03  0.00000000000E+00 0. -1.
         22    1    1    2    0    0  0.46371582172E+03 -0.76932508013E+02 -0.19274329434E+04  0.19839225604E+04  0.00000000000E+00 0.  1.
<mgrwt>
<rscale>  0 0.11725509E+04</rscale>
<asrwt>0</asrwt>
<pdfrwt beam="1">  1        2 0.38050984E+00 0.11725509E+04</pdfrwt>
<pdfrwt beam="2">  1       -2 0.21380152E-01 0.11725509E+04</pdfrwt>
<totfact> 0.68186869E+01</totfact>
</mgrwt>
</event>
<event>
 6    1  0.1934315E-005  0.4135081E+04  0.7818608E-02  0.7977837E-01
         -2   -1    0    0    0  501 -0.00000000000E+00  0.00000000000E+00  0.21106486615E+04  0.21106486615E+04  0.00000000000E+00 0. -1.
          2   -1    0    0  501    0  0.00000000000E+00 -0.00000000000E+00 -0.20253126480E+04  0.20253126480E+04  0.00000000000E+00 0.  1.
         23    2    1    2    0    0 -0.18362183319E+04 -0.48154968974E+03 -0.77325073559E+03  0.20525124688E+04  0.10631494918E+03 0.  0.
         13    1    3    3    0    0 -0.15696147854E+04 -0.44657380942E+03 -0.64744462789E+03  0.17556489649E+04  0.00000000000E+00 0. -1.
        -13    1    3    3    0    0 -0.26660354649E+03 -0.34975880315E+02 -0.12580610770E+03  0.29686350389E+03  0.00000000000E+00 0.  1.
         22    1    1    2    0    0  0.18362183319E+04  0.48154968974E+03  0.85858674909E+03  0.20834488407E+04  0.00000000000E+00 0. -1.
<mgrwt>
<rscale>  0 0.41350809E+04</rscale>
<asrwt>0</asrwt>
<pdfrwt beam="1">  1        2 0.31158656E+00 0.41350809E+04</pdfrwt>
<pdfrwt beam="2">  1       -2 0.32471518E+00 0.41350809E+04</pdfrwt>
<totfact> 0.11298760E-01</totfact>
</mgrwt>
</event>
<event>
 6    1  0.1934315E-005  0.2570626E+04  0.7818608E-02  0.8378248E-01
          2   -1    0    0  501    0  0.00000000000E+00  0.00000000000E+00  0.18104839138E+04  0.18104839138E+04  0.00000000000E+00 0.  1.
         -2   -1    0    0    0  501 -0.00000000000E+00 -0.00000000000E+00 -0.91247963895E+03  0.91247963895E+03  0.00000000000E+00 0. -1.
         23    2    1    2    0    0 -0.64516107491E+03  0.10067334036E+04  0.94383812769E+03  0.15263660011E+04  0.96009372333E+02 0.  0.
         13    1    3    3    0    0 -0.32783274718E+03  0.50710130882E+03  0.41560499878E+03  0.73304403861E+03  0.00000000000E+00 0.  1.
        -13    1    3    3    0    0 -0.31732832773E+03  0.49963209477E+03  0.52823312891E+03  0.79332196250E+03  0.00000000000E+00 0. -1.
         22    1    1    2    0    0  0.64516107491E+03 -0.10067334036E+04 -0.45833852850E+02  0.11965975516E+04  0.00000000000E+00 0.  1.
<mgrwt>
<rscale>  0 0.25706262E+04</rscale>
<asrwt>0</asrwt>
<pdfrwt beam="1">  1        2 0.27853599E+00 0.25706262E+04</pdfrwt>
<pdfrwt beam="2">  1       -2 0.14038148E+00 0.25706262E+04</pdfrwt>
<totfact> 0.26926347E+00</totfact>
</mgrwt>
</event>
<event>
 6    1  0.1934315E-005  0.4639510E+04  0.7818608E-02  0.7886658E-01
          2   -1    0    0  501    0  0.00000000000E+00  0.00000000000E+00  0.36065447435E+04  0.36065447435E+04  0.00000000000E+00 0.  1.
         -2   -1    0    0    0  501 -0.00000000000E+00 -0.00000000000E+00 -0.14920828778E+04  0.14920828778E+04  0.00000000000E+00 0. -1.
         23    2    1    2    0    0  0.18133468279E+03  0.12240860727E+04  0.32128019446E+04  0.34440521743E+04  0.90166863579E+02 0.  0.
         11    1    3    3    0    0  0.49274990318E+02  0.22456213559E+03  0.68777253435E+03  0.72518083015E+03  0.00000000000E+00 0.  1.
        -11    1    3    3    0    0  0.13205969247E+03  0.99952393711E+03  0.25250294103E+04  0.27188713442E+04  0.00000000000E+00 0. -1.
         22    1    1    2    0    0 -0.18133468279E+03 -0.12240860727E+04 -0.10983400789E+04  0.16545754469E+04  0.00000000000E+00 0. -1.
<mgrwt>
<rscale>  0 0.46395102E+04</rscale>
<asrwt>0</asrwt>
<pdfrwt beam="1">  1        2 0.55485304E+00 0.46395102E+04</pdfrwt>
<pdfrwt beam="2">  1       -2 0.22955121E+00 0.46395102E+04</pdfrwt>
<totfact> 0.43928683E-02</totfact>
</mgrwt>
</event>
<event>
 6    1  0.1934315E-005  0.1765985E+04  0.7818608E-02  0.8724600E-01
         -2   -1    0    0    0  501 -0.00000000000E+00  0.00000000000E+00  0.52083103022E+03  0.52083103022E+03  0.00000000000E+00 0. -1.
          2   -1    0    0  501    0  0.00000000000E+00 -0.00000000000E+00 -0.14969840145E+04  0.14969840145E+04  0.00000000000E+00 0.  1.
         23    2    1    2    0    0  0.17223108129E+03  0.72363817796E+03  0.49226446312E+02  0.75104011023E+03  0.91226346000E+02 0.  0.
         11    1    3    3    0    0  0.31543142221E+02  0.30598101548E+03  0.40322223076E+02  0.31023415887E+03  0.00000000000E+00 0. -1.
        -11    1    3    3    0    0  0.14068793906E+03  0.41765716248E+03  0.89042232364E+01  0.44080595137E+03  0.00000000000E+00 0.  1.
         22    1    1    2    0    0 -0.17223108129E+03 -0.72363817796E+03 -0.10253794306E+04  0.12667749345E+04  0.00000000000E+00 0. -1.
<mgrwt>
<rscale>  0 0.17659850E+04</rscale>
<asrwt>0</asrwt>
<pdfrwt beam="1">  1        2 0.23030523E+00 0.17659850E+04</pdfrwt>
<pdfrwt beam="2">  1       -2 0.80127852E-01 0.17659850E+04</pdfrwt>
<totfact> 0.16615391E+01</totfact>
</mgrwt>
</event>
<event>
 6    1  0.1934315E-005  0.1576864E+04  0.7818608E-02  0.8834889E-01
          2   -1    0    0  501    0  0.00000000000E+00  0.00000000000E+00  0.81568201970E+03  0.81568201970E+03  0.00000000000E+00 0.  1.
         -2   -1    0    0    0  501 -0.00000000000E+00 -0.00000000000E+00 -0.76209251978E+03  0.76209251978E+03  0.00000000000E+00 0. -1.
         23    2    1    2    0    0  0.44505820828E+03 -0.64430020475E+03 -0.36070342448E+02  0.78958772791E+03  0.94594650327E+02 0.  0.
         13    1    3    3    0    0  0.26484886799E+03 -0.31066989184E+03  0.42290162473E+01  0.40826289220E+03  0.00000000000E+00 0. -1.
        -13    1    3    3    0    0  0.18020934030E+03 -0.33363031290E+03 -0.40299358695E+02  0.38132483571E+03  0.00000000000E+00 0.  1.
         22    1    1    2    0    0 -0.44505820828E+03  0.64430020475E+03  0.89659842363E+02  0.78818681157E+03  0.00000000000E+00 0.  1.
<mgrwt>
<rscale>  0 0.15768642E+04</rscale>
<asrwt>0</asrwt>
<pdfrwt beam="1">  1        2 0.12548954E+00 0.15768642E+04</pdfrwt>
<pdfrwt beam="2">  1       -2 0.11724500E+00 0.15768642E+04</pdfrwt>
<totfact> 0.18131636E+01</totfact>
</mgrwt>
</event>
<event>
 6    1  0.1934315E-005  0.2539643E+04  0.7818608E-02  0.8388997E-01
         -2   -1    0    0    0  501 -0.00000000000E+00  0.00000000000E+00  0.10233307280E+04  0.10233307280E+04  0.00000000000E+00 0. -1.
          2   -1    0    0  501    0  0.00000000000E+00 -0.00000000000E+00 -0.15756847497E+04  0.15756847497E+04  0.00000000000E+00 0.  1.
         23    2    1    2    0    0  0.60335877472E+03  0.11112474641E+04 -0.17716939999E+03  0.12800476093E+04  0.90665033319E+02 0.  0.
         11    1    3    3    0    0  0.23592060134E+03  0.44474680474E+03 -0.26082308810E+02  0.50412155012E+03  0.00000000000E+00 0.  1.
        -11    1    3    3    0    0  0.36743817338E+03  0.66650065938E+03 -0.15108709118E+03  0.77592605919E+03  0.00000000000E+00 0. -1.
         22    1    1    2    0    0 -0.60335877472E+03 -0.11112474641E+04 -0.37518462168E+03  0.13189678684E+04  0.00000000000E+00 0.  1.
<mgrwt>
<rscale>  0 0.25396430E+04</rscale>
<asrwt>0</asrwt>
<pdfrwt beam="1">  1        2 0.24241304E+00 0.25396430E+04</pdfrwt>
<pdfrwt beam="2">  1       -2 0.15743550E+00 0.25396430E+04</pdfrwt>
<totfact> 0.26929387E+00</totfact>
</mgrwt>
</event>
<event>
 6    1  0.1934315E-005  0.3161542E+04  0.7818608E-02  0.8199048E-01
         -2   -1    0    0    0  501 -0.00000000000E+00  0.00000000000E+00  0.66284253238E+03  0.66284253238E+03  0.00000000000E+00 0. -1.
          2   -1    0    0  501    0  0.00000000000E+00 -0.00000000000E+00 -0.37698799774E+04  0.37698799774E+04  0.00000000000E+00 0.  1.
         23    2    1    2    0    0  0.98084013688E+03  0.50504931780E+03  0.29867394409E+02  0.11074715179E+04  0.92081019497E+02 0.  0.
         11    1    3    3    0    0  0.63355736798E+03  0.36818922338E+03 -0.26646311639E+01  0.73277919116E+03  0.00000000000E+00 0. -1.
        -11    1    3    3    0    0  0.34728276890E+03  0.13686009441E+03  0.32532025572E+02  0.37469232672E+03  0.00000000000E+00 0.  1.
         22    1    1    2    0    0 -0.98084013688E+03 -0.50504931780E+03 -0.31369048394E+04  0.33252509919E+04  0.00000000000E+00 0.  1.
<mgrwt>
<rscale>  0 0.31615419E+04</rscale>
<asrwt>0</asrwt>
<pdfrwt beam="1">  1        2 0.57998154E+00 0.31615419E+04</pdfrwt>
<pdfrwt beam="2">  1       -2 0.10197577E+00 0.31615419E+04</pdfrwt>
<totfact> 0.34424961E-01</totfact>
</mgrwt>
</event>
<event>
 6    1  0.1934315E-005  0.1667896E+04  0.7818608E-02  0.8779889E-01
         -2   -1    0    0    0  501 -0.00000000000E+00  0.00000000000E+00  0.36725837531E+03  0.36725837531E+03  0.00000000000E+00 0. -1.
          2   -1    0    0  501    0  0.00000000000E+00 -0.00000000000E+00 -0.18936777879E+04  0.18936777879E+04  0.00000000000E+00 0.  1.
         23    2    1    2    0    0 -0.46372314127E+03 -0.54813929992E+03 -0.19712111607E+03  0.75013180625E+03  0.91351784216E+02 0.  0.
         13    1    3    3    0    0 -0.56820853777E+00 -0.22620860914E+02 -0.75006546399E+00  0.22640424193E+02  0.00000000000E+00 0. -1.
        -13    1    3    3    0    0 -0.46315493274E+03 -0.52551843901E+03 -0.19637105060E+03  0.72749138206E+03  0.00000000000E+00 0.  1.
         22    1    1    2    0    0  0.46372314127E+03  0.54813929992E+03 -0.13292982965E+04  0.15108043570E+04  0.00000000000E+00 0.  1.
<mgrwt>
<rscale>  0 0.16678957E+04</rscale>
<asrwt>0</asrwt>
<pdfrwt beam="1">  1        2 0.29133504E+00 0.16678957E+04</pdfrwt>
<pdfrwt beam="2">  1       -2 0.56501289E-01 0.16678957E+04</pdfrwt>
<totfact> 0.21462086E+01</totfact>
</mgrwt>
</event>
<event>
 6    1  0.1934315E-005  0.4397275E+04  0.7818608E-02  0.7928872E-01
         -2   -1    0    0    0  501 -0.00000000000E+00  0.00000000000E+00  0.41796420298E+04  0.41796420298E+04  0.00000000000E+00 0. -1.
          2   -1    0    0  501    0  0.00000000000E+00 -0.00000000000E+00 -0.11565602080E+04  0.11565602080E+04  0.00000000000E+00 0.  1.
         23    2    1    2    0    0 -0.86624271805E+03 -0.20171096604E+04  0.16379930923E+04  0.27405176235E+04  0.91146284614E+02 0.  0.
         13    1    3    3    0    0 -0.39854969414E+03 -0.96815137672E+03  0.72793892773E+03  0.12751682357E+04  0.00000000000E+00 0. -1.
        -13    1    3    3    0    0 -0.46769302391E+03 -0.10489582837E+04  0.91005416458E+03  0.14653493877E+04  0.00000000000E+00 0.  1.
         22    1    1    2    0    0  0.86624271805E+03  0.20171096604E+04  0.13850887295E+04  0.25956846144E+04  0.00000000000E+00 0.  1.
<mgrwt>
<rscale>  0 0.43972754E+04</rscale>
<asrwt>0</asrwt>
<pdfrwt beam="1">  1        2 0.17793234E+00 0.43972754E+04</pdfrwt>
<pdfrwt beam="2">  1       -2 0.64302184E+00 0.43972754E+04</pdfrwt>
<totfact> 0.54688147E-03</totfact>
</mgrwt>
</event>
<event>
 6    1  0.1934315E-005  0.3336697E+04  0.7818608E-02  0.8153620E-01
          2   -1    0    0  501    0  0.00000000000E+00  0.00000000000E+00  0.11837595113E+04  0.11837595113E+04  0.00000000000E+00 0.  1.
         -2   -1    0    0    0  501 -0.00000000000E+00 -0.00000000000E+00 -0.23513106339E+04  0.23513106339E+04  0.00000000000E+00 0. -1.
         23    2    1    2    0    0  0.10714401223E+04 -0.12711441563E+04 -0.45280246342E+03  0.17254687947E+04  0.91766491008E+02 0.  0.
         13    1    3    3    0    0  0.77915142049E+03 -0.96439355721E+03 -0.30560812326E+03  0.12769213736E+04  0.00000000000E+00 0.  1.
        -13    1    3    3    0    0  0.29228870185E+03 -0.30675059906E+03 -0.14719434016E+03  0.44854742115E+03  0.00000000000E+00 0. -1.
         22    1    1    2    0    0 -0.10714401223E+04  0.12711441563E+04 -0.71474865918E+03  0.18096013505E+04  0.00000000000E+00 0.  1.
<mgrwt>
<rscale>  0 0.33366968E+04</rscale>
<asrwt>0</asrwt>
<pdfrwt beam="1">  1        2 0.18211685E+00 0.33366968E+04</pdfrwt>
<pdfrwt beam="2">  1       -2 0.36174010E+00 0.33366968E+04</pdfrwt>
<totfact> 0.21134028E-01</totfact>
</mgrwt>
</event>
<event>
 6    1  0.1934315E-005  0.2251300E+04  0.7818608E-02  0.8497374E-01
         -2   -1    0    0    0  501 -0.00000000000E+00  0.00000000000E+00  0.20202360841E+04  0.20202360841E+04  0.00000000000E+00 0. -1.
          2   -1    0    0  501    0  0.00000000000E+00 -0.00000000000E+00 -0.62719796600E+03  0.62719796600E+03  0.00000000000E+00 0.  1.
         23    2    1    2    0    0 -0.17834232997E+03  0.83055604450E+03 -0.16744331396E+03  0.87071470548E+03  0.92073368735E+02 0.  0.
         11    1    3    3    0    0 -0.18299421098E+03  0.74860886250E+03 -0.13464087300E+03  0.78232363824E+03  0.00000000000E+00 0.  1.
        -11    1    3    3    0    0  0.46518810101E+01  0.81947182007E+02 -0.32802440958E+02  0.88391067244E+02  0.00000000000E+00 0. -1.
         22    1    1    2    0    0  0.17834232997E+03 -0.83055604450E+03  0.15604814321E+04  0.17767193446E+04  0.00000000000E+00 0. -1.
<mgrwt>
<rscale>  0 0.22513000E+04</rscale>
<asrwt>0</asrwt>
<pdfrwt beam="1">  1        2 0.96491996E-01 0.22513000E+04</pdfrwt>
<pdfrwt beam="2">  1       -2 0.31080555E+00 0.22513000E+04</pdfrwt>
<totfact> 0.11675537E+00</totfact>
</mgrwt>
</event>
<event>
 6    1  0.1934315E-005  0.1616774E+04  0.7818608E-02  0.8810309E-01
         -2   -1    0    0    0  501 -0.00000000000E+00  0.00000000000E+00  0.18936189436E+04  0.18936189436E+04  0.00000000000E+00 0. -1.
          2   -1    0    0  501    0  0.00000000000E+00 -0.00000000000E+00 -0.34510081065E+03  0.34510081065E+03  0.00000000000E+00 0.  1.
         23    2    1    2    0    0  0.18060922777E+03  0.12261488053E+03  0.18508051737E+04  0.18658503977E+04  0.90905521117E+02 0.  0.
         13    1    3    3    0    0  0.51393983538E+02  0.65223959241E+02  0.99353762761E+03  0.99700176724E+03  0.00000000000E+00 0. -1.
        -13    1    3    3    0    0  0.12921524424E+03  0.57390921285E+02  0.85726754604E+03  0.86884863048E+03  0.00000000000E+00 0.  1.
         22    1    1    2    0    0 -0.18060922777E+03 -0.12261488053E+03 -0.30228704069E+03  0.37286935654E+03  0.00000000000E+00 0.  1.
<mgrwt>
<rscale>  0 0.16167739E+04</rscale>
<asrwt>0</asrwt>
<pdfrwt beam="1">  1        2 0.53092434E-01 0.16167739E+04</pdfrwt>
<pdfrwt beam="2">  1       -2 0.29132598E+00 0.16167739E+04</pdfrwt>
<totfact> 0.32363558E+00</totfact>
</mgrwt>
</event>
<event>
 6    1  0.1934315E-005  0.2166605E+04  0.7818608E-02  0.8532458E-01
         -2   -1    0    0    0  501 -0.00000000000E+00  0.00000000000E+00  0.10474207672E+04  0.10474207672E+04  0.00000000000E+00 0. -1.
          2   -1    0    0  501    0  0.00000000000E+00 -0.00000000000E+00 -0.11204135950E+04  0.11204135950E+04  0.00000000000E+00 0.  1.
         23    2    1    2    0    0  0.18365047274E+03 -0.21730522526E+03 -0.10804043722E+04  0.11210167675E+04  0.91956122415E+02 0.  0.
         13    1    3    3    0    0  0.34044251846E+02 -0.57881781214E+02 -0.13649444057E+03  0.15211851954E+03  0.00000000000E+00 0. -1.
        -13    1    3    3    0    0  0.14960622089E+03 -0.15942344404E+03 -0.94390993161E+03  0.96889824792E+03  0.00000000000E+00 0.  1.
         22    1    1    2    0    0 -0.18365047274E+03  0.21730522526E+03  0.10074115443E+04  0.10468175948E+04  0.00000000000E+00 0. -1.
<mgrwt>
<rscale>  0 0.21666051E+04</rscale>
<asrwt>0</asrwt>
<pdfrwt beam="1">  1        2 0.17237132E+00 0.21666051E+04</pdfrwt>
<pdfrwt beam="2">  1       -2 0.16114166E+00 0.21666051E+04</pdfrwt>
<totfact> 0.47923119E+00</totfact>
</mgrwt>
</event>
<event>
 6    1  0.1934315E-005  0.3744789E+04  0.7818608E-02  0.8058108E-01
          2   -1    0    0  501    0  0.00000000000E+00  0.00000000000E+00  0.26560606468E+04  0.26560606468E+04  0.00000000000E+00 0.  1.
         -2   -1    0    0    0  501 -0.00000000000E+00 -0.00000000000E+00 -0.13199480261E+04  0.13199480261E+04  0.00000000000E+00 0. -1.
         23    2    1    2    0    0  0.95761156149E+03 -0.13079878501E+04 -0.32406093383E+03  0.16556577619E+04  0.91296315277E+02 0.  0.
         11    1    3    3    0    0  0.22265710524E+03 -0.26103600057E+03 -0.40912819297E+02  0.34552834745E+03  0.00000000000E+00 0. -1.
        -11    1    3    3    0    0  0.73495445624E+03 -0.10469518495E+04 -0.28314811453E+03  0.13101294145E+04  0.00000000000E+00 0.  1.
         22    1    1    2    0    0 -0.95761156149E+03  0.13079878501E+04  0.16601735546E+04  0.23203509109E+04  0.00000000000E+00 0.  1.
<mgrwt>
<rscale>  0 0.37447895E+04</rscale>
<asrwt>0</asrwt>
<pdfrwt beam="1">  1        2 0.40862471E+00 0.37447895E+04</pdfrwt>
<pdfrwt beam="2">  1       -2 0.20306893E+00 0.37447895E+04</pdfrwt>
<totfact> 0.28838122E-01</totfact>
</mgrwt>
</event>
<event>
 6    1  0.1934315E-005  0.4177064E+04  0.7818608E-02  0.7969750E-01
         -2   -1    0    0    0  501 -0.00000000000E+00  0.00000000000E+00  0.18097441160E+04  0.18097441160E+04  0.00000000000E+00 0. -1.
          2   -1    0    0  501    0  0.00000000000E+00 -0.00000000000E+00 -0.24102662431E+04  0.24102662431E+04  0.00000000000E+00 0.  1.
         23    2    1    2    0    0  0.58817843449E+03 -0.11707000971E+04  0.13408441045E+04  0.18779182530E+04  0.11055073227E+03 0.  0.
         13    1    3    3    0    0  0.22693020057E+03 -0.57051340956E+03  0.64629836983E+03  0.89145075537E+03  0.00000000000E+00 0.  1.
        -13    1    3    3    0    0  0.36124823392E+03 -0.60018668755E+03  0.69454573467E+03  0.98646749768E+03  0.00000000000E+00 0. -1.
         22    1    1    2    0    0 -0.58817843449E+03  0.11707000971E+04 -0.19413662315E+04  0.23420921060E+04  0.00000000000E+00 0.  1.
<mgrwt>
<rscale>  0 0.41770636E+04</rscale>
<asrwt>0</asrwt>
<pdfrwt beam="1">  1        2 0.37081019E+00 0.41770636E+04</pdfrwt>
<pdfrwt beam="2">  1       -2 0.27842217E+00 0.41770636E+04</pdfrwt>
<totfact> 0.13133107E-01</totfact>
</mgrwt>
</event>
<event>
 6    1  0.1934315E-005  0.2134707E+04  0.7818608E-02  0.8546107E-01
          2   -1    0    0  501    0  0.00000000000E+00  0.00000000000E+00  0.95125637677E+03  0.95125637677E+03  0.00000000000E+00 0.  1.
         -2   -1    0    0    0  501 -0.00000000000E+00 -0.00000000000E+00 -0.11976193679E+04  0.11976193679E+04  0.00000000000E+00 0. -1.
         23    2    1    2    0    0 -0.53796764512E+03  0.91659365793E+03 -0.48315182379E+02  0.10677762786E+04  0.90877408322E+02 0.  0.
         13    1    3    3    0    0 -0.41431645127E+02  0.12842645418E+03  0.83134474953E+00  0.13494675426E+03  0.00000000000E+00 0. -1.
        -13    1    3    3    0    0 -0.49653600000E+03  0.78816720376E+03 -0.49146527129E+02  0.93282952435E+03  0.00000000000E+00 0.  1.
         22    1    1    2    0    0  0.53796764512E+03 -0.91659365793E+03 -0.19804780875E+03  0.10810994661E+04  0.00000000000E+00 0.  1.
<mgrwt>
<rscale>  0 0.21347066E+04</rscale>
<asrwt>0</asrwt>
<pdfrwt beam="1">  1        2 0.14634713E+00 0.21347066E+04</pdfrwt>
<pdfrwt beam="2">  1       -2 0.18424913E+00 0.21347066E+04</pdfrwt>
<totfact> 0.42206165E+00</totfact>
</mgrwt>
</event>
<event>
 6    1  0.1934315E-005  0.1787785E+04  0.7818608E-02  0.8712822E-01
          2   -1    0    0  501    0  0.00000000000E+00  0.00000000000E+00  0.88216354260E+03  0.88216354260E+03  0.00000000000E+00 0.  1.
         -2   -1    0    0    0  501 -0.00000000000E+00 -0.00000000000E+00 -0.90577781622E+03  0.90577781622E+03  0.00000000000E+00 0. -1.
         23    2    1    2    0    0 -0.71382729904E+03 -0.37882763171E+03  0.36435719377E+03  0.89151420232E+03  0.94771413852E+02 0.  0.
         13    1    3    3    0    0 -0.13199900551E+03 -0.46582620059E+02  0.96142601964E+02  0.16981483404E+03  0.00000000000E+00 0. -1.
        -13    1    3    3    0    0 -0.58182829353E+03 -0.33224501165E+03  0.26821459180E+03  0.72169936828E+03  0.00000000000E+00 0.  1.
         22    1    1    2    0    0  0.71382729904E+03  0.37882763171E+03 -0.38797146738E+03  0.89642715650E+03  0.00000000000E+00 0. -1.
<mgrwt>
<rscale>  0 0.17877854E+04</rscale>
<asrwt>0</asrwt>
<pdfrwt beam="1">  1        2 0.13571747E+00 0.17877854E+04</pdfrwt>
<pdfrwt beam="2">  1       -2 0.13935043E+00 0.17877854E+04</pdfrwt>
<totfact> 0.10356718E+01</totfact>
</mgrwt>
</event>
<event>
 6    1  0.1934315E-005  0.1800722E+04  0.7818608E-02  0.8705916E-01
          2   -1    0    0  501    0  0.00000000000E+00  0.00000000000E+00  0.22539790648E+04  0.22539790648E+04  0.00000000000E+00 0.  1.
         -2   -1    0    0    0  501 -0.00000000000E+00 -0.00000000000E+00 -0.35965276443E+03  0.35965276443E+03  0.00000000000E+00 0. -1.
         23    2    1    2    0    0 -0.50715738611E+03 -0.40335003407E+03  0.18519323597E+04  0.19642497302E+04  0.93400607673E+02 0.  0.
         11    1    3    3    0    0 -0.16849180183E+03 -0.94251369293E+02  0.63980137275E+03  0.66829529736E+03  0.00000000000E+00 0.  1.
        -11    1    3    3    0    0 -0.33866558427E+03 -0.30909866478E+03  0.12121309869E+04  0.12959544328E+04  0.00000000000E+00 0. -1.
         22    1    1    2    0    0  0.50715738611E+03  0.40335003407E+03  0.42393940650E+02  0.64938209898E+03  0.00000000000E+00 0. -1.
<mgrwt>
<rscale>  0 0.18007219E+04</rscale>
<asrwt>0</asrwt>
<pdfrwt beam="1">  1        2 0.34676600E+00 0.18007219E+04</pdfrwt>
<pdfrwt beam="2">  1       -2 0.55331196E-01 0.18007219E+04</pdfrwt>
<totfact> 0.13959242E+01</totfact>
</mgrwt>
</event>
<event>
 6    1  0.1934315E-005  0.1294455E+04  0.7818608E-02  0.9033974E-01
         -2   -1    0    0    0  501 -0.00000000000E+00  0.00000000000E+00  0.44938418921E+03  0.44938418921E+03  0.00000000000E+00 0. -1.
          2   -1    0    0  501    0  0.00000000000E+00 -0.00000000000E+00 -0.93217252473E+03  0.93217252473E+03  0.00000000000E+00 0.  1.
         23    2    1    2    0    0 -0.14825621745E+03 -0.17462851257E+03 -0.88576462487E+03  0.91802147990E+03  0.75560859490E+02 0.  0.
         13    1    3    3    0    0 -0.10730538870E+03 -0.15492541603E+03 -0.78782596067E+03  0.81005313114E+03  0.00000000000E+00 0. -1.
        -13    1    3    3    0    0 -0.40950828755E+02 -0.19703096543E+02 -0.97938664198E+02  0.10796834876E+03  0.00000000000E+00 0.  1.
         22    1    1    2    0    0  0.14825621745E+03  0.17462851257E+03  0.40297628935E+03  0.46353523404E+03  0.00000000000E+00 0. -1.
<mgrwt>
<rscale>  0 0.12944552E+04</rscale>
<asrwt>0</asrwt>
<pdfrwt beam="1">  1        2 0.14341116E+00 0.12944552E+04</pdfrwt>
<pdfrwt beam="2">  1       -2 0.69136030E-01 0.12944552E+04</pdfrwt>
<totfact> 0.52265597E+01</totfact>
</mgrwt>
</event>
<event>
 6    1  0.1934315E-005  0.2235193E+04  0.7818608E-02  0.8503921E-01
         -2   -1    0    0    0  501 -0.00000000000E+00  0.00000000000E+00  0.28418217117E+03  0.28418217117E+03  0.00000000000E+00 0. -1.
          2   -1    0    0  501    0  0.00000000000E+00 -0.00000000000E+00 -0.43951437282E+04  0.43951437282E+04  0.00000000000E+00 0.  1.
         23    2    1    2    0    0 -0.67833171575E+03  0.36091962388E+03 -0.36282172337E+03  0.85323793591E+03  0.77320636536E+02 0.  0.
         11    1    3    3    0    0 -0.13283928860E+03  0.58587009418E+02 -0.10087332356E+03  0.17678840933E+03  0.00000000000E+00 0.  1.
        -11    1    3    3    0    0 -0.54549242715E+03  0.30233261446E+03 -0.26194839981E+03  0.67644952658E+03  0.00000000000E+00 0. -1.
         22    1    1    2    0    0  0.67833171575E+03 -0.36091962388E+03 -0.37481398337E+04  0.38260879635E+04  0.00000000000E+00 0.  1.
<mgrwt>
<rscale>  0 0.22351926E+04</rscale>
<asrwt>0</asrwt>
<pdfrwt beam="1">  1        2 0.67617598E+00 0.22351926E+04</pdfrwt>
<pdfrwt beam="2">  1       -2 0.43720332E-01 0.22351926E+04</pdfrwt>
<totfact> 0.70821689E-01</totfact>
</mgrwt>
</event>
<event>
 6    1  0.1934315E-005  0.3085962E+04  0.7818608E-02  0.8219601E-01
         -2   -1    0    0    0  501 -0.00000000000E+00  0.00000000000E+00  0.18343733138E+04  0.18343733138E+04  0.00000000000E+00 0. -1.
          2   -1    0    0  501    0  0.00000000000E+00 -0.00000000000E+00 -0.12978766316E+04  0.12978766316E+04  0.00000000000E+00 0.  1.
         23    2    1    2    0    0 -0.25806073306E+03 -0.27602465522E+03 -0.12485958298E+04  0.13076019716E+04  0.89701826664E+02 0.  0.
         11    1    3    3    0    0 -0.20805892988E+02 -0.72367223347E+02 -0.26645479733E+03  0.27688997673E+03  0.00000000000E+00 0.  1.
        -11    1    3    3    0    0 -0.23725484007E+03 -0.20365743187E+03 -0.98214103243E+03  0.10307119948E+04  0.00000000000E+00 0. -1.
         22    1    1    2    0    0  0.25806073306E+03  0.27602465522E+03  0.17850925119E+04  0.18246479738E+04  0.00000000000E+00 0. -1.
<mgrwt>
<rscale>  0 0.30859619E+04</rscale>
<asrwt>0</asrwt>
<pdfrwt beam="1">  1        2 0.19967333E+00 0.30859619E+04</pdfrwt>
<pdfrwt beam="2">  1       -2 0.28221128E+00 0.30859619E+04</pdfrwt>
<totfact> 0.57526771E-01</totfact>
</mgrwt>
</event>
<event>
 6    1  0.1934315E-005  0.2572618E+04  0.7818608E-02  0.8377562E-01
          2   -1    0    0  501    0  0.00000000000E+00  0.00000000000E+00  0.19231624000E+04  0.19231624000E+04  0.00000000000E+00 0.  1.
         -2   -1    0    0    0  501 -0.00000000000E+00 -0.00000000000E+00 -0.86034911500E+03  0.86034911500E+03  0.00000000000E+00 0. -1.
         23    2    1    2    0    0 -0.23495074332E+03  0.74839875797E+03 -0.56824001334E+03  0.97363930550E+03  0.98864714327E+02 0.  0.
         11    1    3    3    0    0 -0.20946047604E+03  0.51766858511E+03 -0.40609282468E+03  0.69048232221E+03  0.00000000000E+00 0.  1.
        -11    1    3    3    0    0 -0.25490267277E+02  0.23073017286E+03 -0.16214718866E+03  0.28315698329E+03  0.00000000000E+00 0. -1.
         22    1    1    2    0    0  0.23495074332E+03 -0.74839875797E+03  0.16310532983E+04  0.18098722095E+04  0.00000000000E+00 0.  1.
<mgrwt>
<rscale>  0 0.25726182E+04</rscale>
<asrwt>0</asrwt>
<pdfrwt beam="1">  1        2 0.29587114E+00 0.25726182E+04</pdfrwt>
<pdfrwt beam="2">  1       -2 0.13236140E+00 0.25726182E+04</pdfrwt>
<totfact> 0.27117455E+00</totfact>
</mgrwt>
</event>
<event>
 6    1  0.1934315E-005  0.2949454E+04  0.7818608E-02  0.8258314E-01
          2   -1    0    0  501    0  0.00000000000E+00  0.00000000000E+00  0.12969034909E+04  0.12969034909E+04  0.00000000000E+00 0.  1.
         -2   -1    0    0    0  501 -0.00000000000E+00 -0.00000000000E+00 -0.16769331049E+04  0.16769331049E+04  0.00000000000E+00 0. -1.
         23    2    1    2    0    0  0.28928421535E+03  0.14117385017E+04  0.11617930796E+03  0.14497256258E+04  0.10731171562E+03 0.  0.
         11    1    3    3    0    0  0.28826724278E+03  0.13541031863E+04  0.12972427142E+03  0.13905113552E+04  0.00000000000E+00 0. -1.
        -11    1    3    3    0    0  0.10169725695E+01  0.57635315371E+02 -0.13544963463E+02  0.59214270631E+02  0.00000000000E+00 0.  1.
         22    1    1    2    0    0 -0.28928421535E+03 -0.14117385017E+04 -0.49620892195E+03  0.15241109699E+04  0.00000000000E+00 0. -1.
<mgrwt>
<rscale>  0 0.29494545E+04</rscale>
<asrwt>0</asrwt>
<pdfrwt beam="1">  1        2 0.19952361E+00 0.29494545E+04</pdfrwt>
<pdfrwt beam="2">  1       -2 0.25798971E+00 0.29494545E+04</pdfrwt>
<totfact> 0.81900967E-01</totfact>
</mgrwt>
</event>
<event>
 6    1  0.1934315E-005  0.1452790E+04  0.7818608E-02  0.8916468E-01
         -2   -1    0    0    0  501 -0.00000000000E+00  0.00000000000E+00  0.20057261447E+04  0.20057261447E+04  0.00000000000E+00 0. -1.
          2   -1    0    0  501    0  0.00000000000E+00 -0.00000000000E+00 -0.26307168066E+03  0.26307168066E+03  0.00000000000E+00 0.  1.
         23    2    1    2    0    0 -0.56415839926E+03  0.21953041784E+03  0.25709022943E+03  0.66462532873E+03  0.95724279619E+02 0.  0.
         13    1    3    3    0    0 -0.11138627544E+03  0.49325528781E+02  0.94999803749E+02  0.15448259727E+03  0.00000000000E+00 0.  1.
        -13    1    3    3    0    0 -0.45277212382E+03  0.17020488906E+03  0.16209042568E+03  0.51014273146E+03  0.00000000000E+00 0. -1.
         22    1    1    2    0    0  0.56415839926E+03 -0.21953041784E+03  0.14855642346E+04  0.16041724966E+04  0.00000000000E+00 0. -1.
<mgrwt>
<rscale>  0 0.14527901E+04</rscale>
<asrwt>0</asrwt>
<pdfrwt beam="1">  1        2 0.40472568E-01 0.14527901E+04</pdfrwt>
<pdfrwt beam="2">  1       -2 0.30857324E+00 0.14527901E+04</pdfrwt>
<totfact> 0.34878864E+00</totfact>
</mgrwt>
</event>
<event>
 6    1  0.1934315E-005  0.7734207E+03  0.7818608E-02  0.9599307E-01
         -2   -1    0    0    0  501 -0.00000000000E+00  0.00000000000E+00  0.28523719636E+03  0.28523719636E+03  0.00000000000E+00 0.  1.
          2   -1    0    0  501    0  0.00000000000E+00 -0.00000000000E+00 -0.52428258061E+03  0.52428258061E+03  0.00000000000E+00 0. -1.
         23    2    1    2    0    0 -0.36255917340E+03 -0.77757990106E+02 -0.21175348713E+03  0.43771296303E+03  0.96216627701E+02 0.  0.
         11    1    3    3    0    0 -0.30145855572E+03 -0.58784475814E+02 -0.21292345014E+03  0.37372352218E+03  0.00000000000E+00 0. -1.
        -11    1    3    3    0    0 -0.61100617684E+02 -0.18973514292E+02  0.11699630132E+01  0.63989440843E+02  0.00000000000E+00 0.  1.
         22    1    1    2    0    0  0.36255917340E+03  0.77757990106E+02 -0.27291897130E+02  0.37180681394E+03  0.00000000000E+00 0.  1.
<mgrwt>
<rscale>  0 0.77342070E+03</rscale>
<asrwt>0</asrwt>
<pdfrwt beam="1">  1        2 0.80658858E-01 0.77342070E+03</pdfrwt>
<pdfrwt beam="2">  1       -2 0.43882646E-01 0.77342070E+03</pdfrwt>
<totfact> 0.28894049E+02</totfact>
</mgrwt>
</event>
<event>
 6    1  0.1934315E-005  0.2263079E+04  0.7818608E-02  0.8492622E-01
          2   -1    0    0  501    0  0.00000000000E+00  0.00000000000E+00  0.37446101947E+04  0.37446101947E+04  0.00000000000E+00 0.  1.
         -2   -1    0    0    0  501 -0.00000000000E+00 -0.00000000000E+00 -0.34192658159E+03  0.34192658159E+03  0.00000000000E+00 0. -1.
         23    2    1    2    0    0  0.88644530118E+03  0.66942614082E+03  0.20754002632E+04  0.23557572638E+04  0.91593686028E+02 0.  0.
         11    1    3    3    0    0  0.41632805370E+03  0.32353626949E+03  0.10808078854E+04  0.12025599574E+04  0.00000000000E+00 0. -1.
        -11    1    3    3    0    0  0.47011724748E+03  0.34588987133E+03  0.99459237779E+03  0.11531973064E+04  0.00000000000E+00 0.  1.
         22    1    1    2    0    0 -0.88644530118E+03 -0.66942614082E+03  0.13272833499E+04  0.17307795125E+04  0.00000000000E+00 0. -1.
<mgrwt>
<rscale>  0 0.22630791E+04</rscale>
<asrwt>0</asrwt>
<pdfrwt beam="1">  1        2 0.57609385E+00 0.22630791E+04</pdfrwt>
<pdfrwt beam="2">  1       -2 0.52604092E-01 0.22630791E+04</pdfrwt>
<totfact> 0.16840701E+00</totfact>
</mgrwt>
</event>
<event>
 6    1  0.1934315E-005  0.3975102E+04  0.7818608E-02  0.8009588E-01
          2   -1    0    0  501    0  0.00000000000E+00  0.00000000000E+00  0.25313335902E+04  0.25313335902E+04  0.00000000000E+00 0.  1.
         -2   -1    0    0    0  501 -0.00000000000E+00 -0.00000000000E+00 -0.15605841974E+04  0.15605841974E+04  0.00000000000E+00 0. -1.
         23    2    1    2    0    0  0.64199489070E+02  0.17720433396E+04 -0.43621512650E+03  0.18283347142E+04  0.90912148452E+02 0.  0.
         13    1    3    3    0    0  0.65380674322E+02  0.87387453151E+03 -0.18401649300E+03  0.89542917034E+03  0.00000000000E+00 0. -1.
        -13    1    3    3    0    0 -0.11811852521E+01  0.89816880809E+03 -0.25219863351E+03  0.93290554386E+03  0.00000000000E+00 0.  1.
         22    1    1    2    0    0 -0.64199489070E+02 -0.17720433396E+04  0.14069645192E+04  0.22635830734E+04  0.00000000000E+00 0.  1.
<mgrwt>
<rscale>  0 0.39751021E+04</rscale>
<asrwt>0</asrwt>
<pdfrwt beam="1">  1        2 0.38943594E+00 0.39751021E+04</pdfrwt>
<pdfrwt beam="2">  1       -2 0.24008988E+00 0.39751021E+04</pdfrwt>
<totfact> 0.19520832E-01</totfact>
</mgrwt>
</event>
<event>
 6    1  0.1934315E-005  0.2834435E+04  0.7818608E-02  0.8292657E-01
         -2   -1    0    0    0  501 -0.00000000000E+00  0.00000000000E+00  0.65361112650E+03  0.65361112650E+03  0.00000000000E+00 0. -1.
          2   -1    0    0  501    0  0.00000000000E+00 -0.00000000000E+00 -0.30729369380E+04  0.30729369380E+04  0.00000000000E+00 0.  1.
         23    2    1    2    0    0 -0.11471949409E+04  0.81169325834E+03 -0.98340121783E+03  0.17173737025E+04  0.85978490269E+02 0.  0.
         13    1    3    3    0    0 -0.51731303237E+03  0.34545301429E+03 -0.48324405650E+03  0.78770259405E+03  0.00000000000E+00 0. -1.
        -13    1    3    3    0    0 -0.62988190856E+03  0.46624024405E+03 -0.50015716133E+03  0.92967110847E+03  0.00000000000E+00 0.  1.
         22    1    1    2    0    0  0.11471949409E+04 -0.81169325834E+03 -0.14359245937E+04  0.20091743620E+04  0.00000000000E+00 0. -1.
<mgrwt>
<rscale>  0 0.28344352E+04</rscale>
<asrwt>0</asrwt>
<pdfrwt beam="1">  1        2 0.47275954E+00 0.28344352E+04</pdfrwt>
<pdfrwt beam="2">  1       -2 0.10055556E+00 0.28344352E+04</pdfrwt>
<totfact> 0.11071349E+00</totfact>
</mgrwt>
</event>
<event>
 6    1  0.1934315E-005  0.2152453E+04  0.7818608E-02  0.8538483E-01
         -2   -1    0    0    0  501 -0.00000000000E+00  0.00000000000E+00  0.62515303559E+03  0.62515303559E+03  0.00000000000E+00 0. -1.
          2   -1    0    0  501    0  0.00000000000E+00 -0.00000000000E+00 -0.18527676162E+04  0.18527676162E+04  0.00000000000E+00 0.  1.
         23    2    1    2    0    0 -0.69991304803E+03 -0.74859876159E+03 -0.24392334747E+03  0.10573831398E+04  0.91006177357E+02 0.  0.
         11    1    3    3    0    0 -0.14649801090E+03 -0.11892363453E+03 -0.69769558712E+02  0.20117725858E+03  0.00000000000E+00 0.  1.
        -11    1    3    3    0    0 -0.55341503712E+03 -0.62967512706E+03 -0.17415378876E+03  0.85620588125E+03  0.00000000000E+00 0. -1.
         22    1    1    2    0    0  0.69991304803E+03  0.74859876159E+03 -0.98369123311E+03  0.14205375119E+04  0.00000000000E+00 0.  1.
<mgrwt>
<rscale>  0 0.21524528E+04</rscale>
<asrwt>0</asrwt>
<pdfrwt beam="1">  1        2 0.28504116E+00 0.21524528E+04</pdfrwt>
<pdfrwt beam="2">  1       -2 0.96177392E-01 0.21524528E+04</pdfrwt>
<totfact> 0.67018210E+00</totfact>
</mgrwt>
</event>
<event>
 6    1  0.1934315E-005  0.2649092E+04  0.7818608E-02  0.8351715E-01
          2   -1    0    0  501    0  0.00000000000E+00  0.00000000000E+00  0.27111333331E+04  0.27111333331E+04  0.00000000000E+00 0.  1.
         -2   -1    0    0    0  501 -0.00000000000E+00 -0.00000000000E+00 -0.64711743467E+03  0.64711743467E+03  0.00000000000E+00 0. -1.
         23    2    1    2    0    0  0.60105357082E+03 -0.11785682064E+04  0.10379598177E+04  0.16840107931E+04  0.90792929384E+02 0.  0.
         11    1    3    3    0    0  0.12389804585E+03 -0.33083328626E+03  0.27168021146E+03  0.44565853113E+03  0.00000000000E+00 0.  1.
        -11    1    3    3    0    0  0.47715552497E+03 -0.84773492009E+03  0.76627960623E+03  0.12383522620E+04  0.00000000000E+00 0. -1.
         22    1    1    2    0    0 -0.60105357082E+03  0.11785682064E+04  0.10260560807E+04  0.16742399747E+04  0.00000000000E+00 0. -1.
<mgrwt>
<rscale>  0 0.26490917E+04</rscale>
<asrwt>0</asrwt>
<pdfrwt beam="1">  1        2 0.41709743E+00 0.26490917E+04</pdfrwt>
<pdfrwt beam="2">  1       -2 0.99556530E-01 0.26490917E+04</pdfrwt>
<totfact> 0.19227151E+00</totfact>
</mgrwt>
</event>
<event>
 6    1  0.1934315E-005  0.3054445E+04  0.7818608E-02  0.8228352E-01
          1   -1    0    0  501    0  0.00000000000E+00  0.00000000000E+00  0.36397170293E+04  0.36397170293E+04  0.00000000000E+00 0. -1.
         -1   -1    0    0    0  501 -0.00000000000E+00 -0.00000000000E+00 -0.64082149275E+03  0.64082149275E+03  0.00000000000E+00 0.  1.
         23    2    1    2    0    0 -0.10316929535E+04 -0.10974968808E+04  0.18406779866E+04  0.23804444068E+04  0.97623613421E+02 0.  0.
         13    1    3    3    0    0 -0.41008211002E+03 -0.50616386189E+03  0.80488817057E+03  0.10354777444E+04  0.00000000000E+00 0.  1.
        -13    1    3    3    0    0 -0.62161084347E+03 -0.59133301893E+03  0.10357898161E+04  0.13449666624E+04  0.00000000000E+00 0. -1.
         22    1    1    2    0    0  0.10316929535E+04  0.10974968808E+04  0.11582175499E+04  0.19000941152E+04  0.00000000000E+00 0. -1.
<mgrwt>
<rscale>  0 0.30544452E+04</rscale>
<asrwt>0</asrwt>
<pdfrwt beam="1">  1        1 0.55995645E+00 0.30544452E+04</pdfrwt>
<pdfrwt beam="2">  1       -1 0.98587924E-01 0.30544452E+04</pdfrwt>
<totfact> 0.16098875E-01</totfact>
</mgrwt>
</event>
<event>
 6    1  0.2364051E-005  0.4017632E+04  0.7818608E-02  0.8000999E-01
          2   -1    0    0  501    0  0.00000000000E+00  0.00000000000E+00  0.18258702101E+04  0.18258702101E+04  0.00000000000E+00 0.  1.
         -2   -1    0    0    0  501 -0.00000000000E+00 -0.00000000000E+00 -0.22100918251E+04  0.22100918251E+04  0.00000000000E+00 0. -1.
         23    2    1    2    0    0 -0.74544728993E+03  0.19190479623E+03 -0.20551796320E+04  0.21962284112E+04  0.84479592627E+02 0.  0.
         13    1    3    3    0    0 -0.44954809151E+03  0.14398275573E+03 -0.11681865702E+04  0.12599541195E+04  0.00000000000E+00 0.  1.
        -13    1    3    3    0    0 -0.29589919843E+03  0.47922040501E+02 -0.88699306181E+03  0.93627429170E+03  0.00000000000E+00 0. -1.
         22    1    1    2    0    0  0.74544728993E+03 -0.19190479623E+03  0.16709580170E+04  0.18397336240E+04  0.00000000000E+00 0.  1.
<mgrwt>
<rscale>  0 0.40176316E+04</rscale>
<asrwt>0</asrwt>
<pdfrwt beam="1">  1        2 0.28090311E+00 0.40176316E+04</pdfrwt>
<pdfrwt beam="2">  1       -2 0.34001413E+00 0.40176316E+04</pdfrwt>
<totfact> 0.11820283E-01</totfact>
</mgrwt>
</event>
<event>
 6    1  0.1934315E-005  0.3684543E+04  0.7818608E-02  0.8071396E-01
          2   -1    0    0  501    0  0.00000000000E+00  0.00000000000E+00  0.15084589688E+04  0.15084589688E+04  0.00000000000E+00 0.  1.
         -2   -1    0    0    0  501 -0.00000000000E+00 -0.00000000000E+00 -0.22499552119E+04  0.22499552119E+04  0.00000000000E+00 0. -1.
         23    2    1    2    0    0  0.32728224368E+03  0.11288149226E+01 -0.22191279154E+04  0.22449709870E+04  0.90835490180E+02 0.  0.
         13    1    3    3    0    0  0.26777197058E+03 -0.25064847381E+02 -0.16008881124E+04  0.16233215403E+04  0.00000000000E+00 0. -1.
        -13    1    3    3    0    0  0.59510273104E+02  0.26193662303E+02 -0.61823980305E+03  0.62164944674E+03  0.00000000000E+00 0.  1.
         22    1    1    2    0    0 -0.32728224368E+03 -0.11288149226E+01  0.14776316724E+04  0.15134431937E+04  0.00000000000E+00 0.  1.
<mgrwt>
<rscale>  0 0.36845435E+04</rscale>
<asrwt>0</asrwt>
<pdfrwt beam="1">  1        2 0.23207061E+00 0.36845435E+04</pdfrwt>
<pdfrwt beam="2">  1       -2 0.34614695E+00 0.36845435E+04</pdfrwt>
<totfact> 0.16713222E-01</totfact>
</mgrwt>
</event>
<event>
 6    1  0.1934315E-005  0.2268580E+04  0.7818608E-02  0.8490414E-01
          2   -1    0    0  501    0  0.00000000000E+00  0.00000000000E+00  0.23077097948E+04  0.23077097948E+04  0.00000000000E+00 0.  1.
         -2   -1    0    0    0  501 -0.00000000000E+00 -0.00000000000E+00 -0.55752839553E+03  0.55752839553E+03  0.00000000000E+00 0. -1.
         23    2    1    2    0    0  0.10931378705E+04 -0.29386461944E+03  0.92109596309E+03  0.14621382370E+04  0.90131196599E+02 0.  0.
         13    1    3    3    0    0  0.66060245170E+03 -0.13224141123E+03  0.53816344588E+03  0.86226636518E+03  0.00000000000E+00 0.  1.
        -13    1    3    3    0    0  0.43253541877E+03 -0.16162320821E+03  0.38293251721E+03  0.59987187187E+03  0.00000000000E+00 0. -1.
         22    1    1    2    0    0 -0.10931378705E+04  0.29386461944E+03  0.82908543616E+03  0.14030999533E+04  0.00000000000E+00 0.  1.
<mgrwt>
<rscale>  0 0.22685799E+04</rscale>
<asrwt>0</asrwt>
<pdfrwt beam="1">  1        2 0.35503227E+00 0.22685799E+04</pdfrwt>
<pdfrwt beam="2">  1       -2 0.85773601E-01 0.22685799E+04</pdfrwt>
<totfact> 0.48142126E+00</totfact>
</mgrwt>
</event>
<event>
 6    1  0.1934315E-005  0.1343612E+04  0.7818608E-02  0.8995678E-01
          2   -1    0    0  501    0  0.00000000000E+00  0.00000000000E+00  0.10240008344E+04  0.10240008344E+04  0.00000000000E+00 0.  1.
         -2   -1    0    0    0  501 -0.00000000000E+00 -0.00000000000E+00 -0.44074532113E+03  0.44074532113E+03  0.00000000000E+00 0. -1.
         23    2    1    2    0    0 -0.13480851951E+03 -0.12658241680E+03 -0.40756668240E+03  0.45681507225E+03  0.91503904046E+02 0.  0.
         11    1    3    3    0    0 -0.14641077312E+02 -0.73213254724E+02 -0.13866524977E+03  0.15748839102E+03  0.00000000000E+00 0.  1.
        -11    1    3    3    0    0 -0.12016744220E+03 -0.53369162078E+02 -0.26890143264E+03  0.29932668124E+03  0.00000000000E+00 0. -1.
         22    1    1    2    0    0  0.13480851951E+03  0.12658241680E+03  0.99082219565E+03  0.10079310832E+04  0.00000000000E+00 0.  1.
<mgrwt>
<rscale>  0 0.13436124E+04</rscale>
<asrwt>0</asrwt>
<pdfrwt beam="1">  1        2 0.15753859E+00 0.13436124E+04</pdfrwt>
<pdfrwt beam="2">  1       -2 0.67806973E-01 0.13436124E+04</pdfrwt>
<totfact> 0.47347766E+01</totfact>
</mgrwt>
</event>
<event>
 6    1  0.1934315E-005  0.1438510E+04  0.7818608E-02  0.8926405E-01
          2   -1    0    0  501    0  0.00000000000E+00  0.00000000000E+00  0.28596700329E+04  0.28596700329E+04  0.00000000000E+00 0.  1.
         -2   -1    0    0    0  501 -0.00000000000E+00 -0.00000000000E+00 -0.18090478855E+03  0.18090478855E+03  0.00000000000E+00 0. -1.
         23    2    1    2    0    0  0.32226125658E+03  0.61132786657E+03  0.94424123323E+03  0.11734520019E+04  0.88453470270E+02 0.  0.
         13    1    3    3    0    0  0.58380279709E+02  0.12867178720E+03  0.13858613940E+03  0.19791615375E+03  0.00000000000E+00 0. -1.
        -13    1    3    3    0    0  0.26388097687E+03  0.48265607936E+03  0.80565509383E+03  0.97553584819E+03  0.00000000000E+00 0.  1.
         22    1    1    2    0    0 -0.32226125658E+03 -0.61132786657E+03  0.17345240111E+04  0.18671228195E+04  0.00000000000E+00 0.  1.
<mgrwt>
<rscale>  0 0.14385103E+04</rscale>
<asrwt>0</asrwt>
<pdfrwt beam="1">  1        2 0.43994920E+00 0.14385103E+04</pdfrwt>
<pdfrwt beam="2">  1       -2 0.27831508E-01 0.14385103E+04</pdfrwt>
<totfact> 0.24498931E+01</totfact>
</mgrwt>
</event>
<event>
 6    1  0.1934315E-005  0.2869141E+04  0.7818608E-02  0.8282119E-01
         -2   -1    0    0    0  501 -0.00000000000E+00  0.00000000000E+00  0.25874276342E+04  0.25874276342E+04  0.00000000000E+00 0. -1.
          2   -1    0    0  501    0  0.00000000000E+00 -0.00000000000E+00 -0.79538172212E+03  0.79538172212E+03  0.00000000000E+00 0.  1.
         23    2    1    2    0    0  0.88718685694E+03  0.34118277486E+03 -0.36766080397E+03  0.10231824146E+04  0.90672938009E+02 0.  0.
         13    1    3    3    0    0  0.48834972170E+03  0.13990362555E+03 -0.20305205747E+03  0.54707276771E+03  0.00000000000E+00 0.  1.
        -13    1    3    3    0    0  0.39883713524E+03  0.20127914931E+03 -0.16460874650E+03  0.47610964684E+03  0.00000000000E+00 0. -1.
         22    1    1    2    0    0 -0.88718685694E+03 -0.34118277486E+03  0.21597067160E+04  0.23596269418E+04  0.00000000000E+00 0. -1.
<mgrwt>
<rscale>  0 0.28691411E+04</rscale>
<asrwt>0</asrwt>
<pdfrwt beam="1">  1        2 0.12236642E+00 0.28691411E+04</pdfrwt>
<pdfrwt beam="2">  1       -2 0.39806579E+00 0.28691411E+04</pdfrwt>
<totfact> 0.22940172E-01</totfact>
</mgrwt>
</event>
<event>
 6    1  0.1934315E-005  0.4866632E+04  0.7818608E-02  0.7849416E-01
         -2   -1    0    0    0  501 -0.00000000000E+00  0.00000000000E+00  0.24652357310E+04  0.24652357310E+04  0.00000000000E+00 0. -1.
          2   -1    0    0  501    0  0.00000000000E+00 -0.00000000000E+00 -0.24018096003E+04  0.24018096003E+04  0.00000000000E+00 0.  1.
         23    2    1    2    0    0  0.66280678427E+03  0.88886298865E+03 -0.21335279178E+04  0.24061517260E+04  0.90744182428E+02 0.  0.
         13    1    3    3    0    0  0.45260496846E+03  0.57758331115E+03 -0.14940554116E+04  0.16645285554E+04  0.00000000000E+00 0. -1.
        -13    1    3    3    0    0  0.21020181581E+03  0.31127967750E+03 -0.63947250616E+03  0.74162317057E+03  0.00000000000E+00 0.  1.
         22    1    1    2    0    0 -0.66280678427E+03 -0.88886298865E+03  0.21969540484E+04  0.24608936053E+04  0.00000000000E+00 0. -1.
<mgrwt>
<rscale>  0 0.48666320E+04</rscale>
<asrwt>0</asrwt>
<pdfrwt beam="1">  1        2 0.36950917E+00 0.48666320E+04</pdfrwt>
<pdfrwt beam="2">  1       -2 0.37926704E+00 0.48666320E+04</pdfrwt>
<totfact> 0.29544317E-02</totfact>
</mgrwt>
</event>
<event>
 6    1  0.1934315E-005  0.2735434E+04  0.7818608E-02  0.8323599E-01
          2   -1    0    0  501    0  0.00000000000E+00  0.00000000000E+00  0.92775692000E+03  0.92775692000E+03  0.00000000000E+00 0.  1.
         -2   -1    0    0    0  501 -0.00000000000E+00 -0.00000000000E+00 -0.20163147223E+04  0.20163147223E+04  0.00000000000E+00 0. -1.
         23    2    1    2    0    0 -0.12552706930E+04 -0.53959913484E+03 -0.55578211619E+03  0.14775377454E+04  0.85745491026E+02 0.  0.
         13    1    3    3    0    0 -0.54271183240E+03 -0.24728455873E+03 -0.28642648748E+03  0.66160858424E+03  0.00000000000E+00 0. -1.
        -13    1    3    3    0    0 -0.71255886063E+03 -0.29231457611E+03 -0.26935562871E+03  0.81592916114E+03  0.00000000000E+00 0.  1.
         22    1    1    2    0    0  0.12552706930E+04  0.53959913484E+03 -0.53277568610E+03  0.14665338969E+04  0.00000000000E+00 0. -1.
<mgrwt>
<rscale>  0 0.27354341E+04</rscale>
<asrwt>0</asrwt>
<pdfrwt beam="1">  1        2 0.14273184E+00 0.27354341E+04</pdfrwt>
<pdfrwt beam="2">  1       -2 0.31020226E+00 0.27354341E+04</pdfrwt>
<totfact> 0.67610698E-01</totfact>
</mgrwt>
</event>
<event>
 6    1  0.1934315E-005  0.1981396E+04  0.7818608E-02  0.8615368E-01
         -2   -1    0    0    0  501 -0.00000000000E+00  0.00000000000E+00  0.34433541982E+03  0.34433541982E+03  0.00000000000E+00 0. -1.
          2   -1    0    0  501    0  0.00000000000E+00 -0.00000000000E+00 -0.28503689330E+04  0.28503689330E+04  0.00000000000E+00 0.  1.
         23    2    1    2    0    0  0.28748727411E+03 -0.80098836887E+03 -0.20668700245E+04  0.22370531273E+04  0.90684600383E+02 0.  0.
         13    1    3    3    0    0  0.16183594577E+03 -0.36138012757E+03 -0.87180797623E+03  0.95751533532E+03  0.00000000000E+00 0. -1.
        -13    1    3    3    0    0  0.12565132834E+03 -0.43960824130E+03 -0.11950620482E+04  0.12795377920E+04  0.00000000000E+00 0.  1.
         22    1    1    2    0    0 -0.28748727411E+03  0.80098836887E+03 -0.43916348875E+03  0.95765122549E+03  0.00000000000E+00 0. -1.
<mgrwt>
<rscale>  0 0.19813965E+04</rscale>
<asrwt>0</asrwt>
<pdfrwt beam="1">  1        2 0.43851830E+00 0.19813965E+04</pdfrwt>
<pdfrwt beam="2">  1       -2 0.52974680E-01 0.19813965E+04</pdfrwt>
<totfact> 0.67503471E+00</totfact>
</mgrwt>
</event>
<event>
 6    1  0.1934315E-005  0.3495258E+04  0.7818608E-02  0.8114915E-01
         -2   -1    0    0    0  501 -0.00000000000E+00  0.00000000000E+00  0.69878345553E+03  0.69878345553E+03  0.00000000000E+00 0. -1.
          2   -1    0    0  501    0  0.00000000000E+00 -0.00000000000E+00 -0.43707496835E+04  0.43707496835E+04  0.00000000000E+00 0.  1.
         23    2    1    2    0    0  0.66687220510E+03  0.11480988949E+04 -0.34828396075E+04  0.37284073101E+04  0.89441202465E+02 0.  0.
         11    1    3    3    0    0  0.35138866026E+03  0.63834725063E+03 -0.20256662840E+04  0.21527389756E+04  0.00000000000E+00 0.  1.
        -11    1    3    3    0    0  0.31548354485E+03  0.50975164423E+03 -0.14571733235E+04  0.15756683346E+04  0.00000000000E+00 0. -1.
         22    1    1    2    0    0 -0.66687220510E+03 -0.11480988949E+04 -0.18912662051E+03  0.13411258289E+04  0.00000000000E+00 0. -1.
<mgrwt>
<rscale>  0 0.34952583E+04</rscale>
<asrwt>0</asrwt>
<pdfrwt beam="1">  1        2 0.67242301E+00 0.34952583E+04</pdfrwt>
<pdfrwt beam="2">  1       -2 0.10750515E+00 0.34952583E+04</pdfrwt>
<totfact> 0.92919103E-02</totfact>
</mgrwt>
</event>
<event>
 6    1  0.1934315E-005  0.1181560E+04  0.7818608E-02  0.9129151E-01
          2   -1    0    0  501    0  0.00000000000E+00  0.00000000000E+00  0.10149255378E+04  0.10149255378E+04  0.00000000000E+00 0.  1.
         -2   -1    0    0    0  501 -0.00000000000E+00 -0.00000000000E+00 -0.34388855031E+03  0.34388855031E+03  0.00000000000E+00 0. -1.
         23    2    1    2    0    0 -0.33909893598E+03 -0.36668178644E+03  0.69264121128E+03  0.85890373279E+03  0.92304678911E+02 0.  0.
         11    1    3    3    0    0 -0.15964793795E+03 -0.15279751939E+03  0.23312279400E+03  0.32121765690E+03  0.00000000000E+00 0.  1.
        -11    1    3    3    0    0 -0.17945099803E+03 -0.21388426705E+03  0.45951841728E+03  0.53768607589E+03  0.00000000000E+00 0. -1.
         22    1    1    2    0    0  0.33909893598E+03  0.36668178644E+03 -0.21604223778E+02  0.49991035534E+03  0.00000000000E+00 0. -1.
<mgrwt>
<rscale>  0 0.11815604E+04</rscale>
<asrwt>0</asrwt>
<pdfrwt beam="1">  1        2 0.15614239E+00 0.11815604E+04</pdfrwt>
<pdfrwt beam="2">  1       -2 0.52905931E-01 0.11815604E+04</pdfrwt>
<totfact> 0.82013277E+01</totfact>
</mgrwt>
</event>
<event>
 6    1  0.1934315E-005  0.2421348E+04  0.7818608E-02  0.8431554E-01
         -2   -1    0    0    0  501 -0.00000000000E+00  0.00000000000E+00  0.93215340544E+03  0.93215340544E+03  0.00000000000E+00 0. -1.
          2   -1    0    0  501    0  0.00000000000E+00 -0.00000000000E+00 -0.15724143483E+04  0.15724143483E+04  0.00000000000E+00 0.  1.
         23    2    1    2    0    0 -0.41417702416E+03 -0.10948345776E+04 -0.63308378836E+03  0.13339880378E+04  0.92323573608E+02 0.  0.
         11    1    3    3    0    0 -0.80733522398E+02 -0.27673317179E+03 -0.19377335854E+03  0.34734315091E+03  0.00000000000E+00 0.  1.
        -11    1    3    3    0    0 -0.33344350177E+03 -0.81810140584E+03 -0.43931042982E+03  0.98664488691E+03  0.00000000000E+00 0. -1.
         22    1    1    2    0    0  0.41417702416E+03  0.10948345776E+04 -0.71771544798E+01  0.11705797159E+04  0.00000000000E+00 0. -1.
<mgrwt>
<rscale>  0 0.24213479E+04</rscale>
<asrwt>0</asrwt>
<pdfrwt beam="1">  1        2 0.24190990E+00 0.24213479E+04</pdfrwt>
<pdfrwt beam="2">  1       -2 0.14340822E+00 0.24213479E+04</pdfrwt>
<totfact> 0.34996235E+00</totfact>
</mgrwt>
</event>
<event>
 6    1  0.1934315E-005  0.2844066E+04  0.7818608E-02  0.8289717E-01
          2   -1    0    0  501    0  0.00000000000E+00  0.00000000000E+00  0.19228391509E+04  0.19228391509E+04  0.00000000000E+00 0.  1.
         -2   -1    0    0    0  501 -0.00000000000E+00 -0.00000000000E+00 -0.10516621478E+04  0.10516621478E+04  0.00000000000E+00 0. -1.
         23    2    1    2    0    0 -0.37880042973E+03  0.36158079723E+02  0.18674959228E+04  0.19079889631E+04  0.89909339381E+02 0.  0.
         11    1    3    3    0    0 -0.32329278601E+02  0.26130356056E+02  0.28198566952E+03  0.28503314821E+03  0.00000000000E+00 0. -1.
        -11    1    3    3    0    0 -0.34647115113E+03  0.10027723667E+02  0.15855102533E+04  0.16229558149E+04  0.00000000000E+00 0.  1.
         22    1    1    2    0    0  0.37880042973E+03 -0.36158079723E+02 -0.99631891972E+03  0.10665123356E+04  0.00000000000E+00 0. -1.
<mgrwt>
<rscale>  0 0.28440655E+04</rscale>
<asrwt>0</asrwt>
<pdfrwt beam="1">  1        2 0.29582141E+00 0.28440655E+04</pdfrwt>
<pdfrwt beam="2">  1       -2 0.16179418E+00 0.28440655E+04</pdfrwt>
<totfact> 0.15625046E+00</totfact>
</mgrwt>
</event>
<event>
 6    1  0.1934315E-005  0.4491114E+04  0.7818608E-02  0.7912194E-01
          2   -1    0    0  501    0  0.00000000000E+00  0.00000000000E+00  0.21970296454E+04  0.21970296454E+04  0.00000000000E+00 0.  1.
         -2   -1    0    0    0  501 -0.00000000000E+00 -0.00000000000E+00 -0.22951565385E+04  0.22951565385E+04  0.00000000000E+00 0. -1.
         23    2    1    2    0    0 -0.63887759704E+03  0.18287781656E+03 -0.21936078329E+04  0.22938574440E+04  0.90872266084E+02 0.  0.
         13    1    3    3    0    0 -0.38446269492E+03  0.12632851344E+03 -0.11884755056E+04  0.12554857564E+04  0.00000000000E+00 0.  1.
        -13    1    3    3    0    0 -0.25441490212E+03  0.56549303122E+02 -0.10051323274E+04  0.10383716876E+04  0.00000000000E+00 0. -1.
         22    1    1    2    0    0  0.63887759704E+03 -0.18287781656E+03  0.20954809399E+04  0.21983287400E+04  0.00000000000E+00 0.  1.
<mgrwt>
<rscale>  0 0.44911143E+04</rscale>
<asrwt>0</asrwt>
<pdfrwt beam="1">  1        2 0.33800456E+00 0.44911143E+04</pdfrwt>
<pdfrwt beam="2">  1       -2 0.35310101E+00 0.44911143E+04</pdfrwt>
<totfact> 0.58455107E-02</totfact>
</mgrwt>
</event>
<event>
 6    1  0.1934315E-005  0.1923438E+04  0.7818608E-02  0.8643277E-01
         -2   -1    0    0    0  501 -0.00000000000E+00  0.00000000000E+00  0.75382183427E+03  0.75382183427E+03  0.00000000000E+00 0.  1.
          2   -1    0    0  501    0  0.00000000000E+00 -0.00000000000E+00 -0.12269523249E+04  0.12269523249E+04  0.00000000000E+00 0. -1.
         23    2    1    2    0    0 -0.32804130959E+03  0.69090543694E+01 -0.11655188546E+04  0.12145754366E+04  0.95396304708E+02 0.  0.
         13    1    3    3    0    0 -0.13435196688E+03  0.67417304946E+01 -0.65223426134E+03  0.66596203616E+03  0.00000000000E+00 0. -1.
        -13    1    3    3    0    0 -0.19368934271E+03  0.16732387476E+00 -0.51328459323E+03  0.54861340043E+03  0.00000000000E+00 0.  1.
         22    1    1    2    0    0  0.32804130959E+03 -0.69090543694E+01  0.69238836399E+03  0.76619872254E+03  0.00000000000E+00 0.  1.
<mgrwt>
<rscale>  0 0.19234380E+04</rscale>
<asrwt>0</asrwt>
<pdfrwt beam="1">  1        2 0.18876189E+00 0.19234380E+04</pdfrwt>
<pdfrwt beam="2">  1       -2 0.11597259E+00 0.19234380E+04</pdfrwt>
<totfact> 0.98575747E+00</totfact>
</mgrwt>
</event>
<event>
 6    1  0.1934315E-005  0.2870459E+04  0.7818608E-02  0.8281721E-01
          2   -1    0    0  501    0  0.00000000000E+00  0.00000000000E+00  0.11443251903E+04  0.11443251903E+04  0.00000000000E+00 0.  1.
         -2   -1    0    0    0  501 -0.00000000000E+00 -0.00000000000E+00 -0.18000859459E+04  0.18000859459E+04  0.00000000000E+00 0. -1.
         23    2    1    2    0    0  0.68742172993E+03 -0.63835846308E+03  0.78413913501E+03  0.12258763366E+04  0.88591463570E+02 0.  0.
         13    1    3    3    0    0  0.35946009505E+03 -0.39304261209E+03  0.43463457458E+03  0.68746001212E+03  0.00000000000E+00 0. -1.
        -13    1    3    3    0    0  0.32796163488E+03 -0.24531585100E+03  0.34950456043E+03  0.53841632447E+03  0.00000000000E+00 0.  1.
         22    1    1    2    0    0 -0.68742172993E+03  0.63835846308E+03 -0.14398998906E+04  0.17185347995E+04  0.00000000000E+00 0. -1.
<mgrwt>
<rscale>  0 0.28704590E+04</rscale>
<asrwt>0</asrwt>
<pdfrwt beam="1">  1        2 0.17605003E+00 0.28704590E+04</pdfrwt>
<pdfrwt beam="2">  1       -2 0.27693630E+00 0.28704590E+04</pdfrwt>
<totfact> 0.77836020E-01</totfact>
</mgrwt>
</event>
<event>
 6    1  0.1934315E-005  0.1110808E+04  0.7818608E-02  0.9194721E-01
         -2   -1    0    0    0  501 -0.00000000000E+00  0.00000000000E+00  0.25948973130E+03  0.25948973130E+03  0.00000000000E+00 0. -1.
          2   -1    0    0  501    0  0.00000000000E+00 -0.00000000000E+00 -0.11887706379E+04  0.11887706379E+04  0.00000000000E+00 0.  1.
         23    2    1    2    0    0 -0.13439704828E+03 -0.52422916405E+03 -0.60850041392E+03  0.81915075434E+03  0.88636457334E+02 0.  0.
         13    1    3    3    0    0 -0.61125643180E+02 -0.37623904181E+03 -0.39085144372E+03  0.54594597892E+03  0.00000000000E+00 0. -1.
        -13    1    3    3    0    0 -0.73271405102E+02 -0.14799012224E+03 -0.21764897019E+03  0.27320477542E+03  0.00000000000E+00 0.  1.
         22    1    1    2    0    0  0.13439704828E+03  0.52422916405E+03 -0.32078049269E+03  0.62910961486E+03  0.00000000000E+00 0. -1.
<mgrwt>
<rscale>  0 0.11108083E+04</rscale>
<asrwt>0</asrwt>
<pdfrwt beam="1">  1        2 0.18288779E+00 0.11108083E+04</pdfrwt>
<pdfrwt beam="2">  1       -2 0.39921497E-01 0.11108083E+04</pdfrwt>
<totfact> 0.11323417E+02</totfact>
</mgrwt>
</event>
<event>
 6    1  0.1934315E-005  0.1393714E+04  0.7818608E-02  0.8958381E-01
          2   -1    0    0  501    0  0.00000000000E+00  0.00000000000E+00  0.31624354719E+03  0.31624354719E+03  0.00000000000E+00 0.  1.
         -2   -1    0    0    0  501 -0.00000000000E+00 -0.00000000000E+00 -0.15355559622E+04  0.15355559622E+04  0.00000000000E+00 0. -1.
         23    2    1    2    0    0 -0.54404354143E+03  0.70473970772E+02 -0.11767831178E+04  0.13015643809E+04  0.91111885141E+02 0.  0.
         13    1    3    3    0    0 -0.15129382784E+03  0.41813247298E+02 -0.42165534520E+03  0.44992377146E+03  0.00000000000E+00 0.  1.
        -13    1    3    3    0    0 -0.39274971359E+03  0.28660723474E+02 -0.75512777262E+03  0.85164060939E+03  0.00000000000E+00 0. -1.
         22    1    1    2    0    0  0.54404354143E+03 -0.70473970772E+02 -0.42529297169E+02  0.55023512851E+03  0.00000000000E+00 0.  1.
<mgrwt>
<rscale>  0 0.13937140E+04</rscale>
<asrwt>0</asrwt>
<pdfrwt beam="1">  1        2 0.48652853E-01 0.13937140E+04</pdfrwt>
<pdfrwt beam="2">  1       -2 0.23623938E+00 0.13937140E+04</pdfrwt>
<totfact> 0.78817214E+00</totfact>
</mgrwt>
</event>
<event>
 6    1  0.1934315E-005  0.3472965E+04  0.7818608E-02  0.8120227E-01
         -2   -1    0    0    0  501 -0.00000000000E+00  0.00000000000E+00  0.12372158052E+04  0.12372158052E+04  0.00000000000E+00 0. -1.
          2   -1    0    0  501    0  0.00000000000E+00 -0.00000000000E+00 -0.24372231595E+04  0.24372231595E+04  0.00000000000E+00 0.  1.
         23    2    1    2    0    0  0.16947386726E+04  0.29642394537E+03 -0.83963534567E+03  0.19166351336E+04  0.92175907802E+02 0.  0.
         13    1    3    3    0    0  0.73770410703E+03  0.17539255384E+03 -0.37265638714E+03  0.84489211166E+03  0.00000000000E+00 0. -1.
        -13    1    3    3    0    0  0.95703456559E+03  0.12103139153E+03 -0.46697895853E+03  0.10717430220E+04  0.00000000000E+00 0.  1.
         22    1    1    2    0    0 -0.16947386726E+04 -0.29642394537E+03 -0.36037200864E+03  0.17578038311E+04  0.00000000000E+00 0. -1.
<mgrwt>
<rscale>  0 0.34729647E+04</rscale>
<asrwt>0</asrwt>
<pdfrwt beam="1">  1        2 0.37495741E+00 0.34729647E+04</pdfrwt>
<pdfrwt beam="2">  1       -2 0.19034089E+00 0.34729647E+04</pdfrwt>
<totfact> 0.48049469E-01</totfact>
</mgrwt>
</event>
<event>
 6    1  0.1934315E-005  0.9116129E+03  0.7818608E-02  0.9411180E-01
          2   -1    0    0  501    0  0.00000000000E+00  0.00000000000E+00  0.32725795964E+03  0.32725795964E+03  0.00000000000E+00 0.  1.
         -2   -1    0    0    0  501 -0.00000000000E+00 -0.00000000000E+00 -0.63484945305E+03  0.63484945305E+03  0.00000000000E+00 0. -1.
         23    2    1    2    0    0  0.17071809800E+03 -0.39336060898E+03 -0.30348641655E+03  0.53327867142E+03  0.91678234456E+02 0.  0.
         11    1    3    3    0    0  0.41047495814E+02 -0.10976723573E+03 -0.13524652090E+03  0.17895631972E+03  0.00000000000E+00 0. -1.
        -11    1    3    3    0    0  0.12967060219E+03 -0.28359337325E+03 -0.16823989565E+03  0.35432235170E+03  0.00000000000E+00 0.  1.
         22    1    1    2    0    0 -0.17071809800E+03  0.39336060898E+03 -0.41050768635E+01  0.42882874127E+03  0.00000000000E+00 0.  1.
<mgrwt>
<rscale>  0 0.91161294E+03</rscale>
<asrwt>0</asrwt>
<pdfrwt beam="1">  1        2 0.50347379E-01 0.91161294E+03</pdfrwt>
<pdfrwt beam="2">  1       -2 0.97669146E-01 0.91161294E+03</pdfrwt>
<totfact> 0.87264992E+01</totfact>
</mgrwt>
</event>
<event>
 6    1  0.1934315E-005  0.2868788E+04  0.7818608E-02  0.8282225E-01
          2   -1    0    0  501    0  0.00000000000E+00  0.00000000000E+00  0.20694758444E+04  0.20694758444E+04  0.00000000000E+00 0.  1.
         -2   -1    0    0    0  501 -0.00000000000E+00 -0.00000000000E+00 -0.99420670174E+03  0.99420670174E+03  0.00000000000E+00 0. -1.
         23    2    1    2    0    0  0.97499177480E+03 -0.42778437210E+03 -0.48592558728E+03  0.11739901334E+04  0.92307784157E+02 0.  0.
         13    1    3    3    0    0  0.63854649802E+03 -0.31976169206E+03 -0.35115023435E+03  0.79579875403E+03  0.00000000000E+00 0. -1.
        -13    1    3    3    0    0  0.33644527678E+03 -0.10802268004E+03 -0.13477535294E+03  0.37819137937E+03  0.00000000000E+00 0.  1.
         22    1    1    2    0    0 -0.97499177480E+03  0.42778437210E+03  0.15611947300E+04  0.18896924128E+04  0.00000000000E+00 0.  1.
<mgrwt>
<rscale>  0 0.28687884E+04</rscale>
<asrwt>0</asrwt>
<pdfrwt beam="1">  1        2 0.31838090E+00 0.28687884E+04</pdfrwt>
<pdfrwt beam="2">  1       -2 0.15295488E+00 0.28687884E+04</pdfrwt>
<totfact> 0.15042338E+00</totfact>
</mgrwt>
</event>
<event>
 6    1  0.1934315E-005  0.3052654E+04  0.7818608E-02  0.8228853E-01
          2   -1    0    0  501    0  0.00000000000E+00  0.00000000000E+00  0.37176830103E+04  0.37176830103E+04  0.00000000000E+00 0.  1.
         -2   -1    0    0    0  501 -0.00000000000E+00 -0.00000000000E+00 -0.62664663172E+03  0.62664663172E+03  0.00000000000E+00 0. -1.
         23    2    1    2    0    0  0.75135634586E+02  0.14002479834E+04  0.23995604036E+04  0.27808467344E+04  0.94226593698E+02 0.  0.
         11    1    3    3    0    0  0.34525214559E+01  0.39121979100E+03  0.59507594950E+03  0.71216587285E+03  0.00000000000E+00 0. -1.
        -11    1    3    3    0    0  0.71683113130E+02  0.10090281924E+04  0.18044844541E+04  0.20686808615E+04  0.00000000000E+00 0.  1.
         22    1    1    2    0    0 -0.75135634586E+02 -0.14002479834E+04  0.69147597502E+03  0.15634829077E+04  0.00000000000E+00 0. -1.
<mgrwt>
<rscale>  0 0.30526536E+04</rscale>
<asrwt>0</asrwt>
<pdfrwt beam="1">  1        2 0.57195122E+00 0.30526536E+04</pdfrwt>
<pdfrwt beam="2">  1       -2 0.96407177E-01 0.30526536E+04</pdfrwt>
<totfact> 0.43423973E-01</totfact>
</mgrwt>
</event>
<event>
 6    1  0.1934315E-005  0.9049975E+03  0.7818608E-02  0.9419356E-01
         -2   -1    0    0    0  501 -0.00000000000E+00  0.00000000000E+00  0.22993009316E+03  0.22993009316E+03  0.00000000000E+00 0. -1.
          2   -1    0    0  501    0  0.00000000000E+00 -0.00000000000E+00 -0.89051029330E+03  0.89051029330E+03  0.00000000000E+00 0.  1.
         23    2    1    2    0    0  0.17017331650E+03  0.23709403109E+03  0.86973035704E+02  0.31793906083E+03  0.91369580454E+02 0.  0.
         11    1    3    3    0    0  0.10831149368E+03  0.12671222809E+03  0.93700983149E+02  0.19122563284E+03  0.00000000000E+00 0.  1.
        -11    1    3    3    0    0  0.61861822816E+02  0.11038180300E+03 -0.67279474449E+01  0.12671342798E+03  0.00000000000E+00 0. -1.
         22    1    1    2    0    0 -0.17017331650E+03 -0.23709403109E+03 -0.74755323584E+03  0.80250132563E+03  0.00000000000E+00 0.  1.
<mgrwt>
<rscale>  0 0.90499749E+03</rscale>
<asrwt>0</asrwt>
<pdfrwt beam="1">  1        2 0.13700159E+00 0.90499749E+03</pdfrwt>
<pdfrwt beam="2">  1       -2 0.35373859E-01 0.90499749E+03</pdfrwt>
<totfact> 0.22371841E+02</totfact>
</mgrwt>
</event>
<event>
 6    1  0.1934315E-005  0.1173026E+04  0.7818608E-02  0.9136800E-01
          2   -1    0    0  501    0  0.00000000000E+00  0.00000000000E+00  0.12522084578E+04  0.12522084578E+04  0.00000000000E+00 0.  1.
         -2   -1    0    0    0  501 -0.00000000000E+00 -0.00000000000E+00 -0.27471265149E+03  0.27471265149E+03  0.00000000000E+00 0. -1.
         23    2    1    2    0    0  0.23879016435E+03 -0.49129113715E+03  0.75678837433E+03  0.93776960539E+03  0.91079444660E+02 0.  0.
         11    1    3    3    0    0  0.15069912751E+03 -0.22038326458E+03  0.40538817308E+03  0.48540558424E+03  0.00000000000E+00 0. -1.
        -11    1    3    3    0    0  0.88091036842E+02 -0.27090787257E+03  0.35140020125E+03  0.45236402115E+03  0.00000000000E+00 0.  1.
         22    1    1    2    0    0 -0.23879016435E+03  0.49129113715E+03  0.22070743200E+03  0.58915150392E+03  0.00000000000E+00 0. -1.
<mgrwt>
<rscale>  0 0.11730260E+04</rscale>
<asrwt>0</asrwt>
<pdfrwt beam="1">  1        2 0.19264745E+00 0.11730260E+04</pdfrwt>
<pdfrwt beam="2">  1       -2 0.42263486E-01 0.11730260E+04</pdfrwt>
<totfact> 0.92440087E+01</totfact>
</mgrwt>
</event>
<event>
 6    1  0.1934315E-005  0.3457822E+04  0.7818608E-02  0.8123859E-01
          2   -1    0    0  501    0  0.00000000000E+00  0.00000000000E+00  0.17007087447E+04  0.17007087447E+04  0.00000000000E+00 0.  1.
         -2   -1    0    0    0  501 -0.00000000000E+00 -0.00000000000E+00 -0.17575804983E+04  0.17575804983E+04  0.00000000000E+00 0. -1.
         23    2    1    2    0    0 -0.13467652901E+04  0.39215337890E+03  0.98054518164E+03  0.17136417380E+04  0.86822426010E+02 0.  0.
         13    1    3    3    0    0 -0.10920319949E+04  0.33821790069E+03  0.83152449901E+03  0.14136329859E+04  0.00000000000E+00 0. -1.
        -13    1    3    3    0    0 -0.25473329520E+03  0.53935478211E+02  0.14902068262E+03  0.30000875211E+03  0.00000000000E+00 0.  1.
         22    1    1    2    0    0  0.13467652901E+04 -0.39215337890E+03 -0.10374169353E+04  0.17446475050E+04  0.00000000000E+00 0.  1.
<mgrwt>
<rscale>  0 0.34578216E+04</rscale>
<asrwt>0</asrwt>
<pdfrwt beam="1">  1        2 0.26164750E+00 0.34578216E+04</pdfrwt>
<pdfrwt beam="2">  1       -2 0.27039700E+00 0.34578216E+04</pdfrwt>
<totfact> 0.38938127E-01</totfact>
</mgrwt>
</event>
<event>
 6    1  0.1934315E-005  0.5637970E+03  0.7818608E-02  0.9983500E-01
          1   -1    0    0  501    0  0.00000000000E+00  0.00000000000E+00  0.99817753976E+03  0.99817753976E+03  0.00000000000E+00 0.  1.
         -1   -1    0    0    0  501 -0.00000000000E+00 -0.00000000000E+00 -0.79611862769E+02  0.79611862769E+02  0.00000000000E+00 0. -1.
         23    2    1    2    0    0  0.11804912000E+03  0.24676977067E+03  0.52558023718E+03  0.59896952998E+03  0.87743932436E+02 0.  0.
         11    1    3    3    0    0  0.87080729095E+02  0.11748562265E+03  0.20407446148E+03  0.25106236424E+03  0.00000000000E+00 0. -1.
        -11    1    3    3    0    0  0.30968390906E+02  0.12928414802E+03  0.32150577569E+03  0.34790716573E+03  0.00000000000E+00 0.  1.
         22    1    1    2    0    0 -0.11804912000E+03 -0.24676977067E+03  0.39298543981E+03  0.47881987256E+03  0.00000000000E+00 0. -1.
<mgrwt>
<rscale>  0 0.56379703E+03</rscale>
<asrwt>0</asrwt>
<pdfrwt beam="1">  1        1 0.15356577E+00 0.56379703E+03</pdfrwt>
<pdfrwt beam="2">  1       -1 0.12247980E-01 0.56379703E+03</pdfrwt>
<totfact> 0.70341607E+02</totfact>
</mgrwt>
</event>
<event>
 6    1  0.1934315E-005  0.3344125E+04  0.7818608E-02  0.8151758E-01
          2   -1    0    0  501    0  0.00000000000E+00  0.00000000000E+00  0.12332062143E+04  0.12332062143E+04  0.00000000000E+00 0.  1.
         -2   -1    0    0    0  501 -0.00000000000E+00 -0.00000000000E+00 -0.22670934352E+04  0.22670934352E+04  0.00000000000E+00 0. -1.
         23    2    1    2    0    0  0.15799317339E+04 -0.45187120023E+03 -0.20069315126E+03  0.16578599020E+04  0.88599368289E+02 0.  0.
         13    1    3    3    0    0  0.10320119235E+04 -0.25581768019E+03 -0.11048585333E+03  0.10689707290E+04  0.00000000000E+00 0.  1.
        -13    1    3    3    0    0  0.54791981046E+03 -0.19605352004E+03 -0.90207297933E+02  0.58888917295E+03  0.00000000000E+00 0. -1.
         22    1    1    2    0    0 -0.15799317339E+04  0.45187120023E+03 -0.83319406971E+03  0.18424397475E+04  0.00000000000E+00 0.  1.
<mgrwt>
<rscale>  0 0.33441254E+04</rscale>
<asrwt>0</asrwt>
<pdfrwt beam="1">  1        2 0.18972403E+00 0.33441254E+04</pdfrwt>
<pdfrwt beam="2">  1       -2 0.34878360E+00 0.33441254E+04</pdfrwt>
<totfact> 0.23839290E-01</totfact>
</mgrwt>
</event>
<event>
 6    1  0.1934315E-005  0.8179869E+03  0.7818608E-02  0.9534341E-01
         -2   -1    0    0    0  501 -0.00000000000E+00  0.00000000000E+00  0.11835398744E+03  0.11835398744E+03  0.00000000000E+00 0. -1.
          2   -1    0    0  501    0  0.00000000000E+00 -0.00000000000E+00 -0.14133503375E+04  0.14133503375E+04  0.00000000000E+00 0.  1.
         23    2    1    2    0    0 -0.28511926577E+03  0.69906184324E+01 -0.11909843789E+04  0.12281250855E+04  0.92225649038E+02 0.  0.
         11    1    3    3    0    0 -0.17190278758E+03  0.47968640211E+02 -0.66461178563E+03  0.68815723815E+03  0.00000000000E+00 0. -1.
        -11    1    3    3    0    0 -0.11321647820E+03 -0.40978021778E+02 -0.52637259330E+03  0.53996784736E+03  0.00000000000E+00 0.  1.
         22    1    1    2    0    0  0.28511926577E+03 -0.69906184324E+01 -0.10401197109E+03  0.30357923939E+03  0.00000000000E+00 0. -1.
<mgrwt>
<rscale>  0 0.81798691E+03</rscale>
<asrwt>0</asrwt>
<pdfrwt beam="1">  1        2 0.21743851E+00 0.81798691E+03</pdfrwt>
<pdfrwt beam="2">  1       -2 0.18208306E-01 0.81798691E+03</pdfrwt>
<totfact> 0.36009798E+02</totfact>
</mgrwt>
</event>
<event>
 6    1  0.1934315E-005  0.5859427E+04  0.7818608E-02  0.7708080E-01
         -2   -1    0    0    0  501 -0.00000000000E+00  0.00000000000E+00  0.19030588672E+04  0.19030588672E+04  0.00000000000E+00 0. -1.
          2   -1    0    0  501    0  0.00000000000E+00 -0.00000000000E+00 -0.45102242620E+04  0.45102242620E+04  0.00000000000E+00 0.  1.
         23    2    1    2    0    0  0.47147354518E+03 -0.12466131283E+04 -0.41586418312E+04  0.43679443484E+04  0.91128236483E+02 0.  0.
         13    1    3    3    0    0  0.24013416126E+03 -0.73335086199E+03 -0.23105815827E+04  0.24360326666E+04  0.00000000000E+00 0. -1.
        -13    1    3    3    0    0  0.23133938392E+03 -0.51326226628E+03 -0.18480602485E+04  0.19319116819E+04  0.00000000000E+00 0.  1.
         22    1    1    2    0    0 -0.47147354518E+03  0.12466131283E+04  0.15514764364E+04  0.20453387808E+04  0.00000000000E+00 0. -1.
<mgrwt>
<rscale>  0 0.58594274E+04</rscale>
<asrwt>0</asrwt>
<pdfrwt beam="1">  1        2 0.69388065E+00 0.58594274E+04</pdfrwt>
<pdfrwt beam="2">  1       -2 0.29277829E+00 0.58594274E+04</pdfrwt>
<totfact> 0.28458908E-03</totfact>
</mgrwt>
</event>
<event>
 6    1  0.1934315E-005  0.4477180E+04  0.7818608E-02  0.7914644E-01
          2   -1    0    0  501    0  0.00000000000E+00  0.00000000000E+00  0.38529812762E+04  0.38529812762E+04  0.00000000000E+00 0.  1.
         -2   -1    0    0    0  501 -0.00000000000E+00 -0.00000000000E+00 -0.13006252328E+04  0.13006252328E+04  0.00000000000E+00 0. -1.
         23    2    1    2    0    0 -0.97511527996E+03 -0.14746473162E+04 -0.30223269457E+03  0.17959121544E+04  0.92311149737E+02 0.  0.
         11    1    3    3    0    0 -0.73248257814E+03 -0.10378910200E+04 -0.23268171663E+03  0.12914678773E+04  0.00000000000E+00 0. -1.
        -11    1    3    3    0    0 -0.24263270183E+03 -0.43675629615E+03 -0.69550977934E+02  0.50444427716E+03  0.00000000000E+00 0.  1.
         22    1    1    2    0    0  0.97511527996E+03  0.14746473162E+04  0.28545887379E+04  0.33576943546E+04  0.00000000000E+00 0.  1.
<mgrwt>
<rscale>  0 0.44771798E+04</rscale>
<asrwt>0</asrwt>
<pdfrwt beam="1">  1        2 0.59276634E+00 0.44771798E+04</pdfrwt>
<pdfrwt beam="2">  1       -2 0.20009619E+00 0.44771798E+04</pdfrwt>
<totfact> 0.44935326E-02</totfact>
</mgrwt>
</event>
<event>
 6    1  0.1934315E-005  0.2094644E+04  0.7818608E-02  0.8563607E-01
         -2   -1    0    0    0  501 -0.00000000000E+00  0.00000000000E+00  0.35222610857E+03  0.35222610857E+03  0.00000000000E+00 0. -1.
          2   -1    0    0  501    0  0.00000000000E+00 -0.00000000000E+00 -0.31141441233E+04  0.31141441233E+04  0.00000000000E+00 0.  1.
         23    2    1    2    0    0 -0.13161918007E+03  0.10143712447E+04 -0.10245701396E+04  0.14502724491E+04  0.85285256371E+02 0.  0.
         11    1    3    3    0    0 -0.35565046301E+02  0.42112750027E+03 -0.47649027742E+03  0.63691147617E+03  0.00000000000E+00 0.  1.
        -11    1    3    3    0    0 -0.96054133773E+02  0.59324374441E+03 -0.54807986217E+03  0.81336097288E+03  0.00000000000E+00 0. -1.
         22    1    1    2    0    0  0.13161918007E+03 -0.10143712447E+04 -0.17373478752E+04  0.20160977828E+04  0.00000000000E+00 0.  1.
<mgrwt>
<rscale>  0 0.20946435E+04</rscale>
<asrwt>0</asrwt>
<pdfrwt beam="1">  1        2 0.47909911E+00 0.20946435E+04</pdfrwt>
<pdfrwt beam="2">  1       -2 0.54188631E-01 0.20946435E+04</pdfrwt>
<totfact> 0.43670430E+00</totfact>
</mgrwt>
</event>
<event>
 6    1  0.1934315E-005  0.4577390E+04  0.7818608E-02  0.7897226E-01
         -2   -1    0    0    0  501 -0.00000000000E+00  0.00000000000E+00  0.25127839755E+04  0.25127839755E+04  0.00000000000E+00 0. -1.
          2   -1    0    0  501    0  0.00000000000E+00 -0.00000000000E+00 -0.20845899581E+04  0.20845899581E+04  0.00000000000E+00 0.  1.
         23    2    1    2    0    0  0.60657669063E+03 -0.22058364309E+04  0.19923728844E+03  0.22982282607E+04  0.92238819984E+02 0.  0.
         11    1    3    3    0    0  0.25345764029E+03 -0.10304030029E+04  0.56405496007E+02  0.10626159720E+04  0.00000000000E+00 0. -1.
        -11    1    3    3    0    0  0.35311905034E+03 -0.11754334279E+04  0.14283179243E+03  0.12356122888E+04  0.00000000000E+00 0.  1.
         22    1    1    2    0    0 -0.60657669063E+03  0.22058364309E+04  0.22895672892E+03  0.22991456729E+04  0.00000000000E+00 0. -1.
<mgrwt>
<rscale>  0 0.45773898E+04</rscale>
<asrwt>0</asrwt>
<pdfrwt beam="1">  1        2 0.32070615E+00 0.45773898E+04</pdfrwt>
<pdfrwt beam="2">  1       -2 0.38658215E+00 0.45773898E+04</pdfrwt>
<totfact> 0.40969912E-02</totfact>
</mgrwt>
</event>
<event>
 6    1  0.1934315E-005  0.1421973E+04  0.7818608E-02  0.8938065E-01
         -1   -1    0    0    0  501 -0.00000000000E+00  0.00000000000E+00  0.59405348537E+03  0.59405348537E+03  0.00000000000E+00 0. -1.
          1   -1    0    0  501    0  0.00000000000E+00 -0.00000000000E+00 -0.85093702895E+03  0.85093702895E+03  0.00000000000E+00 0.  1.
         23    2    1    2    0    0 -0.61227041122E+02 -0.21429810433E+03  0.55402807844E+03  0.60400889336E+03  0.90593617212E+02 0.  0.
         11    1    3    3    0    0  0.22631361219E+02 -0.29724801970E+02  0.10101135115E+03  0.10769881812E+03  0.00000000000E+00 0. -1.
        -11    1    3    3    0    0 -0.83858402340E+02 -0.18457330236E+03  0.45301672729E+03  0.49631007525E+03  0.00000000000E+00 0.  1.
         22    1    1    2    0    0  0.61227041122E+02  0.21429810433E+03 -0.81091162201E+03  0.84098162096E+03  0.00000000000E+00 0.  1.
<mgrwt>
<rscale>  0 0.14219734E+04</rscale>
<asrwt>0</asrwt>
<pdfrwt beam="1">  1        1 0.13091339E+00 0.14219734E+04</pdfrwt>
<pdfrwt beam="2">  1       -1 0.91392844E-01 0.14219734E+04</pdfrwt>
<totfact> 0.22727734E+01</totfact>
</mgrwt>
</event>
<event>
 6    1  0.1934315E-005  0.1800708E+04  0.7818608E-02  0.8705923E-01
          2   -1    0    0  501    0  0.00000000000E+00  0.00000000000E+00  0.11640116362E+04  0.11640116362E+04  0.00000000000E+00 0.  1.
         -2   -1    0    0    0  501 -0.00000000000E+00 -0.00000000000E+00 -0.69641690778E+03  0.69641690778E+03  0.00000000000E+00 0. -1.
         23    2    1    2    0    0 -0.69115967195E+03  0.12802562541E+03 -0.34310848197E+03  0.78742717014E+03  0.90696554464E+02 0.  0.
         13    1    3    3    0    0 -0.51466303679E+03  0.13330033579E+03 -0.27052505706E+03  0.59651557185E+03  0.00000000000E+00 0. -1.
        -13    1    3    3    0    0 -0.17649663516E+03 -0.52747103872E+01 -0.72583424917E+02  0.19091159830E+03  0.00000000000E+00 0.  1.
         22    1    1    2    0    0  0.69115967195E+03 -0.12802562541E+03  0.81070321037E+03  0.10730013738E+04  0.00000000000E+00 0.  1.
<mgrwt>
<rscale>  0 0.18007081E+04</rscale>
<asrwt>0</asrwt>
<pdfrwt beam="1">  1        2 0.17907871E+00 0.18007081E+04</pdfrwt>
<pdfrwt beam="2">  1       -2 0.10714106E+00 0.18007081E+04</pdfrwt>
<totfact> 0.13162544E+01</totfact>
</mgrwt>
</event>
<event>
 6    1  0.1934315E-005  0.1428958E+04  0.7818608E-02  0.8933120E-01
          2   -1    0    0  501    0  0.00000000000E+00  0.00000000000E+00  0.17303669649E+04  0.17303669649E+04  0.00000000000E+00 0.  1.
         -2   -1    0    0    0  501 -0.00000000000E+00 -0.00000000000E+00 -0.29501255474E+03  0.29501255474E+03  0.00000000000E+00 0. -1.
         23    2    1    2    0    0  0.67934806375E+03 -0.14047185166E+03  0.94464037986E+03  0.11756463895E+04  0.92481636885E+02 0.  0.
         13    1    3    3    0    0  0.36036478890E+03 -0.12041589566E+03  0.49610179459E+03  0.62488379688E+03  0.00000000000E+00 0. -1.
        -13    1    3    3    0    0  0.31898327485E+03 -0.20055956000E+02  0.44853858527E+03  0.55076259267E+03  0.00000000000E+00 0.  1.
         22    1    1    2    0    0 -0.67934806375E+03  0.14047185166E+03  0.49071403027E+03  0.84973313007E+03  0.00000000000E+00 0. -1.
<mgrwt>
<rscale>  0 0.14289576E+04</rscale>
<asrwt>0</asrwt>
<pdfrwt beam="1">  1        2 0.26621030E+00 0.14289576E+04</pdfrwt>
<pdfrwt beam="2">  1       -2 0.45386548E-01 0.14289576E+04</pdfrwt>
<totfact> 0.42172852E+01</totfact>
</mgrwt>
</event>
<event>
 6    1  0.1934315E-005  0.2879683E+04  0.7818608E-02  0.8278948E-01
         -2   -1    0    0    0  501 -0.00000000000E+00  0.00000000000E+00  0.74707696382E+03  0.74707696382E+03  0.00000000000E+00 0. -1.
          2   -1    0    0  501    0  0.00000000000E+00 -0.00000000000E+00 -0.27750071910E+04  0.27750071910E+04  0.00000000000E+00 0.  1.
         23    2    1    2    0    0 -0.90908087311E+03 -0.44710158828E+03 -0.22638546823E+04  0.24818975309E+04  0.91920981874E+02 0.  0.
         11    1    3    3    0    0 -0.49349957985E+03 -0.29241815984E+03 -0.12996594701E+04  0.14206213266E+04  0.00000000000E+00 0. -1.
        -11    1    3    3    0    0 -0.41558129326E+03 -0.15468342843E+03 -0.96419521223E+03  0.10612762042E+04  0.00000000000E+00 0.  1.
         22    1    1    2    0    0  0.90908087311E+03  0.44710158828E+03  0.23592445516E+03  0.10401866239E+04  0.00000000000E+00 0. -1.
<mgrwt>
<rscale>  0 0.28796833E+04</rscale>
<asrwt>0</asrwt>
<pdfrwt beam="1">  1        2 0.42692418E+00 0.28796833E+04</pdfrwt>
<pdfrwt beam="2">  1       -2 0.11493492E+00 0.28796833E+04</pdfrwt>
<totfact> 0.12216811E+00</totfact>
</mgrwt>
</event>
<event>
 6    1  0.1934315E-005  0.4741913E+04  0.7818608E-02  0.7869601E-01
         -3   -1    0    0    0  501 -0.00000000000E+00  0.00000000000E+00  0.28020342623E+04  0.28020342623E+04  0.00000000000E+00 0. -1.
          3   -1    0    0  501    0  0.00000000000E+00 -0.00000000000E+00 -0.20061981151E+04  0.20061981151E+04  0.00000000000E+00 0.  1.
         23    2    1    2    0    0 -0.17250876703E+04 -0.15949813655E+04  0.81963997599E+02  0.23527270379E+04  0.93345547259E+02 0.  0.
         13    1    3    3    0    0 -0.11867590622E+04 -0.10522310319E+04  0.83938340760E+02  0.15882798435E+04  0.00000000000E+00 0. -1.
        -13    1    3    3    0    0 -0.53832860817E+03 -0.54275033359E+03 -0.19743431603E+01  0.76444719440E+03  0.00000000000E+00 0.  1.
         22    1    1    2    0    0  0.17250876703E+04  0.15949813655E+04  0.71387214962E+03  0.24555053396E+04  0.00000000000E+00 0. -1.
<mgrwt>
<rscale>  0 0.47419135E+04</rscale>
<asrwt>0</asrwt>
<pdfrwt beam="1">  1        3 0.30864586E+00 0.47419135E+04</pdfrwt>
<pdfrwt beam="2">  1       -3 0.43108219E+00 0.47419135E+04</pdfrwt>
<totfact> 0.47133013E-04</totfact>
</mgrwt>
</event>
<event>
 6    1  0.1934315E-005  0.9615652E+03  0.7818608E-02  0.9351734E-01
         -2   -1    0    0    0  501 -0.00000000000E+00  0.00000000000E+00  0.15104414777E+03  0.15104414777E+03  0.00000000000E+00 0. -1.
          2   -1    0    0  501    0  0.00000000000E+00 -0.00000000000E+00 -0.15303599417E+04  0.15303599417E+04  0.00000000000E+00 0.  1.
         23    2    1    2    0    0  0.76103731350E+02  0.38081409408E+03 -0.11783440401E+04  0.12441389548E+04  0.92606208367E+02 0.  0.
         13    1    3    3    0    0  0.36263409223E+02  0.30595343584E+03 -0.82196141711E+03  0.87780585039E+03  0.00000000000E+00 0. -1.
        -13    1    3    3    0    0  0.39840322127E+02  0.74860658238E+02 -0.35638262299E+03  0.36633310441E+03  0.00000000000E+00 0.  1.
         22    1    1    2    0    0 -0.76103731350E+02 -0.38081409408E+03 -0.20097175384E+03  0.43726513469E+03  0.00000000000E+00 0. -1.
<mgrwt>
<rscale>  0 0.96156521E+03</rscale>
<asrwt>0</asrwt>
<pdfrwt beam="1">  1        2 0.23543999E+00 0.96156521E+03</pdfrwt>
<pdfrwt beam="2">  1       -2 0.23237561E-01 0.96156521E+03</pdfrwt>
<totfact> 0.19971715E+02</totfact>
</mgrwt>
</event>
<event>
 6    1  0.1934315E-005  0.2559884E+04  0.7818608E-02  0.8381957E-01
         -2   -1    0    0    0  501 -0.00000000000E+00  0.00000000000E+00  0.13052946735E+04  0.13052946735E+04  0.00000000000E+00 0. -1.
          2   -1    0    0  501    0  0.00000000000E+00 -0.00000000000E+00 -0.12550819456E+04  0.12550819456E+04  0.00000000000E+00 0.  1.
         23    2    1    2    0    0  0.44881757821E+03  0.40691513563E+03  0.11510197135E+04  0.13038762547E+04  0.90718027401E+02 0.  0.
         13    1    3    3    0    0  0.26466337607E+03  0.24362241355E+03  0.58636356747E+03  0.68791047112E+03  0.00000000000E+00 0. -1.
        -13    1    3    3    0    0  0.18415420213E+03  0.16329272208E+03  0.56465614603E+03  0.61596578354E+03  0.00000000000E+00 0.  1.
         22    1    1    2    0    0 -0.44881757821E+03 -0.40691513563E+03 -0.11008069857E+04  0.12565003644E+04  0.00000000000E+00 0.  1.
<mgrwt>
<rscale>  0 0.25598842E+04</rscale>
<asrwt>0</asrwt>
<pdfrwt beam="1">  1        2 0.19308953E+00 0.25598842E+04</pdfrwt>
<pdfrwt beam="2">  1       -2 0.20081457E+00 0.25598842E+04</pdfrwt>
<totfact> 0.20480614E+00</totfact>
</mgrwt>
</event>
<event>
 6    1  0.1934315E-005  0.3628756E+04  0.7818608E-02  0.8083936E-01
          2   -1    0    0  501    0  0.00000000000E+00  0.00000000000E+00  0.30688129851E+04  0.30688129851E+04  0.00000000000E+00 0.  1.
         -2   -1    0    0    0  501 -0.00000000000E+00 -0.00000000000E+00 -0.10727170147E+04  0.10727170147E+04  0.00000000000E+00 0. -1.
         23    2    1    2    0    0 -0.46084674150E+03  0.66179428572E+03  0.28521349951E+04  0.29654542337E+04  0.94304749166E+02 0.  0.
         13    1    3    3    0    0 -0.38059172567E+03  0.52598815627E+03  0.21539151163E+04  0.22496363996E+04  0.00000000000E+00 0.  1.
        -13    1    3    3    0    0 -0.80255015828E+02  0.13580612945E+03  0.69821987879E+03  0.71581783402E+03  0.00000000000E+00 0. -1.
         22    1    1    2    0    0  0.46084674150E+03 -0.66179428572E+03 -0.85603902475E+03  0.11760757661E+04  0.00000000000E+00 0. -1.
<mgrwt>
<rscale>  0 0.36287562E+04</rscale>
<asrwt>0</asrwt>
<pdfrwt beam="1">  1        2 0.47212507E+00 0.36287562E+04</pdfrwt>
<pdfrwt beam="2">  1       -2 0.16503339E+00 0.36287562E+04</pdfrwt>
<totfact> 0.29616179E-01</totfact>
</mgrwt>
</event>
<event>
 6    1  0.1934315E-005  0.3414203E+04  0.7818608E-02  0.8134429E-01
          2   -1    0    0  501    0  0.00000000000E+00  0.00000000000E+00  0.19910346255E+04  0.19910346255E+04  0.00000000000E+00 0.  1.
         -2   -1    0    0    0  501 -0.00000000000E+00 -0.00000000000E+00 -0.14636587748E+04  0.14636587748E+04  0.00000000000E+00 0. -1.
         23    2    1    2    0    0 -0.11377596825E+04 -0.50400370295E+03  0.14446600531E+04  0.19087544832E+04  0.88228003172E+02 0.  0.
         11    1    3    3    0    0 -0.86722143016E+03 -0.39932230510E+03  0.11593715702E+04  0.15018900592E+04  0.00000000000E+00 0. -1.
        -11    1    3    3    0    0 -0.27053825233E+03 -0.10468139785E+03  0.28528848293E+03  0.40686442400E+03  0.00000000000E+00 0.  1.
         22    1    1    2    0    0  0.11377596825E+04  0.50400370295E+03 -0.91728420236E+03  0.15459389172E+04  0.00000000000E+00 0. -1.
<mgrwt>
<rscale>  0 0.34142029E+04</rscale>
<asrwt>0</asrwt>
<pdfrwt beam="1">  1        2 0.30631302E+00 0.34142029E+04</pdfrwt>
<pdfrwt beam="2">  1       -2 0.22517827E+00 0.34142029E+04</pdfrwt>
<totfact> 0.51267767E-01</totfact>
</mgrwt>
</event>
<event>
 6    1  0.1934315E-005  0.1955643E+04  0.7818608E-02  0.8627645E-01
          2   -1    0    0  501    0  0.00000000000E+00  0.00000000000E+00  0.25168309628E+04  0.25168309628E+04  0.00000000000E+00 0.  1.
         -2   -1    0    0    0  501 -0.00000000000E+00 -0.00000000000E+00 -0.37989624538E+03  0.37989624538E+03  0.00000000000E+00 0. -1.
         23    2    1    2    0    0  0.26415667951E+03 -0.59243099123E+03 -0.89373041650E+01  0.65496005619E+03  0.90219560493E+02 0.  0.
         13    1    3    3    0    0  0.19710493038E+03 -0.51828771477E+03 -0.16122354691E+02  0.55473636909E+03  0.00000000000E+00 0.  1.
        -13    1    3    3    0    0  0.67051749132E+02 -0.74143276457E+02  0.71850505257E+01  0.10022368710E+03  0.00000000000E+00 0. -1.
         22    1    1    2    0    0 -0.26415667951E+03  0.59243099123E+03  0.21458720216E+04  0.22417671520E+04  0.00000000000E+00 0.  1.
<mgrwt>
<rscale>  0 0.19556427E+04</rscale>
<asrwt>0</asrwt>
<pdfrwt beam="1">  1        2 0.38720475E+00 0.19556427E+04</pdfrwt>
<pdfrwt beam="2">  1       -2 0.58445578E-01 0.19556427E+04</pdfrwt>
<totfact> 0.86939155E+00</totfact>
</mgrwt>
</event>
<event>
 6    1  0.1934315E-005  0.2357359E+04  0.7818608E-02  0.8455643E-01
          2   -1    0    0  501    0  0.00000000000E+00  0.00000000000E+00  0.19713169969E+04  0.19713169969E+04  0.00000000000E+00 0.  1.
         -2   -1    0    0    0  501 -0.00000000000E+00 -0.00000000000E+00 -0.70474963416E+03  0.70474963416E+03  0.00000000000E+00 0. -1.
         23    2    1    2    0    0  0.34409351301E+03  0.12051262119E+03  0.19044677027E+04  0.19413282551E+04  0.93992157793E+02 0.  0.
         13    1    3    3    0    0  0.20757973665E+03  0.98802736953E+02  0.98132697817E+03  0.10078958111E+04  0.00000000000E+00 0.  1.
        -13    1    3    3    0    0  0.13651377636E+03  0.21709884241E+02  0.92314072453E+03  0.93343244399E+03  0.00000000000E+00 0. -1.
         22    1    1    2    0    0 -0.34409351301E+03 -0.12051262119E+03 -0.63790033992E+03  0.73473837604E+03  0.00000000000E+00 0. -1.
<mgrwt>
<rscale>  0 0.23573586E+04</rscale>
<asrwt>0</asrwt>
<pdfrwt beam="1">  1        2 0.30327954E+00 0.23573586E+04</pdfrwt>
<pdfrwt beam="2">  1       -2 0.10842302E+00 0.23573586E+04</pdfrwt>
<totfact> 0.42554531E+00</totfact>
</mgrwt>
</event>
<event>
 6    1  0.1934315E-005  0.1960550E+04  0.7818608E-02  0.8625290E-01
          2   -1    0    0  501    0  0.00000000000E+00  0.00000000000E+00  0.90394465922E+03  0.90394465922E+03  0.00000000000E+00 0.  1.
         -2   -1    0    0    0  501 -0.00000000000E+00 -0.00000000000E+00 -0.10630512238E+04  0.10630512238E+04  0.00000000000E+00 0. -1.
         23    2    1    2    0    0 -0.93813250350E+03 -0.20194046170E+03  0.11007794550E+03  0.97033503564E+03  0.92522338497E+02 0.  0.
         11    1    3    3    0    0 -0.69014026558E+03 -0.11468271663E+03  0.10461686819E+03  0.70738278236E+03  0.00000000000E+00 0.  1.
        -11    1    3    3    0    0 -0.24799223792E+03 -0.87257745069E+02  0.54610773153E+01  0.26295225329E+03  0.00000000000E+00 0. -1.
         22    1    1    2    0    0  0.93813250350E+03  0.20194046170E+03 -0.26918451006E+03  0.99666084735E+03  0.00000000000E+00 0.  1.
<mgrwt>
<rscale>  0 0.19605504E+04</rscale>
<asrwt>0</asrwt>
<pdfrwt beam="1">  1        2 0.13906841E+00 0.19605504E+04</pdfrwt>
<pdfrwt beam="2">  1       -2 0.16354634E+00 0.19605504E+04</pdfrwt>
<totfact> 0.64412938E+00</totfact>
</mgrwt>
</event>
<event>
 6    1  0.1934315E-005  0.2636904E+04  0.7818608E-02  0.8355773E-01
         -1   -1    0    0    0  501 -0.00000000000E+00  0.00000000000E+00  0.83693913322E+03  0.83693913322E+03  0.00000000000E+00 0. -1.
          1   -1    0    0  501    0  0.00000000000E+00 -0.00000000000E+00 -0.20769910543E+04  0.20769910543E+04  0.00000000000E+00 0.  1.
         23    2    1    2    0    0 -0.72476152643E+03 -0.66565041745E+03  0.34763909618E+03  0.10460082098E+04  0.70074855746E+02 0.  0.
         11    1    3    3    0    0 -0.38375868624E+03 -0.39827554796E+03  0.18599269353E+03  0.58351300192E+03  0.00000000000E+00 0.  1.
        -11    1    3    3    0    0 -0.34100284020E+03 -0.26737486949E+03  0.16164640265E+03  0.46249520792E+03  0.00000000000E+00 0. -1.
         22    1    1    2    0    0  0.72476152643E+03  0.66565041745E+03 -0.15876910173E+04  0.18679219777E+04  0.00000000000E+00 0.  1.
<mgrwt>
<rscale>  0 0.26369036E+04</rscale>
<asrwt>0</asrwt>
<pdfrwt beam="1">  1        1 0.31953708E+00 0.26369036E+04</pdfrwt>
<pdfrwt beam="2">  1       -1 0.12875987E+00 0.26369036E+04</pdfrwt>
<totfact> 0.12048564E+00</totfact>
</mgrwt>
</event>
<event>
 6    1  0.1934315E-005  0.2623375E+04  0.7818608E-02  0.8360304E-01
          4   -1    0    0  501    0  0.00000000000E+00  0.00000000000E+00  0.14021222957E+04  0.14021222957E+04  0.00000000000E+00 0.  1.
         -4   -1    0    0    0  501 -0.00000000000E+00 -0.00000000000E+00 -0.12270856697E+04  0.12270856697E+04  0.00000000000E+00 0. -1.
         23    2    1    2    0    0  0.44620251050E+03 -0.10960528856E+04 -0.47560660657E+03  0.12787394450E+04  0.92435468274E+02 0.  0.
         11    1    3    3    0    0  0.23469885826E+03 -0.69199078960E+03 -0.30487279605E+03  0.79175894610E+03  0.00000000000E+00 0.  1.
        -11    1    3    3    0    0  0.21150365224E+03 -0.40406209595E+03 -0.17073381052E+03  0.48698049894E+03  0.00000000000E+00 0. -1.
         22    1    1    2    0    0 -0.44620251050E+03  0.10960528856E+04  0.65064323254E+03  0.13504685203E+04  0.00000000000E+00 0.  1.
<mgrwt>
<rscale>  0 0.26233751E+04</rscale>
<asrwt>0</asrwt>
<pdfrwt beam="1">  1        4 0.21571112E+00 0.26233751E+04</pdfrwt>
<pdfrwt beam="2">  1       -4 0.18878241E+00 0.26233751E+04</pdfrwt>
<totfact> 0.28600749E-02</totfact>
</mgrwt>
</event>
<event>
 6    1  0.1934315E-005  0.2646684E+04  0.7818608E-02  0.8352514E-01
         -2   -1    0    0    0  501 -0.00000000000E+00  0.00000000000E+00  0.83087769411E+03  0.83087769411E+03  0.00000000000E+00 0.  1.
          2   -1    0    0  501    0  0.00000000000E+00 -0.00000000000E+00 -0.21076919388E+04  0.21076919388E+04  0.00000000000E+00 0. -1.
         23    2    1    2    0    0 -0.11893489358E+04 -0.56534029514E+03 -0.76565179018E+03  0.15259665056E+04  0.90501778937E+02 0.  0.
         11    1    3    3    0    0 -0.79449924503E+03 -0.33006947006E+03 -0.49519011684E+03  0.99266719359E+03  0.00000000000E+00 0.  1.
        -11    1    3    3    0    0 -0.39484969077E+03 -0.23527082508E+03 -0.27046167334E+03  0.53329931201E+03  0.00000000000E+00 0. -1.
         22    1    1    2    0    0  0.11893489358E+04  0.56534029514E+03 -0.51116245453E+03  0.14126031273E+04  0.00000000000E+00 0. -1.
<mgrwt>
<rscale>  0 0.26466841E+04</rscale>
<asrwt>0</asrwt>
<pdfrwt beam="1">  1        2 0.32426029E+00 0.26466841E+04</pdfrwt>
<pdfrwt beam="2">  1       -2 0.12782734E+00 0.26466841E+04</pdfrwt>
<totfact> 0.23233713E+00</totfact>
</mgrwt>
</event>
<event>
 6    1  0.1934315E-005  0.1250552E+04  0.7818608E-02  0.9069724E-01
          2   -1    0    0  501    0  0.00000000000E+00  0.00000000000E+00  0.59943264275E+03  0.59943264275E+03  0.00000000000E+00 0.  1.
         -2   -1    0    0    0  501 -0.00000000000E+00 -0.00000000000E+00 -0.65223346780E+03  0.65223346780E+03  0.00000000000E+00 0. -1.
         23    2    1    2    0    0  0.84420182162E+02  0.14296885371E+03 -0.62388663881E+03  0.65693435004E+03  0.12149626287E+03 0.  0.
         13    1    3    3    0    0  0.61928816570E+01 -0.11188870607E+02 -0.18181989353E+03  0.18226907662E+03  0.00000000000E+00 0.  1.
        -13    1    3    3    0    0  0.78227300505E+02  0.15415772431E+03 -0.44206674528E+03  0.47466527342E+03  0.00000000000E+00 0. -1.
         22    1    1    2    0    0 -0.84420182162E+02 -0.14296885371E+03  0.57108581376E+03  0.59473176051E+03  0.00000000000E+00 0.  1.
<mgrwt>
<rscale>  0 0.12505519E+04</rscale>
<asrwt>0</asrwt>
<pdfrwt beam="1">  1        2 0.92220407E-01 0.12505519E+04</pdfrwt>
<pdfrwt beam="2">  1       -2 0.10034361E+00 0.12505519E+04</pdfrwt>
<totfact> 0.40017911E+01</totfact>
</mgrwt>
</event>
<event>
 6    1  0.1934315E-005  0.3372797E+04  0.7818608E-02  0.8144615E-01
          2   -1    0    0  501    0  0.00000000000E+00  0.00000000000E+00  0.29552844467E+04  0.29552844467E+04  0.00000000000E+00 0.  1.
         -2   -1    0    0    0  501 -0.00000000000E+00 -0.00000000000E+00 -0.96232381017E+03  0.96232381017E+03  0.00000000000E+00 0. -1.
         23    2    1    2    0    0 -0.10444838105E+04 -0.44078241647E+03 -0.45095612504E+03  0.12235472504E+04  0.92037373161E+02 0.  0.
         13    1    3    3    0    0 -0.59933859898E+03 -0.22547207885E+03 -0.21346466991E+03  0.67499005908E+03  0.00000000000E+00 0. -1.
        -13    1    3    3    0    0 -0.44514521156E+03 -0.21531033762E+03 -0.23749145513E+03  0.54855719129E+03  0.00000000000E+00 0.  1.
         22    1    1    2    0    0  0.10444838105E+04  0.44078241647E+03  0.24439167615E+04  0.26940610064E+04  0.00000000000E+00 0.  1.
<mgrwt>
<rscale>  0 0.33727974E+04</rscale>
<asrwt>0</asrwt>
<pdfrwt beam="1">  1        2 0.45465914E+00 0.33727974E+04</pdfrwt>
<pdfrwt beam="2">  1       -2 0.14804982E+00 0.33727974E+04</pdfrwt>
<totfact> 0.47788724E-01</totfact>
</mgrwt>
</event>
<event>
 6    1  0.1934315E-005  0.4080180E+04  0.7818608E-02  0.7988564E-01
         -2   -1    0    0    0  501 -0.00000000000E+00  0.00000000000E+00  0.16781219191E+04  0.16781219191E+04  0.00000000000E+00 0. -1.
          2   -1    0    0  501    0  0.00000000000E+00 -0.00000000000E+00 -0.24801341169E+04  0.24801341169E+04  0.00000000000E+00 0.  1.
         23    2    1    2    0    0  0.25945477988E+03  0.18704134345E+04  0.38293089564E+03  0.19289392498E+04  0.91691655083E+02 0.  0.
         11    1    3    3    0    0  0.30258640895E+02  0.50828393740E+03  0.94969661725E+02  0.51796465421E+03  0.00000000000E+00 0. -1.
        -11    1    3    3    0    0  0.22919613898E+03  0.13621294971E+04  0.28796123392E+03  0.14109745956E+04  0.00000000000E+00 0.  1.
         22    1    1    2    0    0 -0.25945477988E+03 -0.18704134345E+04 -0.11849430934E+04  0.22293167862E+04  0.00000000000E+00 0.  1.
<mgrwt>
<rscale>  0 0.40801801E+04</rscale>
<asrwt>0</asrwt>
<pdfrwt beam="1">  1        2 0.38155909E+00 0.40801801E+04</pdfrwt>
<pdfrwt beam="2">  1       -2 0.25817260E+00 0.40801801E+04</pdfrwt>
<totfact> 0.16040258E-01</totfact>
</mgrwt>
</event>
<event>
 6    1  0.1934315E-005  0.3539593E+04  0.7818608E-02  0.8104471E-01
          2   -1    0    0  501    0  0.00000000000E+00  0.00000000000E+00  0.18501762426E+04  0.18501762426E+04  0.00000000000E+00 0.  1.
         -2   -1    0    0    0  501 -0.00000000000E+00 -0.00000000000E+00 -0.16929087467E+04  0.16929087467E+04  0.00000000000E+00 0. -1.
         23    2    1    2    0    0 -0.87531707976E+03 -0.72553893973E+03 -0.12774705615E+04  0.17124949105E+04  0.90116812619E+02 0.  0.
         13    1    3    3    0    0 -0.28542930692E+03 -0.25844918525E+03 -0.37467973998E+03  0.53726229921E+03  0.00000000000E+00 0. -1.
        -13    1    3    3    0    0 -0.58988777284E+03 -0.46708975449E+03 -0.90279082151E+03  0.11752326113E+04  0.00000000000E+00 0.  1.
         22    1    1    2    0    0  0.87531707976E+03  0.72553893973E+03  0.14347380574E+04  0.18305900788E+04  0.00000000000E+00 0.  1.
<mgrwt>
<rscale>  0 0.35395929E+04</rscale>
<asrwt>0</asrwt>
<pdfrwt beam="1">  1        2 0.28464250E+00 0.35395929E+04</pdfrwt>
<pdfrwt beam="2">  1       -2 0.26044750E+00 0.35395929E+04</pdfrwt>
<totfact> 0.36751322E-01</totfact>
</mgrwt>
</event>
<event>
 6    1  0.1934315E-005  0.1275594E+04  0.7818608E-02  0.9049147E-01
         -2   -1    0    0    0  501 -0.00000000000E+00  0.00000000000E+00  0.29072074622E+03  0.29072074622E+03  0.00000000000E+00 0. -1.
          2   -1    0    0  501    0  0.00000000000E+00 -0.00000000000E+00 -0.13992286834E+04  0.13992286834E+04  0.00000000000E+00 0.  1.
         23    2    1    2    0    0  0.45376282229E+03 -0.34239405480E+03 -0.93073845393E+03  0.10943519340E+04  0.90541140493E+02 0.  0.
         11    1    3    3    0    0  0.35580588055E+03 -0.30324062879E+03 -0.79729768196E+03  0.92424904503E+03  0.00000000000E+00 0.  1.
        -11    1    3    3    0    0  0.97956941746E+02 -0.39153426008E+02 -0.13344077197E+03  0.17010288894E+03  0.00000000000E+00 0. -1.
         22    1    1    2    0    0 -0.45376282229E+03  0.34239405480E+03 -0.17776948327E+03  0.59559749566E+03  0.00000000000E+00 0. -1.
<mgrwt>
<rscale>  0 0.12755937E+04</rscale>
<asrwt>0</asrwt>
<pdfrwt beam="1">  1        2 0.21526595E+00 0.12755937E+04</pdfrwt>
<pdfrwt beam="2">  1       -2 0.44726269E-01 0.12755937E+04</pdfrwt>
<totfact> 0.67393990E+01</totfact>
</mgrwt>
</event>
<event>
 6    1  0.1934315E-005  0.1546874E+04  0.7818608E-02  0.8853867E-01
         -2   -1    0    0    0  501 -0.00000000000E+00  0.00000000000E+00  0.34646794249E+03  0.34646794249E+03  0.00000000000E+00 0. -1.
          2   -1    0    0  501    0  0.00000000000E+00 -0.00000000000E+00 -0.17265797004E+04  0.17265797004E+04  0.00000000000E+00 0.  1.
         23    2    1    2    0    0 -0.63267900003E+03 -0.40541581050E+03 -0.92289525276E+03  0.11934502185E+04  0.89123958259E+02 0.  0.
         13    1    3    3    0    0 -0.33734383743E+03 -0.25930626484E+03 -0.55957134956E+03  0.70296564559E+03  0.00000000000E+00 0.  1.
        -13    1    3    3    0    0 -0.29533516260E+03 -0.14610954567E+03 -0.36332390320E+03  0.49048457289E+03  0.00000000000E+00 0. -1.
         22    1    1    2    0    0  0.63267900003E+03  0.40541581050E+03 -0.45721650519E+03  0.87959742445E+03  0.00000000000E+00 0. -1.
<mgrwt>
<rscale>  0 0.15468736E+04</rscale>
<asrwt>0</asrwt>
<pdfrwt beam="1">  1        2 0.26562765E+00 0.15468736E+04</pdfrwt>
<pdfrwt beam="2">  1       -2 0.53302760E-01 0.15468736E+04</pdfrwt>
<totfact> 0.30275984E+01</totfact>
</mgrwt>
</event>
<event>
 6    1  0.1934315E-005  0.2628537E+04  0.7818608E-02  0.8358572E-01
         -2   -1    0    0    0  501 -0.00000000000E+00  0.00000000000E+00  0.14171635014E+04  0.14171635014E+04  0.00000000000E+00 0. -1.
          2   -1    0    0  501    0  0.00000000000E+00 -0.00000000000E+00 -0.12188439019E+04  0.12188439019E+04  0.00000000000E+00 0.  1.
         23    2    1    2    0    0 -0.23091873016E+03 -0.50149908620E+03  0.12937947070E+04  0.14092676164E+04  0.85473254520E+02 0.  0.
         13    1    3    3    0    0 -0.88060742542E+02 -0.29278825819E+03  0.70186677542E+03  0.76556948016E+03  0.00000000000E+00 0. -1.
        -13    1    3    3    0    0 -0.14285798762E+03 -0.20871082802E+03  0.59192793161E+03  0.64369813622E+03  0.00000000000E+00 0.  1.
         22    1    1    2    0    0  0.23091873016E+03  0.50149908620E+03 -0.10954751075E+04  0.12267397868E+04  0.00000000000E+00 0.  1.
<mgrwt>
<rscale>  0 0.26285365E+04</rscale>
<asrwt>0</asrwt>
<pdfrwt beam="1">  1        2 0.18751445E+00 0.26285365E+04</pdfrwt>
<pdfrwt beam="2">  1       -2 0.21802515E+00 0.26285365E+04</pdfrwt>
<totfact> 0.16569037E+00</totfact>
</mgrwt>
</event>
<event>
 6    1  0.1934315E-005  0.2572248E+04  0.7818608E-02  0.8377690E-01
          2   -1    0    0  501    0  0.00000000000E+00  0.00000000000E+00  0.19075819803E+04  0.19075819803E+04  0.00000000000E+00 0.  1.
         -2   -1    0    0    0  501 -0.00000000000E+00 -0.00000000000E+00 -0.86712635357E+03  0.86712635357E+03  0.00000000000E+00 0. -1.
         23    2    1    2    0    0  0.10681949879E+04  0.47607663838E+03 -0.52116273048E+02  0.11742700020E+04  0.92219487512E+02 0.  0.
         13    1    3    3    0    0  0.19734617846E+03  0.92752485969E+02  0.25937070436E+02  0.21959341846E+03  0.00000000000E+00 0. -1.
        -13    1    3    3    0    0  0.87084880947E+03  0.38332415241E+03 -0.78053343484E+02  0.95467658357E+03  0.00000000000E+00 0.  1.
         22    1    1    2    0    0 -0.10681949879E+04 -0.47607663838E+03  0.10925718998E+04  0.16004383319E+04  0.00000000000E+00 0. -1.
<mgrwt>
<rscale>  0 0.25722477E+04</rscale>
<asrwt>0</asrwt>
<pdfrwt beam="1">  1        2 0.29347415E+00 0.25722477E+04</pdfrwt>
<pdfrwt beam="2">  1       -2 0.13340405E+00 0.25722477E+04</pdfrwt>
<totfact> 0.27116742E+00</totfact>
</mgrwt>
</event>
<event>
 6    1  0.1934315E-005  0.3119557E+04  0.7818608E-02  0.8210391E-01
          1   -1    0    0  501    0  0.00000000000E+00  0.00000000000E+00  0.14030302509E+04  0.14030302509E+04  0.00000000000E+00 0. -1.
         -1   -1    0    0    0  501 -0.00000000000E+00 -0.00000000000E+00 -0.17340388556E+04  0.17340388556E+04  0.00000000000E+00 0.  1.
         23    2    1    2    0    0  0.71604592769E+03 -0.11303518135E+04 -0.96796036788E+03  0.16551364017E+04  0.11005562991E+03 0.  0.
         13    1    3    3    0    0  0.13614287492E+03 -0.27146386663E+03 -0.26322758950E+03  0.40189087717E+03  0.00000000000E+00 0. -1.
        -13    1    3    3    0    0  0.57990305277E+03 -0.85888794682E+03 -0.70473277838E+03  0.12532455245E+04  0.00000000000E+00 0.  1.
         22    1    1    2    0    0 -0.71604592769E+03  0.11303518135E+04  0.63695176323E+03  0.14819327048E+04  0.00000000000E+00 0. -1.
<mgrwt>
<rscale>  0 0.31195570E+04</rscale>
<asrwt>0</asrwt>
<pdfrwt beam="1">  1        1 0.21585081E+00 0.31195570E+04</pdfrwt>
<pdfrwt beam="2">  1       -1 0.26677521E+00 0.31195570E+04</pdfrwt>
<totfact> 0.34918692E-01</totfact>
</mgrwt>
</event>
<event>
 6    1  0.1934315E-005  0.3978795E+04  0.7818608E-02  0.8008838E-01
          2   -1    0    0  501    0  0.00000000000E+00  0.00000000000E+00  0.10919759384E+04  0.10919759384E+04  0.00000000000E+00 0.  1.
         -2   -1    0    0    0  501 -0.00000000000E+00 -0.00000000000E+00 -0.36243494257E+04  0.36243494257E+04  0.00000000000E+00 0. -1.
         23    2    1    2    0    0 -0.35296334291E+03 -0.41776039083E+03 -0.35328941173E+04  0.35760848646E+04  0.89080015780E+02 0.  0.
         11    1    3    3    0    0 -0.21432850198E+03 -0.18639134000E+03 -0.17485416059E+04  0.17714615959E+04  0.00000000000E+00 0. -1.
        -11    1    3    3    0    0 -0.13863484093E+03 -0.23136905083E+03 -0.17843525115E+04  0.18046232687E+04  0.00000000000E+00 0.  1.
         22    1    1    2    0    0  0.35296334291E+03  0.41776039083E+03  0.10005206300E+04  0.11402404995E+04  0.00000000000E+00 0.  1.
<mgrwt>
<rscale>  0 0.39787950E+04</rscale>
<asrwt>0</asrwt>
<pdfrwt beam="1">  1        2 0.16799630E+00 0.39787950E+04</pdfrwt>
<pdfrwt beam="2">  1       -2 0.55759223E+00 0.39787950E+04</pdfrwt>
<totfact> 0.13616045E-02</totfact>
</mgrwt>
</event>
<event>
 6    1  0.1934315E-005  0.7170786E+04  0.7818608E-02  0.7560074E-01
          2   -1    0    0  501    0  0.00000000000E+00  0.00000000000E+00  0.44062728074E+04  0.44062728074E+04  0.00000000000E+00 0.  1.
         -2   -1    0    0    0  501 -0.00000000000E+00 -0.00000000000E+00 -0.29174417409E+04  0.29174417409E+04  0.00000000000E+00 0. -1.
         23    2    1    2    0    0 -0.18191438944E+04 -0.17265007146E+04  0.33605594300E+04  0.41942647097E+04  0.91692676819E+02 0.  0.
         11    1    3    3    0    0 -0.44891571988E+03 -0.38230362314E+03  0.75260389244E+03  0.95608263384E+03  0.00000000000E+00 0.  1.
        -11    1    3    3    0    0 -0.13702281745E+04 -0.13441970914E+04  0.26079555375E+04  0.32381820759E+04  0.00000000000E+00 0. -1.
         22    1    1    2    0    0  0.18191438944E+04  0.17265007146E+04 -0.18717283634E+04  0.31294498386E+04  0.00000000000E+00 0. -1.
<mgrwt>
<rscale>  0 0.71707863E+04</rscale>
<asrwt>0</asrwt>
<pdfrwt beam="1">  1        2 0.67788813E+00 0.71707863E+04</pdfrwt>
<pdfrwt beam="2">  1       -2 0.44883719E+00 0.71707863E+04</pdfrwt>
<totfact> 0.32757685E-04</totfact>
</mgrwt>
</event>
<event>
 6    1  0.1934315E-005  0.3979066E+04  0.7818608E-02  0.8008783E-01
          1   -1    0    0  501    0  0.00000000000E+00  0.00000000000E+00  0.40779653480E+04  0.40779653480E+04  0.00000000000E+00 0.  1.
         -1   -1    0    0    0  501 -0.00000000000E+00 -0.00000000000E+00 -0.97064112733E+03  0.97064112733E+03  0.00000000000E+00 0. -1.
         23    2    1    2    0    0  0.18614895998E+04 -0.47110238050E+03  0.22102776477E+04  0.29292260146E+04  0.89200793125E+02 0.  0.
         11    1    3    3    0    0  0.64763735435E+03 -0.12302580646E+03  0.73546659185E+03  0.98766421396E+03  0.00000000000E+00 0.  1.
        -11    1    3    3    0    0  0.12138522455E+04 -0.34807657404E+03  0.14748110559E+04  0.19415618007E+04  0.00000000000E+00 0. -1.
         22    1    1    2    0    0 -0.18614895998E+04  0.47110238050E+03  0.89704657292E+03  0.21193804607E+04  0.00000000000E+00 0. -1.
<mgrwt>
<rscale>  0 0.39790657E+04</rscale>
<asrwt>0</asrwt>
<pdfrwt beam="1">  1        1 0.62737928E+00 0.39790657E+04</pdfrwt>
<pdfrwt beam="2">  1       -1 0.14932941E+00 0.39790657E+04</pdfrwt>
<totfact> 0.22561136E-02</totfact>
</mgrwt>
</event>
<event>
 6    1  0.1934315E-005  0.2656002E+04  0.7818608E-02  0.8349423E-01
          2   -1    0    0  501    0  0.00000000000E+00  0.00000000000E+00  0.11158848612E+04  0.11158848612E+04  0.00000000000E+00 0.  1.
         -2   -1    0    0    0  501 -0.00000000000E+00 -0.00000000000E+00 -0.15804383817E+04  0.15804383817E+04  0.00000000000E+00 0. -1.
         23    2    1    2    0    0  0.84326289841E+03  0.31119477337E+03 -0.12227588203E+04  0.15203939169E+04  0.92325658496E+02 0.  0.
         13    1    3    3    0    0  0.64118436362E+03  0.26176280250E+03 -0.99025369816E+03  0.12084037155E+04  0.00000000000E+00 0. -1.
        -13    1    3    3    0    0  0.20207853479E+03  0.49431970868E+02 -0.23250512216E+03  0.31199020144E+03  0.00000000000E+00 0.  1.
         22    1    1    2    0    0 -0.84326289841E+03 -0.31119477337E+03  0.75820529980E+03  0.11759293259E+04  0.00000000000E+00 0.  1.
<mgrwt>
<rscale>  0 0.26560025E+04</rscale>
<asrwt>0</asrwt>
<pdfrwt beam="1">  1        2 0.17167459E+00 0.26560025E+04</pdfrwt>
<pdfrwt beam="2">  1       -2 0.24314437E+00 0.26560025E+04</pdfrwt>
<totfact> 0.13283280E+00</totfact>
</mgrwt>
</event>
<event>
 6    1  0.1934315E-005  0.4683015E+04  0.7818608E-02  0.7879357E-01
          2   -1    0    0  501    0  0.00000000000E+00  0.00000000000E+00  0.18784947320E+04  0.18784947320E+04  0.00000000000E+00 0.  1.
         -2   -1    0    0    0  501 -0.00000000000E+00 -0.00000000000E+00 -0.29186443712E+04  0.29186443712E+04  0.00000000000E+00 0. -1.
         23    2    1    2    0    0  0.65257163286E+03 -0.16593457952E+04  0.10329425355E+04  0.20627306903E+04  0.92786932971E+02 0.  0.
         13    1    3    3    0    0  0.23150611908E+03 -0.47332403792E+03  0.30158947388E+03  0.60711361276E+03  0.00000000000E+00 0. -1.
        -13    1    3    3    0    0  0.42106551378E+03 -0.11860217572E+04  0.73135306162E+03  0.14556170775E+04  0.00000000000E+00 0.  1.
         22    1    1    2    0    0 -0.65257163286E+03  0.16593457952E+04 -0.20730921747E+04  0.27344084130E+04  0.00000000000E+00 0. -1.
<mgrwt>
<rscale>  0 0.46830153E+04</rscale>
<asrwt>0</asrwt>
<pdfrwt beam="1">  1        2 0.28899919E+00 0.46830153E+04</pdfrwt>
<pdfrwt beam="2">  1       -2 0.44902221E+00 0.46830153E+04</pdfrwt>
<totfact> 0.20566388E-02</totfact>
</mgrwt>
</event>
<event>
 6    1  0.1934315E-005  0.2806582E+04  0.7818608E-02  0.8301228E-01
          2   -1    0    0  501    0  0.00000000000E+00  0.00000000000E+00  0.15488717389E+04  0.15488717389E+04  0.00000000000E+00 0.  1.
         -2   -1    0    0    0  501 -0.00000000000E+00 -0.00000000000E+00 -0.12713936658E+04  0.12713936658E+04  0.00000000000E+00 0. -1.
         23    2    1    2    0    0 -0.50532647089E+03  0.10692405096E+04 -0.61738486881E+03  0.13372246790E+04  0.91518611033E+02 0.  0.
         11    1    3    3    0    0 -0.27255159496E+03  0.54278035741E+03 -0.36584148063E+03  0.70903799422E+03  0.00000000000E+00 0.  1.
        -11    1    3    3    0    0 -0.23277487593E+03  0.52646015222E+03 -0.25154338818E+03  0.62818668473E+03  0.00000000000E+00 0. -1.
         22    1    1    2    0    0  0.50532647089E+03 -0.10692405096E+04  0.89486294187E+03  0.14830407258E+04  0.00000000000E+00 0.  1.
<mgrwt>
<rscale>  0 0.28065821E+04</rscale>
<asrwt>0</asrwt>
<pdfrwt beam="1">  1        2 0.23828796E+00 0.28065821E+04</pdfrwt>
<pdfrwt beam="2">  1       -2 0.19559903E+00 0.28065821E+04</pdfrwt>
<totfact> 0.14736045E+00</totfact>
</mgrwt>
</event>
<event>
 6    1  0.1934315E-005  0.3283845E+04  0.7818608E-02  0.8167018E-01
          2   -1    0    0  501    0  0.00000000000E+00  0.00000000000E+00  0.21981680260E+04  0.21981680260E+04  0.00000000000E+00 0.  1.
         -2   -1    0    0    0  501 -0.00000000000E+00 -0.00000000000E+00 -0.12264350181E+04  0.12264350181E+04  0.00000000000E+00 0. -1.
         23    2    1    2    0    0 -0.89743074388E+03  0.13473564469E+04  0.76386712976E+03  0.17924389720E+04  0.92699198933E+02 0.  0.
         11    1    3    3    0    0 -0.64099184134E+03  0.95523467730E+03  0.58855297609E+03  0.12921835919E+04  0.00000000000E+00 0.  1.
        -11    1    3    3    0    0 -0.25643890254E+03  0.39212176955E+03  0.17531415367E+03  0.50025538015E+03  0.00000000000E+00 0. -1.
         22    1    1    2    0    0  0.89743074388E+03 -0.13473564469E+04  0.20786587819E+03  0.16321640721E+04  0.00000000000E+00 0. -1.
<mgrwt>
<rscale>  0 0.32838455E+04</rscale>
<asrwt>0</asrwt>
<pdfrwt beam="1">  1        2 0.33817970E+00 0.32838455E+04</pdfrwt>
<pdfrwt beam="2">  1       -2 0.18868231E+00 0.32838455E+04</pdfrwt>
<totfact> 0.68481324E-01</totfact>
</mgrwt>
</event>
<event>
 6    1  0.1934315E-005  0.2421577E+04  0.7818608E-02  0.8431469E-01
         -2   -1    0    0    0  501 -0.00000000000E+00  0.00000000000E+00  0.85960708982E+03  0.85960708982E+03  0.00000000000E+00 0. -1.
          2   -1    0    0  501    0  0.00000000000E+00 -0.00000000000E+00 -0.17054410104E+04  0.17054410104E+04  0.00000000000E+00 0.  1.
         23    2    1    2    0    0 -0.57855366573E+02  0.12028327957E+04 -0.30979339488E+03  0.12469079624E+04  0.93024411443E+02 0.  0.
         13    1    3    3    0    0  0.16083734050E+02  0.22813593494E+03 -0.33733162810E+02  0.23117659394E+03  0.00000000000E+00 0. -1.
        -13    1    3    3    0    0 -0.73939100623E+02  0.97469686079E+03 -0.27606023207E+03  0.10157313684E+04  0.00000000000E+00 0.  1.
         22    1    1    2    0    0  0.57855366573E+02 -0.12028327957E+04 -0.53604052574E+03  0.13181401379E+04  0.00000000000E+00 0.  1.
<mgrwt>
<rscale>  0 0.24215773E+04</rscale>
<asrwt>0</asrwt>
<pdfrwt beam="1">  1        2 0.26237554E+00 0.24215773E+04</pdfrwt>
<pdfrwt beam="2">  1       -2 0.13224725E+00 0.24215773E+04</pdfrwt>
<totfact> 0.36354207E+00</totfact>
</mgrwt>
</event>
<event>
 6    1  0.1934315E-005  0.2171671E+04  0.7818608E-02  0.8530313E-01
          3   -1    0    0  501    0  0.00000000000E+00  0.00000000000E+00  0.48470392414E+03  0.48470392414E+03  0.00000000000E+00 0.  1.
         -3   -1    0    0    0  501 -0.00000000000E+00 -0.00000000000E+00 -0.24324921068E+04  0.24324921068E+04  0.00000000000E+00 0. -1.
         23    2    1    2    0    0 -0.49291829626E+03 -0.12409586556E+03 -0.22615996823E+04  0.23198302402E+04  0.91711446568E+02 0.  0.
         11    1    3    3    0    0 -0.26101378367E+03 -0.20842589227E+02 -0.12131936990E+04  0.12411291472E+04  0.00000000000E+00 0. -1.
        -11    1    3    3    0    0 -0.23190451260E+03 -0.10325327634E+03 -0.10484059833E+04  0.10787010929E+04  0.00000000000E+00 0.  1.
         22    1    1    2    0    0  0.49291829626E+03  0.12409586556E+03  0.31381149968E+03  0.59736579076E+03  0.00000000000E+00 0.  1.
<mgrwt>
<rscale>  0 0.21716708E+04</rscale>
<asrwt>0</asrwt>
<pdfrwt beam="1">  1        3 0.74569834E-01 0.21716708E+04</pdfrwt>
<pdfrwt beam="2">  1       -3 0.37422956E+00 0.21716708E+04</pdfrwt>
<totfact> 0.59814188E-02</totfact>
</mgrwt>
</event>
<event>
 6    1  0.1934315E-005  0.2647242E+04  0.7818608E-02  0.8352329E-01
         -2   -1    0    0    0  501 -0.00000000000E+00  0.00000000000E+00  0.75989063829E+03  0.75989063829E+03  0.00000000000E+00 0. -1.
          2   -1    0    0  501    0  0.00000000000E+00 -0.00000000000E+00 -0.23055581115E+04  0.23055581115E+04  0.00000000000E+00 0.  1.
         23    2    1    2    0    0  0.39610165095E+03 -0.90516109096E+03 -0.17910263561E+04  0.20474044974E+04  0.88750489207E+02 0.  0.
         11    1    3    3    0    0  0.15012385354E+03 -0.33018081181E+03 -0.57165326911E+03  0.67701107818E+03  0.00000000000E+00 0. -1.
        -11    1    3    3    0    0  0.24597779741E+03 -0.57498027915E+03 -0.12193730870E+04  0.13703934192E+04  0.00000000000E+00 0.  1.
         22    1    1    2    0    0 -0.39610165095E+03  0.90516109096E+03  0.24535888286E+03  0.10180442524E+04  0.00000000000E+00 0. -1.
<mgrwt>
<rscale>  0 0.26472416E+04</rscale>
<asrwt>0</asrwt>
<pdfrwt beam="1">  1        2 0.35470125E+00 0.26472416E+04</pdfrwt>
<pdfrwt beam="2">  1       -2 0.11690625E+00 0.26472416E+04</pdfrwt>
<totfact> 0.22458130E+00</totfact>
</mgrwt>
</event>
<event>
 6    1  0.1934315E-005  0.1384568E+04  0.7818608E-02  0.8965066E-01
          2   -1    0    0  501    0  0.00000000000E+00  0.00000000000E+00  0.16098220923E+04  0.16098220923E+04  0.00000000000E+00 0.  1.
         -2   -1    0    0    0  501 -0.00000000000E+00 -0.00000000000E+00 -0.29770801850E+03  0.29770801850E+03  0.00000000000E+00 0. -1.
         23    2    1    2    0    0 -0.34526033207E+03  0.31875399711E+03 -0.36379698536E+02  0.47950901095E+03  0.88298366595E+02 0.  0.
         11    1    3    3    0    0 -0.13839838887E+03  0.15104276746E+03  0.24534965293E+02  0.20632497708E+03  0.00000000000E+00 0. -1.
        -11    1    3    3    0    0 -0.20686194319E+03  0.16771122966E+03 -0.60914663830E+02  0.27318403388E+03  0.00000000000E+00 0.  1.
         22    1    1    2    0    0  0.34526033207E+03 -0.31875399711E+03  0.13484937723E+04  0.14280210998E+04  0.00000000000E+00 0.  1.
<mgrwt>
<rscale>  0 0.13845677E+04</rscale>
<asrwt>0</asrwt>
<pdfrwt beam="1">  1        2 0.24766493E+00 0.13845677E+04</pdfrwt>
<pdfrwt beam="2">  1       -2 0.45801235E-01 0.13845677E+04</pdfrwt>
<totfact> 0.48489905E+01</totfact>
</mgrwt>
</event>
<event>
 6    1  0.1934315E-005  0.1695843E+04  0.7818608E-02  0.8763739E-01
         -2   -1    0    0    0  501 -0.00000000000E+00  0.00000000000E+00  0.18862821300E+03  0.18862821300E+03  0.00000000000E+00 0. -1.
          2   -1    0    0  501    0  0.00000000000E+00 -0.00000000000E+00 -0.38115767313E+04  0.38115767313E+04  0.00000000000E+00 0.  1.
         23    2    1    2    0    0 -0.97316408878E+02 -0.64447129802E+03 -0.54424750676E+03  0.85326775778E+03  0.83945103791E+02 0.  0.
         13    1    3    3    0    0 -0.49460455143E+01 -0.17844927723E+03 -0.18952798114E+03  0.26036409803E+03  0.00000000000E+00 0. -1.
        -13    1    3    3    0    0 -0.92370363363E+02 -0.46602202079E+03 -0.35471952562E+03  0.59290365975E+03  0.00000000000E+00 0.  1.
         22    1    1    2    0    0  0.97316408878E+02  0.64447129802E+03 -0.30787010116E+04  0.31469371865E+04  0.00000000000E+00 0.  1.
<mgrwt>
<rscale>  0 0.16958430E+04</rscale>
<asrwt>0</asrwt>
<pdfrwt beam="1">  1        2 0.58639642E+00 0.16958430E+04</pdfrwt>
<pdfrwt beam="2">  1       -2 0.29019725E-01 0.16958430E+04</pdfrwt>
<totfact> 0.50694414E+00</totfact>
</mgrwt>
</event>
<event>
 6    1  0.2245210E-005  0.4093355E+04  0.7818608E-02  0.7985974E-01
         -2   -1    0    0    0  501 -0.00000000000E+00  0.00000000000E+00  0.19605790808E+04  0.19605790808E+04  0.00000000000E+00 0. -1.
          2   -1    0    0  501    0  0.00000000000E+00 -0.00000000000E+00 -0.21365565713E+04  0.21365565713E+04  0.00000000000E+00 0.  1.
         23    2    1    2    0    0 -0.19057651226E+04 -0.73557154404E+03  0.21186605227E+02  0.20448491518E+04  0.89179495354E+02 0.  0.
         13    1    3    3    0    0 -0.87886871096E+03 -0.38147282713E+03  0.30582377946E+02  0.95857551126E+03  0.00000000000E+00 0. -1.
        -13    1    3    3    0    0 -0.10268964116E+04 -0.35409871690E+03 -0.93957727195E+01  0.10862736405E+04  0.00000000000E+00 0.  1.
         22    1    1    2    0    0  0.19057651226E+04  0.73557154404E+03 -0.19716409568E+03  0.20522865003E+04  0.00000000000E+00 0. -1.
<mgrwt>
<rscale>  0 0.40933547E+04</rscale>
<asrwt>0</asrwt>
<pdfrwt beam="1">  1        2 0.32870101E+00 0.40933547E+04</pdfrwt>
<pdfrwt beam="2">  1       -2 0.30162755E+00 0.40933547E+04</pdfrwt>
<totfact> 0.13633269E-01</totfact>
</mgrwt>
</event>
<event>
 6    1  0.1934315E-005  0.4139887E+04  0.7818608E-02  0.7976907E-01
          2   -1    0    0  501    0  0.00000000000E+00  0.00000000000E+00  0.30191745971E+04  0.30191745971E+04  0.00000000000E+00 0.  1.
         -2   -1    0    0    0  501 -0.00000000000E+00 -0.00000000000E+00 -0.14191511713E+04  0.14191511713E+04  0.00000000000E+00 0. -1.
         23    2    1    2    0    0  0.58440532599E+03 -0.13590248302E+04  0.23509851170E+04  0.27792834135E+04  0.93846672719E+02 0.  0.
         13    1    3    3    0    0  0.49549037085E+03 -0.10552902539E+04  0.18545721432E+04  0.21905675206E+04  0.00000000000E+00 0.  1.
        -13    1    3    3    0    0  0.88914955146E+02 -0.30373457625E+03  0.49641297374E+03  0.58871589290E+03  0.00000000000E+00 0. -1.
         22    1    1    2    0    0 -0.58440532599E+03  0.13590248302E+04 -0.75096169116E+03  0.16590423550E+04  0.00000000000E+00 0. -1.
<mgrwt>
<rscale>  0 0.41398866E+04</rscale>
<asrwt>0</asrwt>
<pdfrwt beam="1">  1        2 0.46448840E+00 0.41398866E+04</pdfrwt>
<pdfrwt beam="2">  1       -2 0.21833095E+00 0.41398866E+04</pdfrwt>
<totfact> 0.13370341E-01</totfact>
</mgrwt>
</event>
<event>
 6    1  0.1934315E-005  0.1364821E+04  0.7818608E-02  0.8979684E-01
          1   -1    0    0  501    0  0.00000000000E+00  0.00000000000E+00  0.91285866223E+03  0.91285866223E+03  0.00000000000E+00 0.  1.
         -1   -1    0    0    0  501 -0.00000000000E+00 -0.00000000000E+00 -0.51013856098E+03  0.51013856098E+03  0.00000000000E+00 0. -1.
         23    2    1    2    0    0  0.42155946456E+03  0.11346388420E+03 -0.33701578468E+03  0.56404692424E+03  0.11824913720E+03 0.  0.
         11    1    3    3    0    0  0.30851933488E+03  0.12512539477E+03 -0.28829676689E+03  0.44040387171E+03  0.00000000000E+00 0. -1.
        -11    1    3    3    0    0  0.11304012968E+03 -0.11661510576E+02 -0.48719017787E+02  0.12364305253E+03  0.00000000000E+00 0.  1.
         22    1    1    2    0    0 -0.42155946456E+03 -0.11346388420E+03  0.73973588592E+03  0.85895029897E+03  0.00000000000E+00 0.  1.
<mgrwt>
<rscale>  0 0.13648215E+04</rscale>
<asrwt>0</asrwt>
<pdfrwt beam="1">  1        1 0.14043979E+00 0.13648215E+04</pdfrwt>
<pdfrwt beam="2">  1       -1 0.78482856E-01 0.13648215E+04</pdfrwt>
<totfact> 0.28222295E+01</totfact>
</mgrwt>
</event>
<event>
 6    1  0.2411507E-005  0.4009271E+04  0.7818608E-02  0.8002679E-01
         -2   -1    0    0    0  501 -0.00000000000E+00  0.00000000000E+00  0.16920159357E+04  0.16920159357E+04  0.00000000000E+00 0.  1.
          2   -1    0    0  501    0  0.00000000000E+00 -0.00000000000E+00 -0.23750147293E+04  0.23750147293E+04  0.00000000000E+00 0. -1.
         23    2    1    2    0    0  0.18976763946E+04 -0.37240021652E+03  0.19027541552E+03  0.19451292856E+04  0.86403610866E+02 0.  0.
         11    1    3    3    0    0  0.10137877818E+04 -0.19781865435E+03  0.14491054342E+03  0.10430229873E+04  0.00000000000E+00 0. -1.
        -11    1    3    3    0    0  0.88388861281E+03 -0.17458156216E+03  0.45364872091E+02  0.90210629824E+03  0.00000000000E+00 0.  1.
         22    1    1    2    0    0 -0.18976763946E+04  0.37240021652E+03 -0.87327420916E+03  0.21219013795E+04  0.00000000000E+00 0. -1.
<mgrwt>
<rscale>  0 0.40092706E+04</rscale>
<asrwt>0</asrwt>
<pdfrwt beam="1">  1        2 0.36538688E+00 0.40092706E+04</pdfrwt>
<pdfrwt beam="2">  1       -2 0.26031014E+00 0.40092706E+04</pdfrwt>
<totfact> 0.17992484E-01</totfact>
</mgrwt>
</event>
<event>
 6    1  0.1934315E-005  0.2681054E+04  0.7818608E-02  0.8341179E-01
          2   -1    0    0  501    0  0.00000000000E+00  0.00000000000E+00  0.13653747319E+04  0.13653747319E+04  0.00000000000E+00 0.  1.
         -2   -1    0    0    0  501 -0.00000000000E+00 -0.00000000000E+00 -0.13161312762E+04  0.13161312762E+04  0.00000000000E+00 0. -1.
         23    2    1    2    0    0 -0.10067826440E+04  0.87801973559E+03  0.11652326207E+03  0.13439498333E+04  0.89964078505E+02 0.  0.
         13    1    3    3    0    0 -0.20589634026E+03  0.15840868385E+03 -0.92055571285E+01  0.25994491019E+03  0.00000000000E+00 0.  1.
        -13    1    3    3    0    0 -0.80088630377E+03  0.71961105175E+03  0.12572881920E+03  0.10840049231E+04  0.00000000000E+00 0. -1.
         22    1    1    2    0    0  0.10067826440E+04 -0.87801973559E+03 -0.67279806283E+02  0.13375561748E+04  0.00000000000E+00 0.  1.
<mgrwt>
<rscale>  0 0.26810538E+04</rscale>
<asrwt>0</asrwt>
<pdfrwt beam="1">  1        2 0.21005765E+00 0.26810538E+04</pdfrwt>
<pdfrwt beam="2">  1       -2 0.20248173E+00 0.26810538E+04</pdfrwt>
<totfact> 0.17053902E+00</totfact>
</mgrwt>
</event>
<event>
 6    1  0.1934315E-005  0.1171078E+04  0.7818608E-02  0.9138555E-01
          1   -1    0    0  501    0  0.00000000000E+00  0.00000000000E+00  0.29259757339E+03  0.29259757339E+03  0.00000000000E+00 0. -1.
         -1   -1    0    0    0  501 -0.00000000000E+00 -0.00000000000E+00 -0.11717664341E+04  0.11717664341E+04  0.00000000000E+00 0.  1.
         23    2    1    2    0    0 -0.63123622108E+02  0.17786398410E+03  0.24630064920E+03  0.32317962000E+03  0.90337525288E+02 0.  0.
         11    1    3    3    0    0 -0.82464108427E+02  0.11421139264E+03  0.18652229846E+03  0.23374160778E+03  0.00000000000E+00 0. -1.
        -11    1    3    3    0    0  0.19340486319E+02  0.63652591462E+02  0.59778350745E+02  0.89438012213E+02  0.00000000000E+00 0.  1.
         22    1    1    2    0    0  0.63123622108E+02 -0.17786398410E+03 -0.11254695099E+04  0.11411843874E+04  0.00000000000E+00 0.  1.
<mgrwt>
<rscale>  0 0.11710782E+04</rscale>
<asrwt>0</asrwt>
<pdfrwt beam="1">  1        1 0.45015011E-01 0.11710782E+04</pdfrwt>
<pdfrwt beam="2">  1       -1 0.18027176E+00 0.11710782E+04</pdfrwt>
<totfact> 0.18613462E+01</totfact>
</mgrwt>
</event>
<event>
 6    1  0.1934315E-005  0.2125104E+04  0.7818608E-02  0.8550265E-01
          2   -1    0    0  501    0  0.00000000000E+00  0.00000000000E+00  0.24089389830E+04  0.24089389830E+04  0.00000000000E+00 0.  1.
         -2   -1    0    0    0  501 -0.00000000000E+00 -0.00000000000E+00 -0.46867814000E+03  0.46867814000E+03  0.00000000000E+00 0. -1.
         23    2    1    2    0    0 -0.15561177016E+03 -0.48998946108E+03  0.22280619052E+04  0.22884362116E+04  0.91519102112E+02 0.  0.
         13    1    3    3    0    0 -0.10591239716E+03 -0.37918966868E+03  0.15271535530E+04  0.15770859885E+04  0.00000000000E+00 0. -1.
        -13    1    3    3    0    0 -0.49699372996E+02 -0.11079979240E+03  0.70090835214E+03  0.71135022301E+03  0.00000000000E+00 0.  1.
         22    1    1    2    0    0  0.15561177016E+03  0.48998946108E+03 -0.28780106220E+03  0.58918091142E+03  0.00000000000E+00 0. -1.
<mgrwt>
<rscale>  0 0.21251043E+04</rscale>
<asrwt>0</asrwt>
<pdfrwt beam="1">  1        2 0.37060599E+00 0.21251043E+04</pdfrwt>
<pdfrwt beam="2">  1       -2 0.72104330E-01 0.21251043E+04</pdfrwt>
<totfact> 0.62948316E+00</totfact>
</mgrwt>
</event>
<event>
 6    1  0.1934315E-005  0.2705327E+04  0.7818608E-02  0.8333279E-01
          2   -1    0    0  501    0  0.00000000000E+00  0.00000000000E+00  0.24621062449E+04  0.24621062449E+04  0.00000000000E+00 0.  1.
         -2   -1    0    0    0  501 -0.00000000000E+00 -0.00000000000E+00 -0.74314339892E+03  0.74314339892E+03  0.00000000000E+00 0. -1.
         23    2    1    2    0    0 -0.41419799803E+03 -0.11616198786E+04  0.15141861299E+04  0.19551079610E+04  0.93631079686E+02 0.  0.
         11    1    3    3    0    0 -0.18889522039E+03 -0.40060341084E+03  0.52419746099E+03  0.68625612943E+03  0.00000000000E+00 0.  1.
        -11    1    3    3    0    0 -0.22530277764E+03 -0.76101646773E+03  0.98998866892E+03  0.12688518315E+04  0.00000000000E+00 0. -1.
         22    1    1    2    0    0  0.41419799803E+03  0.11616198786E+04  0.20477671608E+03  0.12501416829E+04  0.00000000000E+00 0. -1.
<mgrwt>
<rscale>  0 0.27053266E+04</rscale>
<asrwt>0</asrwt>
<pdfrwt beam="1">  1        2 0.37878557E+00 0.27053266E+04</pdfrwt>
<pdfrwt beam="2">  1       -2 0.11432975E+00 0.27053266E+04</pdfrwt>
<totfact> 0.19200262E+00</totfact>
</mgrwt>
</event>
<event>
 6    1  0.1934315E-005  0.3687640E+04  0.7818608E-02  0.8070706E-01
         -2   -1    0    0    0  501 -0.00000000000E+00  0.00000000000E+00  0.76685036636E+03  0.76685036636E+03  0.00000000000E+00 0. -1.
          2   -1    0    0  501    0  0.00000000000E+00 -0.00000000000E+00 -0.44332925708E+04  0.44332925708E+04  0.00000000000E+00 0.  1.
         23    2    1    2    0    0  0.69560343645E+03  0.62939196521E+03  0.40221937241E+03  0.10247381168E+04  0.91155898678E+02 0.  0.
         11    1    3    3    0    0  0.15187226899E+03  0.89795801409E+02  0.78726333335E+02  0.19320017495E+03  0.00000000000E+00 0.  1.
        -11    1    3    3    0    0  0.54373116746E+03  0.53959616380E+03  0.32349303908E+03  0.83153794188E+03  0.00000000000E+00 0. -1.
         22    1    1    2    0    0 -0.69560343645E+03 -0.62939196521E+03 -0.40686615769E+04  0.41754048204E+04  0.00000000000E+00 0.  1.
<mgrwt>
<rscale>  0 0.36876399E+04</rscale>
<asrwt>0</asrwt>
<pdfrwt beam="1">  1        2 0.68204500E+00 0.36876399E+04</pdfrwt>
<pdfrwt beam="2">  1       -2 0.11797698E+00 0.36876399E+04</pdfrwt>
<totfact> 0.63636531E-02</totfact>
</mgrwt>
</event>
<event>
 6    1  0.1934315E-005  0.2992805E+04  0.7818608E-02  0.8245788E-01
          2   -1    0    0  501    0  0.00000000000E+00  0.00000000000E+00  0.18513996229E+04  0.18513996229E+04  0.00000000000E+00 0.  1.
         -2   -1    0    0    0  501 -0.00000000000E+00 -0.00000000000E+00 -0.12094746050E+04  0.12094746050E+04  0.00000000000E+00 0. -1.
         23    2    1    2    0    0 -0.11446406003E+04 -0.29182315370E+03 -0.61594655116E+03  0.13353007750E+04  0.90967846108E+02 0.  0.
         11    1    3    3    0    0 -0.87348798163E+03 -0.26041488973E+03 -0.46113091714E+03  0.10214885665E+04  0.00000000000E+00 0.  1.
        -11    1    3    3    0    0 -0.27115261865E+03 -0.31408263969E+02 -0.15481563402E+03  0.31381220847E+03  0.00000000000E+00 0. -1.
         22    1    1    2    0    0  0.11446406003E+04  0.29182315370E+03  0.12578715691E+04  0.17255734529E+04  0.00000000000E+00 0.  1.
<mgrwt>
<rscale>  0 0.29928053E+04</rscale>
<asrwt>0</asrwt>
<pdfrwt beam="1">  1        2 0.28483071E+00 0.29928053E+04</pdfrwt>
<pdfrwt beam="2">  1       -2 0.18607302E+00 0.29928053E+04</pdfrwt>
<totfact> 0.11404063E+00</totfact>
</mgrwt>
</event>
<event>
 6    1  0.1934315E-005  0.1326014E+04  0.7818608E-02  0.9009186E-01
          4   -1    0    0  501    0  0.00000000000E+00  0.00000000000E+00  0.10361581573E+04  0.10361581573E+04  0.00000000000E+00 0.  1.
         -4   -1    0    0    0  501 -0.00000000000E+00 -0.00000000000E+00 -0.42423879688E+03  0.42423879688E+03  0.00000000000E+00 0. -1.
         23    2    1    2    0    0 -0.54258725501E+03  0.29686851970E+02  0.71960669053E+03  0.90643052958E+03  0.92196949073E+02 0.  0.
         11    1    3    3    0    0 -0.39191687734E+03 -0.20192531506E+02  0.50925601410E+03  0.64292166317E+03  0.00000000000E+00 0. -1.
        -11    1    3    3    0    0 -0.15067037767E+03  0.49879383476E+02  0.21035067643E+03  0.26350886641E+03  0.00000000000E+00 0.  1.
         22    1    1    2    0    0  0.54258725501E+03 -0.29686851970E+02 -0.10768733014E+03  0.55396642457E+03  0.00000000000E+00 0. -1.
<mgrwt>
<rscale>  0 0.13260143E+04</rscale>
<asrwt>0</asrwt>
<pdfrwt beam="1">  1        4 0.15940895E+00 0.13260143E+04</pdfrwt>
<pdfrwt beam="2">  1       -4 0.65267508E-01 0.13260143E+04</pdfrwt>
<totfact> 0.10786825E+00</totfact>
</mgrwt>
</event>
<event>
 6    1  0.1934315E-005  0.3248749E+04  0.7818608E-02  0.8176060E-01
          2   -1    0    0  501    0  0.00000000000E+00  0.00000000000E+00  0.32854617549E+04  0.32854617549E+04  0.00000000000E+00 0. -1.
         -2   -1    0    0    0  501 -0.00000000000E+00 -0.00000000000E+00 -0.80311164797E+03  0.80311164797E+03  0.00000000000E+00 0.  1.
         23    2    1    2    0    0  0.14895221915E+04  0.27803742553E+03  0.50812385529E+03  0.15998889187E+04  0.73983315737E+02 0.  0.
         13    1    3    3    0    0  0.73716062283E+03  0.12036707744E+03  0.28509329094E+03  0.79948245867E+03  0.00000000000E+00 0.  1.
        -13    1    3    3    0    0  0.75236156866E+03  0.15767034809E+03  0.22303056435E+03  0.80040646005E+03  0.00000000000E+00 0. -1.
         22    1    1    2    0    0 -0.14895221915E+04 -0.27803742553E+03  0.19742262516E+04  0.24886844841E+04  0.00000000000E+00 0.  1.
<mgrwt>
<rscale>  0 0.32487491E+04</rscale>
<asrwt>0</asrwt>
<pdfrwt beam="1">  1        2 0.50545565E+00 0.32487491E+04</pdfrwt>
<pdfrwt beam="2">  1       -2 0.12355564E+00 0.32487491E+04</pdfrwt>
<totfact> 0.47106894E-01</totfact>
</mgrwt>
</event>
<event>
 6    1  0.1934315E-005  0.3086253E+04  0.7818608E-02  0.8219521E-01
         -2   -1    0    0    0  501 -0.00000000000E+00  0.00000000000E+00  0.21259306548E+04  0.21259306548E+04  0.00000000000E+00 0. -1.
          2   -1    0    0  501    0  0.00000000000E+00 -0.00000000000E+00 -0.11200928667E+04  0.11200928667E+04  0.00000000000E+00 0.  1.
         23    2    1    2    0    0  0.15584213675E+02  0.66103829254E+03 -0.96158654476E+03  0.11704578161E+04  0.90046234750E+02 0.  0.
         13    1    3    3    0    0 -0.16509937785E+02  0.11719211770E+03 -0.12515147177E+03  0.17224825510E+03  0.00000000000E+00 0. -1.
        -13    1    3    3    0    0  0.32094151461E+02  0.54384617483E+03 -0.83643507299E+03  0.99820956105E+03  0.00000000000E+00 0.  1.
         22    1    1    2    0    0 -0.15584213675E+02 -0.66103829254E+03  0.19674243328E+04  0.20755657054E+04  0.00000000000E+00 0. -1.
<mgrwt>
<rscale>  0 0.30862532E+04</rscale>
<asrwt>0</asrwt>
<pdfrwt beam="1">  1        2 0.17232198E+00 0.30862532E+04</pdfrwt>
<pdfrwt beam="2">  1       -2 0.32706625E+00 0.30862532E+04</pdfrwt>
<totfact> 0.38954334E-01</totfact>
</mgrwt>
</event>
<event>
 6    1  0.2878932E-005  0.4035614E+04  0.7818608E-02  0.7997400E-01
          2   -1    0    0  501    0  0.00000000000E+00  0.00000000000E+00  0.22376655615E+04  0.22376655615E+04  0.00000000000E+00 0.  1.
         -2   -1    0    0    0  501 -0.00000000000E+00 -0.00000000000E+00 -0.18195504966E+04  0.18195504966E+04  0.00000000000E+00 0. -1.
         23    2    1    2    0    0  0.97781958995E+03 -0.11176108671E+04 -0.11628295466E+04  0.18882137378E+04  0.89405616186E+02 0.  0.
         11    1    3    3    0    0  0.57029934079E+03 -0.65088633214E+03 -0.73325289448E+03  0.11342637095E+04  0.00000000000E+00 0.  1.
        -11    1    3    3    0    0  0.40752024916E+03 -0.46672453501E+03 -0.42957665213E+03  0.75395002826E+03  0.00000000000E+00 0. -1.
         22    1    1    2    0    0 -0.97781958995E+03  0.11176108671E+04  0.15809446115E+04  0.21690023203E+04  0.00000000000E+00 0.  1.
<mgrwt>
<rscale>  0 0.40356142E+04</rscale>
<asrwt>0</asrwt>
<pdfrwt beam="1">  1        2 0.34425624E+00 0.40356142E+04</pdfrwt>
<pdfrwt beam="2">  1       -2 0.27993084E+00 0.40356142E+04</pdfrwt>
<totfact> 0.16306499E-01</totfact>
</mgrwt>
</event>
<event>
 6    1  0.1934315E-005  0.3715265E+04  0.7818608E-02  0.8064587E-01
         -2   -1    0    0    0  501 -0.00000000000E+00  0.00000000000E+00  0.16386384261E+04  0.16386384261E+04  0.00000000000E+00 0. -1.
          2   -1    0    0  501    0  0.00000000000E+00 -0.00000000000E+00 -0.21058935035E+04  0.21058935035E+04  0.00000000000E+00 0.  1.
         23    2    1    2    0    0 -0.17835797433E+02 -0.16936342977E+04 -0.10001392304E+04  0.19689529337E+04  0.88215219379E+02 0.  0.
         11    1    3    3    0    0  0.25305566593E+02 -0.79009800255E+03 -0.43349712976E+03  0.90156252520E+03  0.00000000000E+00 0. -1.
        -11    1    3    3    0    0 -0.43141364026E+02 -0.90353629517E+03 -0.56664210066E+03  0.10673904085E+04  0.00000000000E+00 0.  1.
         22    1    1    2    0    0  0.17835797433E+02  0.16936342977E+04  0.53288415302E+03  0.17755789959E+04  0.00000000000E+00 0. -1.
<mgrwt>
<rscale>  0 0.37152647E+04</rscale>
<asrwt>0</asrwt>
<pdfrwt beam="1">  1        2 0.32398362E+00 0.37152647E+04</pdfrwt>
<pdfrwt beam="2">  1       -2 0.25209822E+00 0.37152647E+04</pdfrwt>
<totfact> 0.29372070E-01</totfact>
</mgrwt>
</event>
<event>
 6    1  0.1934315E-005  0.2184635E+04  0.7818608E-02  0.8524851E-01
         -2   -1    0    0    0  501 -0.00000000000E+00  0.00000000000E+00  0.60209882395E+03  0.60209882395E+03  0.00000000000E+00 0. -1.
          2   -1    0    0  501    0  0.00000000000E+00 -0.00000000000E+00 -0.19816645222E+04  0.19816645222E+04  0.00000000000E+00 0.  1.
         23    2    1    2    0    0 -0.75379761905E+03 -0.78767365609E+03 -0.71864545949E+03  0.13088295435E+04  0.89122604200E+02 0.  0.
         11    1    3    3    0    0 -0.26191493539E+03 -0.30292796901E+03 -0.21890514934E+03  0.45638169573E+03  0.00000000000E+00 0.  1.
        -11    1    3    3    0    0 -0.49188268366E+03 -0.48474568709E+03 -0.49974031015E+03  0.85244784780E+03  0.00000000000E+00 0. -1.
         22    1    1    2    0    0  0.75379761905E+03  0.78767365609E+03 -0.66092023872E+03  0.12749338026E+04  0.00000000000E+00 0.  1.
<mgrwt>
<rscale>  0 0.21846353E+04</rscale>
<asrwt>0</asrwt>
<pdfrwt beam="1">  1        2 0.30487146E+00 0.21846353E+04</pdfrwt>
<pdfrwt beam="2">  1       -2 0.92630589E-01 0.21846353E+04</pdfrwt>
<totfact> 0.61878254E+00</totfact>
</mgrwt>
</event>
<event>
 6    1  0.1934315E-005  0.3206518E+04  0.7818608E-02  0.8187098E-01
          2   -1    0    0  501    0  0.00000000000E+00  0.00000000000E+00  0.95373165888E+03  0.95373165888E+03  0.00000000000E+00 0.  1.
         -2   -1    0    0    0  501 -0.00000000000E+00 -0.00000000000E+00 -0.26951386387E+04  0.26951386387E+04  0.00000000000E+00 0. -1.
         23    2    1    2    0    0  0.27466042915E+03  0.93618093135E+03 -0.23172954522E+04  0.25159446071E+04  0.90807299494E+02 0.  0.
         13    1    3    3    0    0  0.26199895124E+02  0.21279813239E+03 -0.54421269565E+03  0.58492472828E+03  0.00000000000E+00 0. -1.
        -13    1    3    3    0    0  0.24846053402E+03  0.72338279896E+03 -0.17730827565E+04  0.19310198788E+04  0.00000000000E+00 0.  1.
         22    1    1    2    0    0 -0.27466042915E+03 -0.93618093135E+03  0.57588847237E+03  0.11329256905E+04  0.00000000000E+00 0.  1.
<mgrwt>
<rscale>  0 0.32065178E+04</rscale>
<asrwt>0</asrwt>
<pdfrwt beam="1">  1        2 0.14672795E+00 0.32065178E+04</pdfrwt>
<pdfrwt beam="2">  1       -2 0.41463671E+00 0.32065178E+04</pdfrwt>
<totfact> 0.13501336E-01</totfact>
</mgrwt>
</event>
<event>
 6    1  0.1934315E-005  0.1934663E+04  0.7818608E-02  0.8637792E-01
         -1   -1    0    0    0  501 -0.00000000000E+00  0.00000000000E+00  0.23711869821E+04  0.23711869821E+04  0.00000000000E+00 0. -1.
          1   -1    0    0  501    0  0.00000000000E+00 -0.00000000000E+00 -0.39462516405E+03  0.39462516405E+03  0.00000000000E+00 0.  1.
         23    2    1    2    0    0 -0.73109203142E+03 -0.30247380258E+03  0.17808501526E+04  0.19507728737E+04  0.90008771950E+02 0.  0.
         13    1    3    3    0    0 -0.42985673397E+02 -0.18719039351E+02  0.16870360719E+03  0.17509733758E+03  0.00000000000E+00 0. -1.
        -13    1    3    3    0    0 -0.68810635802E+03 -0.28375476323E+03  0.16121465454E+04  0.17756755361E+04  0.00000000000E+00 0.  1.
         22    1    1    2    0    0  0.73109203142E+03  0.30247380258E+03  0.19571166544E+03  0.81503927245E+03  0.00000000000E+00 0.  1.
<mgrwt>
<rscale>  0 0.19346628E+04</rscale>
<asrwt>0</asrwt>
<pdfrwt beam="1">  1        1 0.60711565E-01 0.19346628E+04</pdfrwt>
<pdfrwt beam="2">  1       -1 0.36479799E+00 0.19346628E+04</pdfrwt>
<totfact> 0.70704555E-01</totfact>
</mgrwt>
</event>
<event>
 6    1  0.1934315E-005  0.2103421E+04  0.7818608E-02  0.8559738E-01
         -2   -1    0    0    0  501 -0.00000000000E+00  0.00000000000E+00  0.20796264024E+04  0.20796264024E+04  0.00000000000E+00 0. -1.
          2   -1    0    0  501    0  0.00000000000E+00 -0.00000000000E+00 -0.53187218757E+03  0.53187218757E+03  0.00000000000E+00 0.  1.
         23    2    1    2    0    0 -0.10330277007E+04 -0.10387892203E+03  0.58333746487E+03  0.11944464637E+04  0.92101552200E+02 0.  0.
         11    1    3    3    0    0 -0.87335702276E+03 -0.71977590325E+02  0.45678595317E+03  0.98822399775E+03  0.00000000000E+00 0. -1.
        -11    1    3    3    0    0 -0.15967067795E+03 -0.31901331709E+02  0.12655151170E+03  0.20622246598E+03  0.00000000000E+00 0.  1.
         22    1    1    2    0    0  0.10330277007E+04  0.10387892203E+03  0.96441674992E+03  0.14170521262E+04  0.00000000000E+00 0.  1.
<mgrwt>
<rscale>  0 0.21034214E+04</rscale>
<asrwt>0</asrwt>
<pdfrwt beam="1">  1        2 0.81826491E-01 0.21034214E+04</pdfrwt>
<pdfrwt beam="2">  1       -2 0.31994252E+00 0.21034214E+04</pdfrwt>
<totfact> 0.12661320E+00</totfact>
</mgrwt>
</event>
<event>
 6    1  0.1934315E-005  0.2442179E+04  0.7818608E-02  0.8423879E-01
          2   -1    0    0  501    0  0.00000000000E+00  0.00000000000E+00  0.13448148982E+04  0.13448148982E+04  0.00000000000E+00 0.  1.
         -2   -1    0    0    0  501 -0.00000000000E+00 -0.00000000000E+00 -0.11087467807E+04  0.11087467807E+04  0.00000000000E+00 0. -1.
         23    2    1    2    0    0 -0.15553268810E+03 -0.10187069375E+04  0.77310024054E+03  0.12915127373E+04  0.91470909493E+02 0.  0.
         13    1    3    3    0    0 -0.73923312133E+02 -0.39813072351E+03  0.35764608413E+03  0.54026239048E+03  0.00000000000E+00 0. -1.
        -13    1    3    3    0    0 -0.81609375964E+02 -0.62057621394E+03  0.41545415641E+03  0.75125034685E+03  0.00000000000E+00 0.  1.
         22    1    1    2    0    0  0.15553268810E+03  0.10187069375E+04 -0.53703212304E+03  0.11620489416E+04  0.00000000000E+00 0. -1.
<mgrwt>
<rscale>  0 0.24421787E+04</rscale>
<asrwt>0</asrwt>
<pdfrwt beam="1">  1        2 0.20689460E+00 0.24421787E+04</pdfrwt>
<pdfrwt beam="2">  1       -2 0.17057643E+00 0.24421787E+04</pdfrwt>
<totfact> 0.29459674E+00</totfact>
</mgrwt>
</event>
<event>
 6    1  0.1934315E-005  0.2084781E+04  0.7818608E-02  0.8567977E-01
         -2   -1    0    0    0  501 -0.00000000000E+00  0.00000000000E+00  0.69759547008E+03  0.69759547008E+03  0.00000000000E+00 0. -1.
          2   -1    0    0  501    0  0.00000000000E+00 -0.00000000000E+00 -0.15576044967E+04  0.15576044967E+04  0.00000000000E+00 0.  1.
         23    2    1    2    0    0  0.60521301268E+03 -0.83928172695E+03 -0.53292189406E+03  0.11699983264E+04  0.11922135212E+03 0.  0.
         11    1    3    3    0    0  0.11838748551E+03 -0.10408684018E+03 -0.54424665695E+02  0.16676843604E+03  0.00000000000E+00 0. -1.
        -11    1    3    3    0    0  0.48682552717E+03 -0.73519488677E+03 -0.47849722836E+03  0.10032298904E+04  0.00000000000E+00 0.  1.
         22    1    1    2    0    0 -0.60521301268E+03  0.83928172695E+03 -0.32708713255E+03  0.10852016403E+04  0.00000000000E+00 0.  1.
<mgrwt>
<rscale>  0 0.20847809E+04</rscale>
<asrwt>0</asrwt>
<pdfrwt beam="1">  1        2 0.23963146E+00 0.20847809E+04</pdfrwt>
<pdfrwt beam="2">  1       -2 0.10732238E+00 0.20847809E+04</pdfrwt>
<totfact> 0.75805138E+00</totfact>
</mgrwt>
</event>
<event>
 6    1  0.1934315E-005  0.3514579E+04  0.7818608E-02  0.8110343E-01
          2   -1    0    0  501    0  0.00000000000E+00  0.00000000000E+00  0.39851277740E+04  0.39851277740E+04  0.00000000000E+00 0.  1.
         -2   -1    0    0    0  501 -0.00000000000E+00 -0.00000000000E+00 -0.77489787356E+03  0.77489787356E+03  0.00000000000E+00 0. -1.
         23    2    1    2    0    0  0.15955396423E+04 -0.44827836161E+03  0.23926533488E+04  0.29120181645E+04  0.91430320533E+02 0.  0.
         11    1    3    3    0    0  0.70964575536E+03 -0.24122900349E+03  0.11179684414E+04  0.13459724983E+04  0.00000000000E+00 0. -1.
        -11    1    3    3    0    0  0.88589388694E+03 -0.20704935812E+03  0.12746849074E+04  0.15660456662E+04  0.00000000000E+00 0.  1.
         22    1    1    2    0    0 -0.15955396423E+04  0.44827836161E+03  0.81757655172E+03  0.18480074831E+04  0.00000000000E+00 0. -1.
<mgrwt>
<rscale>  0 0.35145794E+04</rscale>
<asrwt>0</asrwt>
<pdfrwt beam="1">  1        2 0.61309657E+00 0.35145794E+04</pdfrwt>
<pdfrwt beam="2">  1       -2 0.11921506E+00 0.35145794E+04</pdfrwt>
<totfact> 0.15539136E-01</totfact>
</mgrwt>
</event>
<event>
 6    1  0.1934315E-005  0.2304364E+04  0.7818608E-02  0.8476202E-01
          2   -1    0    0  501    0  0.00000000000E+00  0.00000000000E+00  0.27169816274E+04  0.27169816274E+04  0.00000000000E+00 0.  1.
         -2   -1    0    0    0  501 -0.00000000000E+00 -0.00000000000E+00 -0.48860225633E+03  0.48860225633E+03  0.00000000000E+00 0. -1.
         23    2    1    2    0    0 -0.91459559396E+03 -0.47120413766E+03  0.39720764917E+03  0.11051771815E+04  0.71583839098E+02 0.  0.
         13    1    3    3    0    0 -0.77169456383E+03 -0.38675095800E+03  0.30627768571E+03  0.91591201768E+03  0.00000000000E+00 0.  1.
        -13    1    3    3    0    0 -0.14290103013E+03 -0.84453179669E+02  0.90929963463E+02  0.18926516379E+03  0.00000000000E+00 0. -1.
         22    1    1    2    0    0  0.91459559396E+03  0.47120413766E+03  0.18311717219E+04  0.21004067023E+04  0.00000000000E+00 0.  1.
<mgrwt>
<rscale>  0 0.23043640E+04</rscale>
<asrwt>0</asrwt>
<pdfrwt beam="1">  1        2 0.41799716E+00 0.23043640E+04</pdfrwt>
<pdfrwt beam="2">  1       -2 0.75169580E-01 0.23043640E+04</pdfrwt>
<totfact> 0.37363504E+00</totfact>
</mgrwt>
</event>
<event>
 6    1  0.1934315E-005  0.4094440E+04  0.7818608E-02  0.7985761E-01
          2   -1    0    0  501    0  0.00000000000E+00  0.00000000000E+00  0.25696740560E+04  0.25696740560E+04  0.00000000000E+00 0.  1.
         -2   -1    0    0    0  501 -0.00000000000E+00 -0.00000000000E+00 -0.16309888811E+04  0.16309888811E+04  0.00000000000E+00 0. -1.
         23    2    1    2    0    0  0.89874520865E+03 -0.12183921525E+04  0.18817819398E+04  0.24169438181E+04  0.91059121215E+02 0.  0.
         13    1    3    3    0    0  0.25997314522E+03 -0.29426216097E+03  0.45599267916E+03  0.60175209104E+03  0.00000000000E+00 0. -1.
        -13    1    3    3    0    0  0.63877206343E+03 -0.92412999149E+03  0.14257892607E+04  0.18151917271E+04  0.00000000000E+00 0.  1.
         22    1    1    2    0    0 -0.89874520865E+03  0.12183921525E+04 -0.94309676494E+03  0.17837191189E+04  0.00000000000E+00 0. -1.
<mgrwt>
<rscale>  0 0.40944400E+04</rscale>
<asrwt>0</asrwt>
<pdfrwt beam="1">  1        2 0.39533447E+00 0.40944400E+04</pdfrwt>
<pdfrwt beam="2">  1       -2 0.25092137E+00 0.40944400E+04</pdfrwt>
<totfact> 0.15743254E-01</totfact>
</mgrwt>
</event>
<event>
 6    1  0.1934315E-005  0.1951681E+04  0.7818608E-02  0.8629550E-01
          2   -1    0    0  501    0  0.00000000000E+00  0.00000000000E+00  0.38119912078E+03  0.38119912078E+03  0.00000000000E+00 0.  1.
         -2   -1    0    0    0  501 -0.00000000000E+00 -0.00000000000E+00 -0.24980778496E+04  0.24980778496E+04  0.00000000000E+00 0. -1.
         23    2    1    2    0    0  0.53710457628E+03 -0.11051977528E+03  0.12743544086E+03  0.56894321985E+03  0.82223167304E+02 0.  0.
         13    1    3    3    0    0  0.38443418230E+03 -0.44115418221E+02  0.72995344958E+02  0.39378183177E+03  0.00000000000E+00 0.  1.
        -13    1    3    3    0    0  0.15267039398E+03 -0.66404357055E+02  0.54440095903E+02  0.17516138809E+03  0.00000000000E+00 0. -1.
         22    1    1    2    0    0 -0.53710457628E+03  0.11051977528E+03 -0.22443141697E+04  0.23103337505E+04  0.00000000000E+00 0. -1.
<mgrwt>
<rscale>  0 0.19516814E+04</rscale>
<asrwt>0</asrwt>
<pdfrwt beam="1">  1        2 0.58646019E-01 0.19516814E+04</pdfrwt>
<pdfrwt beam="2">  1       -2 0.38431967E+00 0.19516814E+04</pdfrwt>
<totfact> 0.73758991E-01</totfact>
</mgrwt>
</event>
<event>
 6    1  0.1934315E-005  0.2253413E+04  0.7818608E-02  0.8496520E-01
         -2   -1    0    0    0  501 -0.00000000000E+00  0.00000000000E+00  0.83656860703E+03  0.83656860703E+03  0.00000000000E+00 0. -1.
          2   -1    0    0  501    0  0.00000000000E+00 -0.00000000000E+00 -0.15174694822E+04  0.15174694822E+04  0.00000000000E+00 0.  1.
         23    2    1    2    0    0 -0.79477260850E+03 -0.12437543644E+03  0.48035224642E+03  0.94136630824E+03  0.91101576452E+02 0.  0.
         11    1    3    3    0    0 -0.52296459993E+03 -0.12332817561E+03  0.30377994008E+03  0.61723906525E+03  0.00000000000E+00 0. -1.
        -11    1    3    3    0    0 -0.27180800857E+03 -0.10472608267E+01  0.17657230634E+03  0.32412724298E+03  0.00000000000E+00 0.  1.
         22    1    1    2    0    0  0.79477260850E+03  0.12437543644E+03 -0.11612531216E+04  0.14126717810E+04  0.00000000000E+00 0.  1.
<mgrwt>
<rscale>  0 0.22534128E+04</rscale>
<asrwt>0</asrwt>
<pdfrwt beam="1">  1        2 0.23345684E+00 0.22534128E+04</pdfrwt>
<pdfrwt beam="2">  1       -2 0.12870286E+00 0.22534128E+04</pdfrwt>
<totfact> 0.50314179E+00</totfact>
</mgrwt>
</event>
<event>
 6    1  0.1934315E-005  0.4926759E+04  0.7818608E-02  0.7839906E-01
          2   -1    0    0  501    0  0.00000000000E+00  0.00000000000E+00  0.51996370123E+04  0.51996370123E+04  0.00000000000E+00 0.  1.
         -2   -1    0    0    0  501 -0.00000000000E+00 -0.00000000000E+00 -0.11670502886E+04  0.11670502886E+04  0.00000000000E+00 0. -1.
         23    2    1    2    0    0 -0.20013052220E+04 -0.14223056278E+04  0.17716847723E+04  0.30290453902E+04  0.89850726291E+02 0.  0.
         13    1    3    3    0    0 -0.17161247450E+04 -0.12512335825E+04  0.15109087238E+04  0.26064371833E+04  0.00000000000E+00 0.  1.
        -13    1    3    3    0    0 -0.28518047696E+03 -0.17107204533E+03  0.26077604846E+03  0.42260820695E+03  0.00000000000E+00 0. -1.
         22    1    1    2    0    0  0.20013052220E+04  0.14223056278E+04  0.22609019514E+04  0.33376419107E+04  0.00000000000E+00 0.  1.
<mgrwt>
<rscale>  0 0.49267587E+04</rscale>
<asrwt>0</asrwt>
<pdfrwt beam="1">  1        2 0.79994415E+00 0.49267587E+04</pdfrwt>
<pdfrwt beam="2">  1       -2 0.17954620E+00 0.49267587E+04</pdfrwt>
<totfact> 0.24172355E-03</totfact>
</mgrwt>
</event>
<event>
 6    1  0.1934315E-005  0.1525307E+04  0.7818608E-02  0.8867796E-01
         -2   -1    0    0    0  501 -0.00000000000E+00  0.00000000000E+00  0.44439932693E+03  0.44439932693E+03  0.00000000000E+00 0. -1.
          2   -1    0    0  501    0  0.00000000000E+00 -0.00000000000E+00 -0.13088239438E+04  0.13088239438E+04  0.00000000000E+00 0.  1.
         23    2    1    2    0    0 -0.24066018836E+02  0.70051041994E+03 -0.77093483822E+03  0.10460921934E+04  0.93136086988E+02 0.  0.
         13    1    3    3    0    0 -0.51780264821E+01  0.27933729451E+03 -0.37577987431E+03  0.46825916970E+03  0.00000000000E+00 0. -1.
        -13    1    3    3    0    0 -0.18887992354E+02  0.42117312542E+03 -0.39515496390E+03  0.57783302374E+03  0.00000000000E+00 0.  1.
         22    1    1    2    0    0  0.24066018836E+02 -0.70051041994E+03 -0.93489778624E+02  0.70713107725E+03  0.00000000000E+00 0. -1.
<mgrwt>
<rscale>  0 0.15253072E+04</rscale>
<asrwt>0</asrwt>
<pdfrwt beam="1">  1        2 0.20135752E+00 0.15253072E+04</pdfrwt>
<pdfrwt beam="2">  1       -2 0.68369129E-01 0.15253072E+04</pdfrwt>
<totfact> 0.30831512E+01</totfact>
</mgrwt>
</event>
<event>
 6    1  0.3576678E-005  0.4013338E+04  0.7818608E-02  0.8001861E-01
         -2   -1    0    0    0  501 -0.00000000000E+00  0.00000000000E+00  0.21243022625E+04  0.21243022625E+04  0.00000000000E+00 0. -1.
          2   -1    0    0  501    0  0.00000000000E+00 -0.00000000000E+00 -0.18955499585E+04  0.18955499585E+04  0.00000000000E+00 0.  1.
         23    2    1    2    0    0  0.13829047006E+04 -0.27910313205E+03 -0.13134551808E+04  0.19297020123E+04  0.90892106873E+02 0.  0.
         13    1    3    3    0    0  0.10905853751E+04 -0.19048578884E+03 -0.10610183487E+04  0.15334344565E+04  0.00000000000E+00 0. -1.
        -13    1    3    3    0    0  0.29231932549E+03 -0.88617343207E+02 -0.25243683201E+03  0.39626755573E+03  0.00000000000E+00 0.  1.
         22    1    1    2    0    0 -0.13829047006E+04  0.27910313205E+03  0.15422074848E+04  0.20901502088E+04  0.00000000000E+00 0. -1.
<mgrwt>
<rscale>  0 0.40133383E+04</rscale>
<asrwt>0</asrwt>
<pdfrwt beam="1">  1        2 0.29162307E+00 0.40133383E+04</pdfrwt>
<pdfrwt beam="2">  1       -2 0.32681573E+00 0.40133383E+04</pdfrwt>
<totfact> 0.13073540E-01</totfact>
</mgrwt>
</event>
<event>
 6    1  0.1934315E-005  0.1646151E+04  0.7818608E-02  0.8792687E-01
         -2   -1    0    0    0  501 -0.00000000000E+00  0.00000000000E+00  0.42603167342E+03  0.42603167342E+03  0.00000000000E+00 0. -1.
          2   -1    0    0  501    0  0.00000000000E+00 -0.00000000000E+00 -0.15901470894E+04  0.15901470894E+04  0.00000000000E+00 0.  1.
         23    2    1    2    0    0 -0.77075107007E+03 -0.81349020049E+01 -0.92808042357E+03  0.12100547610E+04  0.93679578332E+02 0.  0.
         11    1    3    3    0    0 -0.28330819425E+03 -0.13967060204E+02 -0.27473995431E+03  0.39489321872E+03  0.00000000000E+00 0.  1.
        -11    1    3    3    0    0 -0.48744287582E+03  0.58321581991E+01 -0.65334046927E+03  0.81516154229E+03  0.00000000000E+00 0. -1.
         22    1    1    2    0    0  0.77075107007E+03  0.81349020049E+01 -0.23603499241E+03  0.80612400180E+03  0.00000000000E+00 0. -1.
<mgrwt>
<rscale>  0 0.16461507E+04</rscale>
<asrwt>0</asrwt>
<pdfrwt beam="1">  1        2 0.24463802E+00 0.16461507E+04</pdfrwt>
<pdfrwt beam="2">  1       -2 0.65543333E-01 0.16461507E+04</pdfrwt>
<totfact> 0.23140122E+01</totfact>
</mgrwt>
</event>
<event>
 6    1  0.1934315E-005  0.8997901E+03  0.7818608E-02  0.9425844E-01
          2   -1    0    0  501    0  0.00000000000E+00  0.00000000000E+00  0.18613902240E+04  0.18613902240E+04  0.00000000000E+00 0.  1.
         -2   -1    0    0    0  501 -0.00000000000E+00 -0.00000000000E+00 -0.10873892629E+03  0.10873892629E+03  0.00000000000E+00 0. -1.
         23    2    1    2    0    0 -0.58900853074E+02  0.46222278042E+02  0.18463229419E+04  0.18502117353E+04  0.93644273374E+02 0.  0.
         13    1    3    3    0    0 -0.10963902925E+02  0.56250549682E+02  0.55295046152E+03  0.55591235316E+03  0.00000000000E+00 0. -1.
        -13    1    3    3    0    0 -0.47936950149E+02 -0.10028271640E+02  0.12933724804E+04  0.12942993821E+04  0.00000000000E+00 0.  1.
         22    1    1    2    0    0  0.58900853074E+02 -0.46222278042E+02 -0.93671644260E+02  0.11991741499E+03  0.00000000000E+00 0. -1.
<mgrwt>
<rscale>  0 0.89979014E+03</rscale>
<asrwt>0</asrwt>
<pdfrwt beam="1">  1        2 0.28636770E+00 0.89979014E+03</pdfrwt>
<pdfrwt beam="2">  1       -2 0.16729067E-01 0.89979014E+03</pdfrwt>
<totfact> 0.23422189E+02</totfact>
</mgrwt>
</event>
<event>
 6    1  0.1934315E-005  0.1288617E+04  0.7818608E-02  0.9038641E-01
          2   -1    0    0  501    0  0.00000000000E+00  0.00000000000E+00  0.51037753650E+03  0.51037753650E+03  0.00000000000E+00 0.  1.
         -2   -1    0    0    0  501 -0.00000000000E+00 -0.00000000000E+00 -0.81338444253E+03  0.81338444253E+03  0.00000000000E+00 0. -1.
         23    2    1    2    0    0  0.43993853294E+02 -0.59254218547E+03 -0.39948991906E+03  0.72180627261E+03  0.91489884986E+02 0.  0.
         11    1    3    3    0    0  0.20051120888E+02 -0.47105137513E+03 -0.35517203604E+03  0.59028689689E+03  0.00000000000E+00 0.  1.
        -11    1    3    3    0    0  0.23942732406E+02 -0.12149081034E+03 -0.44317883019E+02  0.13151937571E+03  0.00000000000E+00 0. -1.
         22    1    1    2    0    0 -0.43993853294E+02  0.59254218547E+03  0.96483013026E+02  0.60195570642E+03  0.00000000000E+00 0.  1.
<mgrwt>
<rscale>  0 0.12886165E+04</rscale>
<asrwt>0</asrwt>
<pdfrwt beam="1">  1        2 0.78519622E-01 0.12886165E+04</pdfrwt>
<pdfrwt beam="2">  1       -2 0.12513607E+00 0.12886165E+04</pdfrwt>
<totfact> 0.28188689E+01</totfact>
</mgrwt>
</event>
<event>
 6    1  0.1934315E-005  0.2739955E+03  0.7818608E-02  0.1099014E+00
          2   -1    0    0  501    0  0.00000000000E+00  0.00000000000E+00  0.63204206526E+03  0.63204206526E+03  0.00000000000E+00 0.  1.
         -2   -1    0    0    0  501 -0.00000000000E+00 -0.00000000000E+00 -0.29694833306E+02  0.29694833306E+02  0.00000000000E+00 0. -1.
         23    2    1    2    0    0  0.79374735251E+02 -0.90061884651E+02  0.38074144865E+03  0.40970393473E+03  0.92096534987E+02 0.  0.
         11    1    3    3    0    0  0.16261536140E+01 -0.45238590629E+02  0.22882536835E+03  0.23325999155E+03  0.00000000000E+00 0.  1.
        -11    1    3    3    0    0  0.77748581637E+02 -0.44823294022E+02  0.15191608029E+03  0.17644394318E+03  0.00000000000E+00 0. -1.
         22    1    1    2    0    0 -0.79374735251E+02  0.90061884651E+02  0.22160578331E+03  0.25203296384E+03  0.00000000000E+00 0.  1.
<mgrwt>
<rscale>  0 0.27399550E+03</rscale>
<asrwt>0</asrwt>
<pdfrwt beam="1">  1        2 0.97237231E-01 0.27399550E+03</pdfrwt>
<pdfrwt beam="2">  1       -2 0.45684364E-02 0.27399550E+03</pdfrwt>
<totfact> 0.10610474E+04</totfact>
</mgrwt>
</event>
<event>
 6    1  0.1934315E-005  0.2978315E+04  0.7818608E-02  0.8249950E-01
          1   -1    0    0  501    0  0.00000000000E+00  0.00000000000E+00  0.29800006789E+04  0.29800006789E+04  0.00000000000E+00 0.  1.
         -1   -1    0    0    0  501 -0.00000000000E+00 -0.00000000000E+00 -0.74415742099E+03  0.74415742099E+03  0.00000000000E+00 0. -1.
         23    2    1    2    0    0 -0.21296137214E+03 -0.14182416081E+04  0.62491756343E+03  0.15673448493E+04  0.96364466774E+02 0.  0.
         13    1    3    3    0    0 -0.58505668538E+02 -0.71399100688E+03  0.31011847377E+03  0.78062765703E+03  0.00000000000E+00 0.  1.
        -13    1    3    3    0    0 -0.15445570360E+03 -0.70425060123E+03  0.31479908966E+03  0.78671719223E+03  0.00000000000E+00 0. -1.
         22    1    1    2    0    0  0.21296137214E+03  0.14182416081E+04  0.16109256945E+04  0.21568132507E+04  0.00000000000E+00 0.  1.
<mgrwt>
<rscale>  0 0.29783147E+04</rscale>
<asrwt>0</asrwt>
<pdfrwt beam="1">  1        1 0.45846164E+00 0.29783147E+04</pdfrwt>
<pdfrwt beam="2">  1       -1 0.11448576E+00 0.29783147E+04</pdfrwt>
<totfact> 0.36542641E-01</totfact>
</mgrwt>
</event>
<event>
 6    1  0.1934315E-005  0.1841302E+04  0.7818608E-02  0.8684639E-01
         -2   -1    0    0    0  501 -0.00000000000E+00  0.00000000000E+00  0.89673889785E+03  0.89673889785E+03  0.00000000000E+00 0. -1.
          2   -1    0    0  501    0  0.00000000000E+00 -0.00000000000E+00 -0.94520073117E+03  0.94520073117E+03  0.00000000000E+00 0.  1.
         23    2    1    2    0    0  0.89588296360E+02 -0.20135678776E+03  0.86754840365E+03  0.89979029211E+03  0.91715420080E+02 0.  0.
         11    1    3    3    0    0  0.10571114781E+03 -0.18084765913E+03  0.80922607780E+03  0.83589925683E+03  0.00000000000E+00 0. -1.
        -11    1    3    3    0    0 -0.16122851454E+02 -0.20509128631E+02  0.58322325849E+02  0.63891035276E+02  0.00000000000E+00 0.  1.
         22    1    1    2    0    0 -0.89588296360E+02  0.20135678776E+03 -0.91601023697E+03  0.94214933692E+03  0.00000000000E+00 0.  1.
<mgrwt>
<rscale>  0 0.18413020E+04</rscale>
<asrwt>0</asrwt>
<pdfrwt beam="1">  1        2 0.14541550E+00 0.18413020E+04</pdfrwt>
<pdfrwt beam="2">  1       -2 0.13795983E+00 0.18413020E+04</pdfrwt>
<totfact> 0.96006396E+00</totfact>
</mgrwt>
</event>
<event>
 6    1  0.1934315E-005  0.2131849E+04  0.7818608E-02  0.8547342E-01
          2   -1    0    0  501    0  0.00000000000E+00  0.00000000000E+00  0.83876242794E+03  0.83876242794E+03  0.00000000000E+00 0.  1.
         -2   -1    0    0    0  501 -0.00000000000E+00 -0.00000000000E+00 -0.13546085188E+04  0.13546085188E+04  0.00000000000E+00 0. -1.
         23    2    1    2    0    0 -0.16525715281E+03 -0.15660774730E+03  0.81031184030E+03  0.84781129683E+03  0.10169957446E+03 0.  0.
         13    1    3    3    0    0 -0.15601285764E+03 -0.17146571015E+03  0.75709578680E+03  0.79179197514E+03  0.00000000000E+00 0.  1.
        -13    1    3    3    0    0 -0.92442951647E+01  0.14857962850E+02  0.53216053502E+02  0.56019321698E+02  0.00000000000E+00 0. -1.
         22    1    1    2    0    0  0.16525715281E+03  0.15660774730E+03 -0.13261579311E+04  0.13455596499E+04  0.00000000000E+00 0. -1.
<mgrwt>
<rscale>  0 0.21318487E+04</rscale>
<asrwt>0</asrwt>
<pdfrwt beam="1">  1        2 0.12904037E+00 0.21318487E+04</pdfrwt>
<pdfrwt beam="2">  1       -2 0.20840131E+00 0.21318487E+04</pdfrwt>
<totfact> 0.34819662E+00</totfact>
</mgrwt>
</event>
<event>
 6    1  0.1934315E-005  0.2440643E+04  0.7818608E-02  0.8424442E-01
          2   -1    0    0  501    0  0.00000000000E+00  0.00000000000E+00  0.15964073985E+04  0.15964073985E+04  0.00000000000E+00 0.  1.
         -2   -1    0    0    0  501 -0.00000000000E+00 -0.00000000000E+00 -0.93283479615E+03  0.93283479615E+03  0.00000000000E+00 0. -1.
         23    2    1    2    0    0 -0.53061035957E+03  0.77969376733E+03 -0.46746020020E+03  0.10565898511E+04  0.91615229191E+02 0.  0.
         11    1    3    3    0    0 -0.19425972411E+03  0.25879540022E+03 -0.20644282872E+03  0.38383660732E+03  0.00000000000E+00 0. -1.
        -11    1    3    3    0    0 -0.33635063545E+03  0.52089836711E+03 -0.26101737148E+03  0.67275324380E+03  0.00000000000E+00 0.  1.
         22    1    1    2    0    0  0.53061035957E+03 -0.77969376733E+03  0.11310328026E+04  0.14726523435E+04  0.00000000000E+00 0.  1.
<mgrwt>
<rscale>  0 0.24406428E+04</rscale>
<asrwt>0</asrwt>
<pdfrwt beam="1">  1        2 0.24560114E+00 0.24406428E+04</pdfrwt>
<pdfrwt beam="2">  1       -2 0.14351305E+00 0.24406428E+04</pdfrwt>
<totfact> 0.33810344E+00</totfact>
</mgrwt>
</event>
<event>
 6    1  0.1934315E-005  0.4460202E+04  0.7818608E-02  0.7917641E-01
         -2   -1    0    0    0  501 -0.00000000000E+00  0.00000000000E+00  0.17996304342E+04  0.17996304342E+04  0.00000000000E+00 0. -1.
          2   -1    0    0  501    0  0.00000000000E+00 -0.00000000000E+00 -0.27635398552E+04  0.27635398552E+04  0.00000000000E+00 0.  1.
         23    2    1    2    0    0 -0.17114797125E+04  0.71724425843E+02 -0.19415988160E+04  0.25908154144E+04  0.90616496587E+02 0.  0.
         11    1    3    3    0    0 -0.13510660203E+04  0.20233742971E+02 -0.15188065446E+04  0.20328704128E+04  0.00000000000E+00 0. -1.
        -11    1    3    3    0    0 -0.36041369225E+03  0.51490682872E+02 -0.42279227145E+03  0.55794500158E+03  0.00000000000E+00 0.  1.
         22    1    1    2    0    0  0.17114797125E+04 -0.71724425843E+02  0.97768939499E+03  0.19723548750E+04  0.00000000000E+00 0. -1.
<mgrwt>
<rscale>  0 0.44602020E+04</rscale>
<asrwt>0</asrwt>
<pdfrwt beam="1">  1        2 0.42515998E+00 0.44602020E+04</pdfrwt>
<pdfrwt beam="2">  1       -2 0.27686622E+00 0.44602020E+04</pdfrwt>
<totfact> 0.81363387E-02</totfact>
</mgrwt>
</event>
<event>
 6    1  0.1934315E-005  0.5388073E+04  0.7818608E-02  0.7771281E-01
          2   -1    0    0  501    0  0.00000000000E+00  0.00000000000E+00  0.38584902683E+04  0.38584902683E+04  0.00000000000E+00 0.  1.
         -2   -1    0    0    0  501 -0.00000000000E+00 -0.00000000000E+00 -0.18810032900E+04  0.18810032900E+04  0.00000000000E+00 0. -1.
         23    2    1    2    0    0 -0.10756445832E+04 -0.22421064341E+04 -0.11265154408E+03  0.24909967407E+04  0.91224232042E+02 0.  0.
         11    1    3    3    0    0 -0.68324760511E+03 -0.15070318580E+04 -0.51030072251E+02  0.16554686283E+04  0.00000000000E+00 0.  1.
        -11    1    3    3    0    0 -0.39239697807E+03 -0.73507457611E+03 -0.61621471825E+02  0.83552811241E+03  0.00000000000E+00 0. -1.
         22    1    1    2    0    0  0.10756445832E+04  0.22421064341E+04  0.20901385224E+04  0.32484968176E+04  0.00000000000E+00 0.  1.
<mgrwt>
<rscale>  0 0.53880731E+04</rscale>
<asrwt>0</asrwt>
<pdfrwt beam="1">  1        2 0.59361389E+00 0.53880731E+04</pdfrwt>
<pdfrwt beam="2">  1       -2 0.28938512E+00 0.53880731E+04</pdfrwt>
<totfact> 0.11494168E-02</totfact>
</mgrwt>
</event>
<event>
 6    1  0.1934315E-005  0.8919407E+03  0.7818608E-02  0.9435712E-01
         -2   -1    0    0    0  501 -0.00000000000E+00  0.00000000000E+00  0.29016180509E+03  0.29016180509E+03  0.00000000000E+00 0. -1.
          2   -1    0    0  501    0  0.00000000000E+00 -0.00000000000E+00 -0.68544356857E+03  0.68544356857E+03  0.00000000000E+00 0.  1.
         23    2    1    2    0    0 -0.38762944357E+03 -0.19044615613E+03 -0.29901704301E+03  0.53312009671E+03  0.90991876506E+02 0.  0.
         11    1    3    3    0    0 -0.21933838660E+03 -0.75427037044E+02 -0.20108075787E+03  0.30697237162E+03  0.00000000000E+00 0. -1.
        -11    1    3    3    0    0 -0.16829105697E+03 -0.11501911909E+03 -0.97936285136E+02  0.22614772508E+03  0.00000000000E+00 0.  1.
         22    1    1    2    0    0  0.38762944357E+03  0.19044615613E+03 -0.96264720473E+02  0.44248527695E+03  0.00000000000E+00 0. -1.
<mgrwt>
<rscale>  0 0.89194068E+03</rscale>
<asrwt>0</asrwt>
<pdfrwt beam="1">  1        2 0.10545286E+00 0.89194068E+03</pdfrwt>
<pdfrwt beam="2">  1       -2 0.44640278E-01 0.89194068E+03</pdfrwt>
<totfact> 0.20087515E+02</totfact>
</mgrwt>
</event>
<event>
 6    1  0.1934315E-005  0.2737147E+04  0.7818608E-02  0.8323052E-01
         -2   -1    0    0    0  501 -0.00000000000E+00  0.00000000000E+00  0.17301533414E+04  0.17301533414E+04  0.00000000000E+00 0. -1.
          2   -1    0    0  501    0  0.00000000000E+00 -0.00000000000E+00 -0.10825594614E+04  0.10825594614E+04  0.00000000000E+00 0.  1.
         23    2    1    2    0    0 -0.59625350944E+03 -0.11121713870E+04  0.86447592289E+03  0.15322905045E+04  0.90289131474E+02 0.  0.
         11    1    3    3    0    0 -0.35259124701E+03 -0.56588464678E+03  0.44078336902E+03  0.79927216850E+03  0.00000000000E+00 0. -1.
        -11    1    3    3    0    0 -0.24366226243E+03 -0.54628674025E+03  0.42369255387E+03  0.73301833600E+03  0.00000000000E+00 0.  1.
         22    1    1    2    0    0  0.59625350944E+03  0.11121713870E+04 -0.21688204287E+03  0.12804222984E+04  0.00000000000E+00 0.  1.
<mgrwt>
<rscale>  0 0.27371473E+04</rscale>
<asrwt>0</asrwt>
<pdfrwt beam="1">  1        2 0.16654761E+00 0.27371473E+04</pdfrwt>
<pdfrwt beam="2">  1       -2 0.26617744E+00 0.27371473E+04</pdfrwt>
<totfact> 0.99910669E-01</totfact>
</mgrwt>
</event>
<event>
 6    1  0.1934315E-005  0.1160111E+04  0.7818608E-02  0.9148506E-01
         -2   -1    0    0    0  501 -0.00000000000E+00  0.00000000000E+00  0.19377904408E+03  0.19377904408E+03  0.00000000000E+00 0. -1.
          2   -1    0    0  501    0  0.00000000000E+00 -0.00000000000E+00 -0.17363287358E+04  0.17363287358E+04  0.00000000000E+00 0.  1.
         23    2    1    2    0    0 -0.19964360580E+03  0.43829011184E+03 -0.13028242981E+04  0.13921263157E+04  0.93320607146E+02 0.  0.
         11    1    3    3    0    0 -0.13957848932E+03  0.19584093777E+03 -0.66367015421E+03  0.70589935626E+03  0.00000000000E+00 0. -1.
        -11    1    3    3    0    0 -0.60065116482E+02  0.24244917407E+03 -0.63915414384E+03  0.68622695941E+03  0.00000000000E+00 0.  1.
         22    1    1    2    0    0  0.19964360580E+03 -0.43829011184E+03 -0.23972539368E+03  0.53798146423E+03  0.00000000000E+00 0. -1.
<mgrwt>
<rscale>  0 0.11601106E+04</rscale>
<asrwt>0</asrwt>
<pdfrwt beam="1">  1        2 0.26712750E+00 0.11601106E+04</pdfrwt>
<pdfrwt beam="2">  1       -2 0.29812160E-01 0.11601106E+04</pdfrwt>
<totfact> 0.96082816E+01</totfact>
</mgrwt>
</event>
<event>
 6    1  0.1934315E-005  0.8364536E+03  0.7818608E-02  0.9508701E-01
         -2   -1    0    0    0  501 -0.00000000000E+00  0.00000000000E+00  0.88419579417E+02  0.88419579417E+02  0.00000000000E+00 0. -1.
          2   -1    0    0  501    0  0.00000000000E+00 -0.00000000000E+00 -0.19782228857E+04  0.19782228857E+04  0.00000000000E+00 0.  1.
         23    2    1    2    0    0 -0.20815468291E+01  0.38352946992E+03 -0.13354840587E+04  0.13925734661E+04  0.92973116748E+02 0.  0.
         13    1    3    3    0    0  0.11643065482E+02  0.79084470186E+01 -0.10563941743E+03  0.10657293758E+03  0.00000000000E+00 0.  1.
        -13    1    3    3    0    0 -0.13724612311E+02  0.37562102290E+03 -0.12298446413E+04  0.12860005286E+04  0.00000000000E+00 0. -1.
         22    1    1    2    0    0  0.20815468291E+01 -0.38352946992E+03 -0.55431924758E+03  0.67406899896E+03  0.00000000000E+00 0. -1.
<mgrwt>
<rscale>  0 0.83645355E+03</rscale>
<asrwt>0</asrwt>
<pdfrwt beam="1">  1        2 0.30434198E+00 0.83645355E+03</pdfrwt>
<pdfrwt beam="2">  1       -2 0.13603013E-01 0.83645355E+03</pdfrwt>
<totfact> 0.28843020E+02</totfact>
</mgrwt>
</event>
<event>
 6    1  0.1934315E-005  0.1528307E+04  0.7818608E-02  0.8865844E-01
          1   -1    0    0  501    0  0.00000000000E+00  0.00000000000E+00  0.94767649684E+03  0.94767649684E+03  0.00000000000E+00 0.  1.
         -1   -1    0    0    0  501 -0.00000000000E+00 -0.00000000000E+00 -0.61617116427E+03  0.61617116427E+03  0.00000000000E+00 0. -1.
         23    2    1    2    0    0  0.50344754590E+03  0.66269181838E+02  0.74677889992E+03  0.90787268317E+03  0.93290125655E+02 0.  0.
         11    1    3    3    0    0  0.42855133883E+03  0.29862787451E+02  0.58349038335E+03  0.72457509173E+03  0.00000000000E+00 0. -1.
        -11    1    3    3    0    0  0.74896207075E+02  0.36406394387E+02  0.16328851657E+03  0.18329759144E+03  0.00000000000E+00 0.  1.
         22    1    1    2    0    0 -0.50344754590E+03 -0.66269181838E+02 -0.41527356736E+03  0.65597497794E+03  0.00000000000E+00 0. -1.
<mgrwt>
<rscale>  0 0.15283075E+04</rscale>
<asrwt>0</asrwt>
<pdfrwt beam="1">  1        1 0.14579638E+00 0.15283075E+04</pdfrwt>
<pdfrwt beam="2">  1       -1 0.94795564E-01 0.15283075E+04</pdfrwt>
<totfact> 0.17290826E+01</totfact>
</mgrwt>
</event>
<event>
 6    1  0.1934315E-005  0.1906208E+04  0.7818608E-02  0.8651772E-01
          2   -1    0    0  501    0  0.00000000000E+00  0.00000000000E+00  0.13287521861E+04  0.13287521861E+04  0.00000000000E+00 0.  1.
         -2   -1    0    0    0  501 -0.00000000000E+00 -0.00000000000E+00 -0.68365432667E+03  0.68365432667E+03  0.00000000000E+00 0. -1.
         23    2    1    2    0    0  0.65302180663E+03 -0.68451916039E+03  0.42542595179E+03  0.10411909301E+04  0.89929703943E+02 0.  0.
         13    1    3    3    0    0  0.44848392739E+03 -0.52748480420E+03  0.31568424299E+03  0.76094322592E+03  0.00000000000E+00 0. -1.
        -13    1    3    3    0    0  0.20453787924E+03 -0.15703435618E+03  0.10974170880E+03  0.28024770421E+03  0.00000000000E+00 0.  1.
         22    1    1    2    0    0 -0.65302180663E+03  0.68451916039E+03  0.21967190760E+03  0.97121558259E+03  0.00000000000E+00 0.  1.
<mgrwt>
<rscale>  0 0.19062079E+04</rscale>
<asrwt>0</asrwt>
<pdfrwt beam="1">  1        2 0.20442341E+00 0.19062079E+04</pdfrwt>
<pdfrwt beam="2">  1       -2 0.10517759E+00 0.19062079E+04</pdfrwt>
<totfact> 0.10902804E+01</totfact>
</mgrwt>
</event>
<event>
 6    1  0.1934315E-005  0.1856625E+04  0.7818608E-02  0.8676753E-01
         -2   -1    0    0    0  501 -0.00000000000E+00  0.00000000000E+00  0.48928386135E+03  0.48928386135E+03  0.00000000000E+00 0. -1.
          2   -1    0    0  501    0  0.00000000000E+00 -0.00000000000E+00 -0.17612764689E+04  0.17612764689E+04  0.00000000000E+00 0.  1.
         23    2    1    2    0    0  0.56490646141E+03 -0.32752626543E+02  0.25090033200E+03  0.62593885125E+03  0.93039906556E+02 0.  0.
         11    1    3    3    0    0  0.39145581793E+03 -0.62137240408E+02  0.15509417806E+03  0.42562060348E+03  0.00000000000E+00 0. -1.
        -11    1    3    3    0    0  0.17345064348E+03  0.29384613864E+02  0.95806153944E+02  0.20031824777E+03  0.00000000000E+00 0.  1.
         22    1    1    2    0    0 -0.56490646141E+03  0.32752626543E+02 -0.15228929396E+04  0.16246214790E+04  0.00000000000E+00 0.  1.
<mgrwt>
<rscale>  0 0.18566251E+04</rscale>
<asrwt>0</asrwt>
<pdfrwt beam="1">  1        2 0.27096561E+00 0.18566251E+04</pdfrwt>
<pdfrwt beam="2">  1       -2 0.75274440E-01 0.18566251E+04</pdfrwt>
<totfact> 0.13495381E+01</totfact>
</mgrwt>
</event>
<event>
 6    1  0.1934315E-005  0.2563704E+04  0.7818608E-02  0.8380636E-01
         -2   -1    0    0    0  501 -0.00000000000E+00  0.00000000000E+00  0.13149892111E+04  0.13149892111E+04  0.00000000000E+00 0. -1.
          2   -1    0    0  501    0  0.00000000000E+00 -0.00000000000E+00 -0.12495498454E+04  0.12495498454E+04  0.00000000000E+00 0.  1.
         23    2    1    2    0    0  0.74180866057E+03 -0.10154656812E+04 -0.20787862937E+03  0.12776228336E+04  0.87498238232E+02 0.  0.
         13    1    3    3    0    0  0.45987167469E+02 -0.45717465877E+02  0.57438368753E+01  0.65099139165E+02  0.00000000000E+00 0.  1.
        -13    1    3    3    0    0  0.69582149310E+03 -0.96974821533E+03 -0.21362246624E+03  0.12125236944E+04  0.00000000000E+00 0. -1.
         22    1    1    2    0    0 -0.74180866057E+03  0.10154656812E+04  0.27331799507E+03  0.12869162230E+04  0.00000000000E+00 0. -1.
<mgrwt>
<rscale>  0 0.25637040E+04</rscale>
<asrwt>0</asrwt>
<pdfrwt beam="1">  1        2 0.19223844E+00 0.25637040E+04</pdfrwt>
<pdfrwt beam="2">  1       -2 0.20230603E+00 0.25637040E+04</pdfrwt>
<totfact> 0.20169843E+00</totfact>
</mgrwt>
</event>
<event>
 6    1  0.2588079E-005  0.4011946E+04  0.7818608E-02  0.8002141E-01
          1   -1    0    0  501    0  0.00000000000E+00  0.00000000000E+00  0.13930181768E+04  0.13930181768E+04  0.00000000000E+00 0.  1.
         -1   -1    0    0    0  501 -0.00000000000E+00 -0.00000000000E+00 -0.28886403118E+04  0.28886403118E+04  0.00000000000E+00 0. -1.
         23    2    1    2    0    0 -0.10415885258E+04 -0.88391188237E+03  0.81795163296E+03  0.15948703591E+04  0.91431480569E+02 0.  0.
         11    1    3    3    0    0 -0.39523068173E+03 -0.27826730732E+03  0.29263664578E+03  0.56504530133E+03  0.00000000000E+00 0. -1.
        -11    1    3    3    0    0 -0.64635784412E+03 -0.60564457505E+03  0.52531498718E+03  0.10298250578E+04  0.00000000000E+00 0.  1.
         22    1    1    2    0    0  0.10415885258E+04  0.88391188237E+03 -0.23135737679E+04  0.26867881295E+04  0.00000000000E+00 0. -1.
<mgrwt>
<rscale>  0 0.40119464E+04</rscale>
<asrwt>0</asrwt>
<pdfrwt beam="1">  1        1 0.21431049E+00 0.40119464E+04</pdfrwt>
<pdfrwt beam="2">  1       -1 0.44440621E+00 0.40119464E+04</pdfrwt>
<totfact> 0.21481504E-02</totfact>
</mgrwt>
</event>
<event>
 6    1  0.1934315E-005  0.1633393E+04  0.7818608E-02  0.8800292E-01
         -2   -1    0    0    0  501 -0.00000000000E+00  0.00000000000E+00  0.56132311930E+03  0.56132311930E+03  0.00000000000E+00 0.  1.
          2   -1    0    0  501    0  0.00000000000E+00 -0.00000000000E+00 -0.11882510765E+04  0.11882510765E+04  0.00000000000E+00 0. -1.
         23    2    1    2    0    0  0.49786049828E+03  0.62846502286E+03 -0.16251700734E+03  0.82301556784E+03  0.90052687475E+02 0.  0.
         11    1    3    3    0    0  0.15601587684E+03  0.14353628416E+03 -0.20794713108E+02  0.21301652235E+03  0.00000000000E+00 0. -1.
        -11    1    3    3    0    0  0.34184462144E+03  0.48492873869E+03 -0.14172229423E+03  0.60999904549E+03  0.00000000000E+00 0.  1.
         22    1    1    2    0    0 -0.49786049828E+03 -0.62846502286E+03 -0.46441094985E+03  0.92655862796E+03  0.00000000000E+00 0. -1.
<mgrwt>
<rscale>  0 0.16333925E+04</rscale>
<asrwt>0</asrwt>
<pdfrwt beam="1">  1        2 0.18280786E+00 0.16333925E+04</pdfrwt>
<pdfrwt beam="2">  1       -2 0.86357403E-01 0.16333925E+04</pdfrwt>
<totfact> 0.21400715E+01</totfact>
</mgrwt>
</event>
<event>
 6    1  0.1934315E-005  0.2952638E+04  0.7818608E-02  0.8257386E-01
         -1   -1    0    0    0  501 -0.00000000000E+00  0.00000000000E+00  0.55325356907E+03  0.55325356907E+03  0.00000000000E+00 0. -1.
          1   -1    0    0  501    0  0.00000000000E+00 -0.00000000000E+00 -0.39394564304E+04  0.39394564304E+04  0.00000000000E+00 0.  1.
         23    2    1    2    0    0 -0.11413393136E+03  0.14589120896E+04 -0.19750439734E+04  0.24597760491E+04  0.90821118547E+02 0.  0.
         13    1    3    3    0    0 -0.46197701662E+02  0.79387296706E+03 -0.11438072003E+04  0.13930769637E+04  0.00000000000E+00 0.  1.
        -13    1    3    3    0    0 -0.67936229700E+02  0.66503912253E+03 -0.83123677307E+03  0.10666990854E+04  0.00000000000E+00 0. -1.
         22    1    1    2    0    0  0.11413393136E+03 -0.14589120896E+04 -0.14111588880E+04  0.20329339504E+04  0.00000000000E+00 0. -1.
<mgrwt>
<rscale>  0 0.29526384E+04</rscale>
<asrwt>0</asrwt>
<pdfrwt beam="1">  1        1 0.60607021E+00 0.29526384E+04</pdfrwt>
<pdfrwt beam="2">  1       -1 0.85115935E-01 0.29526384E+04</pdfrwt>
<totfact> 0.12635520E-01</totfact>
</mgrwt>
</event>
<event>
 6    1  0.1934315E-005  0.3043867E+04  0.7818608E-02  0.8231314E-01
         -2   -1    0    0    0  501 -0.00000000000E+00  0.00000000000E+00  0.10719463595E+04  0.10719463595E+04  0.00000000000E+00 0. -1.
          2   -1    0    0  501    0  0.00000000000E+00 -0.00000000000E+00 -0.21608188611E+04  0.21608188611E+04  0.00000000000E+00 0.  1.
         23    2    1    2    0    0  0.89961322708E+03  0.43313681145E+02  0.75648196732E+03  0.11793502238E+04  0.86150740610E+02 0.  0.
         13    1    3    3    0    0  0.72035635912E+03  0.26186011008E+02  0.55971433329E+03  0.91262211577E+03  0.00000000000E+00 0.  1.
        -13    1    3    3    0    0  0.17925686796E+03  0.17127670137E+02  0.19676763403E+03  0.26672810800E+03  0.00000000000E+00 0. -1.
         22    1    1    2    0    0 -0.89961322708E+03 -0.43313681145E+02 -0.18453544689E+04  0.20534149969E+04  0.00000000000E+00 0.  1.
<mgrwt>
<rscale>  0 0.30438672E+04</rscale>
<asrwt>0</asrwt>
<pdfrwt beam="1">  1        2 0.33243367E+00 0.30438672E+04</pdfrwt>
<pdfrwt beam="2">  1       -2 0.16491483E+00 0.30438672E+04</pdfrwt>
<totfact> 0.10742926E+00</totfact>
</mgrwt>
</event>
<event>
 6    1  0.1934315E-005  0.5217211E+03  0.7818608E-02  0.1008260E+00
          2   -1    0    0  501    0  0.00000000000E+00  0.00000000000E+00  0.29781954053E+03  0.29781954053E+03  0.00000000000E+00 0.  1.
         -2   -1    0    0    0  501 -0.00000000000E+00 -0.00000000000E+00 -0.22848814047E+03  0.22848814047E+03  0.00000000000E+00 0. -1.
         23    2    1    2    0    0  0.21936578011E+03 -0.12041673342E+03  0.84806897748E+01  0.26877254919E+03  0.97699672102E+02 0.  0.
         13    1    3    3    0    0  0.11685973215E+03 -0.64593268252E+02  0.53264318134E+02  0.14375526038E+03  0.00000000000E+00 0. -1.
        -13    1    3    3    0    0  0.10250604796E+03 -0.55823465172E+02 -0.44783628359E+02  0.12501728881E+03  0.00000000000E+00 0.  1.
         22    1    1    2    0    0 -0.21936578011E+03  0.12041673342E+03  0.60850710283E+02  0.25753513181E+03  0.00000000000E+00 0. -1.
<mgrwt>
<rscale>  0 0.52172112E+03</rscale>
<asrwt>0</asrwt>
<pdfrwt beam="1">  1        2 0.45818391E-01 0.52172112E+03</pdfrwt>
<pdfrwt beam="2">  1       -2 0.35152022E-01 0.52172112E+03</pdfrwt>
<totfact> 0.84395923E+02</totfact>
</mgrwt>
</event>
<event>
 6    1  0.1934315E-005  0.4436782E+04  0.7818608E-02  0.7921799E-01
          2   -1    0    0  501    0  0.00000000000E+00  0.00000000000E+00  0.32957724535E+04  0.32957724535E+04  0.00000000000E+00 0.  1.
         -2   -1    0    0    0  501 -0.00000000000E+00 -0.00000000000E+00 -0.14932034984E+04  0.14932034984E+04  0.00000000000E+00 0. -1.
         23    2    1    2    0    0 -0.10490714445E+04  0.19459091533E+04  0.71468400005E+03  0.23251157684E+04  0.90976853510E+02 0.  0.
         11    1    3    3    0    0 -0.64429274812E+03  0.12384823473E+04  0.41038262185E+03  0.14551170283E+04  0.00000000000E+00 0.  1.
        -11    1    3    3    0    0 -0.40477869642E+03  0.70742680601E+03  0.30430137821E+03  0.86999874007E+03  0.00000000000E+00 0. -1.
         22    1    1    2    0    0  0.10490714445E+04 -0.19459091533E+04  0.10878849550E+04  0.24638601835E+04  0.00000000000E+00 0. -1.
<mgrwt>
<rscale>  0 0.44367821E+04</rscale>
<asrwt>0</asrwt>
<pdfrwt beam="1">  1        2 0.50704191E+00 0.44367821E+04</pdfrwt>
<pdfrwt beam="2">  1       -2 0.22972362E+00 0.44367821E+04</pdfrwt>
<totfact> 0.73201479E-02</totfact>
</mgrwt>
</event>
<event>
 6    1  0.1934315E-005  0.1370013E+04  0.7818608E-02  0.8975815E-01
         -4   -1    0    0    0  501 -0.00000000000E+00  0.00000000000E+00  0.15622158102E+04  0.15622158102E+04  0.00000000000E+00 0. -1.
          4   -1    0    0  501    0  0.00000000000E+00 -0.00000000000E+00 -0.30036443711E+03  0.30036443711E+03  0.00000000000E+00 0.  1.
         23    2    1    2    0    0 -0.48434026791E+03  0.38620268044E+02 -0.17039330213E+02  0.49450186826E+03  0.90358943741E+02 0.  0.
         13    1    3    3    0    0 -0.31242973940E+03  0.64899153366E+02 -0.27487483150E+02  0.32028082037E+03  0.00000000000E+00 0. -1.
        -13    1    3    3    0    0 -0.17191052851E+03 -0.26278885322E+02  0.10448152937E+02  0.17422104789E+03  0.00000000000E+00 0.  1.
         22    1    1    2    0    0  0.48434026791E+03 -0.38620268044E+02  0.12788907033E+04  0.13680783790E+04  0.00000000000E+00 0. -1.
<mgrwt>
<rscale>  0 0.13700132E+04</rscale>
<asrwt>0</asrwt>
<pdfrwt beam="1">  1        4 0.46209914E-01 0.13700132E+04</pdfrwt>
<pdfrwt beam="2">  1       -4 0.24034089E+00 0.13700132E+04</pdfrwt>
<totfact> 0.64461626E-01</totfact>
</mgrwt>
</event>
<event>
 6    1  0.1934315E-005  0.3399577E+04  0.7818608E-02  0.8138010E-01
         -2   -1    0    0    0  501 -0.00000000000E+00  0.00000000000E+00  0.23017995980E+04  0.23017995980E+04  0.00000000000E+00 0. -1.
          2   -1    0    0  501    0  0.00000000000E+00 -0.00000000000E+00 -0.12552269185E+04  0.12552269185E+04  0.00000000000E+00 0.  1.
         23    2    1    2    0    0 -0.90512058911E+03 -0.11752417377E+04  0.13896669172E+04  0.20344792828E+04  0.86575910994E+02 0.  0.
         13    1    3    3    0    0 -0.58832242320E+03 -0.74753546541E+03  0.94565764009E+03  0.13413429531E+04  0.00000000000E+00 0. -1.
        -13    1    3    3    0    0 -0.31679816592E+03 -0.42770627231E+03  0.44400927716E+03  0.69313632966E+03  0.00000000000E+00 0.  1.
         22    1    1    2    0    0  0.90512058911E+03  0.11752417377E+04 -0.34309423771E+03  0.15225472337E+04  0.00000000000E+00 0.  1.
<mgrwt>
<rscale>  0 0.33995769E+04</rscale>
<asrwt>0</asrwt>
<pdfrwt beam="1">  1        2 0.19311183E+00 0.33995769E+04</pdfrwt>
<pdfrwt beam="2">  1       -2 0.35412302E+00 0.33995769E+04</pdfrwt>
<totfact> 0.21309406E-01</totfact>
</mgrwt>
</event>
<event>
 6    1  0.1934315E-005  0.3665561E+04  0.7818608E-02  0.8075637E-01
         -2   -1    0    0    0  501 -0.00000000000E+00  0.00000000000E+00  0.12434595072E+04  0.12434595072E+04  0.00000000000E+00 0. -1.
          2   -1    0    0  501    0  0.00000000000E+00 -0.00000000000E+00 -0.27014018444E+04  0.27014018444E+04  0.00000000000E+00 0.  1.
         23    2    1    2    0    0 -0.16111931952E+04  0.19413944164E+03  0.18480377881E+03  0.16356951738E+04  0.87821578468E+02 0.  0.
         13    1    3    3    0    0 -0.11005276266E+04  0.13450247300E+03  0.85071019271E+02  0.11119752922E+04  0.00000000000E+00 0. -1.
        -13    1    3    3    0    0 -0.51066556867E+03  0.59636968642E+02  0.99732759534E+02  0.52371988159E+03  0.00000000000E+00 0.  1.
         22    1    1    2    0    0  0.16111931952E+04 -0.19413944164E+03 -0.16427461160E+04  0.23091661778E+04  0.00000000000E+00 0. -1.
<mgrwt>
<rscale>  0 0.36655607E+04</rscale>
<asrwt>0</asrwt>
<pdfrwt beam="1">  1        2 0.41560028E+00 0.36655607E+04</pdfrwt>
<pdfrwt beam="2">  1       -2 0.19130146E+00 0.36655607E+04</pdfrwt>
<totfact> 0.32633119E-01</totfact>
</mgrwt>
</event>
<event>
 6    1  0.1934315E-005  0.3058294E+04  0.7818608E-02  0.8227278E-01
         -2   -1    0    0    0  501 -0.00000000000E+00  0.00000000000E+00  0.58548313488E+03  0.58548313488E+03  0.00000000000E+00 0. -1.
          2   -1    0    0  501    0  0.00000000000E+00 -0.00000000000E+00 -0.39937795054E+04  0.39937795054E+04  0.00000000000E+00 0.  1.
         23    2    1    2    0    0 -0.88204799386E+03  0.85192771465E+02  0.15666969318E+03  0.90581065243E+03  0.10334927921E+03 0.  0.
         11    1    3    3    0    0 -0.77114461003E+03  0.40021211748E+02  0.14256856926E+03  0.78523340728E+03  0.00000000000E+00 0.  1.
        -11    1    3    3    0    0 -0.11090338383E+03  0.45171559717E+02  0.14101123924E+02  0.12057724515E+03  0.00000000000E+00 0. -1.
         22    1    1    2    0    0  0.88204799386E+03 -0.85192771465E+02 -0.35649660637E+04  0.36734519879E+04  0.00000000000E+00 0.  1.
<mgrwt>
<rscale>  0 0.30582940E+04</rscale>
<asrwt>0</asrwt>
<pdfrwt beam="1">  1        2 0.61442763E+00 0.30582940E+04</pdfrwt>
<pdfrwt beam="2">  1       -2 0.90074326E-01 0.30582940E+04</pdfrwt>
<totfact> 0.31073048E-01</totfact>
</mgrwt>
</event>
<event>
 6    1  0.1934315E-005  0.6031605E+04  0.7818608E-02  0.7686496E-01
         -2   -1    0    0    0  501 -0.00000000000E+00  0.00000000000E+00  0.38022177453E+04  0.38022177453E+04  0.00000000000E+00 0. -1.
          2   -1    0    0  501    0  0.00000000000E+00 -0.00000000000E+00 -0.23920417813E+04  0.23920417813E+04  0.00000000000E+00 0.  1.
         23    2    1    2    0    0  0.22398504463E+04 -0.21886737003E+03 -0.13553583064E+04  0.26287283252E+04  0.91561572845E+02 0.  0.
         11    1    3    3    0    0  0.19000474892E+04 -0.15391275612E+03 -0.11360318861E+04  0.22191074881E+04  0.00000000000E+00 0.  1.
        -11    1    3    3    0    0  0.33980295709E+03 -0.64954613907E+02 -0.21932642029E+03  0.40962083706E+03  0.00000000000E+00 0. -1.
         22    1    1    2    0    0 -0.22398504463E+04  0.21886737003E+03  0.27655342704E+04  0.35655312014E+04  0.00000000000E+00 0. -1.
<mgrwt>
<rscale>  0 0.60316047E+04</rscale>
<asrwt>0</asrwt>
<pdfrwt beam="1">  1        2 0.36800643E+00 0.60316047E+04</pdfrwt>
<pdfrwt beam="2">  1       -2 0.58495658E+00 0.60316047E+04</pdfrwt>
<totfact> 0.16113664E-03</totfact>
</mgrwt>
</event>
<event>
 6    1  0.1934315E-005  0.1389889E+04  0.7818608E-02  0.8961170E-01
         -2   -1    0    0    0  501 -0.00000000000E+00  0.00000000000E+00  0.29619282435E+03  0.29619282435E+03  0.00000000000E+00 0. -1.
          2   -1    0    0  501    0  0.00000000000E+00 -0.00000000000E+00 -0.16305189384E+04  0.16305189384E+04  0.00000000000E+00 0.  1.
         23    2    1    2    0    0 -0.36739518084E+03  0.10489808384E+03 -0.14697888312E+04  0.15213317255E+04  0.90488583897E+02 0.  0.
         11    1    3    3    0    0 -0.33399262999E+03  0.89593950563E+02 -0.11927076172E+04  0.12418251137E+04  0.00000000000E+00 0.  1.
        -11    1    3    3    0    0 -0.33402550849E+02  0.15304133276E+02 -0.27708121392E+03  0.27950661173E+03  0.00000000000E+00 0. -1.
         22    1    1    2    0    0  0.36739518084E+03 -0.10489808384E+03  0.13546271711E+03  0.40538003728E+03  0.00000000000E+00 0. -1.
<mgrwt>
<rscale>  0 0.13898892E+04</rscale>
<asrwt>0</asrwt>
<pdfrwt beam="1">  1        2 0.25084907E+00 0.13898892E+04</pdfrwt>
<pdfrwt beam="2">  1       -2 0.45568127E-01 0.13898892E+04</pdfrwt>
<totfact> 0.47683988E+01</totfact>
</mgrwt>
</event>
<event>
 6    1  0.1934315E-005  0.2153174E+04  0.7818608E-02  0.8538175E-01
         -2   -1    0    0    0  501 -0.00000000000E+00  0.00000000000E+00  0.20714896143E+04  0.20714896143E+04  0.00000000000E+00 0. -1.
          2   -1    0    0  501    0  0.00000000000E+00 -0.00000000000E+00 -0.55951991718E+03  0.55951991718E+03  0.00000000000E+00 0.  1.
         23    2    1    2    0    0  0.82555698789E+03 -0.65406364065E+03  0.10177682933E+04  0.14675755567E+04  0.92639782746E+02 0.  0.
         11    1    3    3    0    0  0.19530330888E+03 -0.14150982688E+03  0.18280936676E+03  0.30263456203E+03  0.00000000000E+00 0. -1.
        -11    1    3    3    0    0  0.63025367901E+03 -0.51255381377E+03  0.83495892658E+03  0.11649409946E+04  0.00000000000E+00 0.  1.
         22    1    1    2    0    0 -0.82555698789E+03  0.65406364065E+03  0.49420140383E+03  0.11634339748E+04  0.00000000000E+00 0.  1.
<mgrwt>
<rscale>  0 0.21531741E+04</rscale>
<asrwt>0</asrwt>
<pdfrwt beam="1">  1        2 0.86079988E-01 0.21531741E+04</pdfrwt>
<pdfrwt beam="2">  1       -2 0.31869071E+00 0.21531741E+04</pdfrwt>
<totfact> 0.12085884E+00</totfact>
</mgrwt>
</event>
<event>
 6    1  0.1934315E-005  0.4818557E+04  0.7818608E-02  0.7857123E-01
         -2   -1    0    0    0  501 -0.00000000000E+00  0.00000000000E+00  0.14205019467E+04  0.14205019467E+04  0.00000000000E+00 0. -1.
          2   -1    0    0  501    0  0.00000000000E+00 -0.00000000000E+00 -0.40863188620E+04  0.40863188620E+04  0.00000000000E+00 0.  1.
         23    2    1    2    0    0 -0.16327355823E+04 -0.66870127798E+03  0.54007823502E+03  0.18474833556E+04  0.92322090780E+02 0.  0.
         13    1    3    3    0    0 -0.66148135885E+03 -0.31345172911E+03  0.24768778975E+03  0.77276051645E+03  0.00000000000E+00 0. -1.
        -13    1    3    3    0    0 -0.97125422342E+03 -0.35524954887E+03  0.29239044527E+03  0.10747228391E+04  0.00000000000E+00 0.  1.
         22    1    1    2    0    0  0.16327355823E+04  0.66870127798E+03 -0.32058951503E+04  0.36593374531E+04  0.00000000000E+00 0.  1.
<mgrwt>
<rscale>  0 0.48185574E+04</rscale>
<asrwt>0</asrwt>
<pdfrwt beam="1">  1        2 0.62866443E+00 0.48185574E+04</pdfrwt>
<pdfrwt beam="2">  1       -2 0.21853876E+00 0.48185574E+04</pdfrwt>
<totfact> 0.21555872E-02</totfact>
</mgrwt>
</event>
<event>
 6    1  0.1934315E-005  0.4763778E+04  0.7818608E-02  0.7866017E-01
          2   -1    0    0  501    0  0.00000000000E+00  0.00000000000E+00  0.21006472629E+04  0.21006472629E+04  0.00000000000E+00 0.  1.
         -2   -1    0    0    0  501 -0.00000000000E+00 -0.00000000000E+00 -0.27007848129E+04  0.27007848129E+04  0.00000000000E+00 0. -1.
         23    2    1    2    0    0  0.15174919106E+04  0.15197037917E+04 -0.13361356098E+04  0.25311954235E+04  0.97008202051E+02 0.  0.
         13    1    3    3    0    0  0.46400549508E+03  0.45903977762E+03 -0.35426798346E+03  0.74264690197E+03  0.00000000000E+00 0.  1.
        -13    1    3    3    0    0  0.10534864155E+04  0.10606640140E+04 -0.98186762632E+03  0.17885485216E+04  0.00000000000E+00 0. -1.
         22    1    1    2    0    0 -0.15174919106E+04 -0.15197037917E+04  0.73599805975E+03  0.22702366522E+04  0.00000000000E+00 0.  1.
<mgrwt>
<rscale>  0 0.47637784E+04</rscale>
<asrwt>0</asrwt>
<pdfrwt beam="1">  1        2 0.32317650E+00 0.47637784E+04</pdfrwt>
<pdfrwt beam="2">  1       -2 0.41550536E+00 0.47637784E+04</pdfrwt>
<totfact> 0.25586774E-02</totfact>
</mgrwt>
</event>
<event>
 6    1  0.1934315E-005  0.3027025E+04  0.7818608E-02  0.8236056E-01
          2   -1    0    0  501    0  0.00000000000E+00  0.00000000000E+00  0.23665487842E+04  0.23665487842E+04  0.00000000000E+00 0.  1.
         -2   -1    0    0    0  501 -0.00000000000E+00 -0.00000000000E+00 -0.96795815969E+03  0.96795815969E+03  0.00000000000E+00 0. -1.
         23    2    1    2    0    0  0.96483512500E+03 -0.23914259695E+03 -0.55530278072E+03  0.11422944909E+04  0.91539748351E+02 0.  0.
         13    1    3    3    0    0  0.46367366133E+02 -0.58074658580E+01 -0.64198392535E+01  0.47168566205E+02  0.00000000000E+00 0.  1.
        -13    1    3    3    0    0  0.91846775886E+03 -0.23333513109E+03 -0.54888294146E+03  0.10951259247E+04  0.00000000000E+00 0. -1.
         22    1    1    2    0    0 -0.96483512500E+03  0.23914259695E+03  0.19538934052E+04  0.21922124530E+04  0.00000000000E+00 0.  1.
<mgrwt>
<rscale>  0 0.30270251E+04</rscale>
<asrwt>0</asrwt>
<pdfrwt beam="1">  1        2 0.36408443E+00 0.30270251E+04</pdfrwt>
<pdfrwt beam="2">  1       -2 0.14891664E+00 0.30270251E+04</pdfrwt>
<totfact> 0.10837313E+00</totfact>
</mgrwt>
</event>
<event>
 6    1  0.1934315E-005  0.1710330E+04  0.7818608E-02  0.8755495E-01
          2   -1    0    0  501    0  0.00000000000E+00  0.00000000000E+00  0.81370018148E+03  0.81370018148E+03  0.00000000000E+00 0.  1.
         -2   -1    0    0    0  501 -0.00000000000E+00 -0.00000000000E+00 -0.89874243883E+03  0.89874243883E+03  0.00000000000E+00 0. -1.
         23    2    1    2    0    0 -0.33694349336E+02  0.26837038931E+03  0.76707473627E+03  0.81842844488E+03  0.90903758630E+02 0.  0.
         13    1    3    3    0    0 -0.61673660301E+02  0.21486571037E+03  0.63525088341E+03  0.67343492539E+03  0.00000000000E+00 0. -1.
        -13    1    3    3    0    0  0.27979310965E+02  0.53504678945E+02  0.13182385286E+03  0.14499351949E+03  0.00000000000E+00 0.  1.
         22    1    1    2    0    0  0.33694349336E+02 -0.26837038931E+03 -0.85211699362E+03  0.89401417542E+03  0.00000000000E+00 0. -1.
<mgrwt>
<rscale>  0 0.17103297E+04</rscale>
<asrwt>0</asrwt>
<pdfrwt beam="1">  1        2 0.12518464E+00 0.17103297E+04</pdfrwt>
<pdfrwt beam="2">  1       -2 0.13826807E+00 0.17103297E+04</pdfrwt>
<totfact> 0.11873107E+01</totfact>
</mgrwt>
</event>
<event>
 6    1  0.1934315E-005  0.1015954E+04  0.7818608E-02  0.9291218E-01
         -2   -1    0    0    0  501 -0.00000000000E+00  0.00000000000E+00  0.14151583237E+03  0.14151583237E+03  0.00000000000E+00 0. -1.
          2   -1    0    0  501    0  0.00000000000E+00 -0.00000000000E+00 -0.18234040564E+04  0.18234040564E+04  0.00000000000E+00 0.  1.
         23    2    1    2    0    0  0.38873117474E+03  0.28730295409E+03 -0.57565244791E+03  0.75768647886E+03  0.95174291776E+02 0.  0.
         13    1    3    3    0    0  0.30215101335E+03  0.22493055432E+03 -0.38139912419E+03  0.53605436391E+03  0.00000000000E+00 0. -1.
        -13    1    3    3    0    0  0.86580161395E+02  0.62372399770E+02 -0.19425332372E+03  0.22163211495E+03  0.00000000000E+00 0.  1.
         22    1    1    2    0    0 -0.38873117474E+03 -0.28730295409E+03 -0.11062357761E+04  0.12072334099E+04  0.00000000000E+00 0.  1.
<mgrwt>
<rscale>  0 0.10159538E+04</rscale>
<asrwt>0</asrwt>
<pdfrwt beam="1">  1        2 0.28052370E+00 0.10159538E+04</pdfrwt>
<pdfrwt beam="2">  1       -2 0.21771666E-01 0.10159538E+04</pdfrwt>
<totfact> 0.15387986E+02</totfact>
</mgrwt>
</event>
<event>
 6    1  0.1934315E-005  0.1240221E+04  0.7818608E-02  0.9078362E-01
          2   -1    0    0  501    0  0.00000000000E+00  0.00000000000E+00  0.10111101399E+04  0.10111101399E+04  0.00000000000E+00 0.  1.
         -2   -1    0    0    0  501 -0.00000000000E+00 -0.00000000000E+00 -0.38031156453E+03  0.38031156453E+03  0.00000000000E+00 0. -1.
         23    2    1    2    0    0  0.17908335927E+03  0.29787094905E+03  0.88873014683E+03  0.95860921920E+03  0.91062667385E+02 0.  0.
         11    1    3    3    0    0  0.13286467028E+03  0.15313142353E+03  0.58218763575E+03  0.61647765304E+03  0.00000000000E+00 0. -1.
        -11    1    3    3    0    0  0.46218688984E+02  0.14473952553E+03  0.30654251108E+03  0.34213156615E+03  0.00000000000E+00 0.  1.
         22    1    1    2    0    0 -0.17908335927E+03 -0.29787094905E+03 -0.25793157143E+03  0.43281248526E+03  0.00000000000E+00 0. -1.
<mgrwt>
<rscale>  0 0.12402208E+04</rscale>
<asrwt>0</asrwt>
<pdfrwt beam="1">  1        2 0.15555541E+00 0.12402208E+04</pdfrwt>
<pdfrwt beam="2">  1       -2 0.58509472E-01 0.12402208E+04</pdfrwt>
<totfact> 0.66607460E+01</totfact>
</mgrwt>
</event>
<event>
 6    1  0.1934315E-005  0.3404260E+04  0.7818608E-02  0.8136862E-01
         -2   -1    0    0    0  501 -0.00000000000E+00  0.00000000000E+00  0.80260519318E+03  0.80260519318E+03  0.00000000000E+00 0. -1.
          2   -1    0    0  501    0  0.00000000000E+00 -0.00000000000E+00 -0.36098026643E+04  0.36098026643E+04  0.00000000000E+00 0.  1.
         23    2    1    2    0    0 -0.88990674694E+02 -0.48182776331E+03 -0.35157844074E+04  0.35509133538E+04  0.90378723137E+02 0.  0.
         13    1    3    3    0    0 -0.53255957117E+02 -0.20612854198E+03 -0.18325904455E+04  0.18449154219E+04  0.00000000000E+00 0. -1.
        -13    1    3    3    0    0 -0.35734717577E+02 -0.27569922133E+03 -0.16831939619E+04  0.17059979320E+04  0.00000000000E+00 0.  1.
         22    1    1    2    0    0  0.88990674694E+02  0.48182776331E+03  0.70858693622E+03  0.86149450367E+03  0.00000000000E+00 0. -1.
<mgrwt>
<rscale>  0 0.34042599E+04</rscale>
<asrwt>0</asrwt>
<pdfrwt beam="1">  1        2 0.55535427E+00 0.34042599E+04</pdfrwt>
<pdfrwt beam="2">  1       -2 0.12347772E+00 0.34042599E+04</pdfrwt>
<totfact> 0.27766638E-01</totfact>
</mgrwt>
</event>
<event>
 6    1  0.1934315E-005  0.2020451E+04  0.7818608E-02  0.8597119E-01
         -2   -1    0    0    0  501 -0.00000000000E+00  0.00000000000E+00  0.95225838578E+03  0.95225838578E+03  0.00000000000E+00 0. -1.
          2   -1    0    0  501    0  0.00000000000E+00 -0.00000000000E+00 -0.10717208935E+04  0.10717208935E+04  0.00000000000E+00 0.  1.
         23    2    1    2    0    0 -0.96608528618E+03 -0.28567132177E+03 -0.22008551877E+02  0.10118398829E+04  0.91687992606E+02 0.  0.
         11    1    3    3    0    0 -0.30670053570E+03 -0.13446466151E+03  0.26168326717E+01  0.33489223880E+03  0.00000000000E+00 0. -1.
        -11    1    3    3    0    0 -0.65938475048E+03 -0.15120666026E+03 -0.24625384549E+02  0.67694764408E+03  0.00000000000E+00 0.  1.
         22    1    1    2    0    0  0.96608528618E+03  0.28567132177E+03 -0.97453955858E+02  0.10121393964E+04  0.00000000000E+00 0. -1.
<mgrwt>
<rscale>  0 0.20204507E+04</rscale>
<asrwt>0</asrwt>
<pdfrwt beam="1">  1        2 0.16488014E+00 0.20204507E+04</pdfrwt>
<pdfrwt beam="2">  1       -2 0.14650129E+00 0.20204507E+04</pdfrwt>
<totfact> 0.67103088E+00</totfact>
</mgrwt>
</event>
<event>
 6    1  0.1934315E-005  0.2876323E+04  0.7818608E-02  0.8279957E-01
         -2   -1    0    0    0  501 -0.00000000000E+00  0.00000000000E+00  0.10078669157E+04  0.10078669157E+04  0.00000000000E+00 0. -1.
          2   -1    0    0  501    0  0.00000000000E+00 -0.00000000000E+00 -0.20521645900E+04  0.20521645900E+04  0.00000000000E+00 0.  1.
         23    2    1    2    0    0 -0.69750298112E+03 -0.96167536493E+02  0.80961005126E+03  0.10769196938E+04  0.92352520885E+02 0.  0.
         11    1    3    3    0    0 -0.18024141828E+03 -0.52194425111E+02  0.17048402598E+03  0.25352717801E+03  0.00000000000E+00 0. -1.
        -11    1    3    3    0    0 -0.51726156284E+03 -0.43973111382E+02  0.63912602529E+03  0.82339251582E+03  0.00000000000E+00 0.  1.
         22    1    1    2    0    0  0.69750298112E+03  0.96167536493E+02 -0.18539077255E+04  0.19831118119E+04  0.00000000000E+00 0.  1.
<mgrwt>
<rscale>  0 0.28763232E+04</rscale>
<asrwt>0</asrwt>
<pdfrwt beam="1">  1        2 0.31571763E+00 0.28763232E+04</pdfrwt>
<pdfrwt beam="2">  1       -2 0.15505645E+00 0.28763232E+04</pdfrwt>
<totfact> 0.14820195E+00</totfact>
</mgrwt>
</event>
<event>
 6    1  0.1934315E-005  0.1267044E+04  0.7818608E-02  0.9056116E-01
          2   -1    0    0  501    0  0.00000000000E+00  0.00000000000E+00  0.14494967719E+04  0.14494967719E+04  0.00000000000E+00 0.  1.
         -2   -1    0    0    0  501 -0.00000000000E+00 -0.00000000000E+00 -0.27688919353E+03  0.27688919353E+03  0.00000000000E+00 0. -1.
         23    2    1    2    0    0  0.46042805480E+03 -0.41633515256E+03  0.45068245726E+03  0.77428049155E+03  0.10519814357E+03 0.  0.
         11    1    3    3    0    0  0.11466193706E+03 -0.57468174801E+02  0.62952620537E+02  0.14287401218E+03  0.00000000000E+00 0. -1.
        -11    1    3    3    0    0  0.34576611775E+03 -0.35886697776E+03  0.38772983672E+03  0.63140647937E+03  0.00000000000E+00 0.  1.
         22    1    1    2    0    0 -0.46042805480E+03  0.41633515256E+03  0.72192512113E+03  0.95210547390E+03  0.00000000000E+00 0.  1.
<mgrwt>
<rscale>  0 0.12670438E+04</rscale>
<asrwt>0</asrwt>
<pdfrwt beam="1">  1        2 0.22299950E+00 0.12670438E+04</pdfrwt>
<pdfrwt beam="2">  1       -2 0.42598338E-01 0.12670438E+04</pdfrwt>
<totfact> 0.69553749E+01</totfact>
</mgrwt>
</event>
<event>
 6    1  0.1934315E-005  0.5123470E+04  0.7818608E-02  0.7809738E-01
          2   -1    0    0  501    0  0.00000000000E+00  0.00000000000E+00  0.29051196003E+04  0.29051196003E+04  0.00000000000E+00 0.  1.
         -2   -1    0    0    0  501 -0.00000000000E+00 -0.00000000000E+00 -0.22589386498E+04  0.22589386498E+04  0.00000000000E+00 0. -1.
         23    2    1    2    0    0  0.97087747566E+03 -0.10178411815E+04 -0.18338433328E+04  0.23128963484E+04  0.88906724988E+02 0.  0.
         13    1    3    3    0    0  0.67615177015E+03 -0.65387158459E+03 -0.11950142016E+04  0.15207853916E+04  0.00000000000E+00 0.  1.
        -13    1    3    3    0    0  0.29472570550E+03 -0.36396959688E+03 -0.63882913127E+03  0.79211095681E+03  0.00000000000E+00 0. -1.
         22    1    1    2    0    0 -0.97087747566E+03  0.10178411815E+04  0.24800242833E+04  0.28511619016E+04  0.00000000000E+00 0. -1.
<mgrwt>
<rscale>  0 0.51234703E+04</rscale>
<asrwt>0</asrwt>
<pdfrwt beam="1">  1        2 0.44694148E+00 0.51234703E+04</pdfrwt>
<pdfrwt beam="2">  1       -2 0.34752902E+00 0.51234703E+04</pdfrwt>
<totfact> 0.23182897E-02</totfact>
</mgrwt>
</event>
<event>
 6    1  0.1934315E-005  0.2969772E+04  0.7818608E-02  0.8252416E-01
         -2   -1    0    0    0  501 -0.00000000000E+00  0.00000000000E+00  0.92085905963E+03  0.92085905963E+03  0.00000000000E+00 0. -1.
          2   -1    0    0  501    0  0.00000000000E+00 -0.00000000000E+00 -0.23943799681E+04  0.23943799681E+04  0.00000000000E+00 0.  1.
         23    2    1    2    0    0 -0.12850819574E+04 -0.47962694712E+03 -0.10657111567E+03  0.13787397684E+04  0.89934980057E+02 0.  0.
         11    1    3    3    0    0 -0.47155122068E+03 -0.16674365080E+03  0.36290642198E+01  0.50017713754E+03  0.00000000000E+00 0. -1.
        -11    1    3    3    0    0 -0.81353073667E+03 -0.31288329631E+03 -0.11020017989E+03  0.87856263082E+03  0.00000000000E+00 0.  1.
         22    1    1    2    0    0  0.12850819574E+04  0.47962694712E+03 -0.13669497928E+04  0.19364992594E+04  0.00000000000E+00 0.  1.
<mgrwt>
<rscale>  0 0.29697720E+04</rscale>
<asrwt>0</asrwt>
<pdfrwt beam="1">  1        2 0.36836614E+00 0.29697720E+04</pdfrwt>
<pdfrwt beam="2">  1       -2 0.14167063E+00 0.29697720E+04</pdfrwt>
<totfact> 0.11966734E+00</totfact>
</mgrwt>
</event>
<event>
 6    1  0.1934315E-005  0.6110908E+04  0.7818608E-02  0.7676801E-01
          2   -1    0    0  501    0  0.00000000000E+00  0.00000000000E+00  0.40566058617E+04  0.40566058617E+04  0.00000000000E+00 0.  1.
         -2   -1    0    0    0  501 -0.00000000000E+00 -0.00000000000E+00 -0.23013821504E+04  0.23013821504E+04  0.00000000000E+00 0. -1.
         23    2    1    2    0    0  0.27151749660E+04 -0.12814928592E+04  0.29173365285E+03  0.30178978643E+04  0.90553579921E+02 0.  0.
         13    1    3    3    0    0  0.22006624976E+04 -0.10344002715E+04  0.27169160436E+03  0.24467765893E+04  0.00000000000E+00 0.  1.
        -13    1    3    3    0    0  0.51451246832E+03 -0.24709258771E+03  0.20042048487E+02  0.57112127492E+03  0.00000000000E+00 0. -1.
         22    1    1    2    0    0 -0.27151749660E+04  0.12814928592E+04  0.14634900584E+04  0.33400901478E+04  0.00000000000E+00 0.  1.
<mgrwt>
<rscale>  0 0.61109084E+04</rscale>
<asrwt>0</asrwt>
<pdfrwt beam="1">  1        2 0.62409321E+00 0.61109084E+04</pdfrwt>
<pdfrwt beam="2">  1       -2 0.35405879E+00 0.61109084E+04</pdfrwt>
<totfact> 0.29924871E-03</totfact>
</mgrwt>
</event>
<event>
 6    1  0.1934315E-005  0.3218935E+04  0.7818608E-02  0.8183834E-01
         -2   -1    0    0    0  501 -0.00000000000E+00  0.00000000000E+00  0.13487083001E+04  0.13487083001E+04  0.00000000000E+00 0. -1.
          2   -1    0    0  501    0  0.00000000000E+00 -0.00000000000E+00 -0.19206423356E+04  0.19206423356E+04  0.00000000000E+00 0.  1.
         23    2    1    2    0    0 -0.48388056926E+03  0.72995844368E+03  0.10839140119E+04  0.13961681858E+04  0.86233886543E+02 0.  0.
         11    1    3    3    0    0 -0.14692741868E+03  0.15486563311E+03  0.26332256392E+03  0.33898348536E+03  0.00000000000E+00 0. -1.
        -11    1    3    3    0    0 -0.33695315058E+03  0.57509281057E+03  0.82059144796E+03  0.10571847005E+04  0.00000000000E+00 0.  1.
         22    1    1    2    0    0  0.48388056926E+03 -0.72995844368E+03 -0.16558480473E+04  0.18731824499E+04  0.00000000000E+00 0.  1.
<mgrwt>
<rscale>  0 0.32189354E+04</rscale>
<asrwt>0</asrwt>
<pdfrwt beam="1">  1        2 0.29548343E+00 0.32189354E+04</pdfrwt>
<pdfrwt beam="2">  1       -2 0.20749359E+00 0.32189354E+04</pdfrwt>
<totfact> 0.73907543E-01</totfact>
</mgrwt>
</event>
<event>
 6    1  0.1934315E-005  0.2986617E+04  0.7818608E-02  0.8247563E-01
         -2   -1    0    0    0  501 -0.00000000000E+00  0.00000000000E+00  0.98893000091E+03  0.98893000091E+03  0.00000000000E+00 0. -1.
          2   -1    0    0  501    0  0.00000000000E+00 -0.00000000000E+00 -0.22549317680E+04  0.22549317680E+04  0.00000000000E+00 0.  1.
         23    2    1    2    0    0 -0.11356799488E+04  0.66238026906E+03  0.13238151200E+03  0.13244888603E+04  0.90715541220E+02 0.  0.
         11    1    3    3    0    0 -0.33369948011E+03  0.24319740075E+03  0.44504766938E+02  0.41530831082E+03  0.00000000000E+00 0. -1.
        -11    1    3    3    0    0 -0.80198046871E+03  0.41918286831E+03  0.87876745060E+02  0.90918054951E+03  0.00000000000E+00 0.  1.
         22    1    1    2    0    0  0.11356799488E+04 -0.66238026906E+03 -0.13983832791E+04  0.19193729086E+04  0.00000000000E+00 0.  1.
<mgrwt>
<rscale>  0 0.29866166E+04</rscale>
<asrwt>0</asrwt>
<pdfrwt beam="1">  1        2 0.34691257E+00 0.29866166E+04</pdfrwt>
<pdfrwt beam="2">  1       -2 0.15214308E+00 0.29866166E+04</pdfrwt>
<totfact> 0.11887695E+00</totfact>
</mgrwt>
</event>
<event>
 6    1  0.1934315E-005  0.3094470E+04  0.7818608E-02  0.8217257E-01
         -2   -1    0    0    0  501 -0.00000000000E+00  0.00000000000E+00  0.75445377571E+03  0.75445377571E+03  0.00000000000E+00 0.  1.
          2   -1    0    0  501    0  0.00000000000E+00 -0.00000000000E+00 -0.31730728180E+04  0.31730728180E+04  0.00000000000E+00 0. -1.
         23    2    1    2    0    0  0.12568304851E+04  0.80297837939E+03 -0.17262238170E+04  0.22832005026E+04  0.93588046342E+02 0.  0.
         11    1    3    3    0    0  0.75816823539E+02  0.32743866589E+02 -0.12313608875E+03  0.14826613869E+03  0.00000000000E+00 0.  1.
        -11    1    3    3    0    0  0.11810136616E+04  0.77023451280E+03 -0.16030877283E+04  0.21349343639E+04  0.00000000000E+00 0. -1.
         22    1    1    2    0    0 -0.12568304851E+04 -0.80297837939E+03 -0.69239522530E+03  0.16443260912E+04  0.00000000000E+00 0.  1.
<mgrwt>
<rscale>  0 0.30944704E+04</rscale>
<asrwt>0</asrwt>
<pdfrwt beam="1">  1        2 0.48816504E+00 0.30944704E+04</pdfrwt>
<pdfrwt beam="2">  1       -2 0.11606981E+00 0.30944704E+04</pdfrwt>
<totfact> 0.66056438E-01</totfact>
</mgrwt>
</event>
<event>
 6    1  0.1934315E-005  0.9623630E+03  0.7818608E-02  0.9350816E-01
         -4   -1    0    0    0  501 -0.00000000000E+00  0.00000000000E+00  0.50848994681E+03  0.50848994681E+03  0.00000000000E+00 0. -1.
          4   -1    0    0  501    0  0.00000000000E+00 -0.00000000000E+00 -0.45533968237E+03  0.45533968237E+03  0.00000000000E+00 0.  1.
         23    2    1    2    0    0  0.12071110683E+03  0.41840798921E+03 -0.16844488005E+03  0.47521851099E+03  0.88445117586E+02 0.  0.
         13    1    3    3    0    0  0.92567504985E+02  0.17407454354E+03 -0.57241748982E+02  0.20529809428E+03  0.00000000000E+00 0. -1.
        -13    1    3    3    0    0  0.28143601846E+02  0.24433344568E+03 -0.11120313107E+03  0.26992041672E+03  0.00000000000E+00 0.  1.
         22    1    1    2    0    0 -0.12071110683E+03 -0.41840798921E+03  0.22159514450E+03  0.48861111819E+03  0.00000000000E+00 0. -1.
<mgrwt>
<rscale>  0 0.96236303E+03</rscale>
<asrwt>0</asrwt>
<pdfrwt beam="1">  1        4 0.70052258E-01 0.96236303E+03</pdfrwt>
<pdfrwt beam="2">  1       -4 0.78229223E-01 0.96236303E+03</pdfrwt>
<totfact> 0.54191256E+00</totfact>
</mgrwt>
</event>
<event>
 6    1  0.1934315E-005  0.4773977E+04  0.7818608E-02  0.7864352E-01
         -2   -1    0    0    0  501 -0.00000000000E+00  0.00000000000E+00  0.17247984580E+04  0.17247984580E+04  0.00000000000E+00 0. -1.
          2   -1    0    0  501    0  0.00000000000E+00 -0.00000000000E+00 -0.33034079374E+04  0.33034079374E+04  0.00000000000E+00 0.  1.
         23    2    1    2    0    0  0.18950296647E+04  0.43221867833E+03  0.66786323875E+03  0.20575852332E+04  0.98312105554E+02 0.  0.
         11    1    3    3    0    0  0.13097661284E+03  0.56042875163E+02  0.48381564596E+02  0.15045415501E+03  0.00000000000E+00 0. -1.
        -11    1    3    3    0    0  0.17640530519E+04  0.37617580316E+03  0.61948167415E+03  0.19071310782E+04  0.00000000000E+00 0.  1.
         22    1    1    2    0    0 -0.18950296647E+04 -0.43221867833E+03 -0.22464727182E+04  0.29706211622E+04  0.00000000000E+00 0.  1.
<mgrwt>
<rscale>  0 0.47739765E+04</rscale>
<asrwt>0</asrwt>
<pdfrwt beam="1">  1        2 0.50821661E+00 0.47739765E+04</pdfrwt>
<pdfrwt beam="2">  1       -2 0.26535361E+00 0.47739765E+04</pdfrwt>
<totfact> 0.42440216E-02</totfact>
</mgrwt>
</event>
<event>
 6    1  0.1934315E-005  0.2285074E+04  0.7818608E-02  0.8483830E-01
         -2   -1    0    0    0  501 -0.00000000000E+00  0.00000000000E+00  0.46418512075E+03  0.46418512075E+03  0.00000000000E+00 0. -1.
          2   -1    0    0  501    0  0.00000000000E+00 -0.00000000000E+00 -0.28122191795E+04  0.28122191795E+04  0.00000000000E+00 0.  1.
         23    2    1    2    0    0 -0.10705403403E+04 -0.38350927065E+03 -0.13114800393E+04  0.17377099784E+04  0.80747104249E+02 0.  0.
         11    1    3    3    0    0 -0.52533795377E+03 -0.22820037312E+03 -0.63693738845E+03  0.85658894038E+03  0.00000000000E+00 0. -1.
        -11    1    3    3    0    0 -0.54520238650E+03 -0.15530889752E+03 -0.67454265081E+03  0.88112103803E+03  0.00000000000E+00 0.  1.
         22    1    1    2    0    0  0.10705403403E+04  0.38350927065E+03 -0.10365540195E+04  0.15386943219E+04  0.00000000000E+00 0.  1.
<mgrwt>
<rscale>  0 0.22850736E+04</rscale>
<asrwt>0</asrwt>
<pdfrwt beam="1">  1        2 0.43264912E+00 0.22850736E+04</pdfrwt>
<pdfrwt beam="2">  1       -2 0.71413093E-01 0.22850736E+04</pdfrwt>
<totfact> 0.36731126E+00</totfact>
</mgrwt>
</event>
<event>
 6    1  0.1934315E-005  0.1644185E+04  0.7818608E-02  0.8793854E-01
         -2   -1    0    0    0  501 -0.00000000000E+00  0.00000000000E+00  0.10176320849E+04  0.10176320849E+04  0.00000000000E+00 0. -1.
          2   -1    0    0  501    0  0.00000000000E+00 -0.00000000000E+00 -0.66412581961E+03  0.66412581961E+03  0.00000000000E+00 0.  1.
         23    2    1    2    0    0  0.38896650567E+03 -0.71972680946E+03  0.13047398991E+03  0.83379268198E+03  0.94261082593E+02 0.  0.
         13    1    3    3    0    0  0.94768934791E+02 -0.15990638291E+03  0.69482717204E+02  0.19844155383E+03  0.00000000000E+00 0.  1.
        -13    1    3    3    0    0  0.29419757088E+03 -0.55982042656E+03  0.60991272709E+02  0.63535112815E+03  0.00000000000E+00 0. -1.
         22    1    1    2    0    0 -0.38896650567E+03  0.71972680946E+03  0.22303227542E+03  0.84796522256E+03  0.00000000000E+00 0. -1.
<mgrwt>
<rscale>  0 0.16441846E+04</rscale>
<asrwt>0</asrwt>
<pdfrwt beam="1">  1        2 0.10217320E+00 0.16441846E+04</pdfrwt>
<pdfrwt beam="2">  1       -2 0.15655878E+00 0.16441846E+04</pdfrwt>
<totfact> 0.11171412E+01</totfact>
</mgrwt>
</event>
<event>
 6    1  0.1934315E-005  0.2375937E+04  0.7818608E-02  0.8448568E-01
          2   -1    0    0  501    0  0.00000000000E+00  0.00000000000E+00  0.15511697463E+04  0.15511697463E+04  0.00000000000E+00 0. -1.
         -2   -1    0    0    0  501 -0.00000000000E+00 -0.00000000000E+00 -0.90980957823E+03  0.90980957823E+03  0.00000000000E+00 0.  1.
         23    2    1    2    0    0 -0.47606376506E+03  0.68947131101E+03  0.11909631260E+04  0.14589459875E+04  0.90126743093E+02 0.  0.
         11    1    3    3    0    0 -0.40022333510E+03  0.52664217869E+03  0.97225234604E+03  0.11759274326E+04  0.00000000000E+00 0. -1.
        -11    1    3    3    0    0 -0.75840429961E+02  0.16282913232E+03  0.21871077992E+03  0.28301855487E+03  0.00000000000E+00 0.  1.
         22    1    1    2    0    0  0.47606376506E+03 -0.68947131101E+03 -0.54960295794E+03  0.10020333370E+04  0.00000000000E+00 0.  1.
<mgrwt>
<rscale>  0 0.23759369E+04</rscale>
<asrwt>0</asrwt>
<pdfrwt beam="1">  1        2 0.23864150E+00 0.23759369E+04</pdfrwt>
<pdfrwt beam="2">  1       -2 0.13997070E+00 0.23759369E+04</pdfrwt>
<totfact> 0.38465769E+00</totfact>
</mgrwt>
</event>
<event>
 6    1  0.1934315E-005  0.4493702E+04  0.7818608E-02  0.7911740E-01
          2   -1    0    0  501    0  0.00000000000E+00  0.00000000000E+00  0.26200722366E+04  0.26200722366E+04  0.00000000000E+00 0.  1.
         -2   -1    0    0    0  501 -0.00000000000E+00 -0.00000000000E+00 -0.19267940570E+04  0.19267940570E+04  0.00000000000E+00 0. -1.
         23    2    1    2    0    0  0.93889036825E+02 -0.20885140106E+04  0.11771494683E+04  0.24009778185E+04  0.91146534761E+02 0.  0.
         13    1    3    3    0    0  0.49810797035E+02 -0.58165881083E+03  0.29065097235E+03  0.65213961346E+03  0.00000000000E+00 0. -1.
        -13    1    3    3    0    0  0.44078239791E+02 -0.15068551997E+04  0.88649849594E+03  0.17488382051E+04  0.00000000000E+00 0.  1.
         22    1    1    2    0    0 -0.93889036825E+02  0.20885140106E+04 -0.48387128864E+03  0.21458884751E+04  0.00000000000E+00 0. -1.
<mgrwt>
<rscale>  0 0.44937021E+04</rscale>
<asrwt>0</asrwt>
<pdfrwt beam="1">  1        2 0.40308804E+00 0.44937021E+04</pdfrwt>
<pdfrwt beam="2">  1       -2 0.29642985E+00 0.44937021E+04</pdfrwt>
<totfact> 0.75037009E-02</totfact>
</mgrwt>
</event>
<event>
 6    1  0.1934315E-005  0.9608376E+03  0.7818608E-02  0.9352572E-01
         -2   -1    0    0    0  501 -0.00000000000E+00  0.00000000000E+00  0.16848576330E+03  0.16848576330E+03  0.00000000000E+00 0. -1.
          2   -1    0    0  501    0  0.00000000000E+00 -0.00000000000E+00 -0.13698619068E+04  0.13698619068E+04  0.00000000000E+00 0.  1.
         23    2    1    2    0    0  0.83509697279E+02 -0.45458995697E+03 -0.78881864655E+03  0.91880785154E+03  0.91362532728E+02 0.  0.
         11    1    3    3    0    0 -0.13214679830E+02 -0.14784101746E+03 -0.27855133567E+03  0.31563022798E+03  0.00000000000E+00 0.  1.
        -11    1    3    3    0    0  0.96724377109E+02 -0.30674893951E+03 -0.51026731087E+03  0.60317762356E+03  0.00000000000E+00 0. -1.
         22    1    1    2    0    0 -0.83509697279E+02  0.45458995697E+03 -0.41255749698E+03  0.61953981860E+03  0.00000000000E+00 0.  1.
<mgrwt>
<rscale>  0 0.96083761E+03</rscale>
<asrwt>0</asrwt>
<pdfrwt beam="1">  1        2 0.21074799E+00 0.96083761E+03</pdfrwt>
<pdfrwt beam="2">  1       -2 0.25920887E-01 0.96083761E+03</pdfrwt>
<totfact> 0.20206248E+02</totfact>
</mgrwt>
</event>
<event>
 6    1  0.3140219E-005  0.4485193E+04  0.7818608E-02  0.7913234E-01
          2   -1    0    0  501    0  0.00000000000E+00  0.00000000000E+00  0.26874553211E+04  0.26874553211E+04  0.00000000000E+00 0.  1.
         -2   -1    0    0    0  501 -0.00000000000E+00 -0.00000000000E+00 -0.18713758003E+04  0.18713758003E+04  0.00000000000E+00 0. -1.
         23    2    1    2    0    0 -0.11410128097E+04 -0.13340140875E+04 -0.10088170425E+04  0.20266875069E+04  0.90810834620E+02 0.  0.
         11    1    3    3    0    0 -0.24336649524E+03 -0.28840966437E+03 -0.26057334916E+03  0.45859116411E+03  0.00000000000E+00 0.  1.
        -11    1    3    3    0    0 -0.89764631444E+03 -0.10456044231E+04 -0.74824369337E+03  0.15680963427E+04  0.00000000000E+00 0. -1.
         22    1    1    2    0    0  0.11410128097E+04  0.13340140875E+04  0.18248965634E+04  0.25321436145E+04  0.00000000000E+00 0.  1.
<mgrwt>
<rscale>  0 0.44851929E+04</rscale>
<asrwt>0</asrwt>
<pdfrwt beam="1">  1        2 0.41345467E+00 0.44851929E+04</pdfrwt>
<pdfrwt beam="2">  1       -2 0.28790397E+00 0.44851929E+04</pdfrwt>
<totfact> 0.77225730E-02</totfact>
</mgrwt>
</event>
<event>
 6    1  0.1934315E-005  0.1244769E+04  0.7818608E-02  0.9074548E-01
          2   -1    0    0  501    0  0.00000000000E+00  0.00000000000E+00  0.59864976698E+03  0.59864976698E+03  0.00000000000E+00 0.  1.
         -2   -1    0    0    0  501 -0.00000000000E+00 -0.00000000000E+00 -0.64706048774E+03  0.64706048774E+03  0.00000000000E+00 0. -1.
         23    2    1    2    0    0 -0.16304317891E+03  0.23139384081E+03 -0.57491260138E+03  0.64793904594E+03  0.95782672116E+02 0.  0.
         11    1    3    3    0    0 -0.13764274993E+03  0.11427724298E+03 -0.35219867861E+03  0.39503002935E+03  0.00000000000E+00 0.  1.
        -11    1    3    3    0    0 -0.25400428983E+02  0.11711659783E+03 -0.22271392277E+03  0.25290901660E+03  0.00000000000E+00 0. -1.
         22    1    1    2    0    0  0.16304317891E+03 -0.23139384081E+03  0.52650188062E+03  0.59777120878E+03  0.00000000000E+00 0.  1.
<mgrwt>
<rscale>  0 0.12447692E+04</rscale>
<asrwt>0</asrwt>
<pdfrwt beam="1">  1        2 0.92099964E-01 0.12447692E+04</pdfrwt>
<pdfrwt beam="2">  1       -2 0.99547767E-01 0.12447692E+04</pdfrwt>
<totfact> 0.40862010E+01</totfact>
</mgrwt>
</event>
<event>
 6    1  0.1934315E-005  0.1611729E+04  0.7818608E-02  0.8813375E-01
          2   -1    0    0  501    0  0.00000000000E+00  0.00000000000E+00  0.74872053093E+03  0.74872053093E+03  0.00000000000E+00 0.  1.
         -2   -1    0    0    0  501 -0.00000000000E+00 -0.00000000000E+00 -0.86736994665E+03  0.86736994665E+03  0.00000000000E+00 0. -1.
         23    2    1    2    0    0 -0.77705053563E+03  0.13806779031E+03  0.89048549343E+02  0.79999692023E+03  0.95891493858E+02 0.  0.
         11    1    3    3    0    0 -0.66812209611E+03  0.10165747029E+03  0.10541632480E+03  0.68398390193E+03  0.00000000000E+00 0.  1.
        -11    1    3    3    0    0 -0.10892843952E+03  0.36410320018E+02 -0.16367775454E+02  0.11601301830E+03  0.00000000000E+00 0. -1.
         22    1    1    2    0    0  0.77705053563E+03 -0.13806779031E+03 -0.20769796506E+03  0.81609355734E+03  0.00000000000E+00 0.  1.
<mgrwt>
<rscale>  0 0.16117291E+04</rscale>
<asrwt>0</asrwt>
<pdfrwt beam="1">  1        2 0.11518777E+00 0.16117291E+04</pdfrwt>
<pdfrwt beam="2">  1       -2 0.13344153E+00 0.16117291E+04</pdfrwt>
<totfact> 0.14628781E+01</totfact>
</mgrwt>
</event>
<event>
 6    1  0.1934315E-005  0.1671705E+04  0.7818608E-02  0.8777668E-01
         -2   -1    0    0    0  501 -0.00000000000E+00  0.00000000000E+00  0.10073540936E+04  0.10073540936E+04  0.00000000000E+00 0. -1.
          2   -1    0    0  501    0  0.00000000000E+00 -0.00000000000E+00 -0.69354921000E+03  0.69354921000E+03  0.00000000000E+00 0.  1.
         23    2    1    2    0    0  0.39159977266E+03 -0.18573789396E+03 -0.56676273572E+03  0.71945117567E+03  0.92417792519E+02 0.  0.
         13    1    3    3    0    0  0.23161533985E+03 -0.84987360389E+02 -0.38444576666E+03  0.45680090256E+03  0.00000000000E+00 0. -1.
        -13    1    3    3    0    0  0.15998443281E+03 -0.10075053357E+03 -0.18231696906E+03  0.26265027311E+03  0.00000000000E+00 0.  1.
         22    1    1    2    0    0 -0.39159977266E+03  0.18573789396E+03  0.88056761937E+03  0.98145212797E+03  0.00000000000E+00 0. -1.
<mgrwt>
<rscale>  0 0.16717053E+04</rscale>
<asrwt>0</asrwt>
<pdfrwt beam="1">  1        2 0.10669988E+00 0.16717053E+04</pdfrwt>
<pdfrwt beam="2">  1       -2 0.15497755E+00 0.16717053E+04</pdfrwt>
<totfact> 0.10850769E+01</totfact>
</mgrwt>
</event>
<event>
 6    1  0.1934315E-005  0.3090431E+04  0.7818608E-02  0.8218369E-01
         -2   -1    0    0    0  501 -0.00000000000E+00  0.00000000000E+00  0.77303102185E+03  0.77303102185E+03  0.00000000000E+00 0. -1.
          2   -1    0    0  501    0  0.00000000000E+00 -0.00000000000E+00 -0.30887383195E+04  0.30887383195E+04  0.00000000000E+00 0.  1.
         23    2    1    2    0    0 -0.70889758637E+03  0.12311365841E+04 -0.40348639097E+03  0.14795808785E+04  0.90140066906E+02 0.  0.
         13    1    3    3    0    0 -0.39804103399E+03  0.68820649261E+03 -0.27218862078E+03  0.84032820165E+03  0.00000000000E+00 0. -1.
        -13    1    3    3    0    0 -0.31085655238E+03  0.54293009148E+03 -0.13129777019E+03  0.63925267684E+03  0.00000000000E+00 0.  1.
         22    1    1    2    0    0  0.70889758637E+03 -0.12311365841E+04 -0.19122209067E+04  0.23821884629E+04  0.00000000000E+00 0. -1.
<mgrwt>
<rscale>  0 0.30904307E+04</rscale>
<asrwt>0</asrwt>
<pdfrwt beam="1">  1        2 0.47519051E+00 0.30904307E+04</pdfrwt>
<pdfrwt beam="2">  1       -2 0.11892785E+00 0.30904307E+04</pdfrwt>
<totfact> 0.70536304E-01</totfact>
</mgrwt>
</event>
<event>
 6    1  0.1934315E-005  0.1470362E+04  0.7818608E-02  0.8904404E-01
          2   -1    0    0  501    0  0.00000000000E+00  0.00000000000E+00  0.69794646600E+03  0.69794646600E+03  0.00000000000E+00 0.  1.
         -2   -1    0    0    0  501 -0.00000000000E+00 -0.00000000000E+00 -0.77440215648E+03  0.77440215648E+03  0.00000000000E+00 0. -1.
         23    2    1    2    0    0  0.21046899661E+03  0.72239701862E+01 -0.74088487501E+03  0.77534394134E+03  0.88873196590E+02 0.  0.
         11    1    3    3    0    0  0.10073368714E+03  0.34896717261E+02 -0.46670370777E+03  0.47872477213E+03  0.00000000000E+00 0.  1.
        -11    1    3    3    0    0  0.10973530947E+03 -0.27672747074E+02 -0.27418116724E+03  0.29661916921E+03  0.00000000000E+00 0. -1.
         22    1    1    2    0    0 -0.21046899661E+03 -0.72239701862E+01  0.66442918453E+03  0.69700468114E+03  0.00000000000E+00 0.  1.
<mgrwt>
<rscale>  0 0.14703622E+04</rscale>
<asrwt>0</asrwt>
<pdfrwt beam="1">  1        2 0.10737638E+00 0.14703622E+04</pdfrwt>
<pdfrwt beam="2">  1       -2 0.11913879E+00 0.14703622E+04</pdfrwt>
<totfact> 0.21525682E+01</totfact>
</mgrwt>
</event>
<event>
 6    1  0.1934315E-005  0.1410921E+04  0.7818608E-02  0.8945951E-01
          2   -1    0    0  501    0  0.00000000000E+00  0.00000000000E+00  0.36728582117E+03  0.36728582117E+03  0.00000000000E+00 0.  1.
         -2   -1    0    0    0  501 -0.00000000000E+00 -0.00000000000E+00 -0.13550069398E+04  0.13550069398E+04  0.00000000000E+00 0. -1.
         23    2    1    2    0    0  0.27510533921E+03  0.42843921663E+01 -0.12850253138E+04  0.13172111789E+04  0.89743685929E+02 0.  0.
         13    1    3    3    0    0  0.79097976829E+02  0.30617056143E+01 -0.20919155828E+03  0.22366710092E+03  0.00000000000E+00 0.  1.
        -13    1    3    3    0    0  0.19600736238E+03  0.12226865520E+01 -0.10758337555E+04  0.10935440780E+04  0.00000000000E+00 0. -1.
         22    1    1    2    0    0 -0.27510533921E+03 -0.42843921663E+01  0.29730419513E+03  0.40508158206E+03  0.00000000000E+00 0.  1.
<mgrwt>
<rscale>  0 0.14109215E+04</rscale>
<asrwt>0</asrwt>
<pdfrwt beam="1">  1        2 0.56505512E-01 0.14109215E+04</pdfrwt>
<pdfrwt beam="2">  1       -2 0.20846260E+00 0.14109215E+04</pdfrwt>
<totfact> 0.99662220E+00</totfact>
</mgrwt>
</event>
<event>
 6    1  0.1934315E-005  0.3291787E+04  0.7818608E-02  0.8164988E-01
          2   -1    0    0  501    0  0.00000000000E+00  0.00000000000E+00  0.21405721823E+04  0.21405721823E+04  0.00000000000E+00 0.  1.
         -2   -1    0    0    0  501 -0.00000000000E+00 -0.00000000000E+00 -0.12655329664E+04  0.12655329664E+04  0.00000000000E+00 0. -1.
         23    2    1    2    0    0  0.73098281529E+03  0.10785517834E+04  0.14763983423E+04  0.19710990077E+04  0.88709679231E+02 0.  0.
         13    1    3    3    0    0  0.35129836267E+03  0.55017094924E+03  0.67811221062E+03  0.94124108665E+03  0.00000000000E+00 0.  1.
        -13    1    3    3    0    0  0.37968445262E+03  0.52838083415E+03  0.79828613170E+03  0.10298579210E+04  0.00000000000E+00 0. -1.
         22    1    1    2    0    0 -0.73098281529E+03 -0.10785517834E+04 -0.60135912642E+03  0.14350061410E+04  0.00000000000E+00 0. -1.
<mgrwt>
<rscale>  0 0.32917865E+04</rscale>
<asrwt>0</asrwt>
<pdfrwt beam="1">  1        2 0.32931880E+00 0.32917865E+04</pdfrwt>
<pdfrwt beam="2">  1       -2 0.19469738E+00 0.32917865E+04</pdfrwt>
<totfact> 0.67201104E-01</totfact>
</mgrwt>
</event>
<event>
 6    1  0.1934315E-005  0.2034484E+04  0.7818608E-02  0.8590666E-01
         -1   -1    0    0    0  501 -0.00000000000E+00  0.00000000000E+00  0.38444409575E+03  0.38444409575E+03  0.00000000000E+00 0. -1.
          1   -1    0    0  501    0  0.00000000000E+00 -0.00000000000E+00 -0.26916290982E+04  0.26916290982E+04  0.00000000000E+00 0.  1.
         23    2    1    2    0    0 -0.31166100010E+03 -0.52517151440E+03  0.70273419984E+02  0.62143549179E+03  0.91137359921E+02 0.  0.
         13    1    3    3    0    0 -0.15522453085E+03 -0.32526327250E+03  0.72306726753E+02  0.36758551951E+03  0.00000000000E+00 0.  1.
        -13    1    3    3    0    0 -0.15643646925E+03 -0.19990824190E+03 -0.20333067685E+01  0.25384997228E+03  0.00000000000E+00 0. -1.
         22    1    1    2    0    0  0.31166100010E+03  0.52517151440E+03 -0.23774584225E+04  0.24546377022E+04  0.00000000000E+00 0.  1.
<mgrwt>
<rscale>  0 0.20344836E+04</rscale>
<asrwt>0</asrwt>
<pdfrwt beam="1">  1        1 0.41409678E+00 0.20344836E+04</pdfrwt>
<pdfrwt beam="2">  1       -1 0.59145246E-01 0.20344836E+04</pdfrwt>
<totfact> 0.26683100E+00</totfact>
</mgrwt>
</event>
<event>
 6    1  0.1934315E-005  0.2064953E+04  0.7818608E-02  0.8576841E-01
         -1   -1    0    0    0  501 -0.00000000000E+00  0.00000000000E+00  0.10143278964E+04  0.10143278964E+04  0.00000000000E+00 0. -1.
          1   -1    0    0  501    0  0.00000000000E+00 -0.00000000000E+00 -0.10509497686E+04  0.10509497686E+04  0.00000000000E+00 0.  1.
         23    2    1    2    0    0  0.26845958753E+03  0.26994671651E+03  0.93939532290E+03  0.10176368177E+04  0.90439704454E+02 0.  0.
         13    1    3    3    0    0  0.64650740420E+02  0.12041265459E+03  0.37823833728E+03  0.40217305405E+03  0.00000000000E+00 0. -1.
        -13    1    3    3    0    0  0.20380884711E+03  0.14953406193E+03  0.56115698563E+03  0.61546376364E+03  0.00000000000E+00 0.  1.
         22    1    1    2    0    0 -0.26845958753E+03 -0.26994671651E+03 -0.97601719508E+03  0.10476408473E+04  0.00000000000E+00 0.  1.
<mgrwt>
<rscale>  0 0.20649529E+04</rscale>
<asrwt>0</asrwt>
<pdfrwt beam="1">  1        1 0.16168458E+00 0.20649529E+04</pdfrwt>
<pdfrwt beam="2">  1       -1 0.15605045E+00 0.20649529E+04</pdfrwt>
<totfact> 0.39925381E+00</totfact>
</mgrwt>
</event>
<event>
 6    1  0.1934315E-005  0.5832207E+03  0.7818608E-02  0.9940843E-01
         -2   -1    0    0    0  501 -0.00000000000E+00  0.00000000000E+00  0.10995719015E+03  0.10995719015E+03  0.00000000000E+00 0. -1.
          2   -1    0    0  501    0  0.00000000000E+00 -0.00000000000E+00 -0.77336083608E+03  0.77336083608E+03  0.00000000000E+00 0.  1.
         23    2    1    2    0    0 -0.22944153168E+03 -0.12242649027E+03 -0.17112205875E+03  0.32656599609E+03  0.98645470422E+02 0.  0.
         11    1    3    3    0    0 -0.14891519275E+03 -0.98192529895E+02 -0.16376707798E+03  0.24215111684E+03  0.00000000000E+00 0. -1.
        -11    1    3    3    0    0 -0.80526338924E+02 -0.24233960378E+02 -0.73549807689E+01  0.84414879247E+02  0.00000000000E+00 0.  1.
         22    1    1    2    0    0  0.22944153168E+03  0.12242649027E+03 -0.49228158719E+03  0.55675203014E+03  0.00000000000E+00 0.  1.
<mgrwt>
<rscale>  0 0.58322066E+03</rscale>
<asrwt>0</asrwt>
<pdfrwt beam="1">  1        2 0.11897859E+00 0.58322066E+03</pdfrwt>
<pdfrwt beam="2">  1       -2 0.16916490E-01 0.58322066E+03</pdfrwt>
<totfact> 0.10332013E+03</totfact>
</mgrwt>
</event>
<event>
 6    1  0.1934315E-005  0.3903474E+04  0.7818608E-02  0.8024307E-01
          2   -1    0    0  501    0  0.00000000000E+00  0.00000000000E+00  0.24425585812E+04  0.24425585812E+04  0.00000000000E+00 0.  1.
         -2   -1    0    0    0  501 -0.00000000000E+00 -0.00000000000E+00 -0.15595439760E+04  0.15595439760E+04  0.00000000000E+00 0. -1.
         23    2    1    2    0    0  0.22861635299E+03  0.10397492388E+04 -0.12338662675E+04  0.16326029169E+04  0.98093840092E+02 0.  0.
         13    1    3    3    0    0  0.21310889364E+03  0.87942460353E+03 -0.99994246096E+03  0.13485873939E+04  0.00000000000E+00 0.  1.
        -13    1    3    3    0    0  0.15507459350E+02  0.16032463531E+03 -0.23392380657E+03  0.28401552293E+03  0.00000000000E+00 0. -1.
         22    1    1    2    0    0 -0.22861635299E+03 -0.10397492388E+04  0.21168808727E+04  0.23694996404E+04  0.00000000000E+00 0.  1.
<mgrwt>
<rscale>  0 0.39034741E+04</rscale>
<asrwt>0</asrwt>
<pdfrwt beam="1">  1        2 0.37577824E+00 0.39034741E+04</pdfrwt>
<pdfrwt beam="2">  1       -2 0.23992984E+00 0.39034741E+04</pdfrwt>
<totfact> 0.22153309E-01</totfact>
</mgrwt>
</event>
<event>
 6    1  0.1934315E-005  0.2282813E+04  0.7818608E-02  0.8484729E-01
          2   -1    0    0  501    0  0.00000000000E+00  0.00000000000E+00  0.20797933142E+04  0.20797933142E+04  0.00000000000E+00 0.  1.
         -2   -1    0    0    0  501 -0.00000000000E+00 -0.00000000000E+00 -0.62641243841E+03  0.62641243841E+03  0.00000000000E+00 0. -1.
         23    2    1    2    0    0 -0.88689409082E+03  0.24637868462E+03 -0.64276374879E+02  0.93122205830E+03  0.12553678716E+03 0.  0.
         11    1    3    3    0    0 -0.19833990921E+03  0.81595079945E+02 -0.61894476567E+02  0.22322052523E+03  0.00000000000E+00 0. -1.
        -11    1    3    3    0    0 -0.68855418161E+03  0.16478360467E+03 -0.23818983130E+01  0.70800153306E+03  0.00000000000E+00 0.  1.
         22    1    1    2    0    0  0.88689409082E+03 -0.24637868462E+03  0.15176572506E+04  0.17749836943E+04  0.00000000000E+00 0.  1.
<mgrwt>
<rscale>  0 0.22828127E+04</rscale>
<asrwt>0</asrwt>
<pdfrwt beam="1">  1        2 0.31996820E+00 0.22828127E+04</pdfrwt>
<pdfrwt beam="2">  1       -2 0.96371145E-01 0.22828127E+04</pdfrwt>
<totfact> 0.49338940E+00</totfact>
</mgrwt>
</event>
<event>
 6    1  0.1934315E-005  0.1465318E+04  0.7818608E-02  0.8907849E-01
         -2   -1    0    0    0  501 -0.00000000000E+00  0.00000000000E+00  0.23210576213E+03  0.23210576213E+03  0.00000000000E+00 0. -1.
          2   -1    0    0  501    0  0.00000000000E+00 -0.00000000000E+00 -0.23126917821E+04  0.23126917821E+04  0.00000000000E+00 0.  1.
         23    2    1    2    0    0 -0.63178613783E+03  0.30366637146E+03 -0.13972411212E+04  0.15658556461E+04  0.90852434017E+02 0.  0.
         13    1    3    3    0    0 -0.29046999889E+03  0.89851268491E+02 -0.60842871633E+03  0.68017025337E+03  0.00000000000E+00 0. -1.
        -13    1    3    3    0    0 -0.34131613894E+03  0.21381510297E+03 -0.78881240484E+03  0.88568539278E+03  0.00000000000E+00 0.  1.
         22    1    1    2    0    0  0.63178613783E+03 -0.30366637146E+03 -0.68334489884E+03  0.97894189811E+03  0.00000000000E+00 0. -1.
<mgrwt>
<rscale>  0 0.14653178E+04</rscale>
<asrwt>0</asrwt>
<pdfrwt beam="1">  1        2 0.35579875E+00 0.14653178E+04</pdfrwt>
<pdfrwt beam="2">  1       -2 0.35708577E-01 0.14653178E+04</pdfrwt>
<totfact> 0.31899505E+01</totfact>
</mgrwt>
</event>
<event>
 6    1  0.1934315E-005  0.1435346E+04  0.7818608E-02  0.8928624E-01
         -2   -1    0    0    0  501 -0.00000000000E+00  0.00000000000E+00  0.34556071624E+03  0.34556071624E+03  0.00000000000E+00 0. -1.
          2   -1    0    0  501    0  0.00000000000E+00 -0.00000000000E+00 -0.14904882664E+04  0.14904882664E+04  0.00000000000E+00 0.  1.
         23    2    1    2    0    0 -0.51007799100E+03  0.17612540786E+02  0.65624132783E+02  0.52230428310E+03  0.89473341533E+02 0.  0.
         11    1    3    3    0    0 -0.27315028341E+03  0.53637442571E+02  0.29046583130E+02  0.27987811019E+03  0.00000000000E+00 0. -1.
        -11    1    3    3    0    0 -0.23692770759E+03 -0.36024901785E+02  0.36577549653E+02  0.24242617291E+03  0.00000000000E+00 0.  1.
         22    1    1    2    0    0  0.51007799100E+03 -0.17612540786E+02 -0.12105516830E+04  0.13137446996E+04  0.00000000000E+00 0. -1.
<mgrwt>
<rscale>  0 0.14353455E+04</rscale>
<asrwt>0</asrwt>
<pdfrwt beam="1">  1        2 0.22930588E+00 0.14353455E+04</pdfrwt>
<pdfrwt beam="2">  1       -2 0.53163189E-01 0.14353455E+04</pdfrwt>
<totfact> 0.41614942E+01</totfact>
</mgrwt>
</event>
<event>
 6    1  0.1934315E-005  0.2257451E+04  0.7818608E-02  0.8494889E-01
         -2   -1    0    0    0  501 -0.00000000000E+00  0.00000000000E+00  0.63742961593E+03  0.63742961593E+03  0.00000000000E+00 0. -1.
          2   -1    0    0  501    0  0.00000000000E+00 -0.00000000000E+00 -0.19986850532E+04  0.19986850532E+04  0.00000000000E+00 0.  1.
         23    2    1    2    0    0  0.95811249036E+03 -0.18049876026E+03 -0.13416304351E+04  0.16609508432E+04  0.90698030352E+02 0.  0.
         13    1    3    3    0    0  0.33064878461E+03 -0.18717773268E+02 -0.44967632345E+03  0.55846913046E+03  0.00000000000E+00 0. -1.
        -13    1    3    3    0    0  0.62746370574E+03 -0.16178098699E+03 -0.89195411161E+03  0.11024817128E+04  0.00000000000E+00 0.  1.
         22    1    1    2    0    0 -0.95811249036E+03  0.18049876026E+03 -0.19625002209E+02  0.97516382590E+03  0.00000000000E+00 0. -1.
<mgrwt>
<rscale>  0 0.22574508E+04</rscale>
<asrwt>0</asrwt>
<pdfrwt beam="1">  1        2 0.30749000E+00 0.22574508E+04</pdfrwt>
<pdfrwt beam="2">  1       -2 0.98066096E-01 0.22574508E+04</pdfrwt>
<totfact> 0.52663763E+00</totfact>
</mgrwt>
</event>
<event>
 6    1  0.1934315E-005  0.3939909E+04  0.7818608E-02  0.8016780E-01
         -2   -1    0    0    0  501 -0.00000000000E+00  0.00000000000E+00  0.12731433078E+04  0.12731433078E+04  0.00000000000E+00 0. -1.
          2   -1    0    0  501    0  0.00000000000E+00 -0.00000000000E+00 -0.30481409787E+04  0.30481409787E+04  0.00000000000E+00 0.  1.
         23    2    1    2    0    0 -0.16360595968E+04 -0.90000193229E+03 -0.20278952699E+03  0.18802736494E+04  0.87240597610E+02 0.  0.
         11    1    3    3    0    0 -0.82136241160E+03 -0.48718107588E+03 -0.72770604718E+02  0.95774588112E+03  0.00000000000E+00 0. -1.
        -11    1    3    3    0    0 -0.81469718519E+03 -0.41282085641E+03 -0.13001892227E+03  0.92252776825E+03  0.00000000000E+00 0.  1.
         22    1    1    2    0    0  0.16360595968E+04  0.90000193229E+03 -0.15722081439E+04  0.24410106371E+04  0.00000000000E+00 0.  1.
<mgrwt>
<rscale>  0 0.39399088E+04</rscale>
<asrwt>0</asrwt>
<pdfrwt beam="1">  1        2 0.46894476E+00 0.39399088E+04</pdfrwt>
<pdfrwt beam="2">  1       -2 0.19586820E+00 0.39399088E+04</pdfrwt>
<totfact> 0.18215716E-01</totfact>
</mgrwt>
</event>
<event>
 6    1  0.2284955E-005  0.3489649E+04  0.7818608E-02  0.8116247E-01
         -2   -1    0    0    0  501 -0.00000000000E+00  0.00000000000E+00  0.15942035178E+04  0.15942035178E+04  0.00000000000E+00 0. -1.
          2   -1    0    0  501    0  0.00000000000E+00 -0.00000000000E+00 -0.19096759860E+04  0.19096759860E+04  0.00000000000E+00 0.  1.
         23    2    1    2    0    0  0.13087348077E+03  0.14959468135E+04  0.73209072289E+03  0.16729307399E+04  0.88066436095E+02 0.  0.
         13    1    3    3    0    0  0.21288093638E+02  0.73674514476E+03  0.34825131747E+03  0.81518437876E+03  0.00000000000E+00 0.  1.
        -13    1    3    3    0    0  0.10958538713E+03  0.75920166876E+03  0.38383940543E+03  0.85774636116E+03  0.00000000000E+00 0. -1.
         22    1    1    2    0    0 -0.13087348077E+03 -0.14959468135E+04 -0.10475631911E+04  0.18309487639E+04  0.00000000000E+00 0. -1.
<mgrwt>
<rscale>  0 0.34896488E+04</rscale>
<asrwt>0</asrwt>
<pdfrwt beam="1">  1        2 0.29379630E+00 0.34896488E+04</pdfrwt>
<pdfrwt beam="2">  1       -2 0.24526208E+00 0.34896488E+04</pdfrwt>
<totfact> 0.42396421E-01</totfact>
</mgrwt>
</event>
<event>
 6    1  0.1934315E-005  0.2507682E+04  0.7818608E-02  0.8400254E-01
         -2   -1    0    0    0  501 -0.00000000000E+00  0.00000000000E+00  0.98328172015E+03  0.98328172015E+03  0.00000000000E+00 0. -1.
          2   -1    0    0  501    0  0.00000000000E+00 -0.00000000000E+00 -0.15988475658E+04  0.15988475658E+04  0.00000000000E+00 0.  1.
         23    2    1    2    0    0  0.29422358699E+03 -0.11423462332E+04 -0.74064434019E+03  0.13958885576E+04  0.91806268986E+02 0.  0.
         13    1    3    3    0    0  0.20003760326E+03 -0.59632235948E+03 -0.40400215914E+03  0.74755143216E+03  0.00000000000E+00 0.  1.
        -13    1    3    3    0    0  0.94185983731E+02 -0.54602387374E+03 -0.33664218105E+03  0.64833712549E+03  0.00000000000E+00 0. -1.
         22    1    1    2    0    0 -0.29422358699E+03  0.11423462332E+04  0.12507849455E+03  0.11862407283E+04  0.00000000000E+00 0. -1.
<mgrwt>
<rscale>  0 0.25076823E+04</rscale>
<asrwt>0</asrwt>
<pdfrwt beam="1">  1        2 0.24597655E+00 0.25076823E+04</pdfrwt>
<pdfrwt beam="2">  1       -2 0.15127411E+00 0.25076823E+04</pdfrwt>
<totfact> 0.29167954E+00</totfact>
</mgrwt>
</event>
<event>
 6    1  0.1934315E-005  0.6231921E+04  0.7818608E-02  0.7662293E-01
          2   -1    0    0  501    0  0.00000000000E+00  0.00000000000E+00  0.24521627921E+04  0.24521627921E+04  0.00000000000E+00 0.  1.
         -2   -1    0    0    0  501 -0.00000000000E+00 -0.00000000000E+00 -0.39594481214E+04  0.39594481214E+04  0.00000000000E+00 0. -1.
         23    2    1    2    0    0 -0.92213076973E+03 -0.23414791309E+04 -0.26431110313E+04  0.36506419347E+04  0.91109468124E+02 0.  0.
         13    1    3    3    0    0 -0.36150997634E+03 -0.94568325451E+03 -0.11267136299E+04  0.15147573682E+04  0.00000000000E+00 0. -1.
        -13    1    3    3    0    0 -0.56062079340E+03 -0.13957958764E+04 -0.15163974013E+04  0.21358845665E+04  0.00000000000E+00 0.  1.
         22    1    1    2    0    0  0.92213076973E+03  0.23414791309E+04  0.11358257019E+04  0.27609689788E+04  0.00000000000E+00 0.  1.
<mgrwt>
<rscale>  0 0.62319215E+04</rscale>
<asrwt>0</asrwt>
<pdfrwt beam="1">  1        2 0.37725582E+00 0.62319215E+04</pdfrwt>
<pdfrwt beam="2">  1       -2 0.60914586E+00 0.62319215E+04</pdfrwt>
<totfact> 0.11752815E-03</totfact>
</mgrwt>
</event>
<event>
 6    1  0.1934315E-005  0.2737228E+04  0.7818608E-02  0.8323026E-01
         -2   -1    0    0    0  501 -0.00000000000E+00  0.00000000000E+00  0.12193326956E+04  0.12193326956E+04  0.00000000000E+00 0. -1.
          2   -1    0    0  501    0  0.00000000000E+00 -0.00000000000E+00 -0.15361712946E+04  0.15361712946E+04  0.00000000000E+00 0.  1.
         23    2    1    2    0    0  0.22604421752E+03  0.75589627598E+03  0.96539473431E+03  0.12499816590E+04  0.89397911447E+02 0.  0.
         13    1    3    3    0    0  0.57969655634E+02  0.32148481173E+03  0.43681491574E+03  0.54545415551E+03  0.00000000000E+00 0. -1.
        -13    1    3    3    0    0  0.16807456188E+03  0.43441146425E+03  0.52857981857E+03  0.70452750352E+03  0.00000000000E+00 0.  1.
         22    1    1    2    0    0 -0.22604421752E+03 -0.75589627598E+03 -0.12822333334E+04  0.15055223311E+04  0.00000000000E+00 0.  1.
<mgrwt>
<rscale>  0 0.27372277E+04</rscale>
<asrwt>0</asrwt>
<pdfrwt beam="1">  1        2 0.23633404E+00 0.27372277E+04</pdfrwt>
<pdfrwt beam="2">  1       -2 0.18758965E+00 0.27372277E+04</pdfrwt>
<totfact> 0.17046961E+00</totfact>
</mgrwt>
</event>
<event>
 6    1  0.1934315E-005  0.2272767E+04  0.7818608E-02  0.8488737E-01
          2   -1    0    0  501    0  0.00000000000E+00  0.00000000000E+00  0.29927604054E+04  0.29927604054E+04  0.00000000000E+00 0.  1.
         -2   -1    0    0    0  501 -0.00000000000E+00 -0.00000000000E+00 -0.43149695393E+03  0.43149695393E+03  0.00000000000E+00 0. -1.
         23    2    1    2    0    0 -0.82685124766E+03 -0.77543711382E+03  0.13528511941E+04  0.17673790032E+04  0.91850336466E+02 0.  0.
         11    1    3    3    0    0 -0.49199686624E+03 -0.52082305591E+03  0.86683502386E+03  0.11245979417E+04  0.00000000000E+00 0.  1.
        -11    1    3    3    0    0 -0.33485438141E+03 -0.25461405791E+03  0.48601617028E+03  0.64278106149E+03  0.00000000000E+00 0. -1.
         22    1    1    2    0    0  0.82685124766E+03  0.77543711382E+03  0.12084122573E+04  0.16568783561E+04  0.00000000000E+00 0.  1.
<mgrwt>
<rscale>  0 0.22727666E+04</rscale>
<asrwt>0</asrwt>
<pdfrwt beam="1">  1        2 0.46042467E+00 0.22727666E+04</pdfrwt>
<pdfrwt beam="2">  1       -2 0.66384149E-01 0.22727666E+04</pdfrwt>
<totfact> 0.33380467E+00</totfact>
</mgrwt>
</event>
<event>
 6    1  0.2159988E-005  0.3185893E+04  0.7818608E-02  0.8192553E-01
         -2   -1    0    0    0  501 -0.00000000000E+00  0.00000000000E+00  0.14186758064E+04  0.14186758064E+04  0.00000000000E+00 0. -1.
          2   -1    0    0  501    0  0.00000000000E+00 -0.00000000000E+00 -0.17886245853E+04  0.17886245853E+04  0.00000000000E+00 0.  1.
         23    2    1    2    0    0 -0.78612805898E+03  0.13823025630E+04 -0.25734494262E+03  0.16131117816E+04  0.84531056049E+02 0.  0.
         13    1    3    3    0    0 -0.18500505367E+03  0.37647649380E+03 -0.95624150365E+02  0.43023876905E+03  0.00000000000E+00 0. -1.
        -13    1    3    3    0    0 -0.60112300531E+03  0.10058260692E+04 -0.16172079226E+03  0.11828730125E+04  0.00000000000E+00 0.  1.
         22    1    1    2    0    0  0.78612805898E+03 -0.13823025630E+04 -0.11260383622E+03  0.15941886102E+04  0.00000000000E+00 0. -1.
<mgrwt>
<rscale>  0 0.31858929E+04</rscale>
<asrwt>0</asrwt>
<pdfrwt beam="1">  1        2 0.27517301E+00 0.31858929E+04</pdfrwt>
<pdfrwt beam="2">  1       -2 0.21825782E+00 0.31858929E+04</pdfrwt>
<totfact> 0.74838458E-01</totfact>
</mgrwt>
</event>
<event>
 6    1  0.1934315E-005  0.4248625E+04  0.7818608E-02  0.7956187E-01
         -2   -1    0    0    0  501 -0.00000000000E+00  0.00000000000E+00  0.11920317918E+04  0.11920317918E+04  0.00000000000E+00 0.  1.
          2   -1    0    0  501    0  0.00000000000E+00 -0.00000000000E+00 -0.37857244375E+04  0.37857244375E+04  0.00000000000E+00 0. -1.
         23    2    1    2    0    0 -0.80029525462E+03 -0.29595585266E+03  0.98010275973E+03  0.13035112781E+04  0.10236147303E+03 0.  0.
         11    1    3    3    0    0 -0.14188987952E+03 -0.19115165904E+02  0.13217762851E+03  0.19485649324E+03  0.00000000000E+00 0.  1.
        -11    1    3    3    0    0 -0.65840537509E+03 -0.27684068675E+03  0.84792513122E+03  0.11086547848E+04  0.00000000000E+00 0. -1.
         22    1    1    2    0    0  0.80029525462E+03  0.29595585266E+03 -0.35737954055E+04  0.36742449512E+04  0.00000000000E+00 0. -1.
<mgrwt>
<rscale>  0 0.42486251E+04</rscale>
<asrwt>0</asrwt>
<pdfrwt beam="1">  1        2 0.58241913E+00 0.42486251E+04</pdfrwt>
<pdfrwt beam="2">  1       -2 0.18338951E+00 0.42486251E+04</pdfrwt>
<totfact> 0.66712323E-02</totfact>
</mgrwt>
</event>
<event>
 6    1  0.1934315E-005  0.3182953E+04  0.7818608E-02  0.8193334E-01
         -2   -1    0    0    0  501 -0.00000000000E+00  0.00000000000E+00  0.75745333344E+03  0.75745333344E+03  0.00000000000E+00 0. -1.
          2   -1    0    0  501    0  0.00000000000E+00 -0.00000000000E+00 -0.33438333425E+04  0.33438333425E+04  0.00000000000E+00 0.  1.
         23    2    1    2    0    0 -0.14380095685E+04  0.52640392649E+03 -0.74105391751E+03  0.17033290039E+04  0.84830265476E+02 0.  0.
         13    1    3    3    0    0 -0.85405123387E+03  0.33144441934E+03 -0.40120436056E+03  0.10001119198E+04  0.00000000000E+00 0. -1.
        -13    1    3    3    0    0 -0.58395833460E+03  0.19495950715E+03 -0.33984955695E+03  0.70321708408E+03  0.00000000000E+00 0.  1.
         22    1    1    2    0    0  0.14380095685E+04 -0.52640392649E+03 -0.18453260915E+04  0.23979576720E+04  0.00000000000E+00 0.  1.
<mgrwt>
<rscale>  0 0.31829532E+04</rscale>
<asrwt>0</asrwt>
<pdfrwt beam="1">  1        2 0.51443588E+00 0.31829532E+04</pdfrwt>
<pdfrwt beam="2">  1       -2 0.11653129E+00 0.31829532E+04</pdfrwt>
<totfact> 0.50053192E-01</totfact>
</mgrwt>
</event>
<event>
 6    1  0.1934315E-005  0.2681325E+04  0.7818608E-02  0.8341090E-01
         -2   -1    0    0    0  501 -0.00000000000E+00  0.00000000000E+00  0.50943893626E+03  0.50943893626E+03  0.00000000000E+00 0. -1.
          2   -1    0    0  501    0  0.00000000000E+00 -0.00000000000E+00 -0.35281484428E+04  0.35281484428E+04  0.00000000000E+00 0.  1.
         23    2    1    2    0    0  0.20514328257E+03 -0.94930607718E+03 -0.12708195223E+03  0.98721433508E+03  0.12319304468E+03 0.  0.
         11    1    3    3    0    0  0.21289665792E+03 -0.93669794171E+03 -0.13564055830E+03  0.97011668474E+03  0.00000000000E+00 0. -1.
        -11    1    3    3    0    0 -0.77533753479E+01 -0.12608135468E+02  0.85586060722E+01  0.17097650341E+02  0.00000000000E+00 0.  1.
         22    1    1    2    0    0 -0.20514328257E+03  0.94930607718E+03 -0.28916275543E+04  0.30503730440E+04  0.00000000000E+00 0.  1.
<mgrwt>
<rscale>  0 0.26813252E+04</rscale>
<asrwt>0</asrwt>
<pdfrwt beam="1">  1        2 0.54279206E+00 0.26813252E+04</pdfrwt>
<pdfrwt beam="2">  1       -2 0.78375222E-01 0.26813252E+04</pdfrwt>
<totfact> 0.98823143E-01</totfact>
</mgrwt>
</event>
<event>
 6    1  0.1934315E-005  0.1969613E+04  0.7818608E-02  0.8620961E-01
          2   -1    0    0  501    0  0.00000000000E+00  0.00000000000E+00  0.21654971187E+04  0.21654971187E+04  0.00000000000E+00 0.  1.
         -2   -1    0    0    0  501 -0.00000000000E+00 -0.00000000000E+00 -0.44786220343E+03  0.44786220343E+03  0.00000000000E+00 0. -1.
         23    2    1    2    0    0 -0.48716285482E+03  0.84840180750E+03  0.98399539384E+03  0.13905182771E+04  0.90448160017E+02 0.  0.
         13    1    3    3    0    0 -0.28090013488E+03  0.47431989233E+03  0.61649676446E+03  0.82701421187E+03  0.00000000000E+00 0. -1.
        -13    1    3    3    0    0 -0.20626271994E+03  0.37408191517E+03  0.36749862938E+03  0.56350406519E+03  0.00000000000E+00 0.  1.
         22    1    1    2    0    0  0.48716285482E+03 -0.84840180750E+03  0.73363952142E+03  0.12228410451E+04  0.00000000000E+00 0. -1.
<mgrwt>
<rscale>  0 0.19696135E+04</rscale>
<asrwt>0</asrwt>
<pdfrwt beam="1">  1        2 0.33315340E+00 0.19696135E+04</pdfrwt>
<pdfrwt beam="2">  1       -2 0.68901879E-01 0.19696135E+04</pdfrwt>
<totfact> 0.96769791E+00</totfact>
</mgrwt>
</event>
<event>
 6    1  0.1934315E-005  0.4218692E+04  0.7818608E-02  0.7961826E-01
          2   -1    0    0  501    0  0.00000000000E+00  0.00000000000E+00  0.39043982231E+04  0.39043982231E+04  0.00000000000E+00 0.  1.
         -2   -1    0    0    0  501 -0.00000000000E+00 -0.00000000000E+00 -0.11395712551E+04  0.11395712551E+04  0.00000000000E+00 0. -1.
         23    2    1    2    0    0  0.14064965322E+04 -0.15272695493E+04  0.94451782959E+03  0.22827541424E+04  0.89820784469E+02 0.  0.
         13    1    3    3    0    0  0.11077557978E+04 -0.11911814342E+04  0.69977428440E+03  0.17707964778E+04  0.00000000000E+00 0. -1.
        -13    1    3    3    0    0  0.29874073436E+03 -0.33608811505E+03  0.24474354519E+03  0.51195766461E+03  0.00000000000E+00 0.  1.
         22    1    1    2    0    0 -0.14064965322E+04  0.15272695493E+04  0.18203091384E+04  0.27612153358E+04  0.00000000000E+00 0.  1.
<mgrwt>
<rscale>  0 0.42186917E+04</rscale>
<asrwt>0</asrwt>
<pdfrwt beam="1">  1        2 0.60067664E+00 0.42186917E+04</pdfrwt>
<pdfrwt beam="2">  1       -2 0.17531866E+00 0.42186917E+04</pdfrwt>
<totfact> 0.61574211E-02</totfact>
</mgrwt>
</event>
<event>
 6    1  0.1934315E-005  0.2883531E+04  0.7818608E-02  0.8277794E-01
         -1   -1    0    0    0  501 -0.00000000000E+00  0.00000000000E+00  0.58248670656E+03  0.58248670656E+03  0.00000000000E+00 0. -1.
          1   -1    0    0  501    0  0.00000000000E+00 -0.00000000000E+00 -0.35686446781E+04  0.35686446781E+04  0.00000000000E+00 0.  1.
         23    2    1    2    0    0  0.27232983478E+03  0.86821395435E+03 -0.31018556621E+04  0.32338828006E+04  0.92360218048E+02 0.  0.
         11    1    3    3    0    0  0.63059287288E+02  0.16654218817E+03 -0.49104195674E+03  0.52233607709E+03  0.00000000000E+00 0.  1.
        -11    1    3    3    0    0  0.20927054749E+03  0.70167176619E+03 -0.26108137054E+04  0.27115467235E+04  0.00000000000E+00 0. -1.
         22    1    1    2    0    0 -0.27232983478E+03 -0.86821395435E+03  0.11569769055E+03  0.91724858410E+03  0.00000000000E+00 0. -1.
<mgrwt>
<rscale>  0 0.28835312E+04</rscale>
<asrwt>0</asrwt>
<pdfrwt beam="1">  1        1 0.54902226E+00 0.28835312E+04</pdfrwt>
<pdfrwt beam="2">  1       -1 0.89613339E-01 0.28835312E+04</pdfrwt>
<totfact> 0.23092564E-01</totfact>
</mgrwt>
</event>
<event>
 6    1  0.1934315E-005  0.3610300E+04  0.7818608E-02  0.8088136E-01
          2   -1    0    0  501    0  0.00000000000E+00  0.00000000000E+00  0.20485654088E+04  0.20485654088E+04  0.00000000000E+00 0.  1.
         -2   -1    0    0    0  501 -0.00000000000E+00 -0.00000000000E+00 -0.15906576810E+04  0.15906576810E+04  0.00000000000E+00 0. -1.
         23    2    1    2    0    0  0.84565389060E+03  0.15084335659E+04  0.74657442094E+03  0.18859887115E+04  0.95277115077E+02 0.  0.
         13    1    3    3    0    0  0.30131324735E+03  0.58992372036E+03  0.24403728106E+03  0.70594182723E+03  0.00000000000E+00 0. -1.
        -13    1    3    3    0    0  0.54434064324E+03  0.91850984553E+03  0.50253713988E+03  0.11800468843E+04  0.00000000000E+00 0.  1.
         22    1    1    2    0    0 -0.84565389060E+03 -0.15084335659E+04 -0.28866669312E+03  0.17532343783E+04  0.00000000000E+00 0. -1.
<mgrwt>
<rscale>  0 0.36102999E+04</rscale>
<asrwt>0</asrwt>
<pdfrwt beam="1">  1        2 0.31516391E+00 0.36102999E+04</pdfrwt>
<pdfrwt beam="2">  1       -2 0.24471657E+00 0.36102999E+04</pdfrwt>
<totfact> 0.35411949E-01</totfact>
</mgrwt>
</event>
<event>
 6    1  0.1934315E-005  0.5682324E+03  0.7818608E-02  0.9973598E-01
         -2   -1    0    0    0  501 -0.00000000000E+00  0.00000000000E+00  0.88091553040E+02  0.88091553040E+02  0.00000000000E+00 0. -1.
          2   -1    0    0  501    0  0.00000000000E+00 -0.00000000000E+00 -0.91634216698E+03  0.91634216698E+03  0.00000000000E+00 0.  1.
         23    2    1    2    0    0  0.13508320556E+03  0.41837070870E+01 -0.85166024612E+03  0.86727327854E+03  0.92589356989E+02 0.  0.
         11    1    3    3    0    0  0.73233080511E+02  0.25698054614E+02 -0.24282357302E+03  0.25492501193E+03  0.00000000000E+00 0.  1.
        -11    1    3    3    0    0  0.61850125048E+02 -0.21514347527E+02 -0.60883667309E+03  0.61234826661E+03  0.00000000000E+00 0. -1.
         22    1    1    2    0    0 -0.13508320556E+03 -0.41837070870E+01  0.23409632172E+02  0.13716044148E+03  0.00000000000E+00 0. -1.
<mgrwt>
<rscale>  0 0.56823236E+03</rscale>
<asrwt>0</asrwt>
<pdfrwt beam="1">  1        2 0.14097572E+00 0.56823236E+03</pdfrwt>
<pdfrwt beam="2">  1       -2 0.13552546E-01 0.56823236E+03</pdfrwt>
<totfact> 0.11958431E+03</totfact>
</mgrwt>
</event>
<event>
 6    1  0.1934315E-005  0.8899970E+03  0.7818608E-02  0.9438173E-01
         -1   -1    0    0    0  501 -0.00000000000E+00  0.00000000000E+00  0.75711140593E+02  0.75711140593E+02  0.00000000000E+00 0. -1.
          1   -1    0    0  501    0  0.00000000000E+00 -0.00000000000E+00 -0.26155156823E+04  0.26155156823E+04  0.00000000000E+00 0.  1.
         23    2    1    2    0    0  0.22698973653E+03 -0.24748775223E+03 -0.21445788030E+04  0.21725960173E+04  0.90447133802E+02 0.  0.
         13    1    3    3    0    0  0.12145351647E+03 -0.19104293278E+03 -0.12968537406E+04  0.13164641975E+04  0.00000000000E+00 0. -1.
        -13    1    3    3    0    0  0.10553622006E+03 -0.56444819447E+02 -0.84772506245E+03  0.85613181981E+03  0.00000000000E+00 0.  1.
         22    1    1    2    0    0 -0.22698973653E+03  0.24748775223E+03 -0.39522573867E+03  0.51863080558E+03  0.00000000000E+00 0. -1.
<mgrwt>
<rscale>  0 0.88999702E+03</rscale>
<asrwt>0</asrwt>
<pdfrwt beam="1">  1        1 0.40238701E+00 0.88999702E+03</pdfrwt>
<pdfrwt beam="2">  1       -1 0.11647868E-01 0.88999702E+03</pdfrwt>
<totfact> 0.57362076E+01</totfact>
</mgrwt>
</event>
<event>
 6    1  0.1934315E-005  0.5790937E+03  0.7818608E-02  0.9949755E-01
         -2   -1    0    0    0  501 -0.00000000000E+00  0.00000000000E+00  0.53693534599E+02  0.53693534599E+02  0.00000000000E+00 0. -1.
          2   -1    0    0  501    0  0.00000000000E+00 -0.00000000000E+00 -0.15614054526E+04  0.15614054526E+04  0.00000000000E+00 0.  1.
         23    2    1    2    0    0  0.10818141448E+03  0.73354698438E+02 -0.14705841472E+04  0.14792218310E+04  0.91626203443E+02 0.  0.
         13    1    3    3    0    0  0.76206851829E+02  0.12062799144E+02 -0.10647498935E+04  0.10675417233E+04  0.00000000000E+00 0.  1.
        -13    1    3    3    0    0  0.31974562654E+02  0.61291899294E+02 -0.40583425368E+03  0.41168010765E+03  0.00000000000E+00 0. -1.
         22    1    1    2    0    0 -0.10818141448E+03 -0.73354698438E+02 -0.37127770886E+02  0.13587715626E+03  0.00000000000E+00 0. -1.
<mgrwt>
<rscale>  0 0.57909370E+03</rscale>
<asrwt>0</asrwt>
<pdfrwt beam="1">  1        2 0.24021619E+00 0.57909370E+03</pdfrwt>
<pdfrwt beam="2">  1       -2 0.82605450E-02 0.57909370E+03</pdfrwt>
<totfact> 0.11184547E+03</totfact>
</mgrwt>
</event>
<event>
 6    1  0.1934315E-005  0.5483257E+04  0.7818608E-02  0.7757997E-01
         -2   -1    0    0    0  501 -0.00000000000E+00  0.00000000000E+00  0.41686039494E+04  0.41686039494E+04  0.00000000000E+00 0. -1.
          2   -1    0    0  501    0  0.00000000000E+00 -0.00000000000E+00 -0.18031277839E+04  0.18031277839E+04  0.00000000000E+00 0.  1.
         23    2    1    2    0    0 -0.10695677063E+04 -0.21188305018E+04  0.26759557114E+04  0.35780284680E+04  0.90171917965E+02 0.  0.
         13    1    3    3    0    0 -0.98527036543E+03 -0.19247763043E+04  0.24021292630E+04  0.32319880122E+04  0.00000000000E+00 0. -1.
        -13    1    3    3    0    0 -0.84297340900E+02 -0.19405419753E+03  0.27382644830E+03  0.34604045580E+03  0.00000000000E+00 0.  1.
         22    1    1    2    0    0  0.10695677063E+04  0.21188305018E+04 -0.31047954579E+03  0.23937032653E+04  0.00000000000E+00 0.  1.
<mgrwt>
<rscale>  0 0.54832566E+04</rscale>
<asrwt>0</asrwt>
<pdfrwt beam="1">  1        2 0.27740428E+00 0.54832566E+04</pdfrwt>
<pdfrwt beam="2">  1       -2 0.64132368E+00 0.54832566E+04</pdfrwt>
<totfact> 0.21988198E-03</totfact>
</mgrwt>
</event>
<event>
 6    1  0.1934315E-005  0.4633478E+04  0.7818608E-02  0.7887676E-01
          2   -1    0    0  501    0  0.00000000000E+00  0.00000000000E+00  0.35136278267E+04  0.35136278267E+04  0.00000000000E+00 0.  1.
         -2   -1    0    0    0  501 -0.00000000000E+00 -0.00000000000E+00 -0.15275609087E+04  0.15275609087E+04  0.00000000000E+00 0. -1.
         23    2    1    2    0    0 -0.40166303908E+03  0.63810086442E+03 -0.13889020936E+04  0.15830213394E+04  0.91660378878E+02 0.  0.
         11    1    3    3    0    0 -0.17044335041E+03  0.22222989179E+03 -0.44142995073E+03  0.52277859741E+03  0.00000000000E+00 0. -1.
        -11    1    3    3    0    0 -0.23121968867E+03  0.41587097263E+03 -0.94747214289E+03  0.10602427420E+04  0.00000000000E+00 0.  1.
         22    1    1    2    0    0  0.40166303908E+03 -0.63810086442E+03  0.33749690116E+04  0.34581673961E+04  0.00000000000E+00 0.  1.
<mgrwt>
<rscale>  0 0.46334784E+04</rscale>
<asrwt>0</asrwt>
<pdfrwt beam="1">  1        2 0.54055812E+00 0.46334784E+04</pdfrwt>
<pdfrwt beam="2">  1       -2 0.23500937E+00 0.46334784E+04</pdfrwt>
<totfact> 0.47331322E-02</totfact>
</mgrwt>
</event>
<event>
 6    1  0.1934315E-005  0.2355367E+04  0.7818608E-02  0.8456405E-01
          2   -1    0    0  501    0  0.00000000000E+00  0.00000000000E+00  0.27231204562E+04  0.27231204562E+04  0.00000000000E+00 0.  1.
         -2   -1    0    0    0  501 -0.00000000000E+00 -0.00000000000E+00 -0.50931945291E+03  0.50931945291E+03  0.00000000000E+00 0. -1.
         23    2    1    2    0    0  0.10066162934E+04 -0.58581820136E+03  0.88609169517E+03  0.14662940108E+04  0.91653186930E+02 0.  0.
         13    1    3    3    0    0  0.82341796356E+03 -0.48550866667E+03  0.76917915651E+03  0.12269361772E+04  0.00000000000E+00 0.  1.
        -13    1    3    3    0    0  0.18319832986E+03 -0.10030953469E+03  0.11691253866E+03  0.23935783361E+03  0.00000000000E+00 0. -1.
         22    1    1    2    0    0 -0.10066162934E+04  0.58581820136E+03  0.13277093082E+04  0.17661458983E+04  0.00000000000E+00 0.  1.
<mgrwt>
<rscale>  0 0.23553668E+04</rscale>
<asrwt>0</asrwt>
<pdfrwt beam="1">  1        2 0.41894160E+00 0.23553668E+04</pdfrwt>
<pdfrwt beam="2">  1       -2 0.78356840E-01 0.23553668E+04</pdfrwt>
<totfact> 0.33627775E+00</totfact>
</mgrwt>
</event>
<event>
 6    1  0.1934315E-005  0.1526736E+04  0.7818608E-02  0.8866866E-01
          2   -1    0    0  501    0  0.00000000000E+00  0.00000000000E+00  0.13982510793E+04  0.13982510793E+04  0.00000000000E+00 0. -1.
         -2   -1    0    0    0  501 -0.00000000000E+00 -0.00000000000E+00 -0.41675703502E+03  0.41675703502E+03  0.00000000000E+00 0.  1.
         23    2    1    2    0    0  0.52880562578E+03 -0.54592162874E+03  0.45350071338E+03  0.88956618095E+03  0.89438686602E+02 0.  0.
         13    1    3    3    0    0  0.24446724065E+03 -0.18937669353E+03  0.18549226589E+03  0.36060386091E+03  0.00000000000E+00 0.  1.
        -13    1    3    3    0    0  0.28433838513E+03 -0.35654493522E+03  0.26800844749E+03  0.52896232003E+03  0.00000000000E+00 0. -1.
         22    1    1    2    0    0 -0.52880562578E+03  0.54592162874E+03  0.52799333091E+03  0.92544193339E+03  0.00000000000E+00 0.  1.
<mgrwt>
<rscale>  0 0.15267364E+04</rscale>
<asrwt>0</asrwt>
<pdfrwt beam="1">  1        2 0.21511555E+00 0.15267364E+04</pdfrwt>
<pdfrwt beam="2">  1       -2 0.64116467E-01 0.15267364E+04</pdfrwt>
<totfact> 0.31442001E+01</totfact>
</mgrwt>
</event>
<event>
 6    1  0.1934315E-005  0.1609226E+04  0.7818608E-02  0.8814900E-01
         -2   -1    0    0    0  501 -0.00000000000E+00  0.00000000000E+00  0.25721802910E+03  0.25721802910E+03  0.00000000000E+00 0. -1.
          2   -1    0    0  501    0  0.00000000000E+00 -0.00000000000E+00 -0.25169395706E+04  0.25169395706E+04  0.00000000000E+00 0.  1.
         23    2    1    2    0    0 -0.51158927926E+03 -0.60970597163E+03 -0.13024339578E+04  0.15292220671E+04  0.93386045518E+02 0.  0.
         11    1    3    3    0    0 -0.20259437850E+03 -0.22934834728E+03 -0.58809281638E+03  0.66294668510E+03  0.00000000000E+00 0. -1.
        -11    1    3    3    0    0 -0.30899490077E+03 -0.38035762435E+03 -0.71434114143E+03  0.86627538199E+03  0.00000000000E+00 0.  1.
         22    1    1    2    0    0  0.51158927926E+03  0.60970597163E+03 -0.95728758368E+03  0.12449355326E+04  0.00000000000E+00 0. -1.
<mgrwt>
<rscale>  0 0.16092262E+04</rscale>
<asrwt>0</asrwt>
<pdfrwt beam="1">  1        2 0.38722149E+00 0.16092262E+04</pdfrwt>
<pdfrwt beam="2">  1       -2 0.39572003E-01 0.16092262E+04</pdfrwt>
<totfact> 0.19741009E+01</totfact>
</mgrwt>
</event>
<event>
 6    1  0.1934315E-005  0.2056918E+04  0.7818608E-02  0.8580462E-01
          2   -1    0    0  501    0  0.00000000000E+00  0.00000000000E+00  0.14959441237E+04  0.14959441237E+04  0.00000000000E+00 0.  1.
         -2   -1    0    0    0  501 -0.00000000000E+00 -0.00000000000E+00 -0.70706399192E+03  0.70706399192E+03  0.00000000000E+00 0. -1.
         23    2    1    2    0    0 -0.22333539857E+03  0.23372482051E+03 -0.64817413080E+03  0.73004139992E+03  0.91240066743E+02 0.  0.
         13    1    3    3    0    0 -0.17065301951E+03  0.11628208549E+03 -0.42158632326E+03  0.46944542221E+03  0.00000000000E+00 0. -1.
        -13    1    3    3    0    0 -0.52682379058E+02  0.11744273501E+03 -0.22658780754E+03  0.26059597771E+03  0.00000000000E+00 0.  1.
         22    1    1    2    0    0  0.22333539857E+03 -0.23372482051E+03  0.14370542626E+04  0.14729667157E+04  0.00000000000E+00 0.  1.
<mgrwt>
<rscale>  0 0.20569183E+04</rscale>
<asrwt>0</asrwt>
<pdfrwt beam="1">  1        2 0.23014525E+00 0.20569183E+04</pdfrwt>
<pdfrwt beam="2">  1       -2 0.10877908E+00 0.20569183E+04</pdfrwt>
<totfact> 0.79671379E+00</totfact>
</mgrwt>
</event>
<event>
 6    1  0.1934315E-005  0.1560360E+04  0.7818608E-02  0.8845278E-01
          2   -1    0    0  501    0  0.00000000000E+00  0.00000000000E+00  0.10808583223E+04  0.10808583223E+04  0.00000000000E+00 0.  1.
         -2   -1    0    0    0  501 -0.00000000000E+00 -0.00000000000E+00 -0.56314561833E+03  0.56314561833E+03  0.00000000000E+00 0. -1.
         23    2    1    2    0    0 -0.37677538568E+03  0.33126118268E+03  0.88498971067E+03  0.10222434867E+04  0.10040565611E+03 0.  0.
         13    1    3    3    0    0 -0.20102750416E+03  0.13103735084E+03  0.49286079893E+03  0.54817388835E+03  0.00000000000E+00 0.  1.
        -13    1    3    3    0    0 -0.17574788152E+03  0.20022383184E+03  0.39212891174E+03  0.47406959839E+03  0.00000000000E+00 0. -1.
         22    1    1    2    0    0  0.37677538568E+03 -0.33126118268E+03 -0.36727700669E+03  0.62176045391E+03  0.00000000000E+00 0. -1.
<mgrwt>
<rscale>  0 0.15603597E+04</rscale>
<asrwt>0</asrwt>
<pdfrwt beam="1">  1        2 0.16628590E+00 0.15603597E+04</pdfrwt>
<pdfrwt beam="2">  1       -2 0.86637787E-01 0.15603597E+04</pdfrwt>
<totfact> 0.24845918E+01</totfact>
</mgrwt>
</event>
<event>
 6    1  0.1934315E-005  0.1984924E+04  0.7818608E-02  0.8613702E-01
         -2   -1    0    0    0  501 -0.00000000000E+00  0.00000000000E+00  0.23360894706E+04  0.23360894706E+04  0.00000000000E+00 0. -1.
          2   -1    0    0  501    0  0.00000000000E+00 -0.00000000000E+00 -0.42163657948E+03  0.42163657948E+03  0.00000000000E+00 0.  1.
         23    2    1    2    0    0 -0.41455213755E+03 -0.48303696844E+03  0.20133240497E+04  0.21135570554E+04  0.92040805083E+02 0.  0.
         11    1    3    3    0    0 -0.19206254404E+03 -0.22005680109E+03  0.77498915035E+03  0.82820359797E+03  0.00000000000E+00 0. -1.
        -11    1    3    3    0    0 -0.22248959351E+03 -0.26298016736E+03  0.12383348994E+04  0.12853534575E+04  0.00000000000E+00 0.  1.
         22    1    1    2    0    0  0.41455213755E+03  0.48303696844E+03 -0.98871158611E+02  0.64416899462E+03  0.00000000000E+00 0.  1.
<mgrwt>
<rscale>  0 0.19849240E+04</rscale>
<asrwt>0</asrwt>
<pdfrwt beam="1">  1        2 0.64867167E-01 0.19849240E+04</pdfrwt>
<pdfrwt beam="2">  1       -2 0.35939837E+00 0.19849240E+04</pdfrwt>
<totfact> 0.94786342E-01</totfact>
</mgrwt>
</event>
<event>
 6    1  0.1934315E-005  0.1102962E+04  0.7818608E-02  0.9202310E-01
          2   -1    0    0  501    0  0.00000000000E+00  0.00000000000E+00  0.11970599709E+04  0.11970599709E+04  0.00000000000E+00 0.  1.
         -2   -1    0    0    0  501 -0.00000000000E+00 -0.00000000000E+00 -0.25406502906E+03  0.25406502906E+03  0.00000000000E+00 0. -1.
         23    2    1    2    0    0  0.30427704313E+03  0.36054523799E+03  0.84080158596E+03  0.96840264751E+03  0.90988972543E+02 0.  0.
         11    1    3    3    0    0  0.15299791207E+03  0.22060755879E+03  0.54950118887E+03  0.61157796941E+03  0.00000000000E+00 0.  1.
        -11    1    3    3    0    0  0.15127913106E+03  0.13993767920E+03  0.29130039709E+03  0.35682467810E+03  0.00000000000E+00 0. -1.
         22    1    1    2    0    0 -0.30427704313E+03 -0.36054523799E+03  0.10219335592E+03  0.48272235250E+03  0.00000000000E+00 0. -1.
<mgrwt>
<rscale>  0 0.11029616E+04</rscale>
<asrwt>0</asrwt>
<pdfrwt beam="1">  1        2 0.18416307E+00 0.11029616E+04</pdfrwt>
<pdfrwt beam="2">  1       -2 0.39086928E-01 0.11029616E+04</pdfrwt>
<totfact> 0.11671677E+02</totfact>
</mgrwt>
</event>
<event>
 6    1  0.1934315E-005  0.6282640E+03  0.7818608E-02  0.9848442E-01
          2   -1    0    0  501    0  0.00000000000E+00  0.00000000000E+00  0.15874639030E+04  0.15874639030E+04  0.00000000000E+00 0.  1.
         -2   -1    0    0    0  501 -0.00000000000E+00 -0.00000000000E+00 -0.62161352744E+02  0.62161352744E+02  0.00000000000E+00 0. -1.
         23    2    1    2    0    0  0.79403386246E+02  0.28173060386E+03  0.52956241300E+03  0.61175462226E+03  0.90168385244E+02 0.  0.
         11    1    3    3    0    0 -0.94319336079E+01  0.12321891849E+03  0.23885357767E+03  0.26892916319E+03  0.00000000000E+00 0. -1.
        -11    1    3    3    0    0  0.88835319854E+02  0.15851168537E+03  0.29070883532E+03  0.34282545907E+03  0.00000000000E+00 0.  1.
         22    1    1    2    0    0 -0.79403386246E+02 -0.28173060386E+03  0.99574013728E+03  0.10378706335E+04  0.00000000000E+00 0. -1.
<mgrwt>
<rscale>  0 0.62826397E+03</rscale>
<asrwt>0</asrwt>
<pdfrwt beam="1">  1        2 0.24422519E+00 0.62826397E+03</pdfrwt>
<pdfrwt beam="2">  1       -2 0.95632862E-02 0.62826397E+03</pdfrwt>
<totfact> 0.85326384E+02</totfact>
</mgrwt>
</event>
<event>
 6    1  0.1934315E-005  0.1779710E+04  0.7818608E-02  0.8717165E-01
          2   -1    0    0  501    0  0.00000000000E+00  0.00000000000E+00  0.25463676705E+04  0.25463676705E+04  0.00000000000E+00 0.  1.
         -2   -1    0    0    0  501 -0.00000000000E+00 -0.00000000000E+00 -0.31096905822E+03  0.31096905822E+03  0.00000000000E+00 0. -1.
         23    2    1    2    0    0  0.56360885074E+03 -0.90457607174E+02  0.22117393937E+04  0.22860248403E+04  0.90999501100E+02 0.  0.
         13    1    3    3    0    0  0.54378008298E+03 -0.76645441498E+02  0.21630122800E+04  0.22316346981E+04  0.00000000000E+00 0. -1.
        -13    1    3    3    0    0  0.19828767757E+02 -0.13812165675E+02  0.48727113686E+02  0.54390142117E+02  0.00000000000E+00 0.  1.
         22    1    1    2    0    0 -0.56360885074E+03  0.90457607174E+02  0.23659218611E+02  0.57131188851E+03  0.00000000000E+00 0. -1.
<mgrwt>
<rscale>  0 0.17797096E+04</rscale>
<asrwt>0</asrwt>
<pdfrwt beam="1">  1        2 0.39174886E+00 0.17797096E+04</pdfrwt>
<pdfrwt beam="2">  1       -2 0.47841395E-01 0.17797096E+04</pdfrwt>
<totfact> 0.12824932E+01</totfact>
</mgrwt>
</event>
<event>
 6    1  0.1934315E-005  0.1935244E+04  0.7818608E-02  0.8637510E-01
         -2   -1    0    0    0  501 -0.00000000000E+00  0.00000000000E+00  0.36397313686E+03  0.36397313686E+03  0.00000000000E+00 0. -1.
          2   -1    0    0  501    0  0.00000000000E+00 -0.00000000000E+00 -0.25724203042E+04  0.25724203042E+04  0.00000000000E+00 0.  1.
         23    2    1    2    0    0 -0.33781672083E+03 -0.83866746356E+03 -0.59135842758E+03  0.10837037089E+04  0.85004044368E+02 0.  0.
         13    1    3    3    0    0 -0.33395223317E+03 -0.77114596019E+03 -0.55242833122E+03  0.10056675629E+04  0.00000000000E+00 0.  1.
        -13    1    3    3    0    0 -0.38644876640E+01 -0.67521503365E+02 -0.38930096361E+02  0.78036146012E+02  0.00000000000E+00 0. -1.
         22    1    1    2    0    0  0.33781672083E+03  0.83866746356E+03 -0.16170887397E+04  0.18526897321E+04  0.00000000000E+00 0.  1.
<mgrwt>
<rscale>  0 0.19352435E+04</rscale>
<asrwt>0</asrwt>
<pdfrwt beam="1">  1        2 0.39575697E+00 0.19352435E+04</pdfrwt>
<pdfrwt beam="2">  1       -2 0.55995868E-01 0.19352435E+04</pdfrwt>
<totfact> 0.88430355E+00</totfact>
</mgrwt>
</event>
<event>
 6    1  0.1934315E-005  0.2422527E+04  0.7818608E-02  0.8431118E-01
          2   -1    0    0  501    0  0.00000000000E+00  0.00000000000E+00  0.19433609194E+04  0.19433609194E+04  0.00000000000E+00 0.  1.
         -2   -1    0    0    0  501 -0.00000000000E+00 -0.00000000000E+00 -0.75495991269E+03  0.75495991269E+03  0.00000000000E+00 0. -1.
         23    2    1    2    0    0 -0.10112053878E+03 -0.89949925072E+03 -0.29844297587E+03  0.95762289909E+03  0.93000761340E+02 0.  0.
         13    1    3    3    0    0 -0.10899284324E+03 -0.57142825031E+03 -0.18676374279E+03  0.61097494282E+03  0.00000000000E+00 0.  1.
        -13    1    3    3    0    0  0.78723044644E+01 -0.32807100040E+03 -0.11167923308E+03  0.34664795627E+03  0.00000000000E+00 0. -1.
         22    1    1    2    0    0  0.10112053878E+03  0.89949925072E+03  0.14868439826E+04  0.17406979330E+04  0.00000000000E+00 0.  1.
<mgrwt>
<rscale>  0 0.24225273E+04</rscale>
<asrwt>0</asrwt>
<pdfrwt beam="1">  1        2 0.29897860E+00 0.24225273E+04</pdfrwt>
<pdfrwt beam="2">  1       -2 0.11614768E+00 0.24225273E+04</pdfrwt>
<totfact> 0.37108414E+00</totfact>
</mgrwt>
</event>
<event>
 6    1  0.1934315E-005  0.1338671E+04  0.7818608E-02  0.8999448E-01
         -2   -1    0    0    0  501 -0.00000000000E+00  0.00000000000E+00  0.56269392487E+03  0.56269392487E+03  0.00000000000E+00 0. -1.
          2   -1    0    0  501    0  0.00000000000E+00 -0.00000000000E+00 -0.79618796080E+03  0.79618796080E+03  0.00000000000E+00 0.  1.
         23    2    1    2    0    0  0.45536494431E+03 -0.41107796185E+03 -0.38102303525E+03  0.72792457422E+03  0.91396439379E+02 0.  0.
         11    1    3    3    0    0  0.34437152735E+03 -0.25480967260E+03 -0.27110761013E+03  0.50697046696E+03  0.00000000000E+00 0.  1.
        -11    1    3    3    0    0  0.11099341696E+03 -0.15626828925E+03 -0.10991542512E+03  0.22095410726E+03  0.00000000000E+00 0. -1.
         22    1    1    2    0    0 -0.45536494431E+03  0.41107796185E+03  0.14752899932E+03  0.63095731145E+03  0.00000000000E+00 0. -1.
<mgrwt>
<rscale>  0 0.13386712E+04</rscale>
<asrwt>0</asrwt>
<pdfrwt beam="1">  1        2 0.12249046E+00 0.13386712E+04</pdfrwt>
<pdfrwt beam="2">  1       -2 0.86568296E-01 0.13386712E+04</pdfrwt>
<totfact> 0.39176278E+01</totfact>
</mgrwt>
</event>
<event>
 6    1  0.1934315E-005  0.2870774E+04  0.7818608E-02  0.8281627E-01
         -2   -1    0    0    0  501 -0.00000000000E+00  0.00000000000E+00  0.72401792350E+03  0.72401792350E+03  0.00000000000E+00 0.  1.
          2   -1    0    0  501    0  0.00000000000E+00 -0.00000000000E+00 -0.28456973199E+04  0.28456973199E+04  0.00000000000E+00 0. -1.
         23    2    1    2    0    0  0.41632076422E+03 -0.13723418428E+04 -0.10540107930E+04  0.17818222492E+04  0.85479024407E+02 0.  0.
         11    1    3    3    0    0  0.38973335084E+03 -0.12159956133E+04 -0.91474230274E+03  0.15707612475E+04  0.00000000000E+00 0. -1.
        -11    1    3    3    0    0  0.26587413383E+02 -0.15634622951E+03 -0.13926849025E+03  0.21106100163E+03  0.00000000000E+00 0.  1.
         22    1    1    2    0    0 -0.41632076422E+03  0.13723418428E+04 -0.10676686034E+04  0.17878929943E+04  0.00000000000E+00 0.  1.
<mgrwt>
<rscale>  0 0.28707740E+04</rscale>
<asrwt>0</asrwt>
<pdfrwt beam="1">  1        2 0.43779959E+00 0.28707740E+04</pdfrwt>
<pdfrwt beam="2">  1       -2 0.11138737E+00 0.28707740E+04</pdfrwt>
<totfact> 0.11954958E+00</totfact>
</mgrwt>
</event>
<event>
 6    1  0.1934315E-005  0.1835545E+04  0.7818608E-02  0.8687622E-01
          2   -1    0    0  501    0  0.00000000000E+00  0.00000000000E+00  0.71520087881E+03  0.71520087881E+03  0.00000000000E+00 0.  1.
         -2   -1    0    0    0  501 -0.00000000000E+00 -0.00000000000E+00 -0.11777199714E+04  0.11777199714E+04  0.00000000000E+00 0. -1.
         23    2    1    2    0    0 -0.40251845331E+03  0.80079471360E+03 -0.39842677850E+02  0.90198763848E+03  0.93279056689E+02 0.  0.
         13    1    3    3    0    0 -0.27456417438E+03  0.45753681132E+03 -0.94544967088E+00  0.53359752008E+03  0.00000000000E+00 0. -1.
        -13    1    3    3    0    0 -0.12795427892E+03  0.34325790228E+03 -0.38897228179E+02  0.36839011840E+03  0.00000000000E+00 0.  1.
         22    1    1    2    0    0  0.40251845331E+03 -0.80079471360E+03 -0.42267641478E+03  0.99093321177E+03  0.00000000000E+00 0.  1.
<mgrwt>
<rscale>  0 0.18355450E+04</rscale>
<asrwt>0</asrwt>
<pdfrwt beam="1">  1        2 0.11003091E+00 0.18355450E+04</pdfrwt>
<pdfrwt beam="2">  1       -2 0.18118769E+00 0.18355450E+04</pdfrwt>
<totfact> 0.66735425E+00</totfact>
</mgrwt>
</event>
<event>
 6    1  0.1934315E-005  0.2841614E+04  0.7818608E-02  0.8290464E-01
         -2   -1    0    0    0  501 -0.00000000000E+00  0.00000000000E+00  0.12114951809E+04  0.12114951809E+04  0.00000000000E+00 0. -1.
          2   -1    0    0  501    0  0.00000000000E+00 -0.00000000000E+00 -0.16662821043E+04  0.16662821043E+04  0.00000000000E+00 0.  1.
         23    2    1    2    0    0 -0.90655853238E+03 -0.86907688831E+03 -0.89699727000E+03  0.15463521085E+04  0.97250864704E+02 0.  0.
         11    1    3    3    0    0 -0.26319488985E+03 -0.31124237189E+03 -0.27071377708E+03  0.48931514712E+03  0.00000000000E+00 0. -1.
        -11    1    3    3    0    0 -0.64336364254E+03 -0.55783451643E+03 -0.62628349292E+03  0.10570369614E+04  0.00000000000E+00 0.  1.
         22    1    1    2    0    0  0.90655853238E+03  0.86907688831E+03  0.44221034659E+03  0.13314251767E+04  0.00000000000E+00 0. -1.
<mgrwt>
<rscale>  0 0.28416141E+04</rscale>
<asrwt>0</asrwt>
<pdfrwt beam="1">  1        2 0.25635109E+00 0.28416141E+04</pdfrwt>
<pdfrwt beam="2">  1       -2 0.18638387E+00 0.28416141E+04</pdfrwt>
<totfact> 0.14562617E+00</totfact>
</mgrwt>
</event>
<event>
 6    1  0.1934315E-005  0.1485323E+04  0.7818608E-02  0.8894272E-01
          2   -1    0    0  501    0  0.00000000000E+00  0.00000000000E+00  0.10805725592E+04  0.10805725592E+04  0.00000000000E+00 0.  1.
         -2   -1    0    0    0  501 -0.00000000000E+00 -0.00000000000E+00 -0.51042051497E+03  0.51042051497E+03  0.00000000000E+00 0. -1.
         23    2    1    2    0    0  0.29267163658E+02 -0.41756073632E+03  0.93945109331E+03  0.10327858339E+04  0.94152464355E+02 0.  0.
         11    1    3    3    0    0  0.55660560490E+02 -0.30061060687E+03  0.61279554235E+03  0.68482348943E+03  0.00000000000E+00 0.  1.
        -11    1    3    3    0    0 -0.26393396832E+02 -0.11695012945E+03  0.32665555097E+03  0.34796234444E+03  0.00000000000E+00 0. -1.
         22    1    1    2    0    0 -0.29267163658E+02  0.41756073632E+03 -0.36929904912E+03  0.55820724025E+03  0.00000000000E+00 0. -1.
<mgrwt>
<rscale>  0 0.14853234E+04</rscale>
<asrwt>0</asrwt>
<pdfrwt beam="1">  1        2 0.16624193E+00 0.14853234E+04</pdfrwt>
<pdfrwt beam="2">  1       -2 0.78526233E-01 0.14853234E+04</pdfrwt>
<totfact> 0.31231902E+01</totfact>
</mgrwt>
</event>
<event>
 6    1  0.1934315E-005  0.3425900E+04  0.7818608E-02  0.8131579E-01
         -2   -1    0    0    0  501 -0.00000000000E+00  0.00000000000E+00  0.15024701715E+04  0.15024701715E+04  0.00000000000E+00 0. -1.
          2   -1    0    0  501    0  0.00000000000E+00 -0.00000000000E+00 -0.19529154278E+04  0.19529154278E+04  0.00000000000E+00 0.  1.
         23    2    1    2    0    0 -0.22394020083E+03  0.14086029215E+04  0.72913961376E+03  0.16045123270E+04  0.92216198018E+02 0.  0.
         11    1    3    3    0    0 -0.16390690668E+03  0.82489375248E+03  0.39364845372E+03  0.92858725064E+03  0.00000000000E+00 0. -1.
        -11    1    3    3    0    0 -0.60033294155E+02  0.58370916906E+03  0.33549116004E+03  0.67592507640E+03  0.00000000000E+00 0.  1.
         22    1    1    2    0    0  0.22394020083E+03 -0.14086029215E+04 -0.11795848701E+04  0.18508732722E+04  0.00000000000E+00 0.  1.
<mgrwt>
<rscale>  0 0.34258997E+04</rscale>
<asrwt>0</asrwt>
<pdfrwt beam="1">  1        2 0.30044853E+00 0.34258997E+04</pdfrwt>
<pdfrwt beam="2">  1       -2 0.23114926E+00 0.34258997E+04</pdfrwt>
<totfact> 0.49338241E-01</totfact>
</mgrwt>
</event>
<event>
 6    1  0.1934315E-005  0.1810512E+04  0.7818608E-02  0.8700729E-01
         -2   -1    0    0    0  501 -0.00000000000E+00  0.00000000000E+00  0.60628342590E+03  0.60628342590E+03  0.00000000000E+00 0. -1.
          2   -1    0    0  501    0  0.00000000000E+00 -0.00000000000E+00 -0.13516584962E+04  0.13516584962E+04  0.00000000000E+00 0.  1.
         23    2    1    2    0    0 -0.31484924971E+02  0.55471557484E+03 -0.11434053202E+04  0.12744737448E+04  0.90592110601E+02 0.  0.
         13    1    3    3    0    0  0.48061775352E+01  0.45061275885E+03 -0.87274457949E+03  0.98222098268E+03  0.00000000000E+00 0. -1.
        -13    1    3    3    0    0 -0.36291102506E+02  0.10410281599E+03 -0.27066074074E+03  0.29225276217E+03  0.00000000000E+00 0.  1.
         22    1    1    2    0    0  0.31484924971E+02 -0.55471557484E+03  0.39803024992E+03  0.68346817726E+03  0.00000000000E+00 0. -1.
<mgrwt>
<rscale>  0 0.18105117E+04</rscale>
<asrwt>0</asrwt>
<pdfrwt beam="1">  1        2 0.20794746E+00 0.18105117E+04</pdfrwt>
<pdfrwt beam="2">  1       -2 0.93274373E-01 0.18105117E+04</pdfrwt>
<totfact> 0.14157863E+01</totfact>
</mgrwt>
</event>
<event>
 6    1  0.1934315E-005  0.2001910E+04  0.7818608E-02  0.8605728E-01
          2   -1    0    0  501    0  0.00000000000E+00  0.00000000000E+00  0.12229976791E+04  0.12229976791E+04  0.00000000000E+00 0.  1.
         -2   -1    0    0    0  501 -0.00000000000E+00 -0.00000000000E+00 -0.81922577560E+03  0.81922577560E+03  0.00000000000E+00 0. -1.
         23    2    1    2    0    0  0.47269583853E+03  0.81513151669E+03 -0.13531503800E+03  0.95663813990E+03  0.94686989262E+02 0.  0.
         13    1    3    3    0    0  0.23246430803E+03  0.37544085812E+03 -0.10938730721E+03  0.45492974780E+03  0.00000000000E+00 0. -1.
        -13    1    3    3    0    0  0.24023153050E+03  0.43969065857E+03 -0.25927730792E+02  0.50170839210E+03  0.00000000000E+00 0.  1.
         22    1    1    2    0    0 -0.47269583853E+03 -0.81513151669E+03  0.53908694155E+03  0.10855853148E+04  0.00000000000E+00 0.  1.
<mgrwt>
<rscale>  0 0.20019103E+04</rscale>
<asrwt>0</asrwt>
<pdfrwt beam="1">  1        2 0.18815349E+00 0.20019103E+04</pdfrwt>
<pdfrwt beam="2">  1       -2 0.12603474E+00 0.20019103E+04</pdfrwt>
<totfact> 0.80073917E+00</totfact>
</mgrwt>
</event>
<event>
 6    1  0.1934315E-005  0.2936469E+04  0.7818608E-02  0.8262109E-01
          2   -1    0    0  501    0  0.00000000000E+00  0.00000000000E+00  0.27955614145E+04  0.27955614145E+04  0.00000000000E+00 0.  1.
         -2   -1    0    0    0  501 -0.00000000000E+00 -0.00000000000E+00 -0.77111997144E+03  0.77111997144E+03  0.00000000000E+00 0. -1.
         23    2    1    2    0    0  0.32163467156E+03 -0.12400413349E+04  0.18811598892E+04  0.22776193324E+04  0.87383752019E+02 0.  0.
         13    1    3    3    0    0  0.96615935087E+02 -0.54466260222E+03  0.81387484764E+03  0.98406516897E+03  0.00000000000E+00 0.  1.
        -13    1    3    3    0    0  0.22501873647E+03 -0.69537873270E+03  0.10672850416E+04  0.12935541634E+04  0.00000000000E+00 0. -1.
         22    1    1    2    0    0 -0.32163467156E+03  0.12400413349E+04  0.14328155383E+03  0.12890620536E+04  0.00000000000E+00 0. -1.
<mgrwt>
<rscale>  0 0.29364695E+04</rscale>
<asrwt>0</asrwt>
<pdfrwt beam="1">  1        2 0.43008637E+00 0.29364695E+04</pdfrwt>
<pdfrwt beam="2">  1       -2 0.11863384E+00 0.29364695E+04</pdfrwt>
<totfact> 0.10933638E+00</totfact>
</mgrwt>
</event>
<event>
 6    1  0.1934315E-005  0.4704309E+04  0.7818608E-02  0.7875813E-01
          2   -1    0    0  501    0  0.00000000000E+00  0.00000000000E+00  0.23649384950E+04  0.23649384950E+04  0.00000000000E+00 0.  1.
         -2   -1    0    0    0  501 -0.00000000000E+00 -0.00000000000E+00 -0.23394392458E+04  0.23394392458E+04  0.00000000000E+00 0. -1.
         23    2    1    2    0    0  0.11301714360E+04 -0.78970439779E+03  0.19174017996E+04  0.23633916728E+04  0.90939688496E+02 0.  0.
         13    1    3    3    0    0  0.32657888306E+03 -0.22222501218E+03  0.62093735440E+03  0.73593540544E+03  0.00000000000E+00 0. -1.
        -13    1    3    3    0    0  0.80359255294E+03 -0.56747938561E+03  0.12964644452E+04  0.16274562673E+04  0.00000000000E+00 0.  1.
         22    1    1    2    0    0 -0.11301714360E+04  0.78970439779E+03 -0.18919025504E+04  0.23409860681E+04  0.00000000000E+00 0. -1.
<mgrwt>
<rscale>  0 0.47043086E+04</rscale>
<asrwt>0</asrwt>
<pdfrwt beam="1">  1        2 0.36383669E+00 0.47043086E+04</pdfrwt>
<pdfrwt beam="2">  1       -2 0.35991373E+00 0.47043086E+04</pdfrwt>
<totfact> 0.41785440E-02</totfact>
</mgrwt>
</event>
<event>
 6    1  0.1934315E-005  0.8491256E+04  0.7818608E-02  0.7440570E-01
          2   -1    0    0  501    0  0.00000000000E+00  0.00000000000E+00  0.49330633124E+04  0.49330633124E+04  0.00000000000E+00 0.  1.
         -2   -1    0    0    0  501 -0.00000000000E+00 -0.00000000000E+00 -0.36539888289E+04  0.36539888289E+04  0.00000000000E+00 0. -1.
         23    2    1    2    0    0 -0.25867349936E+04  0.25321876488E+04  0.28823191074E+04  0.46280667233E+04  0.89810593405E+02 0.  0.
         13    1    3    3    0    0 -0.24474740031E+04  0.23927871862E+04  0.27505624955E+04  0.43910310356E+04  0.00000000000E+00 0.  1.
        -13    1    3    3    0    0 -0.13926099054E+03  0.13940046265E+03  0.13175661186E+03  0.23703568770E+03  0.00000000000E+00 0. -1.
         22    1    1    2    0    0  0.25867349936E+04 -0.25321876488E+04 -0.16032446239E+04  0.39589854180E+04  0.00000000000E+00 0. -1.
<mgrwt>
<rscale>  0 0.84912563E+04</rscale>
<asrwt>0</asrwt>
<pdfrwt beam="1">  1        2 0.75893282E+00 0.84912563E+04</pdfrwt>
<pdfrwt beam="2">  1       -2 0.56215213E+00 0.84912563E+04</pdfrwt>
<totfact> 0.17383966E-05</totfact>
</mgrwt>
</event>
<event>
 6    1  0.1934315E-005  0.1509237E+04  0.7818608E-02  0.8878334E-01
         -2   -1    0    0    0  501 -0.00000000000E+00  0.00000000000E+00  0.17037701070E+04  0.17037701070E+04  0.00000000000E+00 0. -1.
          2   -1    0    0  501    0  0.00000000000E+00 -0.00000000000E+00 -0.33422864121E+03  0.33422864121E+03  0.00000000000E+00 0.  1.
         23    2    1    2    0    0  0.34562050278E+03  0.66695113429E+03  0.65388122082E+03  0.10004791418E+04  0.95501385990E+02 0.  0.
         13    1    3    3    0    0  0.18473973764E+03  0.42755621744E+03  0.35967373412E+03  0.58847114182E+03  0.00000000000E+00 0.  1.
        -13    1    3    3    0    0  0.16088076514E+03  0.23939491685E+03  0.29420748670E+03  0.41200799996E+03  0.00000000000E+00 0. -1.
         22    1    1    2    0    0 -0.34562050278E+03 -0.66695113429E+03  0.71566024494E+03  0.10375196064E+04  0.00000000000E+00 0.  1.
<mgrwt>
<rscale>  0 0.15092366E+04</rscale>
<asrwt>0</asrwt>
<pdfrwt beam="1">  1        2 0.51419792E-01 0.15092366E+04</pdfrwt>
<pdfrwt beam="2">  1       -2 0.26211847E+00 0.15092366E+04</pdfrwt>
<totfact> 0.50939508E+00</totfact>
</mgrwt>
</event>
<event>
 6    1  0.1934315E-005  0.2926802E+04  0.7818608E-02  0.8264948E-01
          2   -1    0    0  501    0  0.00000000000E+00  0.00000000000E+00  0.25674829852E+04  0.25674829852E+04  0.00000000000E+00 0.  1.
         -2   -1    0    0    0  501 -0.00000000000E+00 -0.00000000000E+00 -0.83410180935E+03  0.83410180935E+03  0.00000000000E+00 0. -1.
         23    2    1    2    0    0 -0.25854061425E+03  0.10747884256E+04 -0.24421049588E+03  0.11359982857E+04  0.94020900325E+02 0.  0.
         11    1    3    3    0    0 -0.68789645592E+01  0.11254517856E+03 -0.41612070141E+01  0.11283196805E+03  0.00000000000E+00 0. -1.
        -11    1    3    3    0    0 -0.25166164969E+03  0.96224324707E+03 -0.24004928887E+03  0.10231663176E+04  0.00000000000E+00 0.  1.
         22    1    1    2    0    0  0.25854061425E+03 -0.10747884256E+04  0.19775916718E+04  0.22655865089E+04  0.00000000000E+00 0.  1.
<mgrwt>
<rscale>  0 0.29268018E+04</rscale>
<asrwt>0</asrwt>
<pdfrwt beam="1">  1        2 0.39499738E+00 0.29268018E+04</pdfrwt>
<pdfrwt beam="2">  1       -2 0.12832336E+00 0.29268018E+04</pdfrwt>
<totfact> 0.12286677E+00</totfact>
</mgrwt>
</event>
<event>
 6    1  0.1934315E-005  0.3866237E+04  0.7818608E-02  0.8032088E-01
          2   -1    0    0  501    0  0.00000000000E+00  0.00000000000E+00  0.30461276591E+04  0.30461276591E+04  0.00000000000E+00 0.  1.
         -2   -1    0    0    0  501 -0.00000000000E+00 -0.00000000000E+00 -0.12267858391E+04  0.12267858391E+04  0.00000000000E+00 0. -1.
         23    2    1    2    0    0 -0.19030572181E+04 -0.17989473394E+03  0.60016839343E+03  0.20056744867E+04  0.92407551464E+02 0.  0.
         13    1    3    3    0    0 -0.61766858572E+03 -0.10191493733E+03  0.19521035472E+03  0.65575011920E+03  0.00000000000E+00 0.  1.
        -13    1    3    3    0    0 -0.12853886324E+04 -0.77979796602E+02  0.40495803870E+03  0.13499243675E+04  0.00000000000E+00 0. -1.
         22    1    1    2    0    0  0.19030572181E+04  0.17989473394E+03  0.12191734266E+04  0.22672390114E+04  0.00000000000E+00 0.  1.
<mgrwt>
<rscale>  0 0.38662366E+04</rscale>
<asrwt>0</asrwt>
<pdfrwt beam="1">  1        2 0.46863502E+00 0.38662366E+04</pdfrwt>
<pdfrwt beam="2">  1       -2 0.18873628E+00 0.38662366E+04</pdfrwt>
<totfact> 0.20512316E-01</totfact>
</mgrwt>
</event>
<event>
 6    1  0.1934315E-005  0.2740442E+04  0.7818608E-02  0.8322001E-01
          2   -1    0    0  501    0  0.00000000000E+00  0.00000000000E+00  0.11067968550E+04  0.11067968550E+04  0.00000000000E+00 0.  1.
         -2   -1    0    0    0  501 -0.00000000000E+00 -0.00000000000E+00 -0.16963414413E+04  0.16963414413E+04  0.00000000000E+00 0. -1.
         23    2    1    2    0    0  0.28141174264E+03 -0.13214444760E+04 -0.71129193106E+02  0.13560161205E+04  0.91171732799E+02 0.  0.
         11    1    3    3    0    0  0.12675590609E+03 -0.80668415387E+03 -0.49929364516E+02  0.81810716002E+03  0.00000000000E+00 0. -1.
        -11    1    3    3    0    0  0.15465583655E+03 -0.51476032209E+03 -0.21199828591E+02  0.53790896043E+03  0.00000000000E+00 0.  1.
         22    1    1    2    0    0 -0.28141174264E+03  0.13214444760E+04 -0.51841539325E+03  0.14471221759E+04  0.00000000000E+00 0.  1.
<mgrwt>
<rscale>  0 0.27404418E+04</rscale>
<asrwt>0</asrwt>
<pdfrwt beam="1">  1        2 0.17027644E+00 0.27404418E+04</pdfrwt>
<pdfrwt beam="2">  1       -2 0.26097561E+00 0.27404418E+04</pdfrwt>
<totfact> 0.10382175E+00</totfact>
</mgrwt>
</event>
<event>
 6    1  0.1934315E-005  0.1801478E+04  0.7818608E-02  0.8705514E-01
         -2   -1    0    0    0  501 -0.00000000000E+00  0.00000000000E+00  0.79105336694E+03  0.79105336694E+03  0.00000000000E+00 0. -1.
          2   -1    0    0  501    0  0.00000000000E+00 -0.00000000000E+00 -0.10256336351E+04  0.10256336351E+04  0.00000000000E+00 0.  1.
         23    2    1    2    0    0  0.63016402884E+03 -0.63510193818E+03 -0.34828512140E+02  0.89997443035E+03  0.90993268448E+02 0.  0.
         11    1    3    3    0    0  0.29719114951E+03 -0.24038183326E+03 -0.31814786710E+02  0.38355988550E+03  0.00000000000E+00 0.  1.
        -11    1    3    3    0    0  0.33297287934E+03 -0.39472010491E+03 -0.30137254305E+01  0.51641454486E+03  0.00000000000E+00 0. -1.
         22    1    1    2    0    0 -0.63016402884E+03  0.63510193818E+03 -0.19975175606E+03  0.91671257173E+03  0.00000000000E+00 0. -1.
<mgrwt>
<rscale>  0 0.18014782E+04</rscale>
<asrwt>0</asrwt>
<pdfrwt beam="1">  1        2 0.15778979E+00 0.18014782E+04</pdfrwt>
<pdfrwt beam="2">  1       -2 0.12170052E+00 0.18014782E+04</pdfrwt>
<totfact> 0.11739427E+01</totfact>
</mgrwt>
</event>
<event>
 6    1  0.3248656E-005  0.2974591E+04  0.7818608E-02  0.8251024E-01
         -2   -1    0    0    0  501 -0.00000000000E+00  0.00000000000E+00  0.11155432443E+04  0.11155432443E+04  0.00000000000E+00 0. -1.
          2   -1    0    0  501    0  0.00000000000E+00 -0.00000000000E+00 -0.19829337303E+04  0.19829337303E+04  0.00000000000E+00 0.  1.
         23    2    1    2    0    0  0.54552431545E+03 -0.13819813565E+04 -0.45900836840E+03  0.15576183820E+04  0.89538222414E+02 0.  0.
         11    1    3    3    0    0  0.36122064776E+03 -0.83412505772E+03 -0.24703965938E+03  0.94195199538E+03  0.00000000000E+00 0.  1.
        -11    1    3    3    0    0  0.18430366769E+03 -0.54785629877E+03 -0.21196870902E+03  0.61566638663E+03  0.00000000000E+00 0. -1.
         22    1    1    2    0    0 -0.54552431545E+03  0.13819813565E+04 -0.40838211755E+03  0.15408585926E+04  0.00000000000E+00 0. -1.
<mgrwt>
<rscale>  0 0.29745913E+04</rscale>
<asrwt>0</asrwt>
<pdfrwt beam="1">  1        2 0.30506672E+00 0.29745913E+04</pdfrwt>
<pdfrwt beam="2">  1       -2 0.17162204E+00 0.29745913E+04</pdfrwt>
<totfact> 0.12159426E+00</totfact>
</mgrwt>
</event>
<event>
 6    1  0.1934315E-005  0.2260863E+04  0.7818608E-02  0.8493514E-01
          2   -1    0    0  501    0  0.00000000000E+00  0.00000000000E+00  0.12939332505E+04  0.12939332505E+04  0.00000000000E+00 0.  1.
         -2   -1    0    0    0  501 -0.00000000000E+00 -0.00000000000E+00 -0.98759025308E+03  0.98759025308E+03  0.00000000000E+00 0. -1.
         23    2    1    2    0    0  0.28678918625E+03  0.34988157509E+03 -0.88992218301E+03  0.10025725523E+04  0.92331342444E+02 0.  0.
         11    1    3    3    0    0  0.10554628266E+03  0.19561624306E+03 -0.39023699331E+03  0.44909981438E+03  0.00000000000E+00 0. -1.
        -11    1    3    3    0    0  0.18124290359E+03  0.15426533203E+03 -0.49968518970E+03  0.55347273788E+03  0.00000000000E+00 0.  1.
         22    1    1    2    0    0 -0.28678918625E+03 -0.34988157509E+03  0.11962651804E+04  0.12789509513E+04  0.00000000000E+00 0.  1.
<mgrwt>
<rscale>  0 0.22608634E+04</rscale>
<asrwt>0</asrwt>
<pdfrwt beam="1">  1        2 0.19906665E+00 0.22608634E+04</pdfrwt>
<pdfrwt beam="2">  1       -2 0.15193696E+00 0.22608634E+04</pdfrwt>
<totfact> 0.43900412E+00</totfact>
</mgrwt>
</event>
<event>
 6    1  0.1934315E-005  0.2504003E+04  0.7818608E-02  0.8401561E-01
          2   -1    0    0  501    0  0.00000000000E+00  0.00000000000E+00  0.10344966517E+04  0.10344966517E+04  0.00000000000E+00 0. -1.
         -2   -1    0    0    0  501 -0.00000000000E+00 -0.00000000000E+00 -0.15152372933E+04  0.15152372933E+04  0.00000000000E+00 0.  1.
         23    2    1    2    0    0 -0.27464717698E+03 -0.10359944114E+04 -0.89455594450E+03  0.14008394341E+04  0.11578121564E+03 0.  0.
         11    1    3    3    0    0 -0.24540588637E+03 -0.72235011861E+03 -0.62381278353E+03  0.98547254239E+03  0.00000000000E+00 0. -1.
        -11    1    3    3    0    0 -0.29241290613E+02 -0.31364429282E+03 -0.27074316097E+03  0.41536689169E+03  0.00000000000E+00 0.  1.
         22    1    1    2    0    0  0.27464717698E+03  0.10359944114E+04  0.41381530284E+03  0.11488945109E+04  0.00000000000E+00 0. -1.
<mgrwt>
<rscale>  0 0.25040031E+04</rscale>
<asrwt>0</asrwt>
<pdfrwt beam="1">  1        2 0.15915333E+00 0.25040031E+04</pdfrwt>
<pdfrwt beam="2">  1       -2 0.23311343E+00 0.25040031E+04</pdfrwt>
<totfact> 0.17448810E+00</totfact>
</mgrwt>
</event>
<event>
 6    1  0.1934315E-005  0.2288939E+04  0.7818608E-02  0.8482295E-01
          2   -1    0    0  501    0  0.00000000000E+00  0.00000000000E+00  0.23140415889E+04  0.23140415889E+04  0.00000000000E+00 0.  1.
         -2   -1    0    0    0  501 -0.00000000000E+00 -0.00000000000E+00 -0.56602741851E+03  0.56602741851E+03  0.00000000000E+00 0. -1.
         23    2    1    2    0    0  0.29598195191E+03 -0.85897314554E+03  0.17474784719E+04  0.19715314641E+04  0.88403186983E+02 0.  0.
         13    1    3    3    0    0  0.13420521265E+03 -0.26541198557E+03  0.55015427025E+03  0.62539929826E+03  0.00000000000E+00 0.  1.
        -13    1    3    3    0    0  0.16177673926E+03 -0.59356115998E+03  0.11973242017E+04  0.13461321658E+04  0.00000000000E+00 0. -1.
         22    1    1    2    0    0 -0.29598195191E+03  0.85897314554E+03  0.53569846399E+00  0.90853754331E+03  0.00000000000E+00 0. -1.
<mgrwt>
<rscale>  0 0.22889395E+04</rscale>
<asrwt>0</asrwt>
<pdfrwt beam="1">  1        2 0.35600639E+00 0.22889395E+04</pdfrwt>
<pdfrwt beam="2">  1       -2 0.87081142E-01 0.22889395E+04</pdfrwt>
<totfact> 0.46043607E+00</totfact>
</mgrwt>
</event>
<event>
 6    1  0.1934315E-005  0.5067121E+04  0.7818608E-02  0.7818236E-01
         -2   -1    0    0    0  501 -0.00000000000E+00  0.00000000000E+00  0.18133744171E+04  0.18133744171E+04  0.00000000000E+00 0. -1.
          2   -1    0    0  501    0  0.00000000000E+00 -0.00000000000E+00 -0.35397695960E+04  0.35397695960E+04  0.00000000000E+00 0.  1.
         23    2    1    2    0    0 -0.24394924730E+04 -0.39697216030E+03 -0.27895726073E+03  0.24889186468E+04  0.90490081634E+02 0.  0.
         13    1    3    3    0    0 -0.14882758263E+04 -0.19791043532E+03 -0.17598959804E+03  0.15116566456E+04  0.00000000000E+00 0.  1.
        -13    1    3    3    0    0 -0.95121664677E+03 -0.19906172497E+03 -0.10296766269E+03  0.97726200121E+03  0.00000000000E+00 0. -1.
         22    1    1    2    0    0  0.24394924730E+04  0.39697216030E+03 -0.14474379181E+04  0.28642253663E+04  0.00000000000E+00 0.  1.
<mgrwt>
<rscale>  0 0.50671205E+04</rscale>
<asrwt>0</asrwt>
<pdfrwt beam="1">  1        2 0.54457993E+00 0.50671205E+04</pdfrwt>
<pdfrwt beam="2">  1       -2 0.27898068E+00 0.50671205E+04</pdfrwt>
<totfact> 0.23528634E-02</totfact>
</mgrwt>
</event>
<event>
 6    1  0.1934315E-005  0.3207105E+04  0.7818608E-02  0.8186943E-01
          2   -1    0    0  501    0  0.00000000000E+00  0.00000000000E+00  0.30811407169E+04  0.30811407169E+04  0.00000000000E+00 0.  1.
         -2   -1    0    0    0  501 -0.00000000000E+00 -0.00000000000E+00 -0.83455476618E+03  0.83455476618E+03  0.00000000000E+00 0. -1.
         23    2    1    2    0    0  0.76809365787E+03  0.96961818813E+03  0.23675706478E+04  0.26728098910E+04  0.91622283825E+02 0.  0.
         13    1    3    3    0    0  0.34599744046E+03  0.45723292388E+03  0.11922364535E+04  0.13229527340E+04  0.00000000000E+00 0.  1.
        -13    1    3    3    0    0  0.42209621741E+03  0.51238526425E+03  0.11753341944E+04  0.13498571570E+04  0.00000000000E+00 0. -1.
         22    1    1    2    0    0 -0.76809365787E+03 -0.96961818813E+03 -0.12098469713E+03  0.12428855921E+04  0.00000000000E+00 0. -1.
<mgrwt>
<rscale>  0 0.32071050E+04</rscale>
<asrwt>0</asrwt>
<pdfrwt beam="1">  1        2 0.47402164E+00 0.32071050E+04</pdfrwt>
<pdfrwt beam="2">  1       -2 0.12839304E+00 0.32071050E+04</pdfrwt>
<totfact> 0.58308854E-01</totfact>
</mgrwt>
</event>
<event>
 6    1  0.1934315E-005  0.3397584E+04  0.7818608E-02  0.8138499E-01
         -2   -1    0    0    0  501 -0.00000000000E+00  0.00000000000E+00  0.70873363526E+03  0.70873363526E+03  0.00000000000E+00 0. -1.
          2   -1    0    0  501    0  0.00000000000E+00 -0.00000000000E+00 -0.40719029788E+04  0.40719029788E+04  0.00000000000E+00 0.  1.
         23    2    1    2    0    0 -0.15191741373E+04 -0.60225941077E+03 -0.10358691702E+04  0.19368833628E+04  0.88801834728E+02 0.  0.
         11    1    3    3    0    0 -0.86114452965E+03 -0.30164136416E+03 -0.60621411221E+03  0.10954692891E+04  0.00000000000E+00 0. -1.
        -11    1    3    3    0    0 -0.65802960768E+03 -0.30061804662E+03 -0.42965505800E+03  0.84141407369E+03  0.00000000000E+00 0.  1.
         22    1    1    2    0    0  0.15191741373E+04  0.60225941077E+03 -0.23273001733E+04  0.28437532513E+04  0.00000000000E+00 0. -1.
<mgrwt>
<rscale>  0 0.33975842E+04</rscale>
<asrwt>0</asrwt>
<pdfrwt beam="1">  1        2 0.62644661E+00 0.33975842E+04</pdfrwt>
<pdfrwt beam="2">  1       -2 0.10903594E+00 0.33975842E+04</pdfrwt>
<totfact> 0.16568305E-01</totfact>
</mgrwt>
</event>
<event>
 6    1  0.1934315E-005  0.2824926E+04  0.7818608E-02  0.8295571E-01
         -2   -1    0    0    0  501 -0.00000000000E+00  0.00000000000E+00  0.14033302132E+04  0.14033302132E+04  0.00000000000E+00 0. -1.
          2   -1    0    0  501    0  0.00000000000E+00 -0.00000000000E+00 -0.14216556513E+04  0.14216556513E+04  0.00000000000E+00 0.  1.
         23    2    1    2    0    0  0.60285821131E+03 -0.12244814232E+04 -0.36701221417E+03  0.14163073182E+04  0.91845933323E+02 0.  0.
         13    1    3    3    0    0  0.40265090820E+03 -0.74436326170E+03 -0.19553640118E+03  0.86858442504E+03  0.00000000000E+00 0. -1.
        -13    1    3    3    0    0  0.20020730311E+03 -0.48011816154E+03 -0.17147581300E+03  0.54772289317E+03  0.00000000000E+00 0.  1.
         22    1    1    2    0    0 -0.60285821131E+03  0.12244814232E+04  0.34868677610E+03  0.14086785462E+04  0.00000000000E+00 0. -1.
<mgrwt>
<rscale>  0 0.28249264E+04</rscale>
<asrwt>0</asrwt>
<pdfrwt beam="1">  1        2 0.21871625E+00 0.28249264E+04</pdfrwt>
<pdfrwt beam="2">  1       -2 0.21589696E+00 0.28249264E+04</pdfrwt>
<totfact> 0.12818860E+00</totfact>
</mgrwt>
</event>
<event>
 6    1  0.1934315E-005  0.1888059E+04  0.7818608E-02  0.8660823E-01
          2   -1    0    0  501    0  0.00000000000E+00  0.00000000000E+00  0.22387555613E+04  0.22387555613E+04  0.00000000000E+00 0.  1.
         -2   -1    0    0    0  501 -0.00000000000E+00 -0.00000000000E+00 -0.39807460837E+03  0.39807460837E+03  0.00000000000E+00 0. -1.
         23    2    1    2    0    0  0.35851614452E+03  0.42564425165E+03  0.19835579126E+04  0.20622688758E+04  0.93509722891E+02 0.  0.
         13    1    3    3    0    0  0.17018022046E+03  0.14162280797E+03  0.69541320276E+03  0.72980672081E+03  0.00000000000E+00 0.  1.
        -13    1    3    3    0    0  0.18833592406E+03  0.28402144367E+03  0.12881447099E+04  0.13324621549E+04  0.00000000000E+00 0. -1.
         22    1    1    2    0    0 -0.35851614452E+03 -0.42564425165E+03 -0.14287695971E+03  0.57456129391E+03  0.00000000000E+00 0. -1.
<mgrwt>
<rscale>  0 0.18880590E+04</rscale>
<asrwt>0</asrwt>
<pdfrwt beam="1">  1        2 0.34442392E+00 0.18880590E+04</pdfrwt>
<pdfrwt beam="2">  1       -2 0.61242249E-01 0.18880590E+04</pdfrwt>
<totfact> 0.11417564E+01</totfact>
</mgrwt>
</event>
<event>
 6    1  0.1934315E-005  0.3412812E+04  0.7818608E-02  0.8134769E-01
          2   -1    0    0  501    0  0.00000000000E+00  0.00000000000E+00  0.27076529910E+04  0.27076529910E+04  0.00000000000E+00 0.  1.
         -2   -1    0    0    0  501 -0.00000000000E+00 -0.00000000000E+00 -0.10754040692E+04  0.10754040692E+04  0.00000000000E+00 0. -1.
         23    2    1    2    0    0  0.66837069729E+03 -0.47855310230E+03 -0.83938236816E+03  0.11783126016E+04  0.90140814163E+02 0.  0.
         11    1    3    3    0    0  0.26124877938E+03 -0.14242781849E+03 -0.33655962510E+03  0.44923155439E+03  0.00000000000E+00 0. -1.
        -11    1    3    3    0    0  0.40712191791E+03 -0.33612528381E+03 -0.50282274305E+03  0.72908104721E+03  0.00000000000E+00 0.  1.
         22    1    1    2    0    0 -0.66837069729E+03  0.47855310230E+03  0.24716312900E+04  0.26047444586E+04  0.00000000000E+00 0.  1.
<mgrwt>
<rscale>  0 0.34128118E+04</rscale>
<asrwt>0</asrwt>
<pdfrwt beam="1">  1        2 0.41656200E+00 0.34128118E+04</pdfrwt>
<pdfrwt beam="2">  1       -2 0.16544678E+00 0.34128118E+04</pdfrwt>
<totfact> 0.49955970E-01</totfact>
</mgrwt>
</event>
<event>
 6    1  0.1934315E-005  0.1785682E+04  0.7818608E-02  0.8713951E-01
         -2   -1    0    0    0  501 -0.00000000000E+00  0.00000000000E+00  0.90792368700E+03  0.90792368700E+03  0.00000000000E+00 0. -1.
          2   -1    0    0  501    0  0.00000000000E+00 -0.00000000000E+00 -0.87800910337E+03  0.87800910337E+03  0.00000000000E+00 0.  1.
         23    2    1    2    0    0 -0.73869791175E+03 -0.38908058823E+02  0.51075178599E+03  0.90366703843E+03  0.92511013334E+02 0.  0.
         13    1    3    3    0    0 -0.50186192620E+03 -0.39677642673E+02  0.39590282573E+03  0.64045199330E+03  0.00000000000E+00 0. -1.
        -13    1    3    3    0    0 -0.23683598555E+03  0.76958384991E+00  0.11484896025E+03  0.26321504513E+03  0.00000000000E+00 0.  1.
         22    1    1    2    0    0  0.73869791175E+03  0.38908058823E+02 -0.48083720236E+03  0.88226575194E+03  0.00000000000E+00 0.  1.
<mgrwt>
<rscale>  0 0.17856822E+04</rscale>
<asrwt>0</asrwt>
<pdfrwt beam="1">  1        2 0.13507832E+00 0.17856822E+04</pdfrwt>
<pdfrwt beam="2">  1       -2 0.13968057E+00 0.17856822E+04</pdfrwt>
<totfact> 0.10362629E+01</totfact>
</mgrwt>
</event>
<event>
 6    1  0.1934315E-005  0.1021144E+04  0.7818608E-02  0.9285654E-01
          2   -1    0    0  501    0  0.00000000000E+00  0.00000000000E+00  0.14459201599E+04  0.14459201599E+04  0.00000000000E+00 0. -1.
         -2   -1    0    0    0  501 -0.00000000000E+00 -0.00000000000E+00 -0.18028905466E+03  0.18028905466E+03  0.00000000000E+00 0.  1.
         23    2    1    2    0    0 -0.42898758283E+02 -0.35469653697E+03  0.12094440523E+04  0.12645368190E+04  0.92997387675E+02 0.  0.
         11    1    3    3    0    0 -0.43810413862E+02 -0.19558974167E+03  0.52800372386E+03  0.56476776804E+03  0.00000000000E+00 0. -1.
        -11    1    3    3    0    0  0.91165557874E+00 -0.15910679530E+03  0.68144032848E+03  0.69976905098E+03  0.00000000000E+00 0.  1.
         22    1    1    2    0    0  0.42898758283E+02  0.35469653697E+03  0.56187052923E+02  0.36167239557E+03  0.00000000000E+00 0.  1.
<mgrwt>
<rscale>  0 0.10211436E+04</rscale>
<asrwt>0</asrwt>
<pdfrwt beam="1">  1        2 0.22244925E+00 0.10211436E+04</pdfrwt>
<pdfrwt beam="2">  1       -2 0.27736779E-01 0.10211436E+04</pdfrwt>
<totfact> 0.16098763E+02</totfact>
</mgrwt>
</event>
<event>
 6    1  0.1934315E-005  0.2153114E+04  0.7818608E-02  0.8538200E-01
          2   -1    0    0  501    0  0.00000000000E+00  0.00000000000E+00  0.20553104822E+04  0.20553104822E+04  0.00000000000E+00 0.  1.
         -2   -1    0    0    0  501 -0.00000000000E+00 -0.00000000000E+00 -0.56389292917E+03  0.56389292917E+03  0.00000000000E+00 0. -1.
         23    2    1    2    0    0 -0.59772333335E+02 -0.45472672232E+03  0.19292034476E+04  0.19851642853E+04  0.93285440632E+02 0.  0.
         13    1    3    3    0    0 -0.23934869692E+02 -0.89827644800E+02  0.56264048446E+03  0.57026853193E+03  0.00000000000E+00 0. -1.
        -13    1    3    3    0    0 -0.35837463644E+02 -0.36489907752E+03  0.13665629632E+04  0.14148957534E+04  0.00000000000E+00 0.  1.
         22    1    1    2    0    0  0.59772333335E+02  0.45472672232E+03 -0.43778589462E+03  0.63403912605E+03  0.00000000000E+00 0. -1.
<mgrwt>
<rscale>  0 0.21531141E+04</rscale>
<asrwt>0</asrwt>
<pdfrwt beam="1">  1        2 0.31620161E+00 0.21531141E+04</pdfrwt>
<pdfrwt beam="2">  1       -2 0.86752759E-01 0.21531141E+04</pdfrwt>
<totfact> 0.65663627E+00</totfact>
</mgrwt>
</event>
<event>
 6    1  0.1934315E-005  0.1889188E+04  0.7818608E-02  0.8660257E-01
          2   -1    0    0  501    0  0.00000000000E+00  0.00000000000E+00  0.24783023252E+04  0.24783023252E+04  0.00000000000E+00 0.  1.
         -2   -1    0    0    0  501 -0.00000000000E+00 -0.00000000000E+00 -0.36002792268E+03  0.36002792268E+03  0.00000000000E+00 0. -1.
         23    2    1    2    0    0  0.62222291295E+03  0.13797780170E+03  0.18440501063E+02  0.64390512022E+03  0.89858358628E+02 0.  0.
         13    1    3    3    0    0  0.54431594817E+03  0.10425141457E+03  0.42011989243E+02  0.55579961867E+03  0.00000000000E+00 0.  1.
        -13    1    3    3    0    0  0.77906964778E+02  0.33726387129E+02 -0.23571488181E+02  0.88105501558E+02  0.00000000000E+00 0. -1.
         22    1    1    2    0    0 -0.62222291295E+03 -0.13797780170E+03  0.20998339014E+04  0.21944251276E+04  0.00000000000E+00 0.  1.
<mgrwt>
<rscale>  0 0.18891882E+04</rscale>
<asrwt>0</asrwt>
<pdfrwt beam="1">  1        2 0.38127727E+00 0.18891882E+04</pdfrwt>
<pdfrwt beam="2">  1       -2 0.55388913E-01 0.18891882E+04</pdfrwt>
<totfact> 0.10298890E+01</totfact>
</mgrwt>
</event>
<event>
 6    1  0.1934315E-005  0.3360921E+04  0.7818608E-02  0.8147565E-01
         -1   -1    0    0    0  501 -0.00000000000E+00  0.00000000000E+00  0.15328135462E+04  0.15328135462E+04  0.00000000000E+00 0. -1.
          1   -1    0    0  501    0  0.00000000000E+00 -0.00000000000E+00 -0.18423291275E+04  0.18423291275E+04  0.00000000000E+00 0.  1.
         23    2    1    2    0    0 -0.15889342756E+04  0.52846852305E+03 -0.28132695093E+03  0.17003932265E+04  0.90560253345E+02 0.  0.
         11    1    3    3    0    0 -0.13823015374E+04  0.47963758416E+03 -0.26931207213E+03  0.14877293922E+04  0.00000000000E+00 0.  1.
        -11    1    3    3    0    0 -0.20663273823E+03  0.48830938889E+02 -0.12014878804E+02  0.21266383429E+03  0.00000000000E+00 0. -1.
         22    1    1    2    0    0  0.15889342756E+04 -0.52846852305E+03 -0.28188630354E+02  0.16747494472E+04  0.00000000000E+00 0.  1.
<mgrwt>
<rscale>  0 0.33609207E+04</rscale>
<asrwt>0</asrwt>
<pdfrwt beam="1">  1        1 0.28343525E+00 0.33609207E+04</pdfrwt>
<pdfrwt beam="2">  1       -1 0.23581747E+00 0.33609207E+04</pdfrwt>
<totfact> 0.27187915E-01</totfact>
</mgrwt>
</event>
<event>
 6    1  0.1934315E-005  0.3163111E+04  0.7818608E-02  0.8198628E-01
         -2   -1    0    0    0  501 -0.00000000000E+00  0.00000000000E+00  0.21350907951E+04  0.21350907951E+04  0.00000000000E+00 0. -1.
          2   -1    0    0  501    0  0.00000000000E+00 -0.00000000000E+00 -0.11715277095E+04  0.11715277095E+04  0.00000000000E+00 0.  1.
         23    2    1    2    0    0  0.30402398412E+03  0.10481493602E+04  0.16772030230E+04  0.20026516244E+04  0.80968413374E+02 0.  0.
         13    1    3    3    0    0  0.93256353649E+02  0.43155687457E+03  0.63153555986E+03  0.77056813251E+03  0.00000000000E+00 0. -1.
        -13    1    3    3    0    0  0.21076763047E+03  0.61659248568E+03  0.10456674632E+04  0.12320834919E+04  0.00000000000E+00 0.  1.
         22    1    1    2    0    0 -0.30402398412E+03 -0.10481493602E+04 -0.71363993750E+03  0.13039668802E+04  0.00000000000E+00 0.  1.
<mgrwt>
<rscale>  0 0.31631111E+04</rscale>
<asrwt>0</asrwt>
<pdfrwt beam="1">  1        2 0.18023503E+00 0.31631111E+04</pdfrwt>
<pdfrwt beam="2">  1       -2 0.32847551E+00 0.31631111E+04</pdfrwt>
<totfact> 0.35297659E-01</totfact>
</mgrwt>
</event>
<event>
 6    1  0.1934315E-005  0.2562498E+04  0.7818608E-02  0.8381052E-01
          1   -1    0    0  501    0  0.00000000000E+00  0.00000000000E+00  0.15037810465E+04  0.15037810465E+04  0.00000000000E+00 0.  1.
         -1   -1    0    0    0  501 -0.00000000000E+00 -0.00000000000E+00 -0.10916479111E+04  0.10916479111E+04  0.00000000000E+00 0. -1.
         23    2    1    2    0    0  0.51735999261E+03  0.82337998795E+03  0.10487977991E+04  0.14331218293E+04  0.90804116972E+02 0.  0.
         11    1    3    3    0    0  0.21159404536E+03  0.32215651406E+03  0.35237511459E+03  0.52223086941E+03  0.00000000000E+00 0. -1.
        -11    1    3    3    0    0  0.30576594725E+03  0.50122347388E+03  0.69642268450E+03  0.91089095986E+03  0.00000000000E+00 0.  1.
         22    1    1    2    0    0 -0.51735999261E+03 -0.82337998795E+03 -0.63666466371E+03  0.11623071283E+04  0.00000000000E+00 0. -1.
<mgrwt>
<rscale>  0 0.25624983E+04</rscale>
<asrwt>0</asrwt>
<pdfrwt beam="1">  1        1 0.23135093E+00 0.25624983E+04</pdfrwt>
<pdfrwt beam="2">  1       -1 0.16794583E+00 0.25624983E+04</pdfrwt>
<totfact> 0.14640529E+00</totfact>
</mgrwt>
</event>
<event>
 6    1  0.1934315E-005  0.1983575E+04  0.7818608E-02  0.8614339E-01
          2   -1    0    0  501    0  0.00000000000E+00  0.00000000000E+00  0.10453007421E+04  0.10453007421E+04  0.00000000000E+00 0.  1.
         -2   -1    0    0    0  501 -0.00000000000E+00 -0.00000000000E+00 -0.94101392195E+03  0.94101392195E+03  0.00000000000E+00 0. -1.
         23    2    1    2    0    0 -0.55108655734E+03  0.43033393530E+02 -0.76984620097E+03  0.95207252351E+03  0.90722931112E+02 0.  0.
         13    1    3    3    0    0 -0.26331064723E+03  0.65893689875E+02 -0.37922158370E+03  0.46635124623E+03  0.00000000000E+00 0.  1.
        -13    1    3    3    0    0 -0.28777591011E+03 -0.22860296346E+02 -0.39062461727E+03  0.48572127728E+03  0.00000000000E+00 0. -1.
         22    1    1    2    0    0  0.55108655734E+03 -0.43033393530E+02  0.87413302110E+03  0.10342421405E+04  0.00000000000E+00 0.  1.
<mgrwt>
<rscale>  0 0.19835751E+04</rscale>
<asrwt>0</asrwt>
<pdfrwt beam="1">  1        2 0.16081550E+00 0.19835751E+04</pdfrwt>
<pdfrwt beam="2">  1       -2 0.14477137E+00 0.19835751E+04</pdfrwt>
<totfact> 0.72141851E+00</totfact>
</mgrwt>
</event>
<event>
 6    1  0.1934315E-005  0.1121225E+04  0.7818608E-02  0.9184748E-01
          2   -1    0    0  501    0  0.00000000000E+00  0.00000000000E+00  0.36600557909E+03  0.36600557909E+03  0.00000000000E+00 0.  1.
         -2   -1    0    0    0  501 -0.00000000000E+00 -0.00000000000E+00 -0.85869221402E+03  0.85869221402E+03  0.00000000000E+00 0. -1.
         23    2    1    2    0    0  0.39637496391E+03  0.35659085219E+03 -0.42398189105E+03  0.68711943630E+03  0.90012931978E+02 0.  0.
         11    1    3    3    0    0  0.25152409551E+03  0.19218770886E+03 -0.29594688254E+03  0.43334171660E+03  0.00000000000E+00 0.  1.
        -11    1    3    3    0    0  0.14485086840E+03  0.16440314333E+03 -0.12803500851E+03  0.25377771970E+03  0.00000000000E+00 0. -1.
         22    1    1    2    0    0 -0.39637496391E+03 -0.35659085219E+03 -0.68704743883E+02  0.53757835682E+03  0.00000000000E+00 0.  1.
<mgrwt>
<rscale>  0 0.11212246E+04</rscale>
<asrwt>0</asrwt>
<pdfrwt beam="1">  1        2 0.56308551E-01 0.11212246E+04</pdfrwt>
<pdfrwt beam="2">  1       -2 0.13210649E+00 0.11212246E+04</pdfrwt>
<totfact> 0.36308154E+01</totfact>
</mgrwt>
</event>
<event>
 6    1  0.1934315E-005  0.2986695E+04  0.7818608E-02  0.8247540E-01
         -2   -1    0    0    0  501 -0.00000000000E+00  0.00000000000E+00  0.12062863470E+04  0.12062863470E+04  0.00000000000E+00 0. -1.
          2   -1    0    0  501    0  0.00000000000E+00 -0.00000000000E+00 -0.18487209116E+04  0.18487209116E+04  0.00000000000E+00 0.  1.
         23    2    1    2    0    0  0.11773241890E+04  0.91135905780E+03 -0.22127443467E+03  0.15077375881E+04  0.87422428278E+02 0.  0.
         11    1    3    3    0    0  0.67193313486E+03  0.46814563047E+03 -0.13587843319E+03  0.83013096416E+03  0.00000000000E+00 0. -1.
        -11    1    3    3    0    0  0.50539105412E+03  0.44321342733E+03 -0.85396001479E+02  0.67760662395E+03  0.00000000000E+00 0.  1.
         22    1    1    2    0    0 -0.11773241890E+04 -0.91135905780E+03 -0.42116012993E+03  0.15472696705E+04  0.00000000000E+00 0. -1.
<mgrwt>
<rscale>  0 0.29866950E+04</rscale>
<asrwt>0</asrwt>
<pdfrwt beam="1">  1        2 0.28441860E+00 0.29866950E+04</pdfrwt>
<pdfrwt beam="2">  1       -2 0.18558252E+00 0.29866950E+04</pdfrwt>
<totfact> 0.11537122E+00</totfact>
</mgrwt>
</event>
<event>
 6    1  0.1934315E-005  0.4474671E+04  0.7818608E-02  0.7915086E-01
          2   -1    0    0  501    0  0.00000000000E+00  0.00000000000E+00  0.17447637525E+04  0.17447637525E+04  0.00000000000E+00 0.  1.
         -2   -1    0    0    0  501 -0.00000000000E+00 -0.00000000000E+00 -0.28689670489E+04  0.28689670489E+04  0.00000000000E+00 0. -1.
         23    2    1    2    0    0 -0.14611959704E+04  0.10290013379E+04  0.82387928917E+03  0.19700660766E+04  0.91901281713E+02 0.  0.
         13    1    3    3    0    0 -0.39452789843E+03  0.23284079825E+03  0.22860725607E+03  0.51198474342E+03  0.00000000000E+00 0. -1.
        -13    1    3    3    0    0 -0.10666680720E+04  0.79616053966E+03  0.59527203310E+03  0.14580813331E+04  0.00000000000E+00 0.  1.
         22    1    1    2    0    0  0.14611959704E+04 -0.10290013379E+04 -0.19480825856E+04  0.26436647249E+04  0.00000000000E+00 0. -1.
<mgrwt>
<rscale>  0 0.44746708E+04</rscale>
<asrwt>0</asrwt>
<pdfrwt beam="1">  1        2 0.26842519E+00 0.44746708E+04</pdfrwt>
<pdfrwt beam="2">  1       -2 0.44137954E+00 0.44746708E+04</pdfrwt>
<totfact> 0.27856080E-02</totfact>
</mgrwt>
</event>
<event>
 6    1  0.1934315E-005  0.2854828E+04  0.7818608E-02  0.8286446E-01
          2   -1    0    0  501    0  0.00000000000E+00  0.00000000000E+00  0.17539555044E+04  0.17539555044E+04  0.00000000000E+00 0.  1.
         -2   -1    0    0    0  501 -0.00000000000E+00 -0.00000000000E+00 -0.11616657615E+04  0.11616657615E+04  0.00000000000E+00 0. -1.
         23    2    1    2    0    0 -0.11736223422E+04 -0.60392137838E+03 -0.25487103100E+03  0.13472489217E+04  0.89498498040E+02 0.  0.
         13    1    3    3    0    0 -0.29121616969E+03 -0.13188366350E+03 -0.26442437715E+02  0.32077930217E+03  0.00000000000E+00 0. -1.
        -13    1    3    3    0    0 -0.88240617251E+03 -0.47203771487E+03 -0.22842859328E+03  0.10264696195E+04  0.00000000000E+00 0.  1.
         22    1    1    2    0    0  0.11736223422E+04  0.60392137838E+03  0.84716077390E+03  0.15683723442E+04  0.00000000000E+00 0.  1.
<mgrwt>
<rscale>  0 0.28548275E+04</rscale>
<asrwt>0</asrwt>
<pdfrwt beam="1">  1        2 0.26983931E+00 0.28548275E+04</pdfrwt>
<pdfrwt beam="2">  1       -2 0.17871781E+00 0.28548275E+04</pdfrwt>
<totfact> 0.14675201E+00</totfact>
</mgrwt>
</event>
<event>
 6    1  0.1934315E-005  0.7419079E+03  0.7818608E-02  0.9648132E-01
         -2   -1    0    0    0  501 -0.00000000000E+00  0.00000000000E+00  0.54923357588E+03  0.54923357588E+03  0.00000000000E+00 0. -1.
          2   -1    0    0  501    0  0.00000000000E+00 -0.00000000000E+00 -0.25054335998E+03  0.25054335998E+03  0.00000000000E+00 0.  1.
         23    2    1    2    0    0 -0.29640867735E+03 -0.83522885188E+02 -0.60984940296E+02  0.32627889538E+03  0.88907695214E+02 0.  0.
         11    1    3    3    0    0 -0.92663069964E+02 -0.19287084281E+02  0.21869539219E+02  0.97142744973E+02  0.00000000000E+00 0. -1.
        -11    1    3    3    0    0 -0.20374560738E+03 -0.64235800906E+02 -0.82854479515E+02  0.22913615040E+03  0.00000000000E+00 0.  1.
         22    1    1    2    0    0  0.29640867735E+03  0.83522885188E+02  0.35967515620E+03  0.47349804048E+03  0.00000000000E+00 0. -1.
<mgrwt>
<rscale>  0 0.74190788E+03</rscale>
<asrwt>0</asrwt>
<pdfrwt beam="1">  1        2 0.38545133E-01 0.74190788E+03</pdfrwt>
<pdfrwt beam="2">  1       -2 0.84497473E-01 0.74190788E+03</pdfrwt>
<totfact> 0.16544629E+02</totfact>
</mgrwt>
</event>
<event>
 6    1  0.1934315E-005  0.1966789E+04  0.7818608E-02  0.8622307E-01
          2   -1    0    0  501    0  0.00000000000E+00  0.00000000000E+00  0.23906082813E+04  0.23906082813E+04  0.00000000000E+00 0.  1.
         -2   -1    0    0    0  501 -0.00000000000E+00 -0.00000000000E+00 -0.40452656643E+03  0.40452656643E+03  0.00000000000E+00 0. -1.
         23    2    1    2    0    0  0.93482682409E+03  0.22155492490E+03  0.12789300635E+04  0.16022177367E+04  0.91933632021E+02 0.  0.
         11    1    3    3    0    0  0.33120343706E+03  0.51985759344E+02  0.50552919454E+03  0.60659541906E+03  0.00000000000E+00 0.  1.
        -11    1    3    3    0    0  0.60362338703E+03  0.16956916556E+03  0.77340086897E+03  0.99562231765E+03  0.00000000000E+00 0. -1.
         22    1    1    2    0    0 -0.93482682409E+03 -0.22155492490E+03  0.70715165139E+03  0.11929171111E+04  0.00000000000E+00 0. -1.
<mgrwt>
<rscale>  0 0.19667888E+04</rscale>
<asrwt>0</asrwt>
<pdfrwt beam="1">  1        2 0.36778588E+00 0.19667888E+04</pdfrwt>
<pdfrwt beam="2">  1       -2 0.62234857E-01 0.19667888E+04</pdfrwt>
<totfact> 0.89884428E+00</totfact>
</mgrwt>
</event>
<event>
 6    1  0.1934315E-005  0.5648107E+03  0.7818608E-02  0.9981228E-01
         -2   -1    0    0    0  501 -0.00000000000E+00  0.00000000000E+00  0.61011561845E+02  0.61011561845E+02  0.00000000000E+00 0. -1.
          2   -1    0    0  501    0  0.00000000000E+00 -0.00000000000E+00 -0.13071749492E+04  0.13071749492E+04  0.00000000000E+00 0.  1.
         23    2    1    2    0    0 -0.22923571647E+02  0.19537255368E+03 -0.11051480621E+04  0.11261508797E+04  0.90374996224E+02 0.  0.
         13    1    3    3    0    0 -0.34839702784E+02  0.22839705843E+02 -0.16153609002E+03  0.16682135784E+03  0.00000000000E+00 0. -1.
        -13    1    3    3    0    0  0.11916131136E+02  0.17253284784E+03 -0.94361197205E+03  0.95932952188E+03  0.00000000000E+00 0.  1.
         22    1    1    2    0    0  0.22923571647E+02 -0.19537255368E+03 -0.14101532532E+03  0.24203563135E+03  0.00000000000E+00 0. -1.
<mgrwt>
<rscale>  0 0.56481071E+03</rscale>
<asrwt>0</asrwt>
<pdfrwt beam="1">  1        2 0.20110384E+00 0.56481071E+03</pdfrwt>
<pdfrwt beam="2">  1       -2 0.93863939E-02 0.56481071E+03</pdfrwt>
<totfact> 0.12635420E+03</totfact>
</mgrwt>
</event>
<event>
 6    1  0.1934315E-005  0.3436189E+04  0.7818608E-02  0.8129081E-01
         -1   -1    0    0    0  501 -0.00000000000E+00  0.00000000000E+00  0.14059059008E+04  0.14059059008E+04  0.00000000000E+00 0. -1.
          1   -1    0    0  501    0  0.00000000000E+00 -0.00000000000E+00 -0.20996056872E+04  0.20996056872E+04  0.00000000000E+00 0.  1.
         23    2    1    2    0    0 -0.27840595878E+03  0.34206515885E+03  0.13456561389E+04  0.14190094813E+04  0.90989083355E+02 0.  0.
         13    1    3    3    0    0 -0.43085378440E+02  0.56147932955E+02  0.34135357975E+03  0.34861326226E+03  0.00000000000E+00 0.  1.
        -13    1    3    3    0    0 -0.23532058034E+03  0.28591722590E+03  0.10043025591E+04  0.10703962191E+04  0.00000000000E+00 0. -1.
         22    1    1    2    0    0  0.27840595878E+03 -0.34206515885E+03 -0.20393559253E+04  0.20865021066E+04  0.00000000000E+00 0.  1.
<mgrwt>
<rscale>  0 0.34361886E+04</rscale>
<asrwt>0</asrwt>
<pdfrwt beam="1">  1        1 0.32301626E+00 0.34361886E+04</pdfrwt>
<pdfrwt beam="2">  1       -1 0.21629322E+00 0.34361886E+04</pdfrwt>
<totfact> 0.24378269E-01</totfact>
</mgrwt>
</event>
<event>
 6    1  0.1934315E-005  0.1177576E+04  0.7818608E-02  0.9132714E-01
          2   -1    0    0  501    0  0.00000000000E+00  0.00000000000E+00  0.39255000635E+03  0.39255000635E+03  0.00000000000E+00 0.  1.
         -2   -1    0    0    0  501 -0.00000000000E+00 -0.00000000000E+00 -0.88312694573E+03  0.88312694573E+03  0.00000000000E+00 0. -1.
         23    2    1    2    0    0  0.57757498622E+03  0.93681514902E+02 -0.25527063628E+03  0.64501210667E+03  0.92241146253E+02 0.  0.
         11    1    3    3    0    0  0.29296904028E+03  0.92798661050E+02 -0.14475806582E+03  0.33970185115E+03  0.00000000000E+00 0.  1.
        -11    1    3    3    0    0  0.28460594594E+03  0.88285385166E+00 -0.11051257046E+03  0.30531025552E+03  0.00000000000E+00 0. -1.
         22    1    1    2    0    0 -0.57757498622E+03 -0.93681514902E+02 -0.23530630310E+03  0.63066484540E+03  0.00000000000E+00 0. -1.
<mgrwt>
<rscale>  0 0.11775763E+04</rscale>
<asrwt>0</asrwt>
<pdfrwt beam="1">  1        2 0.60392309E-01 0.11775763E+04</pdfrwt>
<pdfrwt beam="2">  1       -2 0.13586568E+00 0.11775763E+04</pdfrwt>
<totfact> 0.31126093E+01</totfact>
</mgrwt>
</event>
<event>
 6    1  0.1934315E-005  0.4227016E+04  0.7818608E-02  0.7960253E-01
         -2   -1    0    0    0  501 -0.00000000000E+00  0.00000000000E+00  0.11614719988E+04  0.11614719988E+04  0.00000000000E+00 0. -1.
          2   -1    0    0  501    0  0.00000000000E+00 -0.00000000000E+00 -0.38459098754E+04  0.38459098754E+04  0.00000000000E+00 0.  1.
         23    2    1    2    0    0  0.39325140155E+03  0.12761891779E+04  0.59612122949E+03  0.14654369944E+04  0.94019049857E+02 0.  0.
         13    1    3    3    0    0  0.10226473851E+03  0.21866093287E+03  0.12284721262E+03  0.27085442207E+03  0.00000000000E+00 0.  1.
        -13    1    3    3    0    0  0.29098666304E+03  0.10575282451E+04  0.47327401687E+03  0.11945825724E+04  0.00000000000E+00 0. -1.
         22    1    1    2    0    0 -0.39325140155E+03 -0.12761891779E+04 -0.32805591061E+04  0.35419448798E+04  0.00000000000E+00 0.  1.
<mgrwt>
<rscale>  0 0.42270163E+04</rscale>
<asrwt>0</asrwt>
<pdfrwt beam="1">  1        2 0.59167843E+00 0.42270163E+04</pdfrwt>
<pdfrwt beam="2">  1       -2 0.17868800E+00 0.42270163E+04</pdfrwt>
<totfact> 0.64750320E-02</totfact>
</mgrwt>
</event>
<event>
 6    1  0.1934315E-005  0.4262660E+04  0.7818608E-02  0.7953559E-01
         -2   -1    0    0    0  501 -0.00000000000E+00  0.00000000000E+00  0.15735892284E+04  0.15735892284E+04  0.00000000000E+00 0. -1.
          2   -1    0    0  501    0  0.00000000000E+00 -0.00000000000E+00 -0.28867551116E+04  0.28867551116E+04  0.00000000000E+00 0.  1.
         23    2    1    2    0    0 -0.11819948356E+04 -0.38434668750E+03 -0.24673693886E+04  0.27641663130E+04  0.88710418655E+02 0.  0.
         13    1    3    3    0    0 -0.80949587742E+03 -0.29602804913E+03 -0.17663063672E+04  0.19653891127E+04  0.00000000000E+00 0.  1.
        -13    1    3    3    0    0 -0.37249895814E+03 -0.88318638371E+02 -0.70106302137E+03  0.79877720025E+03  0.00000000000E+00 0. -1.
         22    1    1    2    0    0  0.11819948356E+04  0.38434668750E+03  0.11542035055E+04  0.16961780271E+04  0.00000000000E+00 0. -1.
<mgrwt>
<rscale>  0 0.42626596E+04</rscale>
<asrwt>0</asrwt>
<pdfrwt beam="1">  1        2 0.44411617E+00 0.42626596E+04</pdfrwt>
<pdfrwt beam="2">  1       -2 0.24209065E+00 0.42626596E+04</pdfrwt>
<totfact> 0.11364068E-01</totfact>
</mgrwt>
</event>
<event>
 6    1  0.1934315E-005  0.2242875E+04  0.7818608E-02  0.8500792E-01
         -2   -1    0    0    0  501 -0.00000000000E+00  0.00000000000E+00  0.11526677264E+04  0.11526677264E+04  0.00000000000E+00 0. -1.
          2   -1    0    0  501    0  0.00000000000E+00 -0.00000000000E+00 -0.10910532123E+04  0.10910532123E+04  0.00000000000E+00 0.  1.
         23    2    1    2    0    0 -0.23131013438E+03 -0.32138324365E+03  0.10784885627E+04  0.11524719304E+04  0.90897759878E+02 0.  0.
         11    1    3    3    0    0 -0.11324010185E+03 -0.15566909503E+03  0.39619776075E+03  0.44048706387E+03  0.00000000000E+00 0.  1.
        -11    1    3    3    0    0 -0.11807003252E+03 -0.16571414862E+03  0.68229080198E+03  0.71198486649E+03  0.00000000000E+00 0. -1.
         22    1    1    2    0    0  0.23131013438E+03  0.32138324365E+03 -0.10168740486E+04  0.10912490083E+04  0.00000000000E+00 0.  1.
<mgrwt>
<rscale>  0 0.22428748E+04</rscale>
<asrwt>0</asrwt>
<pdfrwt beam="1">  1        2 0.16785434E+00 0.22428748E+04</pdfrwt>
<pdfrwt beam="2">  1       -2 0.17733350E+00 0.22428748E+04</pdfrwt>
<totfact> 0.38028045E+00</totfact>
</mgrwt>
</event>
<event>
 6    1  0.1934315E-005  0.1511141E+04  0.7818608E-02  0.8877078E-01
         -2   -1    0    0    0  501 -0.00000000000E+00  0.00000000000E+00  0.14203248402E+04  0.14203248402E+04  0.00000000000E+00 0. -1.
          2   -1    0    0  501    0  0.00000000000E+00 -0.00000000000E+00 -0.40194102013E+03  0.40194102013E+03  0.00000000000E+00 0.  1.
         23    2    1    2    0    0  0.10629303715E+03 -0.37116614442E+03  0.12904151266E+04  0.13499698216E+04  0.90469905477E+02 0.  0.
         11    1    3    3    0    0  0.78822597454E+02 -0.35601653614E+03  0.12057280421E+04  0.12596590361E+04  0.00000000000E+00 0. -1.
        -11    1    3    3    0    0  0.27470439691E+02 -0.15149608282E+02  0.84687084497E+02  0.90310785450E+02  0.00000000000E+00 0.  1.
         22    1    1    2    0    0 -0.10629303715E+03  0.37116614442E+03 -0.27203130649E+03  0.47229603875E+03  0.00000000000E+00 0.  1.
<mgrwt>
<rscale>  0 0.15111410E+04</rscale>
<asrwt>0</asrwt>
<pdfrwt beam="1">  1        2 0.61837081E-01 0.15111410E+04</pdfrwt>
<pdfrwt beam="2">  1       -2 0.21851151E+00 0.15111410E+04</pdfrwt>
<totfact> 0.77068294E+00</totfact>
</mgrwt>
</event>
<event>
 6    1  0.1934315E-005  0.1686165E+04  0.7818608E-02  0.8769294E-01
         -2   -1    0    0    0  501 -0.00000000000E+00  0.00000000000E+00  0.66679409983E+03  0.66679409983E+03  0.00000000000E+00 0. -1.
          2   -1    0    0  501    0  0.00000000000E+00 -0.00000000000E+00 -0.10659786977E+04  0.10659786977E+04  0.00000000000E+00 0.  1.
         23    2    1    2    0    0 -0.35941460259E+03  0.56677410864E+03 -0.72045587766E+03  0.98871165620E+03  0.89901727800E+02 0.  0.
         11    1    3    3    0    0 -0.14299642339E+03  0.19193394288E+03 -0.20089403663E+03  0.31248204666E+03  0.00000000000E+00 0. -1.
        -11    1    3    3    0    0 -0.21641817919E+03  0.37484016576E+03 -0.51956184103E+03  0.67622960953E+03  0.00000000000E+00 0.  1.
         22    1    1    2    0    0  0.35941460259E+03 -0.56677410864E+03  0.32127127981E+03  0.74406114131E+03  0.00000000000E+00 0. -1.
<mgrwt>
<rscale>  0 0.16861652E+04</rscale>
<asrwt>0</asrwt>
<pdfrwt beam="1">  1        2 0.16399672E+00 0.16861652E+04</pdfrwt>
<pdfrwt beam="2">  1       -2 0.10258371E+00 0.16861652E+04</pdfrwt>
<totfact> 0.16939030E+01</totfact>
</mgrwt>
</event>
<event>
 6    1  0.1934315E-005  0.1918799E+04  0.7818608E-02  0.8645555E-01
          2   -1    0    0  501    0  0.00000000000E+00  0.00000000000E+00  0.89837256460E+03  0.89837256460E+03  0.00000000000E+00 0.  1.
         -2   -1    0    0    0  501 -0.00000000000E+00 -0.00000000000E+00 -0.10245724232E+04  0.10245724232E+04  0.00000000000E+00 0. -1.
         23    2    1    2    0    0  0.84649201768E+03  0.25245975504E+03 -0.43291144018E+03  0.98787458505E+03  0.90549527005E+02 0.  0.
         13    1    3    3    0    0  0.74332198945E+03  0.19484766374E+03 -0.39336564654E+03  0.86326689033E+03  0.00000000000E+00 0.  1.
        -13    1    3    3    0    0  0.10317002823E+03  0.57612091297E+02 -0.39545793639E+02  0.12460769472E+03  0.00000000000E+00 0. -1.
         22    1    1    2    0    0 -0.84649201768E+03 -0.25245975504E+03  0.30671158155E+03  0.93507040278E+03  0.00000000000E+00 0.  1.
<mgrwt>
<rscale>  0 0.19187994E+04</rscale>
<asrwt>0</asrwt>
<pdfrwt beam="1">  1        2 0.13821116E+00 0.19187994E+04</pdfrwt>
<pdfrwt beam="2">  1       -2 0.15762653E+00 0.19187994E+04</pdfrwt>
<totfact> 0.72095905E+00</totfact>
</mgrwt>
</event>
<event>
 6    1  0.1934315E-005  0.1064208E+04  0.7818608E-02  0.9240797E-01
         -2   -1    0    0    0  501 -0.00000000000E+00  0.00000000000E+00  0.11243814711E+03  0.11243814711E+03  0.00000000000E+00 0. -1.
          2   -1    0    0  501    0  0.00000000000E+00 -0.00000000000E+00 -0.25181384672E+04  0.25181384672E+04  0.00000000000E+00 0.  1.
         23    2    1    2    0    0 -0.23680844857E+03  0.73878635696E+02 -0.23644625212E+04  0.23791072321E+04  0.89061290159E+02 0.  0.
         13    1    3    3    0    0 -0.13720364417E+03  0.31132625296E+02 -0.93314072453E+03  0.94368728513E+03  0.00000000000E+00 0.  1.
        -13    1    3    3    0    0 -0.99604804399E+02  0.42746010400E+02 -0.14313217967E+04  0.14354199470E+04  0.00000000000E+00 0. -1.
         22    1    1    2    0    0  0.23680844857E+03 -0.73878635696E+02 -0.41237798852E+02  0.25146938219E+03  0.00000000000E+00 0. -1.
<mgrwt>
<rscale>  0 0.10642083E+04</rscale>
<asrwt>0</asrwt>
<pdfrwt beam="1">  1        2 0.38740590E+00 0.10642083E+04</pdfrwt>
<pdfrwt beam="2">  1       -2 0.17298177E-01 0.10642083E+04</pdfrwt>
<totfact> 0.93990519E+01</totfact>
</mgrwt>
</event>
<event>
 6    1  0.1934315E-005  0.1504434E+04  0.7818608E-02  0.8881510E-01
          3   -1    0    0  501    0  0.00000000000E+00  0.00000000000E+00  0.85070491546E+03  0.85070491546E+03  0.00000000000E+00 0.  1.
         -3   -1    0    0    0  501 -0.00000000000E+00 -0.00000000000E+00 -0.66513098284E+03  0.66513098284E+03  0.00000000000E+00 0. -1.
         23    2    1    2    0    0 -0.20812992869E+03 -0.67531314754E+03 -0.15795528867E+03  0.73010169367E+03  0.93448892064E+02 0.  0.
         11    1    3    3    0    0 -0.10735119059E+02 -0.14293736035E+03 -0.11950789526E+02  0.14383724530E+03  0.00000000000E+00 0. -1.
        -11    1    3    3    0    0 -0.19739480963E+03 -0.53237578718E+03 -0.14600449914E+03  0.58626444837E+03  0.00000000000E+00 0.  1.
         22    1    1    2    0    0  0.20812992869E+03  0.67531314754E+03  0.34352922129E+03  0.78573420463E+03  0.00000000000E+00 0.  1.
<mgrwt>
<rscale>  0 0.15044337E+04</rscale>
<asrwt>0</asrwt>
<pdfrwt beam="1">  1        3 0.13087768E+00 0.15044337E+04</pdfrwt>
<pdfrwt beam="2">  1       -3 0.10232784E+00 0.15044337E+04</pdfrwt>
<totfact> 0.95800416E-01</totfact>
</mgrwt>
</event>
<event>
 6    1  0.1934315E-005  0.1159780E+04  0.7818608E-02  0.9148808E-01
          2   -1    0    0  501    0  0.00000000000E+00  0.00000000000E+00  0.14609661714E+04  0.14609661714E+04  0.00000000000E+00 0.  1.
         -2   -1    0    0    0  501 -0.00000000000E+00 -0.00000000000E+00 -0.23017112112E+03  0.23017112112E+03  0.00000000000E+00 0. -1.
         23    2    1    2    0    0  0.23300935890E+03 -0.13943977200E+03  0.13602367291E+04  0.13903184773E+04  0.94893087158E+02 0.  0.
         13    1    3    3    0    0  0.10462795965E+01 -0.23903653144E+02  0.61715085751E+02  0.66190869037E+02  0.00000000000E+00 0. -1.
        -13    1    3    3    0    0  0.23196307931E+03 -0.11553611886E+03  0.12985216433E+04  0.13241276083E+04  0.00000000000E+00 0.  1.
         22    1    1    2    0    0 -0.23300935890E+03  0.13943977200E+03 -0.12944167879E+03  0.30081881517E+03  0.00000000000E+00 0. -1.
<mgrwt>
<rscale>  0 0.11597797E+04</rscale>
<asrwt>0</asrwt>
<pdfrwt beam="1">  1        2 0.22476402E+00 0.11597797E+04</pdfrwt>
<pdfrwt beam="2">  1       -2 0.35410943E-01 0.11597797E+04</pdfrwt>
<totfact> 0.98917942E+01</totfact>
</mgrwt>
</event>
<event>
 6    1  0.1934315E-005  0.5637366E+03  0.7818608E-02  0.9983635E-01
         -2   -1    0    0    0  501 -0.00000000000E+00  0.00000000000E+00  0.37916729127E+02  0.37916729127E+02  0.00000000000E+00 0. -1.
          2   -1    0    0  501    0  0.00000000000E+00 -0.00000000000E+00 -0.20953741590E+04  0.20953741590E+04  0.00000000000E+00 0.  1.
         23    2    1    2    0    0 -0.15113892426E+03 -0.76839877661E+02 -0.18726935055E+04  0.18825219726E+04  0.90336430413E+02 0.  0.
         11    1    3    3    0    0 -0.79363249074E+02 -0.78281320498E+02 -0.84454414611E+03  0.85186930053E+03  0.00000000000E+00 0.  1.
        -11    1    3    3    0    0 -0.71775675185E+02  0.14414428370E+01 -0.10281493594E+04  0.10306526721E+04  0.00000000000E+00 0. -1.
         22    1    1    2    0    0  0.15113892426E+03  0.76839877661E+02 -0.18476392433E+03  0.25076891546E+03  0.00000000000E+00 0. -1.
<mgrwt>
<rscale>  0 0.56373659E+03</rscale>
<asrwt>0</asrwt>
<pdfrwt beam="1">  1        2 0.32236519E+00 0.56373659E+03</pdfrwt>
<pdfrwt beam="2">  1       -2 0.58333440E-02 0.56373659E+03</pdfrwt>
<totfact> 0.99590603E+02</totfact>
</mgrwt>
</event>
<event>
 6    1  0.1934315E-005  0.2539207E+04  0.7818608E-02  0.8389149E-01
         -2   -1    0    0    0  501 -0.00000000000E+00  0.00000000000E+00  0.17939347764E+04  0.17939347764E+04  0.00000000000E+00 0.  1.
          2   -1    0    0  501    0  0.00000000000E+00 -0.00000000000E+00 -0.89852408197E+03  0.89852408197E+03  0.00000000000E+00 0. -1.
         23    2    1    2    0    0 -0.20644855604E+03  0.25417218263E+03  0.17472846812E+04  0.17798177492E+04  0.86734991678E+02 0.  0.
         13    1    3    3    0    0 -0.17931347526E+03  0.20275757379E+03  0.12391203926E+04  0.12683387968E+04  0.00000000000E+00 0.  1.
        -13    1    3    3    0    0 -0.27135080782E+02  0.51414608841E+02  0.50816428854E+03  0.51147895241E+03  0.00000000000E+00 0. -1.
         22    1    1    2    0    0  0.20644855604E+03 -0.25417218263E+03 -0.85187398675E+03  0.91264110910E+03  0.00000000000E+00 0. -1.
<mgrwt>
<rscale>  0 0.25392074E+04</rscale>
<asrwt>0</asrwt>
<pdfrwt beam="1">  1        2 0.13823447E+00 0.25392074E+04</pdfrwt>
<pdfrwt beam="2">  1       -2 0.27598996E+00 0.25392074E+04</pdfrwt>
<totfact> 0.11640296E+00</totfact>
</mgrwt>
</event>
<event>
 6    1  0.1934315E-005  0.1951817E+04  0.7818608E-02  0.8629485E-01
         -2   -1    0    0    0  501 -0.00000000000E+00  0.00000000000E+00  0.11481723516E+04  0.11481723516E+04  0.00000000000E+00 0. -1.
          2   -1    0    0  501    0  0.00000000000E+00 -0.00000000000E+00 -0.82948964832E+03  0.82948964832E+03  0.00000000000E+00 0.  1.
         23    2    1    2    0    0 -0.54482254966E+03  0.37387040832E+02 -0.65718825175E+03  0.85938049585E+03  0.91700801319E+02 0.  0.
         13    1    3    3    0    0 -0.45021514661E+03  0.22886018642E+02 -0.48339954869E+03  0.66097849568E+03  0.00000000000E+00 0. -1.
        -13    1    3    3    0    0 -0.94607403055E+02  0.14501022190E+02 -0.17378870306E+03  0.19840200016E+03  0.00000000000E+00 0.  1.
         22    1    1    2    0    0  0.54482254966E+03 -0.37387040832E+02  0.97587095499E+03  0.11182815040E+04  0.00000000000E+00 0. -1.
<mgrwt>
<rscale>  0 0.19518167E+04</rscale>
<asrwt>0</asrwt>
<pdfrwt beam="1">  1        2 0.12761379E+00 0.19518167E+04</pdfrwt>
<pdfrwt beam="2">  1       -2 0.17664190E+00 0.19518167E+04</pdfrwt>
<totfact> 0.58527978E+00</totfact>
</mgrwt>
</event>
<event>
 6    1  0.1934315E-005  0.2714470E+04  0.7818608E-02  0.8330325E-01
          2   -1    0    0  501    0  0.00000000000E+00  0.00000000000E+00  0.30535525334E+04  0.30535525334E+04  0.00000000000E+00 0.  1.
         -2   -1    0    0    0  501 -0.00000000000E+00 -0.00000000000E+00 -0.60326033342E+03  0.60326033342E+03  0.00000000000E+00 0. -1.
         23    2    1    2    0    0 -0.95972645050E+03  0.59009249601E+03  0.21085406374E+03  0.11499488538E+04  0.92945772247E+02 0.  0.
         13    1    3    3    0    0 -0.67341458502E+03  0.37424052369E+03  0.11645925192E+03  0.77917002653E+03  0.00000000000E+00 0.  1.
        -13    1    3    3    0    0 -0.28631186548E+03  0.21585197232E+03  0.94394811820E+02  0.37077882730E+03  0.00000000000E+00 0. -1.
         22    1    1    2    0    0  0.95972645050E+03 -0.59009249601E+03  0.22394381362E+04  0.25068640130E+04  0.00000000000E+00 0.  1.
<mgrwt>
<rscale>  0 0.27144702E+04</rscale>
<asrwt>0</asrwt>
<pdfrwt beam="1">  1        2 0.46977730E+00 0.27144702E+04</pdfrwt>
<pdfrwt beam="2">  1       -2 0.92809284E-01 0.27144702E+04</pdfrwt>
<totfact> 0.13887790E+00</totfact>
</mgrwt>
</event>
<event>
 6    1  0.1934315E-005  0.2774664E+04  0.7818608E-02  0.8311178E-01
         -2   -1    0    0    0  501 -0.00000000000E+00  0.00000000000E+00  0.11176288152E+04  0.11176288152E+04  0.00000000000E+00 0. -1.
          2   -1    0    0  501    0  0.00000000000E+00 -0.00000000000E+00 -0.17221195696E+04  0.17221195696E+04  0.00000000000E+00 0.  1.
         23    2    1    2    0    0  0.32214206710E+03  0.92290655190E+03 -0.13079486008E+04  0.16354290930E+04  0.91470000141E+02 0.  0.
         13    1    3    3    0    0  0.19046191964E+02  0.10901882870E+03 -0.18848571266E+03  0.21857430388E+03  0.00000000000E+00 0. -1.
        -13    1    3    3    0    0  0.30309587513E+03  0.81388772320E+03 -0.11194628881E+04  0.14168547891E+04  0.00000000000E+00 0.  1.
         22    1    1    2    0    0 -0.32214206710E+03 -0.92290655190E+03  0.70345784637E+03  0.12043192918E+04  0.00000000000E+00 0. -1.
<mgrwt>
<rscale>  0 0.27746643E+04</rscale>
<asrwt>0</asrwt>
<pdfrwt beam="1">  1        2 0.26494147E+00 0.27746643E+04</pdfrwt>
<pdfrwt beam="2">  1       -2 0.17194289E+00 0.27746643E+04</pdfrwt>
<totfact> 0.17165293E+00</totfact>
</mgrwt>
</event>
<event>
 6    1  0.1934315E-005  0.1208930E+04  0.7818608E-02  0.9105076E-01
          2   -1    0    0  501    0  0.00000000000E+00  0.00000000000E+00  0.94573876014E+03  0.94573876014E+03  0.00000000000E+00 0.  1.
         -2   -1    0    0    0  501 -0.00000000000E+00 -0.00000000000E+00 -0.38634112431E+03  0.38634112431E+03  0.00000000000E+00 0. -1.
         23    2    1    2    0    0 -0.43750650871E+03  0.22442398850E+03 -0.95979802663E+02  0.51275231951E+03  0.10920048930E+03 0.  0.
         13    1    3    3    0    0 -0.71927493192E+02  0.65186769720E+02 -0.55832168676E+02  0.11198263384E+03  0.00000000000E+00 0. -1.
        -13    1    3    3    0    0 -0.36557901552E+03  0.15923721878E+03 -0.40147633987E+02  0.40076968566E+03  0.00000000000E+00 0.  1.
         22    1    1    2    0    0  0.43750650871E+03 -0.22442398850E+03  0.65537743850E+03  0.81932756494E+03  0.00000000000E+00 0.  1.
<mgrwt>
<rscale>  0 0.12089297E+04</rscale>
<asrwt>0</asrwt>
<pdfrwt beam="1">  1        2 0.14549827E+00 0.12089297E+04</pdfrwt>
<pdfrwt beam="2">  1       -2 0.59437096E-01 0.12089297E+04</pdfrwt>
<totfact> 0.71211710E+01</totfact>
</mgrwt>
</event>
<event>
 6    1  0.1934315E-005  0.3872672E+04  0.7818608E-02  0.8030737E-01
          2   -1    0    0  501    0  0.00000000000E+00  0.00000000000E+00  0.40733866490E+04  0.40733866490E+04  0.00000000000E+00 0.  1.
         -2   -1    0    0    0  501 -0.00000000000E+00 -0.00000000000E+00 -0.92046186891E+03  0.92046186891E+03  0.00000000000E+00 0. -1.
         23    2    1    2    0    0 -0.70270263403E+02 -0.18458282439E+04  0.83567377589E+03  0.20304599116E+04  0.11134171309E+03 0.  0.
         11    1    3    3    0    0  0.19881485989E+01 -0.12912151193E+04  0.58219155085E+03  0.14163994630E+04  0.00000000000E+00 0. -1.
        -11    1    3    3    0    0 -0.72258412002E+02 -0.55461312456E+03  0.25348222504E+03  0.61406044853E+03  0.00000000000E+00 0.  1.
         22    1    1    2    0    0  0.70270263403E+02  0.18458282439E+04  0.23172510042E+04  0.29633886064E+04  0.00000000000E+00 0.  1.
<mgrwt>
<rscale>  0 0.38726720E+04</rscale>
<asrwt>0</asrwt>
<pdfrwt beam="1">  1        2 0.62667486E+00 0.38726720E+04</pdfrwt>
<pdfrwt beam="2">  1       -2 0.14160952E+00 0.38726720E+04</pdfrwt>
<totfact> 0.82443592E-02</totfact>
</mgrwt>
</event>
<event>
 6    1  0.1934315E-005  0.2161917E+04  0.7818608E-02  0.8534448E-01
         -2   -1    0    0    0  501 -0.00000000000E+00  0.00000000000E+00  0.18783358396E+04  0.18783358396E+04  0.00000000000E+00 0. -1.
          2   -1    0    0  501    0  0.00000000000E+00 -0.00000000000E+00 -0.62207777961E+03  0.62207777961E+03  0.00000000000E+00 0.  1.
         23    2    1    2    0    0 -0.79401130523E+03  0.57268932316E+03  0.11547938762E+04  0.15161768620E+04  0.82561290312E+02 0.  0.
         11    1    3    3    0    0 -0.23728588054E+03  0.18818143690E+03  0.30350007835E+03  0.42875300566E+03  0.00000000000E+00 0. -1.
        -11    1    3    3    0    0 -0.55672542469E+03  0.38450788625E+03  0.85129379787E+03  0.10874238564E+04  0.00000000000E+00 0.  1.
         22    1    1    2    0    0  0.79401130523E+03 -0.57268932316E+03  0.10146418380E+03  0.98423675723E+03  0.00000000000E+00 0.  1.
<mgrwt>
<rscale>  0 0.21619167E+04</rscale>
<asrwt>0</asrwt>
<pdfrwt beam="1">  1        2 0.95704274E-01 0.21619167E+04</pdfrwt>
<pdfrwt beam="2">  1       -2 0.28897474E+00 0.21619167E+04</pdfrwt>
<totfact> 0.16160712E+00</totfact>
</mgrwt>
</event>
<event>
 6    1  0.1934315E-005  0.5074884E+04  0.7818608E-02  0.7817058E-01
         -2   -1    0    0    0  501 -0.00000000000E+00  0.00000000000E+00  0.22649465890E+04  0.22649465890E+04  0.00000000000E+00 0. -1.
          2   -1    0    0  501    0  0.00000000000E+00 -0.00000000000E+00 -0.28427207422E+04  0.28427207422E+04  0.00000000000E+00 0.  1.
         23    2    1    2    0    0 -0.16889917330E+04 -0.18565161158E+04 -0.65882406721E+03  0.25965093810E+04  0.92014408858E+02 0.  0.
         13    1    3    3    0    0 -0.15591666315E+04 -0.16764595469E+04 -0.59335462985E+03  0.23650765133E+04  0.00000000000E+00 0.  1.
        -13    1    3    3    0    0 -0.12982510156E+03 -0.18005656891E+03 -0.65469437357E+02  0.23143286766E+03  0.00000000000E+00 0. -1.
         22    1    1    2    0    0  0.16889917330E+04  0.18565161158E+04  0.81049913977E+02  0.25111579502E+04  0.00000000000E+00 0. -1.
<mgrwt>
<rscale>  0 0.50748835E+04</rscale>
<asrwt>0</asrwt>
<pdfrwt beam="1">  1        2 0.43734165E+00 0.50748835E+04</pdfrwt>
<pdfrwt beam="2">  1       -2 0.34845332E+00 0.50748835E+04</pdfrwt>
<totfact> 0.25079423E-02</totfact>
</mgrwt>
</event>
<event>
 6    1  0.1934315E-005  0.3064842E+04  0.7818608E-02  0.8225454E-01
          2   -1    0    0  501    0  0.00000000000E+00  0.00000000000E+00  0.14643001751E+04  0.14643001751E+04  0.00000000000E+00 0.  1.
         -2   -1    0    0    0  501 -0.00000000000E+00 -0.00000000000E+00 -0.16037107138E+04  0.16037107138E+04  0.00000000000E+00 0. -1.
         23    2    1    2    0    0 -0.79475247714E+03  0.27252357223E+03  0.12115229282E+04  0.14771237687E+04  0.90588217138E+02 0.  0.
         13    1    3    3    0    0 -0.74539054507E+03  0.23244020053E+03  0.11039211548E+04  0.13521380948E+04  0.00000000000E+00 0.  1.
        -13    1    3    3    0    0 -0.49361932067E+02  0.40083371697E+02  0.10760177342E+03  0.12498567385E+03  0.00000000000E+00 0. -1.
         22    1    1    2    0    0  0.79475247714E+03 -0.27252357223E+03 -0.13509334669E+04  0.15908871203E+04  0.00000000000E+00 0. -1.
<mgrwt>
<rscale>  0 0.30648418E+04</rscale>
<asrwt>0</asrwt>
<pdfrwt beam="1">  1        2 0.22527695E+00 0.30648418E+04</pdfrwt>
<pdfrwt beam="2">  1       -2 0.24672473E+00 0.30648418E+04</pdfrwt>
<totfact> 0.76231240E-01</totfact>
</mgrwt>
</event>
<event>
 6    1  0.1934315E-005  0.1999577E+04  0.7818608E-02  0.8606819E-01
         -2   -1    0    0    0  501 -0.00000000000E+00  0.00000000000E+00  0.60038612270E+03  0.60038612270E+03  0.00000000000E+00 0. -1.
          2   -1    0    0  501    0  0.00000000000E+00 -0.00000000000E+00 -0.16648900298E+04  0.16648900298E+04  0.00000000000E+00 0.  1.
         23    2    1    2    0    0  0.62845884032E+03 -0.66309837106E+03 -0.79472459026E+02  0.92179302369E+03  0.93415968136E+02 0.  0.
         11    1    3    3    0    0  0.11801427246E+03 -0.13392744202E+03  0.20943328000E+02  0.17972910509E+03  0.00000000000E+00 0. -1.
        -11    1    3    3    0    0  0.51044456786E+03 -0.52917092904E+03 -0.10041578703E+03  0.74206391860E+03  0.00000000000E+00 0.  1.
         22    1    1    2    0    0 -0.62845884032E+03  0.66309837106E+03 -0.98503144809E+03  0.13434831288E+04  0.00000000000E+00 0. -1.
<mgrwt>
<rscale>  0 0.19995768E+04</rscale>
<asrwt>0</asrwt>
<pdfrwt beam="1">  1        2 0.25613693E+00 0.19995768E+04</pdfrwt>
<pdfrwt beam="2">  1       -2 0.92367095E-01 0.19995768E+04</pdfrwt>
<totfact> 0.94850007E+00</totfact>
</mgrwt>
</event>
<event>
 6    1  0.1934315E-005  0.1881628E+04  0.7818608E-02  0.8664056E-01
         -2   -1    0    0    0  501 -0.00000000000E+00  0.00000000000E+00  0.16388395686E+04  0.16388395686E+04  0.00000000000E+00 0. -1.
          2   -1    0    0  501    0  0.00000000000E+00 -0.00000000000E+00 -0.54009608489E+03  0.54009608489E+03  0.00000000000E+00 0.  1.
         23    2    1    2    0    0  0.83018257725E+03  0.43074409782E+03  0.64211044344E+03  0.11381391687E+04  0.91166640409E+02 0.  0.
         11    1    3    3    0    0  0.51952636691E+03  0.23362643191E+03  0.35220504537E+03  0.66972931068E+03  0.00000000000E+00 0. -1.
        -11    1    3    3    0    0  0.31065621034E+03  0.19711766591E+03  0.28990539807E+03  0.46840985800E+03  0.00000000000E+00 0.  1.
         22    1    1    2    0    0 -0.83018257725E+03 -0.43074409782E+03  0.45663304030E+03  0.10407964849E+04  0.00000000000E+00 0. -1.
<mgrwt>
<rscale>  0 0.18816278E+04</rscale>
<asrwt>0</asrwt>
<pdfrwt beam="1">  1        2 0.83091706E-01 0.18816278E+04</pdfrwt>
<pdfrwt beam="2">  1       -2 0.25212916E+00 0.18816278E+04</pdfrwt>
<totfact> 0.32893727E+00</totfact>
</mgrwt>
</event>
<event>
 6    1  0.1934315E-005  0.1807391E+04  0.7818608E-02  0.8702379E-01
          2   -1    0    0  501    0  0.00000000000E+00  0.00000000000E+00  0.22675092586E+04  0.22675092586E+04  0.00000000000E+00 0.  1.
         -2   -1    0    0    0  501 -0.00000000000E+00 -0.00000000000E+00 -0.36015977887E+03  0.36015977887E+03  0.00000000000E+00 0. -1.
         23    2    1    2    0    0  0.13281204257E+03 -0.26556128172E+03  0.21936469575E+04  0.22152031859E+04  0.82923746343E+02 0.  0.
         13    1    3    3    0    0  0.49106446573E+02 -0.70113294666E+02  0.91543425194E+03  0.91942764088E+03  0.00000000000E+00 0. -1.
        -13    1    3    3    0    0  0.83705595994E+02 -0.19544798705E+03  0.12782127055E+04  0.12957755450E+04  0.00000000000E+00 0.  1.
         22    1    1    2    0    0 -0.13281204257E+03  0.26556128172E+03 -0.28629747772E+03  0.41246585162E+03  0.00000000000E+00 0. -1.
<mgrwt>
<rscale>  0 0.18073911E+04</rscale>
<asrwt>0</asrwt>
<pdfrwt beam="1">  1        2 0.34884757E+00 0.18073911E+04</pdfrwt>
<pdfrwt beam="2">  1       -2 0.55409198E-01 0.18073911E+04</pdfrwt>
<totfact> 0.13668094E+01</totfact>
</mgrwt>
</event>
<event>
 6    1  0.1934315E-005  0.2465450E+04  0.7818608E-02  0.8415399E-01
         -2   -1    0    0    0  501 -0.00000000000E+00  0.00000000000E+00  0.87921250230E+03  0.87921250230E+03  0.00000000000E+00 0. -1.
          2   -1    0    0  501    0  0.00000000000E+00 -0.00000000000E+00 -0.17283767309E+04  0.17283767309E+04  0.00000000000E+00 0.  1.
         23    2    1    2    0    0 -0.87750056494E+03  0.62352847264E+03 -0.10568107245E+04  0.15112717313E+04  0.91095229382E+02 0.  0.
         11    1    3    3    0    0 -0.26453886877E+02  0.41746605204E+02 -0.48058500708E+02  0.68936250749E+02  0.00000000000E+00 0.  1.
        -11    1    3    3    0    0 -0.85104667807E+03  0.58178186744E+03 -0.10087522238E+04  0.14423354806E+04  0.00000000000E+00 0. -1.
         22    1    1    2    0    0  0.87750056494E+03 -0.62352847264E+03  0.20764649590E+03  0.10963175019E+04  0.00000000000E+00 0. -1.
<mgrwt>
<rscale>  0 0.24654496E+04</rscale>
<asrwt>0</asrwt>
<pdfrwt beam="1">  1        2 0.26590411E+00 0.24654496E+04</pdfrwt>
<pdfrwt beam="2">  1       -2 0.13526346E+00 0.24654496E+04</pdfrwt>
<totfact> 0.33207682E+00</totfact>
</mgrwt>
</event>
<event>
 6    1  0.1934315E-005  0.3352802E+04  0.7818608E-02  0.8149588E-01
         -2   -1    0    0    0  501 -0.00000000000E+00  0.00000000000E+00  0.19698802442E+04  0.19698802442E+04  0.00000000000E+00 0. -1.
          2   -1    0    0  501    0  0.00000000000E+00 -0.00000000000E+00 -0.14266449132E+04  0.14266449132E+04  0.00000000000E+00 0.  1.
         23    2    1    2    0    0 -0.62261829068E+03 -0.12004844678E+04 -0.73020883909E+03  0.15389793174E+04  0.80224043850E+02 0.  0.
         11    1    3    3    0    0 -0.36507267822E+03 -0.68058499051E+03 -0.37337168046E+03  0.85783471687E+03  0.00000000000E+00 0. -1.
        -11    1    3    3    0    0 -0.25754561246E+03 -0.51989947733E+03 -0.35683715863E+03  0.68114460051E+03  0.00000000000E+00 0.  1.
         22    1    1    2    0    0  0.62261829068E+03  0.12004844678E+04  0.12734441701E+04  0.18575458400E+04  0.00000000000E+00 0. -1.
<mgrwt>
<rscale>  0 0.33528016E+04</rscale>
<asrwt>0</asrwt>
<pdfrwt beam="1">  1        2 0.21948383E+00 0.33528016E+04</pdfrwt>
<pdfrwt beam="2">  1       -2 0.30305850E+00 0.33528016E+04</pdfrwt>
<totfact> 0.35366169E-01</totfact>
</mgrwt>
</event>
<event>
 6    1  0.1934315E-005  0.1898569E+04  0.7818608E-02  0.8655569E-01
          2   -1    0    0  501    0  0.00000000000E+00  0.00000000000E+00  0.17903020824E+04  0.17903020824E+04  0.00000000000E+00 0.  1.
         -2   -1    0    0    0  501 -0.00000000000E+00 -0.00000000000E+00 -0.50334596660E+03  0.50334596660E+03  0.00000000000E+00 0. -1.
         23    2    1    2    0    0  0.14388072543E+02 -0.81029083294E+03  0.52757030275E+02  0.81715706247E+03  0.90466070625E+02 0.  0.
         13    1    3    3    0    0  0.14127048900E+02 -0.34929600425E+03 -0.21398756862E+02  0.35023589036E+03  0.00000000000E+00 0. -1.
        -13    1    3    3    0    0  0.26102364296E+00 -0.46099482868E+03  0.74155787137E+02  0.46692117211E+03  0.00000000000E+00 0.  1.
         22    1    1    2    0    0 -0.14388072543E+02  0.81029083294E+03  0.12341990855E+04  0.14764909865E+04  0.00000000000E+00 0.  1.
<mgrwt>
<rscale>  0 0.18985693E+04</rscale>
<asrwt>0</asrwt>
<pdfrwt beam="1">  1        2 0.27543109E+00 0.18985693E+04</pdfrwt>
<pdfrwt beam="2">  1       -2 0.77437842E-01 0.18985693E+04</pdfrwt>
<totfact> 0.12167323E+01</totfact>
</mgrwt>
</event>
<event>
 6    1  0.1934315E-005  0.3422450E+04  0.7818608E-02  0.8132418E-01
         -2   -1    0    0    0  501 -0.00000000000E+00  0.00000000000E+00  0.15622009139E+04  0.15622009139E+04  0.00000000000E+00 0. -1.
          2   -1    0    0  501    0  0.00000000000E+00 -0.00000000000E+00 -0.18744651091E+04  0.18744651091E+04  0.00000000000E+00 0.  1.
         23    2    1    2    0    0  0.80097257380E+03  0.60506676357E+03  0.12338678522E+04  0.15932487723E+04  0.91372432353E+02 0.  0.
         13    1    3    3    0    0  0.54143626886E+03  0.37489421831E+03  0.75369966923E+03  0.10008806620E+04  0.00000000000E+00 0.  1.
        -13    1    3    3    0    0  0.25953630494E+03  0.23017254526E+03  0.48016818294E+03  0.59236811029E+03  0.00000000000E+00 0. -1.
         22    1    1    2    0    0 -0.80097257380E+03 -0.60506676357E+03 -0.15461320474E+04  0.18434172508E+04  0.00000000000E+00 0.  1.
<mgrwt>
<rscale>  0 0.34224501E+04</rscale>
<asrwt>0</asrwt>
<pdfrwt beam="1">  1        2 0.28837925E+00 0.34224501E+04</pdfrwt>
<pdfrwt beam="2">  1       -2 0.24033860E+00 0.34224501E+04</pdfrwt>
<totfact> 0.47828291E-01</totfact>
</mgrwt>
</event>
<event>
 6    1  0.1934315E-005  0.2699939E+04  0.7818608E-02  0.8335025E-01
         -2   -1    0    0    0  501 -0.00000000000E+00  0.00000000000E+00  0.11320441730E+04  0.11320441730E+04  0.00000000000E+00 0. -1.
          2   -1    0    0  501    0  0.00000000000E+00 -0.00000000000E+00 -0.16098473473E+04  0.16098473473E+04  0.00000000000E+00 0.  1.
         23    2    1    2    0    0  0.94087889233E+03  0.95872609226E+03 -0.35838076680E+03  0.13933105915E+04  0.92026193521E+02 0.  0.
         11    1    3    3    0    0  0.14554032939E+03  0.19902067886E+03 -0.66533780912E+02  0.25537807677E+03  0.00000000000E+00 0.  1.
        -11    1    3    3    0    0  0.79533856295E+03  0.75970541340E+03 -0.29184698589E+03  0.11379325147E+04  0.00000000000E+00 0. -1.
         22    1    1    2    0    0 -0.94087889233E+03 -0.95872609226E+03 -0.11942240752E+03  0.13485809288E+04  0.00000000000E+00 0.  1.
<mgrwt>
<rscale>  0 0.26999395E+04</rscale>
<asrwt>0</asrwt>
<pdfrwt beam="1">  1        2 0.24766882E+00 0.26999395E+04</pdfrwt>
<pdfrwt beam="2">  1       -2 0.17416064E+00 0.26999395E+04</pdfrwt>
<totfact> 0.19243188E+00</totfact>
</mgrwt>
</event>
<event>
 6    1  0.2498249E-005  0.3183448E+04  0.7818608E-02  0.8193202E-01
         -2   -1    0    0    0  501 -0.00000000000E+00  0.00000000000E+00  0.17547590595E+04  0.17547590595E+04  0.00000000000E+00 0. -1.
          2   -1    0    0  501    0  0.00000000000E+00 -0.00000000000E+00 -0.14438362065E+04  0.14438362065E+04  0.00000000000E+00 0.  1.
         23    2    1    2    0    0  0.56891061463E+03  0.37675536228E+03 -0.12877425675E+04  0.14603964808E+04  0.94196978100E+02 0.  0.
         11    1    3    3    0    0  0.14541298941E+03  0.52710375447E+02 -0.32165940188E+03  0.35691468447E+03  0.00000000000E+00 0. -1.
        -11    1    3    3    0    0  0.42349762522E+03  0.32404498684E+03 -0.96608316557E+03  0.11034817963E+04  0.00000000000E+00 0.  1.
         22    1    1    2    0    0 -0.56891061463E+03 -0.37675536228E+03  0.15986654204E+04  0.17381987852E+04  0.00000000000E+00 0. -1.
<mgrwt>
<rscale>  0 0.31834476E+04</rscale>
<asrwt>0</asrwt>
<pdfrwt beam="1">  1        2 0.22212865E+00 0.31834476E+04</pdfrwt>
<pdfrwt beam="2">  1       -2 0.26996293E+00 0.31834476E+04</pdfrwt>
<totfact> 0.55853480E-01</totfact>
</mgrwt>
</event>
<event>
 6    1  0.1934315E-005  0.1114664E+04  0.7818608E-02  0.9191016E-01
          2   -1    0    0  501    0  0.00000000000E+00  0.00000000000E+00  0.33801005630E+03  0.33801005630E+03  0.00000000000E+00 0.  1.
         -2   -1    0    0    0  501 -0.00000000000E+00 -0.00000000000E+00 -0.91896311618E+03  0.91896311618E+03  0.00000000000E+00 0. -1.
         23    2    1    2    0    0  0.19019737750E+03 -0.27853374495E+03  0.20253434943E+03  0.40397340108E+03  0.91751057733E+02 0.  0.
         13    1    3    3    0    0  0.10748046579E+03 -0.16693032212E+03  0.66072457254E+02  0.20924471935E+03  0.00000000000E+00 0. -1.
        -13    1    3    3    0    0  0.82716911711E+02 -0.11160342283E+03  0.13646189217E+03  0.19472868172E+03  0.00000000000E+00 0.  1.
         22    1    1    2    0    0 -0.19019737750E+03  0.27853374495E+03 -0.78348740930E+03  0.85299977141E+03  0.00000000000E+00 0. -1.
<mgrwt>
<rscale>  0 0.11146637E+04</rscale>
<asrwt>0</asrwt>
<pdfrwt beam="1">  1        2 0.52001547E-01 0.11146637E+04</pdfrwt>
<pdfrwt beam="2">  1       -2 0.14137894E+00 0.11146637E+04</pdfrwt>
<totfact> 0.33340633E+01</totfact>
</mgrwt>
</event>
<event>
 6    1  0.1934315E-005  0.2701563E+04  0.7818608E-02  0.8334498E-01
         -2   -1    0    0    0  501 -0.00000000000E+00  0.00000000000E+00  0.30618535540E+04  0.30618535540E+04  0.00000000000E+00 0. -1.
          2   -1    0    0  501    0  0.00000000000E+00 -0.00000000000E+00 -0.59591710299E+03  0.59591710299E+03  0.00000000000E+00 0.  1.
         23    2    1    2    0    0 -0.76523341049E+02  0.12404427632E+04  0.19459780989E+04  0.23105844195E+04  0.86113457737E+02 0.  0.
         11    1    3    3    0    0 -0.28010507428E+02  0.94196203705E+03  0.14326261776E+04  0.17147871099E+04  0.00000000000E+00 0. -1.
        -11    1    3    3    0    0 -0.48512833621E+02  0.29848072620E+03  0.51335192133E+03  0.59579730956E+03  0.00000000000E+00 0.  1.
         22    1    1    2    0    0  0.76523341049E+02 -0.12404427632E+04  0.51995835214E+03  0.13471862375E+04  0.00000000000E+00 0.  1.
<mgrwt>
<rscale>  0 0.27015632E+04</rscale>
<asrwt>0</asrwt>
<pdfrwt beam="1">  1        2 0.91679556E-01 0.27015632E+04</pdfrwt>
<pdfrwt beam="2">  1       -2 0.47105438E+00 0.27015632E+04</pdfrwt>
<totfact> 0.11047001E-01</totfact>
</mgrwt>
</event>
<event>
 6    1  0.1934315E-005  0.1652997E+04  0.7818608E-02  0.8788636E-01
         -2   -1    0    0    0  501 -0.00000000000E+00  0.00000000000E+00  0.22503733011E+03  0.22503733011E+03  0.00000000000E+00 0.  1.
          2   -1    0    0  501    0  0.00000000000E+00 -0.00000000000E+00 -0.30354946180E+04  0.30354946180E+04  0.00000000000E+00 0. -1.
         23    2    1    2    0    0 -0.32536439254E+03 -0.71086350155E+03 -0.19229440507E+04  0.20777941699E+04  0.91246285777E+02 0.  0.
         13    1    3    3    0    0 -0.71120320612E+02 -0.21116533322E+03 -0.64048974992E+03  0.67814159120E+03  0.00000000000E+00 0.  1.
        -13    1    3    3    0    0 -0.25424407193E+03 -0.49969816833E+03 -0.12824543008E+04  0.13996525787E+04  0.00000000000E+00 0. -1.
         22    1    1    2    0    0  0.32536439254E+03  0.71086350155E+03 -0.88751323719E+03  0.11827377782E+04  0.00000000000E+00 0.  1.
<mgrwt>
<rscale>  0 0.16529968E+04</rscale>
<asrwt>0</asrwt>
<pdfrwt beam="1">  1        2 0.46699915E+00 0.16529968E+04</pdfrwt>
<pdfrwt beam="2">  1       -2 0.34621129E-01 0.16529968E+04</pdfrwt>
<totfact> 0.12425104E+01</totfact>
</mgrwt>
</event>
<event>
 6    1  0.1934315E-005  0.1927991E+04  0.7818608E-02  0.8641047E-01
         -2   -1    0    0    0  501 -0.00000000000E+00  0.00000000000E+00  0.22741670697E+03  0.22741670697E+03  0.00000000000E+00 0. -1.
          2   -1    0    0  501    0  0.00000000000E+00 -0.00000000000E+00 -0.40862769291E+04  0.40862769291E+04  0.00000000000E+00 0.  1.
         23    2    1    2    0    0 -0.66746915185E+03 -0.52767926540E+03 -0.29369078881E+04  0.30591193729E+04  0.93930389727E+02 0.  0.
         11    1    3    3    0    0 -0.63020936680E+03 -0.49572420524E+03 -0.28315768356E+04  0.29429124536E+04  0.00000000000E+00 0.  1.
        -11    1    3    3    0    0 -0.37259785053E+02 -0.31955060159E+02 -0.10533105257E+03  0.11620691928E+03  0.00000000000E+00 0. -1.
         22    1    1    2    0    0  0.66746915185E+03  0.52767926540E+03 -0.92195233398E+03  0.12545742632E+04  0.00000000000E+00 0. -1.
<mgrwt>
<rscale>  0 0.19279913E+04</rscale>
<asrwt>0</asrwt>
<pdfrwt beam="1">  1        2 0.62865798E+00 0.19279913E+04</pdfrwt>
<pdfrwt beam="2">  1       -2 0.34987186E-01 0.19279913E+04</pdfrwt>
<totfact> 0.21088062E+00</totfact>
</mgrwt>
</event>
<event>
 6    1  0.1934315E-005  0.3879911E+04  0.7818608E-02  0.8029220E-01
         -2   -1    0    0    0  501 -0.00000000000E+00  0.00000000000E+00  0.20088615075E+04  0.20088615075E+04  0.00000000000E+00 0. -1.
          2   -1    0    0  501    0  0.00000000000E+00 -0.00000000000E+00 -0.18734131866E+04  0.18734131866E+04  0.00000000000E+00 0.  1.
         23    2    1    2    0    0  0.68420054373E+02 -0.18794995394E+04 -0.40364697492E+03  0.19257922484E+04  0.92439608568E+02 0.  0.
         11    1    3    3    0    0  0.59774846220E+02 -0.64291533966E+03 -0.11336689645E+03  0.65556480948E+03  0.00000000000E+00 0. -1.
        -11    1    3    3    0    0  0.86452081529E+01 -0.12365841997E+04 -0.29028007847E+03  0.12702274389E+04  0.00000000000E+00 0.  1.
         22    1    1    2    0    0 -0.68420054373E+02  0.18794995394E+04  0.53909529577E+03  0.19564824457E+04  0.00000000000E+00 0. -1.
<mgrwt>
<rscale>  0 0.38799112E+04</rscale>
<asrwt>0</asrwt>
<pdfrwt beam="1">  1        2 0.28821741E+00 0.38799112E+04</pdfrwt>
<pdfrwt beam="2">  1       -2 0.30905562E+00 0.38799112E+04</pdfrwt>
<totfact> 0.17500624E-01</totfact>
</mgrwt>
</event>
<event>
 6    1  0.1934315E-005  0.4835845E+04  0.7818608E-02  0.7854341E-01
          2   -1    0    0  501    0  0.00000000000E+00  0.00000000000E+00  0.16838784282E+04  0.16838784282E+04  0.00000000000E+00 0.  1.
         -2   -1    0    0    0  501 -0.00000000000E+00 -0.00000000000E+00 -0.34719551669E+04  0.34719551669E+04  0.00000000000E+00 0. -1.
         23    2    1    2    0    0  0.14098126437E+04 -0.28507548226E+03 -0.29654337377E+04  0.32970680842E+04  0.89559913340E+02 0.  0.
         11    1    3    3    0    0  0.62309804991E+03 -0.15500908308E+03 -0.12447510427E+04  0.14006013544E+04  0.00000000000E+00 0. -1.
        -11    1    3    3    0    0  0.78671459381E+03 -0.13006639918E+03 -0.17206826951E+04  0.18964667299E+04  0.00000000000E+00 0.  1.
         22    1    1    2    0    0 -0.14098126437E+04  0.28507548226E+03  0.11773569991E+04  0.18587655108E+04  0.00000000000E+00 0.  1.
<mgrwt>
<rscale>  0 0.48358455E+04</rscale>
<asrwt>0</asrwt>
<pdfrwt beam="1">  1        2 0.25905822E+00 0.48358455E+04</pdfrwt>
<pdfrwt beam="2">  1       -2 0.53414695E+00 0.48358455E+04</pdfrwt>
<totfact> 0.77239798E-03</totfact>
</mgrwt>
</event>
<event>
 6    1  0.1934315E-005  0.3456870E+04  0.7818608E-02  0.8124088E-01
          2   -1    0    0  501    0  0.00000000000E+00  0.00000000000E+00  0.22222881829E+04  0.22222881829E+04  0.00000000000E+00 0.  1.
         -2   -1    0    0    0  501 -0.00000000000E+00 -0.00000000000E+00 -0.13443297455E+04  0.13443297455E+04  0.00000000000E+00 0. -1.
         23    2    1    2    0    0 -0.44648171465E+03  0.16437582284E+04  0.73478982499E+03  0.18572951717E+04  0.91335825841E+02 0.  0.
         13    1    3    3    0    0 -0.99858585401E+02  0.52957657321E+03  0.23269151448E+03  0.58699951012E+03  0.00000000000E+00 0. -1.
        -13    1    3    3    0    0 -0.34662312925E+03  0.11141816552E+04  0.50209831051E+03  0.12702956616E+04  0.00000000000E+00 0.  1.
         22    1    1    2    0    0  0.44648171465E+03 -0.16437582284E+04  0.14316861238E+03  0.17093227567E+04  0.00000000000E+00 0. -1.
<mgrwt>
<rscale>  0 0.34568703E+04</rscale>
<asrwt>0</asrwt>
<pdfrwt beam="1">  1        2 0.34189049E+00 0.34568703E+04</pdfrwt>
<pdfrwt beam="2">  1       -2 0.20681996E+00 0.34568703E+04</pdfrwt>
<totfact> 0.49663315E-01</totfact>
</mgrwt>
</event>
<event>
 6    1  0.1934315E-005  0.8480045E+03  0.7818608E-02  0.9493019E-01
         -2   -1    0    0    0  501 -0.00000000000E+00  0.00000000000E+00  0.30262534282E+03  0.30262534282E+03  0.00000000000E+00 0. -1.
          2   -1    0    0  501    0  0.00000000000E+00 -0.00000000000E+00 -0.59406099175E+03  0.59406099175E+03  0.00000000000E+00 0.  1.
         23    2    1    2    0    0  0.31284067749E+03 -0.27708347118E+03 -0.16878275978E+03  0.46115416502E+03  0.97626863233E+02 0.  0.
         13    1    3    3    0    0  0.25257340696E+03 -0.26670433593E+03 -0.13539920283E+03  0.39148112704E+03  0.00000000000E+00 0.  1.
        -13    1    3    3    0    0  0.60267270533E+02 -0.10379135247E+02 -0.33383556953E+02  0.69673037976E+02  0.00000000000E+00 0. -1.
         22    1    1    2    0    0 -0.31284067749E+03  0.27708347118E+03 -0.12265288916E+03  0.43553216955E+03  0.00000000000E+00 0.  1.
<mgrwt>
<rscale>  0 0.84800451E+03</rscale>
<asrwt>0</asrwt>
<pdfrwt beam="1">  1        2 0.91393997E-01 0.84800451E+03</pdfrwt>
<pdfrwt beam="2">  1       -2 0.46557746E-01 0.84800451E+03</pdfrwt>
<totfact> 0.22067220E+02</totfact>
</mgrwt>
</event>
<event>
 6    1  0.1934315E-005  0.6771500E+03  0.7818608E-02  0.9757127E-01
         -2   -1    0    0    0  501 -0.00000000000E+00  0.00000000000E+00  0.79911207710E+02  0.79911207710E+02  0.00000000000E+00 0. -1.
          2   -1    0    0  501    0  0.00000000000E+00 -0.00000000000E+00 -0.14345052548E+04  0.14345052548E+04  0.00000000000E+00 0.  1.
         23    2    1    2    0    0  0.24705364810E+03  0.13026477619E+03 -0.10930563756E+04  0.11317856084E+04  0.90343821284E+02 0.  0.
         11    1    3    3    0    0  0.12990617554E+03  0.22305875492E+02 -0.42345102993E+03  0.44349063268E+03  0.00000000000E+00 0. -1.
        -11    1    3    3    0    0  0.11714747256E+03  0.10795890070E+03 -0.66960534570E+03  0.68829497569E+03  0.00000000000E+00 0.  1.
         22    1    1    2    0    0 -0.24705364810E+03 -0.13026477619E+03 -0.26153767149E+03  0.38263085417E+03  0.00000000000E+00 0. -1.
<mgrwt>
<rscale>  0 0.67715005E+03</rscale>
<asrwt>0</asrwt>
<pdfrwt beam="1">  1        2 0.22069311E+00 0.67715005E+03</pdfrwt>
<pdfrwt beam="2">  1       -2 0.12294032E-01 0.67715005E+03</pdfrwt>
<totfact> 0.68595231E+02</totfact>
</mgrwt>
</event>
<event>
 6    1  0.1934315E-005  0.2272535E+04  0.7818608E-02  0.8488830E-01
         -2   -1    0    0    0  501 -0.00000000000E+00  0.00000000000E+00  0.38351198075E+03  0.38351198075E+03  0.00000000000E+00 0.  1.
          2   -1    0    0  501    0  0.00000000000E+00 -0.00000000000E+00 -0.33665271779E+04  0.33665271779E+04  0.00000000000E+00 0. -1.
         23    2    1    2    0    0 -0.61490706070E+03 -0.89127601536E+02  0.72331534590E+02  0.63215556977E+03  0.91292884958E+02 0.  0.
         11    1    3    3    0    0 -0.44317160172E+03 -0.10369341974E+03  0.41058550945E+02  0.45698927610E+03  0.00000000000E+00 0. -1.
        -11    1    3    3    0    0 -0.17173545899E+03  0.14565818208E+02  0.31272983645E+02  0.17516629367E+03  0.00000000000E+00 0.  1.
         22    1    1    2    0    0  0.61490706070E+03  0.89127601536E+02 -0.30553467318E+04  0.31178835889E+04  0.00000000000E+00 0. -1.
<mgrwt>
<rscale>  0 0.22725347E+04</rscale>
<asrwt>0</asrwt>
<pdfrwt beam="1">  1        2 0.51792727E+00 0.22725347E+04</pdfrwt>
<pdfrwt beam="2">  1       -2 0.59001842E-01 0.22725347E+04</pdfrwt>
<totfact> 0.24554305E+00</totfact>
</mgrwt>
</event>
<event>
 6    1  0.1934315E-005  0.9899606E+03  0.7818608E-02  0.9319625E-01
         -2   -1    0    0    0  501 -0.00000000000E+00  0.00000000000E+00  0.22899944279E+03  0.22899944279E+03  0.00000000000E+00 0. -1.
          2   -1    0    0  501    0  0.00000000000E+00 -0.00000000000E+00 -0.10698956322E+04  0.10698956322E+04  0.00000000000E+00 0.  1.
         23    2    1    2    0    0 -0.15728168661E+03  0.33590558368E+03 -0.31549344134E+01  0.38271796307E+03  0.94302680528E+02 0.  0.
         11    1    3    3    0    0 -0.43351212576E+02  0.18204634098E+03  0.26437718359E+02  0.18899510800E+03  0.00000000000E+00 0.  1.
        -11    1    3    3    0    0 -0.11393047404E+03  0.15385924270E+03 -0.29592652773E+02  0.19372285507E+03  0.00000000000E+00 0. -1.
         22    1    1    2    0    0  0.15728168661E+03 -0.33590558368E+03 -0.83774125503E+03  0.91617711196E+03  0.00000000000E+00 0.  1.
<mgrwt>
<rscale>  0 0.98996061E+03</rscale>
<asrwt>0</asrwt>
<pdfrwt beam="1">  1        2 0.16459933E+00 0.98996061E+03</pdfrwt>
<pdfrwt beam="2">  1       -2 0.35230683E-01 0.98996061E+03</pdfrwt>
<totfact> 0.17165577E+02</totfact>
</mgrwt>
</event>
<event>
 6    1  0.1934315E-005  0.7110349E+04  0.7818608E-02  0.7566161E-01
         -2   -1    0    0    0  501 -0.00000000000E+00  0.00000000000E+00  0.34691101892E+04  0.34691101892E+04  0.00000000000E+00 0. -1.
          2   -1    0    0  501    0  0.00000000000E+00 -0.00000000000E+00 -0.36433740591E+04  0.36433740591E+04  0.00000000000E+00 0.  1.
         23    2    1    2    0    0 -0.15388339535E+04  0.28449607132E+04  0.13875046641E+04  0.35206974576E+04  0.91268829186E+02 0.  0.
         13    1    3    3    0    0 -0.86656842277E+03  0.16034560972E+04  0.83104066812E+03  0.20031577269E+04  0.00000000000E+00 0.  1.
        -13    1    3    3    0    0 -0.67226553069E+03  0.12415046161E+04  0.55646399595E+03  0.15175397307E+04  0.00000000000E+00 0. -1.
         22    1    1    2    0    0  0.15388339535E+04 -0.28449607132E+04 -0.15617685339E+04  0.35917867907E+04  0.00000000000E+00 0.  1.
<mgrwt>
<rscale>  0 0.71103491E+04</rscale>
<asrwt>0</asrwt>
<pdfrwt beam="1">  1        2 0.56051909E+00 0.71103491E+04</pdfrwt>
<pdfrwt beam="2">  1       -2 0.53370926E+00 0.71103491E+04</pdfrwt>
<totfact> 0.42247907E-04</totfact>
</mgrwt>
</event>
<event>
 6    1  0.1934315E-005  0.3601077E+04  0.7818608E-02  0.8090245E-01
         -1   -1    0    0    0  501 -0.00000000000E+00  0.00000000000E+00  0.12158611458E+04  0.12158611458E+04  0.00000000000E+00 0. -1.
          1   -1    0    0  501    0  0.00000000000E+00 -0.00000000000E+00 -0.26663726742E+04  0.26663726742E+04  0.00000000000E+00 0.  1.
         23    2    1    2    0    0  0.55019827755E+03 -0.11039563511E+04  0.68675553250E+03  0.14145733369E+04  0.89144794910E+02 0.  0.
         11    1    3    3    0    0  0.43104607230E+02 -0.14821085029E+03  0.74136023052E+02  0.17123262896E+03  0.00000000000E+00 0.  1.
        -11    1    3    3    0    0  0.50709367032E+03 -0.95574550079E+03  0.61261950945E+03  0.12433407080E+04  0.00000000000E+00 0. -1.
         22    1    1    2    0    0 -0.55019827755E+03  0.11039563511E+04 -0.21372670610E+04  0.24676604830E+04  0.00000000000E+00 0.  1.
<mgrwt>
<rscale>  0 0.36010770E+04</rscale>
<asrwt>0</asrwt>
<pdfrwt beam="1">  1        1 0.41021118E+00 0.36010770E+04</pdfrwt>
<pdfrwt beam="2">  1       -1 0.18705556E+00 0.36010770E+04</pdfrwt>
<totfact> 0.15536692E-01</totfact>
</mgrwt>
</event>
<event>
 6    1  0.1934315E-005  0.2866082E+04  0.7818608E-02  0.8283041E-01
          2   -1    0    0  501    0  0.00000000000E+00  0.00000000000E+00  0.23701039715E+04  0.23701039715E+04  0.00000000000E+00 0.  1.
         -2   -1    0    0    0  501 -0.00000000000E+00 -0.00000000000E+00 -0.86646281450E+03  0.86646281450E+03  0.00000000000E+00 0. -1.
         23    2    1    2    0    0 -0.13276923265E+04  0.18685065241E+02  0.13568550019E+04  0.19006542811E+04  0.91187469059E+02 0.  0.
         13    1    3    3    0    0 -0.24149433111E+03 -0.19258173642E+02  0.28699952542E+03  0.37557837638E+03  0.00000000000E+00 0.  1.
        -13    1    3    3    0    0 -0.10861979954E+04  0.37943238883E+02  0.10698554765E+04  0.15250759047E+04  0.00000000000E+00 0. -1.
         22    1    1    2    0    0  0.13276923265E+04 -0.18685065241E+02  0.14678615507E+03  0.13359125049E+04  0.00000000000E+00 0.  1.
<mgrwt>
<rscale>  0 0.28660823E+04</rscale>
<asrwt>0</asrwt>
<pdfrwt beam="1">  1        2 0.36463138E+00 0.28660823E+04</pdfrwt>
<pdfrwt beam="2">  1       -2 0.13330197E+00 0.28660823E+04</pdfrwt>
<totfact> 0.14581286E+00</totfact>
</mgrwt>
</event>
<event>
 6    1  0.1934315E-005  0.1558210E+04  0.7818608E-02  0.8846640E-01
         -1   -1    0    0    0  501 -0.00000000000E+00  0.00000000000E+00  0.12557047371E+04  0.12557047371E+04  0.00000000000E+00 0.  1.
          1   -1    0    0  501    0  0.00000000000E+00 -0.00000000000E+00 -0.48339771504E+03  0.48339771504E+03  0.00000000000E+00 0. -1.
         23    2    1    2    0    0  0.41389419804E+03 -0.38052361154E+03  0.98549086226E+03  0.11378088667E+04  0.85499423959E+02 0.  0.
         13    1    3    3    0    0  0.29358850700E+03 -0.22163858911E+03  0.59833388687E+03  0.70236836191E+03  0.00000000000E+00 0.  1.
        -13    1    3    3    0    0  0.12030569103E+03 -0.15888502243E+03  0.38715697539E+03  0.43544050482E+03  0.00000000000E+00 0. -1.
         22    1    1    2    0    0 -0.41389419804E+03  0.38052361154E+03 -0.21318384022E+03  0.60129358540E+03  0.00000000000E+00 0. -1.
<mgrwt>
<rscale>  0 0.15582103E+04</rscale>
<asrwt>0</asrwt>
<pdfrwt beam="1">  1        1 0.74368880E-01 0.15582103E+04</pdfrwt>
<pdfrwt beam="2">  1       -1 0.19318534E+00 0.15582103E+04</pdfrwt>
<totfact> 0.75026127E+00</totfact>
</mgrwt>
</event>
<event>
 6    1  0.1934315E-005  0.3598266E+04  0.7818608E-02  0.8090889E-01
          2   -1    0    0  501    0  0.00000000000E+00  0.00000000000E+00  0.26342953298E+04  0.26342953298E+04  0.00000000000E+00 0.  1.
         -2   -1    0    0    0  501 -0.00000000000E+00 -0.00000000000E+00 -0.12287459408E+04  0.12287459408E+04  0.00000000000E+00 0. -1.
         23    2    1    2    0    0 -0.13879611643E+03  0.10890760767E+04  0.22318696624E+04  0.24889392886E+04  0.90694704963E+02 0.  0.
         13    1    3    3    0    0 -0.70370044443E+02  0.85106827209E+03  0.17275787219E+04  0.19271215289E+04  0.00000000000E+00 0.  1.
        -13    1    3    3    0    0 -0.68426071983E+02  0.23800780461E+03  0.50429094055E+03  0.56181775969E+03  0.00000000000E+00 0. -1.
         22    1    1    2    0    0  0.13879611643E+03 -0.10890760767E+04 -0.82632027338E+03  0.13741019820E+04  0.00000000000E+00 0. -1.
<mgrwt>
<rscale>  0 0.35982661E+04</rscale>
<asrwt>0</asrwt>
<pdfrwt beam="1">  1        2 0.40527620E+00 0.35982661E+04</pdfrwt>
<pdfrwt beam="2">  1       -2 0.18903784E+00 0.35982661E+04</pdfrwt>
<totfact> 0.37246394E-01</totfact>
</mgrwt>
</event>
<event>
 6    1  0.1934315E-005  0.2121891E+04  0.7818608E-02  0.8551661E-01
          2   -1    0    0  501    0  0.00000000000E+00  0.00000000000E+00  0.22003832676E+04  0.22003832676E+04  0.00000000000E+00 0.  1.
         -2   -1    0    0    0  501 -0.00000000000E+00 -0.00000000000E+00 -0.51154966542E+03  0.51154966542E+03  0.00000000000E+00 0. -1.
         23    2    1    2    0    0  0.95949098992E+03 -0.30707934949E+03  0.42906067604E+03  0.10988772886E+04  0.92290546501E+02 0.  0.
         13    1    3    3    0    0  0.62892855489E+03 -0.16176057984E+03  0.30080127887E+03  0.71568080994E+03  0.00000000000E+00 0. -1.
        -13    1    3    3    0    0  0.33056243503E+03 -0.14531876966E+03  0.12825939717E+03  0.38319647863E+03  0.00000000000E+00 0.  1.
         22    1    1    2    0    0 -0.95949098992E+03  0.30707934949E+03  0.12597729261E+04  0.16130556444E+04  0.00000000000E+00 0.  1.
<mgrwt>
<rscale>  0 0.21218910E+04</rscale>
<asrwt>0</asrwt>
<pdfrwt beam="1">  1        2 0.33852050E+00 0.21218910E+04</pdfrwt>
<pdfrwt beam="2">  1       -2 0.78699950E-01 0.21218910E+04</pdfrwt>
<totfact> 0.68085950E+00</totfact>
</mgrwt>
</event>
<event>
 6    1  0.1934315E-005  0.2600097E+04  0.7818608E-02  0.8368168E-01
          1   -1    0    0  501    0  0.00000000000E+00  0.00000000000E+00  0.17167596793E+04  0.17167596793E+04  0.00000000000E+00 0. -1.
         -1   -1    0    0    0  501 -0.00000000000E+00 -0.00000000000E+00 -0.98448587844E+03  0.98448587844E+03  0.00000000000E+00 0.  1.
         23    2    1    2    0    0  0.87704945090E+03  0.42753198164E+03  0.12566222295E+04  0.15935720456E+04  0.91504657581E+02 0.  0.
         11    1    3    3    0    0  0.18519309671E+03  0.53054402201E+02  0.22475016059E+03  0.29601332292E+03  0.00000000000E+00 0.  1.
        -11    1    3    3    0    0  0.69185635419E+03  0.37447757944E+03  0.10318720689E+04  0.12975587227E+04  0.00000000000E+00 0. -1.
         22    1    1    2    0    0 -0.87704945090E+03 -0.42753198164E+03 -0.52434842867E+03  0.11076735121E+04  0.00000000000E+00 0.  1.
<mgrwt>
<rscale>  0 0.26000967E+04</rscale>
<asrwt>0</asrwt>
<pdfrwt beam="1">  1        1 0.26411687E+00 0.26000967E+04</pdfrwt>
<pdfrwt beam="2">  1       -1 0.15145937E+00 0.26000967E+04</pdfrwt>
<totfact> 0.13895676E+00</totfact>
</mgrwt>
</event>
<event>
 6    1  0.1934315E-005  0.2507190E+04  0.7818608E-02  0.8400428E-01
         -2   -1    0    0    0  501 -0.00000000000E+00  0.00000000000E+00  0.32767449439E+03  0.32767449439E+03  0.00000000000E+00 0. -1.
          2   -1    0    0  501    0  0.00000000000E+00 -0.00000000000E+00 -0.47959200285E+04  0.47959200285E+04  0.00000000000E+00 0.  1.
         23    2    1    2    0    0  0.10882889511E+04  0.59569246429E+03 -0.25793537297E+04  0.28636974894E+04  0.92061364578E+02 0.  0.
         11    1    3    3    0    0  0.97645100541E+03  0.51987039089E+03 -0.22349398628E+04  0.24937277277E+04  0.00000000000E+00 0.  1.
        -11    1    3    3    0    0  0.11183794570E+03  0.75822073405E+02 -0.34441386686E+03  0.36996976173E+03  0.00000000000E+00 0. -1.
         22    1    1    2    0    0 -0.10882889511E+04 -0.59569246429E+03 -0.18888918044E+04  0.22598970335E+04  0.00000000000E+00 0.  1.
<mgrwt>
<rscale>  0 0.25071902E+04</rscale>
<asrwt>0</asrwt>
<pdfrwt beam="1">  1        2 0.73783381E+00 0.25071902E+04</pdfrwt>
<pdfrwt beam="2">  1       -2 0.50411464E-01 0.25071902E+04</pdfrwt>
<totfact> 0.20112224E-01</totfact>
</mgrwt>
</event>
<event>
 6    1  0.1934315E-005  0.1369484E+04  0.7818608E-02  0.8976209E-01
         -2   -1    0    0    0  501 -0.00000000000E+00  0.00000000000E+00  0.13918629963E+03  0.13918629963E+03  0.00000000000E+00 0. -1.
          2   -1    0    0  501    0  0.00000000000E+00 -0.00000000000E+00 -0.33686601056E+04  0.33686601056E+04  0.00000000000E+00 0.  1.
         23    2    1    2    0    0 -0.27325152693E+03  0.32526954764E+03 -0.29877567655E+04  0.30190787680E+04  0.87632422325E+02 0.  0.
         11    1    3    3    0    0 -0.23488422824E+03  0.23033473358E+03 -0.21350419159E+04  0.21602381056E+04  0.00000000000E+00 0. -1.
        -11    1    3    3    0    0 -0.38367298685E+02  0.94934814060E+02 -0.85271484960E+03  0.85884066232E+03  0.00000000000E+00 0.  1.
         22    1    1    2    0    0  0.27325152693E+03 -0.32526954764E+03 -0.24171704038E+03  0.48876763723E+03  0.00000000000E+00 0. -1.
<mgrwt>
<rscale>  0 0.13694836E+04</rscale>
<asrwt>0</asrwt>
<pdfrwt beam="1">  1        2 0.51825540E+00 0.13694836E+04</pdfrwt>
<pdfrwt beam="2">  1       -2 0.21413277E-01 0.13694836E+04</pdfrwt>
<totfact> 0.18800124E+01</totfact>
</mgrwt>
</event>
<event>
 6    1  0.1934315E-005  0.2698198E+04  0.7818608E-02  0.8335590E-01
          2   -1    0    0  501    0  0.00000000000E+00  0.00000000000E+00  0.18314456175E+04  0.18314456175E+04  0.00000000000E+00 0.  1.
         -2   -1    0    0    0  501 -0.00000000000E+00 -0.00000000000E+00 -0.99378748075E+03  0.99378748075E+03  0.00000000000E+00 0. -1.
         23    2    1    2    0    0 -0.91673138951E+03 -0.26088794957E+03 -0.57797826870E+03  0.11186325606E+04  0.93919985920E+02 0.  0.
         11    1    3    3    0    0 -0.43509882083E+03 -0.16402211009E+03 -0.31216119567E+03  0.56005254089E+03  0.00000000000E+00 0. -1.
        -11    1    3    3    0    0 -0.48163256868E+03 -0.96865839481E+02 -0.26581707303E+03  0.55858001968E+03  0.00000000000E+00 0.  1.
         22    1    1    2    0    0  0.91673138951E+03  0.26088794957E+03  0.14156364054E+04  0.17066005376E+04  0.00000000000E+00 0.  1.
<mgrwt>
<rscale>  0 0.26981977E+04</rscale>
<asrwt>0</asrwt>
<pdfrwt beam="1">  1        2 0.28176086E+00 0.26981977E+04</pdfrwt>
<pdfrwt beam="2">  1       -2 0.15289038E+00 0.26981977E+04</pdfrwt>
<totfact> 0.20714194E+00</totfact>
</mgrwt>
</event>
<event>
 6    1  0.1934315E-005  0.3267983E+04  0.7818608E-02  0.8171090E-01
         -2   -1    0    0    0  501 -0.00000000000E+00  0.00000000000E+00  0.14940041298E+04  0.14940041298E+04  0.00000000000E+00 0. -1.
          2   -1    0    0  501    0  0.00000000000E+00 -0.00000000000E+00 -0.17870957364E+04  0.17870957364E+04  0.00000000000E+00 0.  1.
         23    2    1    2    0    0  0.13928506385E+04 -0.73674120364E+03 -0.57627135450E+03  0.16801591202E+04  0.89585115276E+02 0.  0.
         13    1    3    3    0    0  0.14091800640E+03 -0.63489816750E+02 -0.83615316317E+02  0.17572809246E+03  0.00000000000E+00 0. -1.
        -13    1    3    3    0    0  0.12519326321E+04 -0.67325138689E+03 -0.49265603818E+03  0.15044310278E+04  0.00000000000E+00 0.  1.
         22    1    1    2    0    0 -0.13928506385E+04  0.73674120364E+03  0.28317974791E+03  0.16009407459E+04  0.00000000000E+00 0. -1.
<mgrwt>
<rscale>  0 0.32679831E+04</rscale>
<asrwt>0</asrwt>
<pdfrwt beam="1">  1        2 0.27493781E+00 0.32679831E+04</pdfrwt>
<pdfrwt beam="2">  1       -2 0.22984679E+00 0.32679831E+04</pdfrwt>
<totfact> 0.62949648E-01</totfact>
</mgrwt>
</event>
<event>
 6    1  0.1934315E-005  0.4927178E+04  0.7818608E-02  0.7839840E-01
          2   -1    0    0  501    0  0.00000000000E+00  0.00000000000E+00  0.41837606542E+04  0.41837606542E+04  0.00000000000E+00 0.  1.
         -2   -1    0    0    0  501 -0.00000000000E+00 -0.00000000000E+00 -0.14506733586E+04  0.14506733586E+04  0.00000000000E+00 0. -1.
         23    2    1    2    0    0 -0.13993000840E+04  0.15133259346E+04  0.29084482116E+04  0.35658722999E+04  0.90433125918E+02 0.  0.
         11    1    3    3    0    0 -0.11647718099E+04  0.12978493341E+04  0.24929876864E+04  0.30423829259E+04  0.00000000000E+00 0.  1.
        -11    1    3    3    0    0 -0.23452827409E+03  0.21547660045E+03  0.41546052518E+03  0.52348937398E+03  0.00000000000E+00 0. -1.
         22    1    1    2    0    0  0.13993000840E+04 -0.15133259346E+04 -0.17536091608E+03  0.20685617129E+04  0.00000000000E+00 0. -1.
<mgrwt>
<rscale>  0 0.49271777E+04</rscale>
<asrwt>0</asrwt>
<pdfrwt beam="1">  1        2 0.64365548E+00 0.49271777E+04</pdfrwt>
<pdfrwt beam="2">  1       -2 0.22318052E+00 0.49271777E+04</pdfrwt>
<totfact> 0.16494684E-02</totfact>
</mgrwt>
</event>
<event>
 6    1  0.1934315E-005  0.2486530E+04  0.7818608E-02  0.8407800E-01
          2   -1    0    0  501    0  0.00000000000E+00  0.00000000000E+00  0.25162958900E+04  0.25162958900E+04  0.00000000000E+00 0.  1.
         -2   -1    0    0    0  501 -0.00000000000E+00 -0.00000000000E+00 -0.61427890770E+03  0.61427890770E+03  0.00000000000E+00 0. -1.
         23    2    1    2    0    0 -0.24451042538E+03 -0.10948881153E+04  0.28281754867E+03  0.11607087771E+04  0.93240368126E+02 0.  0.
         11    1    3    3    0    0 -0.20742623816E+03 -0.73960132532E+03  0.20688479271E+03  0.79551057953E+03  0.00000000000E+00 0. -1.
        -11    1    3    3    0    0 -0.37084187218E+02 -0.35528679001E+03  0.75932755961E+02  0.36519819759E+03  0.00000000000E+00 0.  1.
         22    1    1    2    0    0  0.24451042538E+03  0.10948881153E+04  0.16191994336E+04  0.19698660206E+04  0.00000000000E+00 0.  1.
<mgrwt>
<rscale>  0 0.24865297E+04</rscale>
<asrwt>0</asrwt>
<pdfrwt beam="1">  1        2 0.38712244E+00 0.24865297E+04</pdfrwt>
<pdfrwt beam="2">  1       -2 0.94504449E-01 0.24865297E+04</pdfrwt>
<totfact> 0.28688062E+00</totfact>
</mgrwt>
</event>
<event>
 6    1  0.1934315E-005  0.1598458E+04  0.7818608E-02  0.8821496E-01
         -2   -1    0    0    0  501 -0.00000000000E+00  0.00000000000E+00  0.31255854015E+03  0.31255854015E+03  0.00000000000E+00 0. -1.
          2   -1    0    0  501    0  0.00000000000E+00 -0.00000000000E+00 -0.20436708477E+04  0.20436708477E+04  0.00000000000E+00 0.  1.
         23    2    1    2    0    0 -0.94881516171E+02  0.50901134370E+03 -0.17607931730E+04  0.18376004223E+04  0.91036607146E+02 0.  0.
         13    1    3    3    0    0 -0.74640767887E+02  0.29860911831E+03 -0.11820026669E+04  0.12214208752E+04  0.00000000000E+00 0.  1.
        -13    1    3    3    0    0 -0.20240748284E+02  0.21040222539E+03 -0.57879050608E+03  0.61617954710E+03  0.00000000000E+00 0. -1.
         22    1    1    2    0    0  0.94881516171E+02 -0.50901134370E+03  0.29680865461E+02  0.51862896554E+03  0.00000000000E+00 0. -1.
<mgrwt>
<rscale>  0 0.15984577E+04</rscale>
<asrwt>0</asrwt>
<pdfrwt beam="1">  1        2 0.31441089E+00 0.15984577E+04</pdfrwt>
<pdfrwt beam="2">  1       -2 0.48085930E-01 0.15984577E+04</pdfrwt>
<totfact> 0.24830917E+01</totfact>
</mgrwt>
</event>
<event>
 6    1  0.1934315E-005  0.3115188E+04  0.7818608E-02  0.8211582E-01
          1   -1    0    0  501    0  0.00000000000E+00  0.00000000000E+00  0.42649219401E+04  0.42649219401E+04  0.00000000000E+00 0.  1.
         -1   -1    0    0    0  501 -0.00000000000E+00 -0.00000000000E+00 -0.56884954398E+03  0.56884954398E+03  0.00000000000E+00 0. -1.
         23    2    1    2    0    0 -0.38726056400E+03  0.59391045951E+03 -0.30007330387E+03  0.77521498776E+03  0.90630630565E+02 0.  0.
         11    1    3    3    0    0 -0.19748316576E+03  0.36129903534E+03 -0.20738453014E+03  0.46102596135E+03  0.00000000000E+00 0. -1.
        -11    1    3    3    0    0 -0.18977739824E+03  0.23261142417E+03 -0.92688773730E+02  0.31418902641E+03  0.00000000000E+00 0.  1.
         22    1    1    2    0    0  0.38726056400E+03 -0.59391045951E+03  0.39961457000E+04  0.40585564963E+04  0.00000000000E+00 0.  1.
<mgrwt>
<rscale>  0 0.31151879E+04</rscale>
<asrwt>0</asrwt>
<pdfrwt beam="1">  1        1 0.65614182E+00 0.31151879E+04</pdfrwt>
<pdfrwt beam="2">  1       -1 0.87515317E-01 0.31151879E+04</pdfrwt>
<totfact> 0.59419588E-02</totfact>
</mgrwt>
</event>
<event>
 6    1  0.1934315E-005  0.1748463E+04  0.7818608E-02  0.8734197E-01
         -2   -1    0    0    0  501 -0.00000000000E+00  0.00000000000E+00  0.31511372651E+03  0.31511372651E+03  0.00000000000E+00 0. -1.
          2   -1    0    0  501    0  0.00000000000E+00 -0.00000000000E+00 -0.24254116346E+04  0.24254116346E+04  0.00000000000E+00 0.  1.
         23    2    1    2    0    0  0.39242311216E+03  0.26848689501E+03 -0.22034294307E+04  0.22560105602E+04  0.91658496344E+02 0.  0.
         13    1    3    3    0    0  0.32388803264E+03  0.19154472887E+03 -0.15848775595E+04  0.16289351490E+04  0.00000000000E+00 0.  1.
        -13    1    3    3    0    0  0.68535079526E+02  0.76942166139E+02 -0.61855187115E+03  0.62707541123E+03  0.00000000000E+00 0. -1.
         22    1    1    2    0    0 -0.39242311216E+03 -0.26848689501E+03  0.93131522638E+02  0.48451480087E+03  0.00000000000E+00 0. -1.
<mgrwt>
<rscale>  0 0.17484628E+04</rscale>
<asrwt>0</asrwt>
<pdfrwt beam="1">  1        2 0.37314025E+00 0.17484628E+04</pdfrwt>
<pdfrwt beam="2">  1       -2 0.48479035E-01 0.17484628E+04</pdfrwt>
<totfact> 0.14701667E+01</totfact>
</mgrwt>
</event>
<event>
 6    1  0.1934315E-005  0.2173962E+04  0.7818608E-02  0.8529344E-01
         -2   -1    0    0    0  501 -0.00000000000E+00  0.00000000000E+00  0.65824096877E+03  0.65824096877E+03  0.00000000000E+00 0. -1.
          2   -1    0    0  501    0  0.00000000000E+00 -0.00000000000E+00 -0.17949780758E+04  0.17949780758E+04  0.00000000000E+00 0.  1.
         23    2    1    2    0    0 -0.16437371725E+03 -0.97873156208E+03 -0.10650321493E+04  0.14581935221E+04  0.84265528286E+02 0.  0.
         13    1    3    3    0    0 -0.91551694844E+02 -0.70970765175E+03 -0.72725518712E+03  0.10202777911E+04  0.00000000000E+00 0. -1.
        -13    1    3    3    0    0 -0.72822022407E+02 -0.26902391033E+03 -0.33777696216E+03  0.43791573098E+03  0.00000000000E+00 0.  1.
         22    1    1    2    0    0  0.16437371725E+03  0.97873156208E+03 -0.71704957789E+02  0.99502552254E+03  0.00000000000E+00 0. -1.
<mgrwt>
<rscale>  0 0.21739624E+04</rscale>
<asrwt>0</asrwt>
<pdfrwt beam="1">  1        2 0.27615047E+00 0.21739624E+04</pdfrwt>
<pdfrwt beam="2">  1       -2 0.10126784E+00 0.21739624E+04</pdfrwt>
<totfact> 0.63767378E+00</totfact>
</mgrwt>
</event>
<event>
 6    1  0.1934315E-005  0.1902203E+04  0.7818608E-02  0.8653761E-01
         -2   -1    0    0    0  501 -0.00000000000E+00  0.00000000000E+00  0.62196619888E+03  0.62196619888E+03  0.00000000000E+00 0. -1.
          2   -1    0    0  501    0  0.00000000000E+00 -0.00000000000E+00 -0.14544099434E+04  0.14544099434E+04  0.00000000000E+00 0.  1.
         23    2    1    2    0    0 -0.35748098874E+03  0.83350718756E+03 -0.72162989550E+03  0.11626986290E+04  0.92690381438E+02 0.  0.
         11    1    3    3    0    0 -0.21358528982E+03  0.38057745905E+03 -0.34373167817E+03  0.55552618745E+03  0.00000000000E+00 0. -1.
        -11    1    3    3    0    0 -0.14389569892E+03  0.45292972851E+03 -0.37789821733E+03  0.60717244157E+03  0.00000000000E+00 0.  1.
         22    1    1    2    0    0  0.35748098874E+03 -0.83350718756E+03 -0.11081384898E+03  0.91367751321E+03  0.00000000000E+00 0. -1.
<mgrwt>
<rscale>  0 0.19022027E+04</rscale>
<asrwt>0</asrwt>
<pdfrwt beam="1">  1        2 0.22375537E+00 0.19022027E+04</pdfrwt>
<pdfrwt beam="2">  1       -2 0.95687108E-01 0.19022027E+04</pdfrwt>
<totfact> 0.11561948E+01</totfact>
</mgrwt>
</event>
<event>
 6    1  0.1934315E-005  0.1646135E+04  0.7818608E-02  0.8792696E-01
         -2   -1    0    0    0  501 -0.00000000000E+00  0.00000000000E+00  0.31739606007E+03  0.31739606007E+03  0.00000000000E+00 0. -1.
          2   -1    0    0  501    0  0.00000000000E+00 -0.00000000000E+00 -0.21343674136E+04  0.21343674136E+04  0.00000000000E+00 0.  1.
         23    2    1    2    0    0  0.25657194543E+03  0.25063737705E+03  0.18798048348E+03  0.41498166731E+03  0.90691036397E+02 0.  0.
         11    1    3    3    0    0  0.20479436769E+03  0.16687830157E+03  0.17196777135E+03  0.31521740903E+03  0.00000000000E+00 0. -1.
        -11    1    3    3    0    0  0.51777577736E+02  0.83759075475E+02  0.16012712132E+02  0.99764258281E+02  0.00000000000E+00 0.  1.
         22    1    1    2    0    0 -0.25657194543E+03 -0.25063737705E+03 -0.20049518370E+04  0.20367818063E+04  0.00000000000E+00 0.  1.
<mgrwt>
<rscale>  0 0.16461346E+04</rscale>
<asrwt>0</asrwt>
<pdfrwt beam="1">  1        2 0.32836422E+00 0.16461346E+04</pdfrwt>
<pdfrwt beam="2">  1       -2 0.48830163E-01 0.16461346E+04</pdfrwt>
<totfact> 0.21341419E+01</totfact>
</mgrwt>
</event>
<event>
 6    1  0.1934315E-005  0.6762072E+03  0.7818608E-02  0.9758809E-01
         -2   -1    0    0    0  501 -0.00000000000E+00  0.00000000000E+00  0.44252731934E+03  0.44252731934E+03  0.00000000000E+00 0. -1.
          2   -1    0    0  501    0  0.00000000000E+00 -0.00000000000E+00 -0.25832089478E+03  0.25832089478E+03  0.00000000000E+00 0.  1.
         23    2    1    2    0    0  0.28471124165E+02 -0.24467318192E+03 -0.13650609830E+03  0.29645719891E+03  0.92614173048E+02 0.  0.
         13    1    3    3    0    0 -0.19852387411E+02 -0.18614284685E+03 -0.99982287570E+02  0.21222566892E+03  0.00000000000E+00 0.  1.
        -13    1    3    3    0    0  0.48323511576E+02 -0.58530335065E+02 -0.36523810735E+02  0.84231529990E+02  0.00000000000E+00 0. -1.
         22    1    1    2    0    0 -0.28471124165E+02  0.24467318192E+03  0.32071252287E+03  0.40439101521E+03  0.00000000000E+00 0.  1.
<mgrwt>
<rscale>  0 0.67620723E+03</rscale>
<asrwt>0</asrwt>
<pdfrwt beam="1">  1        2 0.39741676E-01 0.67620723E+03</pdfrwt>
<pdfrwt beam="2">  1       -2 0.68081126E-01 0.67620723E+03</pdfrwt>
<totfact> 0.25882143E+02</totfact>
</mgrwt>
</event>
<event>
 6    1  0.1934315E-005  0.4273125E+04  0.7818608E-02  0.7951606E-01
         -2   -1    0    0    0  501 -0.00000000000E+00  0.00000000000E+00  0.17564635148E+04  0.17564635148E+04  0.00000000000E+00 0. -1.
          2   -1    0    0  501    0  0.00000000000E+00 -0.00000000000E+00 -0.25989146394E+04  0.25989146394E+04  0.00000000000E+00 0.  1.
         23    2    1    2    0    0 -0.15741099199E+04  0.14367770094E+04 -0.56087704121E+03  0.22056260338E+04  0.89738123788E+02 0.  0.
         11    1    3    3    0    0 -0.25637307844E+03  0.27627385979E+03 -0.11364540191E+03  0.39366188325E+03  0.00000000000E+00 0. -1.
        -11    1    3    3    0    0 -0.13177368415E+04  0.11605031496E+04 -0.44723163930E+03  0.18119641505E+04  0.00000000000E+00 0.  1.
         22    1    1    2    0    0  0.15741099199E+04 -0.14367770094E+04 -0.28157408336E+03  0.21497521204E+04  0.00000000000E+00 0.  1.
<mgrwt>
<rscale>  0 0.42731247E+04</rscale>
<asrwt>0</asrwt>
<pdfrwt beam="1">  1        2 0.39983302E+00 0.42731247E+04</pdfrwt>
<pdfrwt beam="2">  1       -2 0.27022516E+00 0.42731247E+04</pdfrwt>
<totfact> 0.11362515E-01</totfact>
</mgrwt>
</event>
<event>
 6    1  0.1934315E-005  0.1348927E+04  0.7818608E-02  0.8991641E-01
         -2   -1    0    0    0  501 -0.00000000000E+00  0.00000000000E+00  0.38755049582E+03  0.38755049582E+03  0.00000000000E+00 0. -1.
          2   -1    0    0  501    0  0.00000000000E+00 -0.00000000000E+00 -0.11737844042E+04  0.11737844042E+04  0.00000000000E+00 0.  1.
         23    2    1    2    0    0  0.57493131136E+03  0.14584527949E+02  0.55795179403E+01  0.58269951167E+03  0.93535387109E+02 0.  0.
         11    1    3    3    0    0  0.31202221824E+03 -0.32113835783E+02 -0.20897605123E+02  0.31436582674E+03  0.00000000000E+00 0.  1.
        -11    1    3    3    0    0  0.26290909312E+03  0.46698363731E+02  0.26477123063E+02  0.26833368493E+03  0.00000000000E+00 0. -1.
         22    1    1    2    0    0 -0.57493131136E+03 -0.14584527949E+02 -0.79181342633E+03  0.97863538837E+03  0.00000000000E+00 0.  1.
<mgrwt>
<rscale>  0 0.13489266E+04</rscale>
<asrwt>0</asrwt>
<pdfrwt beam="1">  1        2 0.18058221E+00 0.13489266E+04</pdfrwt>
<pdfrwt beam="2">  1       -2 0.59623154E-01 0.13489266E+04</pdfrwt>
<totfact> 0.50356447E+01</totfact>
</mgrwt>
</event>
<event>
 6    1  0.1934315E-005  0.7344656E+03  0.7818608E-02  0.9660042E-01
          1   -1    0    0  501    0  0.00000000000E+00  0.00000000000E+00  0.89602645047E+03  0.89602645047E+03  0.00000000000E+00 0.  1.
         -1   -1    0    0    0  501 -0.00000000000E+00 -0.00000000000E+00 -0.15050885265E+03  0.15050885265E+03  0.00000000000E+00 0. -1.
         23    2    1    2    0    0 -0.39756480341E+02 -0.21546373743E+03  0.78834601816E+03  0.82328774218E+03  0.91148572094E+02 0.  0.
         11    1    3    3    0    0 -0.66812797047E+02 -0.17304043910E+03  0.65522155793E+03  0.68097153640E+03  0.00000000000E+00 0. -1.
        -11    1    3    3    0    0  0.27056316706E+02 -0.42423298330E+02  0.13312446023E+03  0.14231620577E+03  0.00000000000E+00 0.  1.
         22    1    1    2    0    0  0.39756480341E+02  0.21546373743E+03 -0.42828420332E+02  0.22324756094E+03  0.00000000000E+00 0. -1.
<mgrwt>
<rscale>  0 0.73446556E+03</rscale>
<asrwt>0</asrwt>
<pdfrwt beam="1">  1        1 0.13785022E+00 0.73446556E+03</pdfrwt>
<pdfrwt beam="2">  1       -1 0.23155209E-01 0.73446556E+03</pdfrwt>
<totfact> 0.29601012E+02</totfact>
</mgrwt>
</event>
<event>
 6    1  0.1934315E-005  0.1093539E+04  0.7818608E-02  0.9211512E-01
          2   -1    0    0  501    0  0.00000000000E+00  0.00000000000E+00  0.50910682101E+03  0.50910682101E+03  0.00000000000E+00 0.  1.
         -2   -1    0    0    0  501 -0.00000000000E+00 -0.00000000000E+00 -0.58721886168E+03  0.58721886168E+03  0.00000000000E+00 0. -1.
         23    2    1    2    0    0 -0.13409700486E+02 -0.24180628574E+03 -0.52663593809E+03  0.58659655223E+03  0.90000021751E+02 0.  0.
         11    1    3    3    0    0 -0.96315179098E+01 -0.32743732052E+02 -0.16821224214E+03  0.17163996193E+03  0.00000000000E+00 0. -1.
        -11    1    3    3    0    0 -0.37781825758E+01 -0.20906255368E+03 -0.35842369595E+03  0.41495659030E+03  0.00000000000E+00 0.  1.
         22    1    1    2    0    0  0.13409700486E+02  0.24180628574E+03  0.44852389742E+03  0.50972913047E+03  0.00000000000E+00 0.  1.
<mgrwt>
<rscale>  0 0.10935394E+04</rscale>
<asrwt>0</asrwt>
<pdfrwt beam="1">  1        2 0.78324126E-01 0.10935394E+04</pdfrwt>
<pdfrwt beam="2">  1       -2 0.90341364E-01 0.10935394E+04</pdfrwt>
<totfact> 0.62770313E+01</totfact>
</mgrwt>
</event>
<event>
 6    1  0.1934315E-005  0.3654644E+04  0.7818608E-02  0.8078088E-01
         -2   -1    0    0    0  501 -0.00000000000E+00  0.00000000000E+00  0.10886016900E+04  0.10886016900E+04  0.00000000000E+00 0. -1.
          2   -1    0    0  501    0  0.00000000000E+00 -0.00000000000E+00 -0.30673339402E+04  0.30673339402E+04  0.00000000000E+00 0.  1.
         23    2    1    2    0    0  0.78599562867E+03 -0.15572179297E+04 -0.16047263788E+04  0.23719521100E+04  0.91067297136E+02 0.  0.
         13    1    3    3    0    0  0.19318515790E+03 -0.31649502907E+03 -0.37150336666E+03  0.52488509228E+03  0.00000000000E+00 0.  1.
        -13    1    3    3    0    0  0.59281047077E+03 -0.12407229006E+04 -0.12332230122E+04  0.18470670177E+04  0.00000000000E+00 0. -1.
         22    1    1    2    0    0 -0.78599562867E+03  0.15572179297E+04 -0.37400587138E+03  0.17839835203E+04  0.00000000000E+00 0. -1.
<mgrwt>
<rscale>  0 0.36546436E+04</rscale>
<asrwt>0</asrwt>
<pdfrwt beam="1">  1        2 0.47189753E+00 0.36546436E+04</pdfrwt>
<pdfrwt beam="2">  1       -2 0.16747718E+00 0.36546436E+04</pdfrwt>
<totfact> 0.28438684E-01</totfact>
</mgrwt>
</event>
<event>
 6    1  0.1934315E-005  0.4583235E+04  0.7818608E-02  0.7896225E-01
         -2   -1    0    0    0  501 -0.00000000000E+00  0.00000000000E+00  0.19551194030E+04  0.19551194030E+04  0.00000000000E+00 0. -1.
          2   -1    0    0  501    0  0.00000000000E+00 -0.00000000000E+00 -0.26860311509E+04  0.26860311509E+04  0.00000000000E+00 0.  1.
         23    2    1    2    0    0 -0.71430112100E+03 -0.17543021135E+04 -0.16700628167E+04  0.25269588107E+04  0.92784817149E+02 0.  0.
         11    1    3    3    0    0 -0.40857009722E+03 -0.97543855569E+03 -0.99191976996E+03  0.14499361125E+04  0.00000000000E+00 0.  1.
        -11    1    3    3    0    0 -0.30573102378E+03 -0.77886355783E+03 -0.67814304673E+03  0.10770226982E+04  0.00000000000E+00 0. -1.
         22    1    1    2    0    0  0.71430112100E+03  0.17543021135E+04  0.93915106885E+03  0.21141917432E+04  0.00000000000E+00 0. -1.
<mgrwt>
<rscale>  0 0.45832354E+04</rscale>
<asrwt>0</asrwt>
<pdfrwt beam="1">  1        2 0.41323556E+00 0.45832354E+04</pdfrwt>
<pdfrwt beam="2">  1       -2 0.30078760E+00 0.45832354E+04</pdfrwt>
<totfact> 0.64031251E-02</totfact>
</mgrwt>
</event>
<event>
 6    1  0.1934315E-005  0.1654632E+04  0.7818608E-02  0.8787671E-01
         -2   -1    0    0    0  501 -0.00000000000E+00  0.00000000000E+00  0.44939230645E+03  0.44939230645E+03  0.00000000000E+00 0. -1.
          2   -1    0    0  501    0  0.00000000000E+00 -0.00000000000E+00 -0.15230616133E+04  0.15230616133E+04  0.00000000000E+00 0.  1.
         23    2    1    2    0    0  0.43364349979E+03  0.93314241490E+02  0.29047729689E+03  0.53800273930E+03  0.91190212818E+02 0.  0.
         11    1    3    3    0    0  0.36818501422E+03  0.44798731261E+02  0.24737690256E+03  0.44582784002E+03  0.00000000000E+00 0.  1.
        -11    1    3    3    0    0  0.65458485563E+02  0.48515510229E+02  0.43100394335E+02  0.92174899277E+02  0.00000000000E+00 0. -1.
         22    1    1    2    0    0 -0.43364349979E+03 -0.93314241490E+02 -0.13641466038E+04  0.14344511805E+04  0.00000000000E+00 0.  1.
<mgrwt>
<rscale>  0 0.16546325E+04</rscale>
<asrwt>0</asrwt>
<pdfrwt beam="1">  1        2 0.23431717E+00 0.16546325E+04</pdfrwt>
<pdfrwt beam="2">  1       -2 0.69137279E-01 0.16546325E+04</pdfrwt>
<totfact> 0.22465963E+01</totfact>
</mgrwt>
</event>
<event>
 6    1  0.1934315E-005  0.3492969E+04  0.7818608E-02  0.8115458E-01
          2   -1    0    0  501    0  0.00000000000E+00  0.00000000000E+00  0.25678036476E+04  0.25678036476E+04  0.00000000000E+00 0. -1.
         -2   -1    0    0    0  501 -0.00000000000E+00 -0.00000000000E+00 -0.11878668174E+04  0.11878668174E+04  0.00000000000E+00 0.  1.
         23    2    1    2    0    0 -0.25811705266E+03 -0.17235991894E+04  0.79138947948E+03  0.19161578766E+04  0.89135409766E+02 0.  0.
         11    1    3    3    0    0 -0.12930259669E+03 -0.95294577730E+03  0.39008955978E+03  0.10377835423E+04  0.00000000000E+00 0. -1.
        -11    1    3    3    0    0 -0.12881445596E+03 -0.77065341215E+03  0.40129991970E+03  0.87837433436E+03  0.00000000000E+00 0.  1.
         22    1    1    2    0    0  0.25811705266E+03  0.17235991894E+04  0.58854735074E+03  0.18395125884E+04  0.00000000000E+00 0.  1.
<mgrwt>
<rscale>  0 0.34929694E+04</rscale>
<asrwt>0</asrwt>
<pdfrwt beam="1">  1        2 0.39504671E+00 0.34929694E+04</pdfrwt>
<pdfrwt beam="2">  1       -2 0.18274874E+00 0.34929694E+04</pdfrwt>
<totfact> 0.45356945E-01</totfact>
</mgrwt>
</event>
<event>
 6    1  0.1934315E-005  0.4823316E+04  0.7818608E-02  0.7856356E-01
         -2   -1    0    0    0  501 -0.00000000000E+00  0.00000000000E+00  0.14165909942E+04  0.14165909942E+04  0.00000000000E+00 0. -1.
          2   -1    0    0  501    0  0.00000000000E+00 -0.00000000000E+00 -0.41056974396E+04  0.41056974396E+04  0.00000000000E+00 0.  1.
         23    2    1    2    0    0 -0.18581345939E+04 -0.76214827819E+03 -0.28718745436E+04  0.35056232796E+04  0.90537381002E+02 0.  0.
         13    1    3    3    0    0 -0.64518560872E+03 -0.26542009771E+03 -0.10736600020E+04  0.12804132528E+04  0.00000000000E+00 0.  1.
        -13    1    3    3    0    0 -0.12129489851E+04 -0.49672818048E+03 -0.17982145416E+04  0.22252100268E+04  0.00000000000E+00 0. -1.
         22    1    1    2    0    0  0.18581345939E+04  0.76214827819E+03  0.18276809813E+03  0.20166651543E+04  0.00000000000E+00 0. -1.
<mgrwt>
<rscale>  0 0.48233159E+04</rscale>
<asrwt>0</asrwt>
<pdfrwt beam="1">  1        2 0.63164577E+00 0.48233159E+04</pdfrwt>
<pdfrwt beam="2">  1       -2 0.21793707E+00 0.48233159E+04</pdfrwt>
<totfact> 0.20938234E-02</totfact>
</mgrwt>
</event>
<event>
 6    1  0.1934315E-005  0.1135514E+04  0.7818608E-02  0.9171252E-01
          2   -1    0    0  501    0  0.00000000000E+00  0.00000000000E+00  0.12931971427E+04  0.12931971427E+04  0.00000000000E+00 0.  1.
         -2   -1    0    0    0  501 -0.00000000000E+00 -0.00000000000E+00 -0.24926442081E+03  0.24926442081E+03  0.00000000000E+00 0. -1.
         23    2    1    2    0    0  0.13751807463E+03 -0.26517474040E+03  0.11753652493E+04  0.12161130181E+04  0.90656162996E+02 0.  0.
         13    1    3    3    0    0  0.13513528814E+02 -0.12199703775E+03  0.45735780211E+03  0.47354202753E+03  0.00000000000E+00 0. -1.
        -13    1    3    3    0    0  0.12400454581E+03 -0.14317770264E+03  0.71800744715E+03  0.74257099059E+03  0.00000000000E+00 0.  1.
         22    1    1    2    0    0 -0.13751807463E+03  0.26517474040E+03 -0.13143252741E+03  0.32634854535E+03  0.00000000000E+00 0. -1.
<mgrwt>
<rscale>  0 0.11355140E+04</rscale>
<asrwt>0</asrwt>
<pdfrwt beam="1">  1        2 0.19895340E+00 0.11355140E+04</pdfrwt>
<pdfrwt beam="2">  1       -2 0.38348373E-01 0.11355140E+04</pdfrwt>
<totfact> 0.10606566E+02</totfact>
</mgrwt>
</event>
<event>
 6    1  0.1934315E-005  0.6522010E+03  0.7818608E-02  0.9802658E-01
         -1   -1    0    0    0  501 -0.00000000000E+00  0.00000000000E+00  0.12811870095E+03  0.12811870095E+03  0.00000000000E+00 0. -1.
          1   -1    0    0  501    0  0.00000000000E+00 -0.00000000000E+00 -0.83002358457E+03  0.83002358457E+03  0.00000000000E+00 0.  1.
         23    2    1    2    0    0  0.17069422800E+03 -0.26224005312E+03 -0.45480342747E+03  0.55943751435E+03  0.90652136695E+02 0.  0.
         11    1    3    3    0    0  0.10043106551E+03 -0.19191902787E+03 -0.24338964559E+03  0.32581870996E+03  0.00000000000E+00 0. -1.
        -11    1    3    3    0    0  0.70263162482E+02 -0.70321025250E+02 -0.21141378188E+03  0.23361880439E+03  0.00000000000E+00 0.  1.
         22    1    1    2    0    0 -0.17069422800E+03  0.26224005312E+03 -0.24710145615E+03  0.39870477118E+03  0.00000000000E+00 0.  1.
<mgrwt>
<rscale>  0 0.65220102E+03</rscale>
<asrwt>0</asrwt>
<pdfrwt beam="1">  1        1 0.12769594E+00 0.65220102E+03</pdfrwt>
<pdfrwt beam="2">  1       -1 0.19710570E-01 0.65220102E+03</pdfrwt>
<totfact> 0.44151768E+02</totfact>
</mgrwt>
</event>
<event>
 6    1  0.1934315E-005  0.1578096E+04  0.7818608E-02  0.8834119E-01
         -2   -1    0    0    0  501 -0.00000000000E+00  0.00000000000E+00  0.18676852322E+04  0.18676852322E+04  0.00000000000E+00 0. -1.
          2   -1    0    0  501    0  0.00000000000E+00 -0.00000000000E+00 -0.33335190240E+03  0.33335190240E+03  0.00000000000E+00 0.  1.
         23    2    1    2    0    0  0.47780570006E+03  0.30855742598E+03  0.15271812885E+04  0.16322163158E+04  0.91331492862E+02 0.  0.
         13    1    3    3    0    0  0.27644351035E+03  0.20520618586E+03  0.80890589580E+03  0.87912418997E+03  0.00000000000E+00 0. -1.
        -13    1    3    3    0    0  0.20136218971E+03  0.10335124013E+03  0.71827539270E+03  0.75309212586E+03  0.00000000000E+00 0.  1.
         22    1    1    2    0    0 -0.47780570006E+03 -0.30855742598E+03  0.71520412614E+01  0.56882081874E+03  0.00000000000E+00 0.  1.
<mgrwt>
<rscale>  0 0.15780956E+04</rscale>
<asrwt>0</asrwt>
<pdfrwt beam="1">  1        2 0.51284909E-01 0.15780956E+04</pdfrwt>
<pdfrwt beam="2">  1       -2 0.28733618E+00 0.15780956E+04</pdfrwt>
<totfact> 0.35691056E+00</totfact>
</mgrwt>
</event>
<event>
 6    1  0.1934315E-005  0.2963290E+04  0.7818608E-02  0.8254292E-01
          2   -1    0    0  501    0  0.00000000000E+00  0.00000000000E+00  0.13608833581E+04  0.13608833581E+04  0.00000000000E+00 0.  1.
         -2   -1    0    0    0  501 -0.00000000000E+00 -0.00000000000E+00 -0.16131228203E+04  0.16131228203E+04  0.00000000000E+00 0. -1.
         23    2    1    2    0    0  0.46274389504E+03  0.79341412057E+03  0.10388675816E+04  0.13895203697E+04  0.88786972634E+02 0.  0.
         13    1    3    3    0    0  0.10330203190E+03  0.15812395399E+03  0.26837769099E+03  0.32817842653E+03  0.00000000000E+00 0.  1.
        -13    1    3    3    0    0  0.35944186314E+03  0.63529016658E+03  0.77048989065E+03  0.10613419432E+04  0.00000000000E+00 0. -1.
         22    1    1    2    0    0 -0.46274389504E+03 -0.79341412057E+03 -0.12911070438E+04  0.15844858086E+04  0.00000000000E+00 0. -1.
<mgrwt>
<rscale>  0 0.29632901E+04</rscale>
<asrwt>0</asrwt>
<pdfrwt beam="1">  1        2 0.20936667E+00 0.29632901E+04</pdfrwt>
<pdfrwt beam="2">  1       -2 0.24817274E+00 0.29632901E+04</pdfrwt>
<totfact> 0.86294103E-01</totfact>
</mgrwt>
</event>
<event>
 6    1  0.1934315E-005  0.5244403E+03  0.7818608E-02  0.1007589E+00
          1   -1    0    0  501    0  0.00000000000E+00  0.00000000000E+00  0.14322643665E+04  0.14322643665E+04  0.00000000000E+00 0. -1.
         -1   -1    0    0    0  501 -0.00000000000E+00 -0.00000000000E+00 -0.48007478232E+02  0.48007478232E+02  0.00000000000E+00 0.  1.
         23    2    1    2    0    0 -0.11050314439E+03  0.36185449559E+02  0.13516110673E+04  0.13594989947E+04  0.88683186039E+02 0.  0.
         11    1    3    3    0    0 -0.85636281188E+02  0.29817392117E+02  0.54596936178E+03  0.55344845608E+03  0.00000000000E+00 0. -1.
        -11    1    3    3    0    0 -0.24866863203E+02  0.63680574422E+01  0.80564170556E+03  0.80605053860E+03  0.00000000000E+00 0.  1.
         22    1    1    2    0    0  0.11050314439E+03 -0.36185449559E+02  0.32645820890E+02  0.12077285002E+03  0.00000000000E+00 0.  1.
<mgrwt>
<rscale>  0 0.52444027E+03</rscale>
<asrwt>0</asrwt>
<pdfrwt beam="1">  1        1 0.22034833E+00 0.52444027E+03</pdfrwt>
<pdfrwt beam="2">  1       -1 0.73857670E-02 0.52444027E+03</pdfrwt>
<totfact> 0.76081330E+02</totfact>
</mgrwt>
</event>
<event>
 6    1  0.1934315E-005  0.4132856E+04  0.7818608E-02  0.7978269E-01
         -1   -1    0    0    0  501 -0.00000000000E+00  0.00000000000E+00  0.19986133023E+04  0.19986133023E+04  0.00000000000E+00 0.  1.
          1   -1    0    0  501    0  0.00000000000E+00 -0.00000000000E+00 -0.21365431940E+04  0.21365431940E+04  0.00000000000E+00 0. -1.
         23    2    1    2    0    0 -0.67169995223E+01  0.46568865673E+03  0.19443847397E+04  0.20013933259E+04  0.89622462701E+02 0.  0.
         13    1    3    3    0    0 -0.42922245237E+02  0.21940058072E+03  0.83370866258E+03  0.86316224895E+03  0.00000000000E+00 0. -1.
        -13    1    3    3    0    0  0.36205245714E+02  0.24628807600E+03  0.11106760771E+04  0.11382310769E+04  0.00000000000E+00 0.  1.
         22    1    1    2    0    0  0.67169995223E+01 -0.46568865673E+03 -0.20823146314E+04  0.21337631704E+04  0.00000000000E+00 0. -1.
<mgrwt>
<rscale>  0 0.41328555E+04</rscale>
<asrwt>0</asrwt>
<pdfrwt beam="1">  1        1 0.32869895E+00 0.41328555E+04</pdfrwt>
<pdfrwt beam="2">  1       -1 0.30747897E+00 0.41328555E+04</pdfrwt>
<totfact> 0.55022339E-02</totfact>
</mgrwt>
</event>
<event>
 6    1  0.1934315E-005  0.2279131E+04  0.7818608E-02  0.8486195E-01
         -2   -1    0    0    0  501 -0.00000000000E+00  0.00000000000E+00  0.12549608703E+04  0.12549608703E+04  0.00000000000E+00 0. -1.
          2   -1    0    0  501    0  0.00000000000E+00 -0.00000000000E+00 -0.10347805965E+04  0.10347805965E+04  0.00000000000E+00 0.  1.
         23    2    1    2    0    0  0.11523811510E+03 -0.46428555309E+03 -0.92680891397E+03  0.10469924596E+04  0.91528954096E+02 0.  0.
         13    1    3    3    0    0  0.42749709021E+02 -0.33700402623E+03 -0.67563793493E+03  0.75623136039E+03  0.00000000000E+00 0.  1.
        -13    1    3    3    0    0  0.72488406082E+02 -0.12728152686E+03 -0.25117097904E+03  0.29076109920E+03  0.00000000000E+00 0. -1.
         22    1    1    2    0    0 -0.11523811510E+03  0.46428555309E+03  0.11469891878E+04  0.12427490072E+04  0.00000000000E+00 0. -1.
<mgrwt>
<rscale>  0 0.22791307E+04</rscale>
<asrwt>0</asrwt>
<pdfrwt beam="1">  1        2 0.15919701E+00 0.22791307E+04</pdfrwt>
<pdfrwt beam="2">  1       -2 0.19307090E+00 0.22791307E+04</pdfrwt>
<totfact> 0.32124535E+00</totfact>
</mgrwt>
</event>
<event>
 6    1  0.1934315E-005  0.3038095E+04  0.7818608E-02  0.8232936E-01
         -2   -1    0    0    0  501 -0.00000000000E+00  0.00000000000E+00  0.89823950229E+03  0.89823950229E+03  0.00000000000E+00 0. -1.
          2   -1    0    0  501    0  0.00000000000E+00 -0.00000000000E+00 -0.25689197529E+04  0.25689197529E+04  0.00000000000E+00 0.  1.
         23    2    1    2    0    0  0.11161007518E+04  0.38335780240E+03 -0.19251755452E+04  0.22599260765E+04  0.91218958033E+02 0.  0.
         13    1    3    3    0    0  0.93654271331E+03  0.28651402865E+03 -0.16097125123E+04  0.18842443883E+04  0.00000000000E+00 0.  1.
        -13    1    3    3    0    0  0.17955803851E+03  0.96843773750E+02 -0.31546303291E+03  0.37568168819E+03  0.00000000000E+00 0. -1.
         22    1    1    2    0    0 -0.11161007518E+04 -0.38335780240E+03  0.25449529458E+03  0.12072331787E+04  0.00000000000E+00 0. -1.
<mgrwt>
<rscale>  0 0.30380949E+04</rscale>
<asrwt>0</asrwt>
<pdfrwt beam="1">  1        2 0.39521843E+00 0.30380949E+04</pdfrwt>
<pdfrwt beam="2">  1       -2 0.13819069E+00 0.30380949E+04</pdfrwt>
<totfact> 0.10058393E+00</totfact>
</mgrwt>
</event>
<event>
 6    1  0.1934315E-005  0.6006698E+04  0.7818608E-02  0.7689572E-01
          2   -1    0    0  501    0  0.00000000000E+00  0.00000000000E+00  0.42061184990E+04  0.42061184990E+04  0.00000000000E+00 0.  1.
         -2   -1    0    0    0  501 -0.00000000000E+00 -0.00000000000E+00 -0.21445203179E+04  0.21445203179E+04  0.00000000000E+00 0. -1.
         23    2    1    2    0    0  0.16277618631E+03 -0.19599302641E+04 -0.13679043589E+04  0.23972465521E+04  0.88351397580E+02 0.  0.
         11    1    3    3    0    0  0.12950881850E+03 -0.17998837670E+04 -0.12710076153E+04  0.22072187175E+04  0.00000000000E+00 0.  1.
        -11    1    3    3    0    0  0.33267367809E+02 -0.16004649713E+03 -0.96896743595E+02  0.19002783460E+03  0.00000000000E+00 0. -1.
         22    1    1    2    0    0 -0.16277618631E+03  0.19599302641E+04  0.34295025401E+04  0.39533922648E+04  0.00000000000E+00 0.  1.
<mgrwt>
<rscale>  0 0.60066985E+04</rscale>
<asrwt>0</asrwt>
<pdfrwt beam="1">  1        2 0.64709515E+00 0.60066985E+04</pdfrwt>
<pdfrwt beam="2">  1       -2 0.32992620E+00 0.60066985E+04</pdfrwt>
<totfact> 0.31869837E-03</totfact>
</mgrwt>
</event>
<event>
 6    1  0.1934315E-005  0.2775004E+04  0.7818608E-02  0.8311071E-01
          1   -1    0    0  501    0  0.00000000000E+00  0.00000000000E+00  0.86287690911E+03  0.86287690911E+03  0.00000000000E+00 0.  1.
         -1   -1    0    0    0  501 -0.00000000000E+00 -0.00000000000E+00 -0.22310960866E+04  0.22310960866E+04  0.00000000000E+00 0. -1.
         23    2    1    2    0    0 -0.16848109275E+02 -0.87905677094E+03 -0.18794730887E+04  0.20769158552E+04  0.90198187970E+02 0.  0.
         11    1    3    3    0    0  0.13130274023E+01 -0.12857813055E+03 -0.35642603250E+03  0.37891104014E+03  0.00000000000E+00 0. -1.
        -11    1    3    3    0    0 -0.18161136677E+02 -0.75047864039E+03 -0.15230470562E+04  0.16980048151E+04  0.00000000000E+00 0.  1.
         22    1    1    2    0    0  0.16848109275E+02  0.87905677094E+03  0.51125391122E+03  0.10170571405E+04  0.00000000000E+00 0.  1.
<mgrwt>
<rscale>  0 0.27750036E+04</rscale>
<asrwt>0</asrwt>
<pdfrwt beam="1">  1        1 0.13275030E+00 0.27750036E+04</pdfrwt>
<pdfrwt beam="2">  1       -1 0.34324555E+00 0.27750036E+04</pdfrwt>
<totfact> 0.29185541E-01</totfact>
</mgrwt>
</event>
<event>
 6    1  0.1934315E-005  0.3497521E+03  0.7818608E-02  0.1062717E+00
         -2   -1    0    0    0  501 -0.00000000000E+00  0.00000000000E+00  0.71224448163E+02  0.71224448163E+02  0.00000000000E+00 0. -1.
          2   -1    0    0  501    0  0.00000000000E+00 -0.00000000000E+00 -0.42936986710E+03  0.42936986710E+03  0.00000000000E+00 0.  1.
         23    2    1    2    0    0 -0.10832278759E+03 -0.12242616678E+03 -0.18716309619E+03  0.26404210682E+03  0.89253666463E+02 0.  0.
         11    1    3    3    0    0 -0.71937364369E+02 -0.39857741217E+02 -0.40079415331E+02  0.91487613700E+02  0.00000000000E+00 0. -1.
        -11    1    3    3    0    0 -0.36385423226E+02 -0.82568425560E+02 -0.14708368086E+03  0.17255449312E+03  0.00000000000E+00 0.  1.
         22    1    1    2    0    0  0.10832278759E+03  0.12242616678E+03 -0.17098232275E+03  0.23655220844E+03  0.00000000000E+00 0. -1.
<mgrwt>
<rscale>  0 0.34975209E+03</rscale>
<asrwt>0</asrwt>
<pdfrwt beam="1">  1        2 0.66056904E-01 0.34975209E+03</pdfrwt>
<pdfrwt beam="2">  1       -2 0.10957607E-01 0.34975209E+03</pdfrwt>
<totfact> 0.42439400E+03</totfact>
</mgrwt>
</event>
<event>
 6    1  0.1934315E-005  0.1995699E+04  0.7818608E-02  0.8608634E-01
         -2   -1    0    0    0  501 -0.00000000000E+00  0.00000000000E+00  0.35081684393E+03  0.35081684393E+03  0.00000000000E+00 0. -1.
          2   -1    0    0  501    0  0.00000000000E+00 -0.00000000000E+00 -0.28382430832E+04  0.28382430832E+04  0.00000000000E+00 0.  1.
         23    2    1    2    0    0 -0.80002806284E+03  0.14421467102E+02 -0.21935313767E+04  0.23366356957E+04  0.89630318025E+02 0.  0.
         11    1    3    3    0    0 -0.17426693436E+03 -0.21272542490E+01 -0.37865602596E+03  0.41683794887E+03  0.00000000000E+00 0. -1.
        -11    1    3    3    0    0 -0.62576112848E+03  0.16548721351E+02 -0.18148753508E+04  0.19197977469E+04  0.00000000000E+00 0.  1.
         22    1    1    2    0    0  0.80002806284E+03 -0.14421467102E+02 -0.29389486257E+03  0.85242423141E+03  0.00000000000E+00 0. -1.
<mgrwt>
<rscale>  0 0.19956989E+04</rscale>
<asrwt>0</asrwt>
<pdfrwt beam="1">  1        2 0.43665277E+00 0.19956989E+04</pdfrwt>
<pdfrwt beam="2">  1       -2 0.53971823E-01 0.19956989E+04</pdfrwt>
<totfact> 0.65978599E+00</totfact>
</mgrwt>
</event>
<event>
 6    1  0.1934315E-005  0.2363094E+04  0.7818608E-02  0.8453451E-01
         -2   -1    0    0    0  501 -0.00000000000E+00  0.00000000000E+00  0.93205265098E+03  0.93205265098E+03  0.00000000000E+00 0. -1.
          2   -1    0    0  501    0  0.00000000000E+00 -0.00000000000E+00 -0.14978265692E+04  0.14978265692E+04  0.00000000000E+00 0.  1.
         23    2    1    2    0    0  0.10809760879E+04  0.40545912786E+03 -0.53286851666E+03  0.12748947300E+04  0.92202546943E+02 0.  0.
         11    1    3    3    0    0  0.78555389079E+03  0.26215688007E+03 -0.41242515553E+03  0.92515709694E+03  0.00000000000E+00 0.  1.
        -11    1    3    3    0    0  0.29542219710E+03  0.14330224780E+03 -0.12044336113E+03  0.34973763309E+03  0.00000000000E+00 0. -1.
         22    1    1    2    0    0 -0.10809760879E+04 -0.40545912786E+03 -0.32905401506E+02  0.11549844901E+04  0.00000000000E+00 0.  1.
<mgrwt>
<rscale>  0 0.23630939E+04</rscale>
<asrwt>0</asrwt>
<pdfrwt beam="1">  1        2 0.23043486E+00 0.23630939E+04</pdfrwt>
<pdfrwt beam="2">  1       -2 0.14339272E+00 0.23630939E+04</pdfrwt>
<totfact> 0.38745894E+00</totfact>
</mgrwt>
</event>
<event>
 6    1  0.1934315E-005  0.2698314E+04  0.7818608E-02  0.8335552E-01
         -2   -1    0    0    0  501 -0.00000000000E+00  0.00000000000E+00  0.16247389121E+04  0.16247389121E+04  0.00000000000E+00 0. -1.
          2   -1    0    0  501    0  0.00000000000E+00 -0.00000000000E+00 -0.11203182287E+04  0.11203182287E+04  0.00000000000E+00 0.  1.
         23    2    1    2    0    0  0.51826063997E+02 -0.10793785134E+04  0.10716964535E+04  0.15245876757E+04  0.89946519564E+02 0.  0.
         13    1    3    3    0    0  0.64475702511E+02 -0.56518458097E+03  0.52755992383E+03  0.77582871822E+03  0.00000000000E+00 0. -1.
        -13    1    3    3    0    0 -0.12649638515E+02 -0.51419393239E+03  0.54413652963E+03  0.74875895744E+03  0.00000000000E+00 0.  1.
         22    1    1    2    0    0 -0.51826063997E+02  0.10793785134E+04 -0.56727577007E+03  0.12204694651E+04  0.00000000000E+00 0.  1.
<mgrwt>
<rscale>  0 0.26983140E+04</rscale>
<asrwt>0</asrwt>
<pdfrwt beam="1">  1        2 0.17235665E+00 0.26983140E+04</pdfrwt>
<pdfrwt beam="2">  1       -2 0.24995983E+00 0.26983140E+04</pdfrwt>
<totfact> 0.11941376E+00</totfact>
</mgrwt>
</event>
<event>
 6    1  0.1934315E-005  0.1185901E+04  0.7818608E-02  0.9125288E-01
          2   -1    0    0  501    0  0.00000000000E+00  0.00000000000E+00  0.70173402790E+03  0.70173402790E+03  0.00000000000E+00 0.  1.
         -2   -1    0    0    0  501 -0.00000000000E+00 -0.00000000000E+00 -0.50103062124E+03  0.50103062124E+03  0.00000000000E+00 0. -1.
         23    2    1    2    0    0  0.76590484444E+02 -0.19563383445E+03 -0.45720608725E+03  0.51212465487E+03  0.95370626596E+02 0.  0.
         13    1    3    3    0    0 -0.18424675476E+02 -0.55848113662E+02 -0.85244169699E+02  0.10356181214E+03  0.00000000000E+00 0. -1.
        -13    1    3    3    0    0  0.95015159920E+02 -0.13978572079E+03 -0.37196191755E+03  0.40856284273E+03  0.00000000000E+00 0.  1.
         22    1    1    2    0    0 -0.76590484444E+02  0.19563383445E+03  0.65790949392E+03  0.69063999427E+03  0.00000000000E+00 0.  1.
<mgrwt>
<rscale>  0 0.11859009E+04</rscale>
<asrwt>0</asrwt>
<pdfrwt beam="1">  1        2 0.10795908E+00 0.11859009E+04</pdfrwt>
<pdfrwt beam="2">  1       -2 0.77081633E-01 0.11859009E+04</pdfrwt>
<totfact> 0.60638369E+01</totfact>
</mgrwt>
</event>
<event>
 6    1  0.1934315E-005  0.1603302E+04  0.7818608E-02  0.8818522E-01
         -2   -1    0    0    0  501 -0.00000000000E+00  0.00000000000E+00  0.20339920102E+03  0.20339920102E+03  0.00000000000E+00 0. -1.
          2   -1    0    0  501    0  0.00000000000E+00 -0.00000000000E+00 -0.31595231929E+04  0.31595231929E+04  0.00000000000E+00 0.  1.
         23    2    1    2    0    0 -0.49150332208E+03 -0.15141218230E+03 -0.20016988912E+03  0.55939173044E+03  0.91378110155E+02 0.  0.
         13    1    3    3    0    0 -0.28533088742E+03 -0.69594377942E+02 -0.15837126106E+03  0.33367431589E+03  0.00000000000E+00 0.  1.
        -13    1    3    3    0    0 -0.20617243466E+03 -0.81817804357E+02 -0.41798628053E+02  0.22571741455E+03  0.00000000000E+00 0. -1.
         22    1    1    2    0    0  0.49150332208E+03  0.15141218230E+03 -0.27559541028E+04  0.28035306635E+04  0.00000000000E+00 0.  1.
<mgrwt>
<rscale>  0 0.16033022E+04</rscale>
<asrwt>0</asrwt>
<pdfrwt beam="1">  1        2 0.48608046E+00 0.16033022E+04</pdfrwt>
<pdfrwt beam="2">  1       -2 0.31292187E-01 0.16033022E+04</pdfrwt>
<totfact> 0.12610538E+01</totfact>
</mgrwt>
</event>
<event>
 6    1  0.1934315E-005  0.7077668E+04  0.7818608E-02  0.7569478E-01
         -2   -1    0    0    0  501 -0.00000000000E+00  0.00000000000E+00  0.38184452222E+04  0.38184452222E+04  0.00000000000E+00 0. -1.
          2   -1    0    0  501    0  0.00000000000E+00 -0.00000000000E+00 -0.32796974844E+04  0.32796974844E+04  0.00000000000E+00 0.  1.
         23    2    1    2    0    0  0.13213515499E+04 -0.23750375361E+04 -0.20025958242E+04  0.33772287978E+04  0.92255629142E+02 0.  0.
         13    1    3    3    0    0  0.23861337089E+03 -0.36679669356E+03 -0.34156343529E+03  0.55510515716E+03  0.00000000000E+00 0. -1.
        -13    1    3    3    0    0  0.10827381790E+04 -0.20082408425E+04 -0.16610323890E+04  0.28221236406E+04  0.00000000000E+00 0.  1.
         22    1    1    2    0    0 -0.13213515499E+04  0.23750375361E+04  0.25413435621E+04  0.37209139088E+04  0.00000000000E+00 0. -1.
<mgrwt>
<rscale>  0 0.70776677E+04</rscale>
<asrwt>0</asrwt>
<pdfrwt beam="1">  1        2 0.50456884E+00 0.70776677E+04</pdfrwt>
<pdfrwt beam="2">  1       -2 0.58745311E+00 0.70776677E+04</pdfrwt>
<totfact> 0.41826716E-04</totfact>
</mgrwt>
</event>
<event>
 6    1  0.1934315E-005  0.2526948E+04  0.7818608E-02  0.8393448E-01
         -2   -1    0    0    0  501 -0.00000000000E+00  0.00000000000E+00  0.49766458915E+03  0.49766458915E+03  0.00000000000E+00 0. -1.
          2   -1    0    0  501    0  0.00000000000E+00 -0.00000000000E+00 -0.32077156982E+04  0.32077156982E+04  0.00000000000E+00 0.  1.
         23    2    1    2    0    0 -0.70243292828E+03 -0.12657296145E+03 -0.28827102329E+04  0.29710480013E+04  0.87608249343E+02 0.  0.
         11    1    3    3    0    0 -0.19167965711E+03  0.42267978042E+01 -0.74305084251E+03  0.76738745841E+03  0.00000000000E+00 0. -1.
        -11    1    3    3    0    0 -0.51075327117E+03 -0.13079975925E+03 -0.21396593904E+04  0.22036605428E+04  0.00000000000E+00 0.  1.
         22    1    1    2    0    0  0.70243292828E+03  0.12657296145E+03  0.17265912390E+03  0.73433228608E+03  0.00000000000E+00 0. -1.
<mgrwt>
<rscale>  0 0.25269480E+04</rscale>
<asrwt>0</asrwt>
<pdfrwt beam="1">  1        2 0.49349471E+00 0.25269480E+04</pdfrwt>
<pdfrwt beam="2">  1       -2 0.76563785E-01 0.25269480E+04</pdfrwt>
<totfact> 0.17404470E+00</totfact>
</mgrwt>
</event>
<event>
 6    1  0.1934315E-005  0.1302932E+04  0.7818608E-02  0.9027243E-01
          2   -1    0    0  501    0  0.00000000000E+00  0.00000000000E+00  0.10996989593E+04  0.10996989593E+04  0.00000000000E+00 0.  1.
         -2   -1    0    0    0  501 -0.00000000000E+00 -0.00000000000E+00 -0.38593118019E+03  0.38593118019E+03  0.00000000000E+00 0. -1.
         23    2    1    2    0    0  0.29751086329E+03  0.27895722973E+03  0.93346877707E+03  0.10223824970E+04  0.87018173571E+02 0.  0.
         13    1    3    3    0    0  0.15380570197E+03  0.92240761189E+02  0.45430488609E+03  0.48842346536E+03  0.00000000000E+00 0.  1.
        -13    1    3    3    0    0  0.14370516132E+03  0.18671646854E+03  0.47916389098E+03  0.53395903161E+03  0.00000000000E+00 0. -1.
         22    1    1    2    0    0 -0.29751086329E+03 -0.27895722973E+03 -0.21970099796E+03  0.46324764252E+03  0.00000000000E+00 0. -1.
<mgrwt>
<rscale>  0 0.13029323E+04</rscale>
<asrwt>0</asrwt>
<pdfrwt beam="1">  1        2 0.16918445E+00 0.13029323E+04</pdfrwt>
<pdfrwt beam="2">  1       -2 0.59374028E-01 0.13029323E+04</pdfrwt>
<totfact> 0.56561533E+01</totfact>
</mgrwt>
</event>
<event>
 6    1  0.1934315E-005  0.1375102E+04  0.7818608E-02  0.8972041E-01
          2   -1    0    0  501    0  0.00000000000E+00  0.00000000000E+00  0.34762184597E+04  0.34762184597E+04  0.00000000000E+00 0.  1.
         -2   -1    0    0    0  501 -0.00000000000E+00 -0.00000000000E+00 -0.13598875931E+03  0.13598875931E+03  0.00000000000E+00 0. -1.
         23    2    1    2    0    0 -0.30378299607E+03  0.29010807708E+03  0.30971540057E+04  0.31268902108E+04  0.92912058003E+02 0.  0.
         11    1    3    3    0    0 -0.27452663386E+03  0.23552209170E+03  0.24160472146E+04  0.24429735307E+04  0.00000000000E+00 0.  1.
        -11    1    3    3    0    0 -0.29256362213E+02  0.54585985382E+02  0.68110679112E+03  0.68391668019E+03  0.00000000000E+00 0. -1.
         22    1    1    2    0    0  0.30378299607E+03 -0.29010807708E+03  0.24307569473E+03  0.48531700821E+03  0.00000000000E+00 0. -1.
<mgrwt>
<rscale>  0 0.13751024E+04</rscale>
<asrwt>0</asrwt>
<pdfrwt beam="1">  1        2 0.53480277E+00 0.13751024E+04</pdfrwt>
<pdfrwt beam="2">  1       -2 0.20921350E-01 0.13751024E+04</pdfrwt>
<totfact> 0.16548369E+01</totfact>
</mgrwt>
</event>
<event>
 6    1  0.1934315E-005  0.2360991E+04  0.7818608E-02  0.8454254E-01
          2   -1    0    0  501    0  0.00000000000E+00  0.00000000000E+00  0.14345452503E+04  0.14345452503E+04  0.00000000000E+00 0. -1.
         -2   -1    0    0    0  501 -0.00000000000E+00 -0.00000000000E+00 -0.97143635296E+03  0.97143635296E+03  0.00000000000E+00 0.  1.
         23    2    1    2    0    0  0.11307421543E+03  0.11697697209E+04  0.32505405604E+03  0.12226785493E+04  0.90198211887E+02 0.  0.
         11    1    3    3    0    0  0.45073902090E+02  0.19063747807E+03  0.75670962302E+02  0.21000095054E+03  0.00000000000E+00 0.  1.
        -11    1    3    3    0    0  0.68000313338E+02  0.97913224288E+03  0.24938309374E+03  0.10126775988E+04  0.00000000000E+00 0. -1.
         22    1    1    2    0    0 -0.11307421543E+03 -0.11697697209E+04  0.13805484131E+03  0.11833030539E+04  0.00000000000E+00 0.  1.
<mgrwt>
<rscale>  0 0.23609908E+04</rscale>
<asrwt>0</asrwt>
<pdfrwt beam="1">  1        2 0.22069927E+00 0.23609908E+04</pdfrwt>
<pdfrwt beam="2">  1       -2 0.14945175E+00 0.23609908E+04</pdfrwt>
<totfact> 0.37744986E+00</totfact>
</mgrwt>
</event>
<event>
 6    1  0.1934315E-005  0.1121031E+04  0.7818608E-02  0.9184933E-01
          2   -1    0    0  501    0  0.00000000000E+00  0.00000000000E+00  0.17612484165E+04  0.17612484165E+04  0.00000000000E+00 0.  1.
         -2   -1    0    0    0  501 -0.00000000000E+00 -0.00000000000E+00 -0.17838342842E+03  0.17838342842E+03  0.00000000000E+00 0. -1.
         23    2    1    2    0    0  0.27299678264E+03  0.40118125152E+03  0.32462228226E+03  0.59105913771E+03  0.92182635178E+02 0.  0.
         11    1    3    3    0    0  0.19732800245E+03  0.22742271085E+03  0.23204091021E+03  0.38013473134E+03  0.00000000000E+00 0. -1.
        -11    1    3    3    0    0  0.75668780188E+02  0.17375854067E+03  0.92581372048E+02  0.21092440637E+03  0.00000000000E+00 0.  1.
         22    1    1    2    0    0 -0.27299678264E+03 -0.40118125152E+03  0.12582427058E+04  0.13485727072E+04  0.00000000000E+00 0.  1.
<mgrwt>
<rscale>  0 0.11210308E+04</rscale>
<asrwt>0</asrwt>
<pdfrwt beam="1">  1        2 0.27096128E+00 0.11210308E+04</pdfrwt>
<pdfrwt beam="2">  1       -2 0.27443606E-01 0.11210308E+04</pdfrwt>
<totfact> 0.10879206E+02</totfact>
</mgrwt>
</event>
<event>
 6    1  0.1934315E-005  0.8562650E+03  0.7818608E-02  0.9481967E-01
         -2   -1    0    0    0  501 -0.00000000000E+00  0.00000000000E+00  0.10676760100E+03  0.10676760100E+03  0.00000000000E+00 0. -1.
          2   -1    0    0  501    0  0.00000000000E+00 -0.00000000000E+00 -0.17167889669E+04  0.17167889669E+04  0.00000000000E+00 0.  1.
         23    2    1    2    0    0  0.23279840230E+03  0.37480625387E+02 -0.15626139504E+04  0.15830417941E+04  0.93054125102E+02 0.  0.
         11    1    3    3    0    0  0.23008106096E+03  0.54245905022E+02 -0.14694314838E+04  0.14883241577E+04  0.00000000000E+00 0. -1.
        -11    1    3    3    0    0  0.27173413354E+01 -0.16765279635E+02 -0.93182466680E+02  0.94717636381E+02  0.00000000000E+00 0.  1.
         22    1    1    2    0    0 -0.23279840230E+03 -0.37480625387E+02 -0.47407415432E+02  0.24051477383E+03  0.00000000000E+00 0. -1.
<mgrwt>
<rscale>  0 0.85626500E+03</rscale>
<asrwt>0</asrwt>
<pdfrwt beam="1">  1        2 0.26412135E+00 0.85626500E+03</pdfrwt>
<pdfrwt beam="2">  1       -2 0.16425786E-01 0.85626500E+03</pdfrwt>
<totfact> 0.29094756E+02</totfact>
</mgrwt>
</event>
<event>
 6    1  0.1934315E-005  0.1740727E+04  0.7818608E-02  0.8738471E-01
         -2   -1    0    0    0  501 -0.00000000000E+00  0.00000000000E+00  0.81336737515E+03  0.81336737515E+03  0.00000000000E+00 0. -1.
          2   -1    0    0  501    0  0.00000000000E+00 -0.00000000000E+00 -0.93135374150E+03  0.93135374150E+03  0.00000000000E+00 0.  1.
         23    2    1    2    0    0 -0.14387453106E+03  0.79383104952E+03  0.26240498431E+03  0.85277650204E+03  0.86624308217E+02 0.  0.
         11    1    3    3    0    0 -0.45220397704E+02  0.14224586317E+03  0.78199305871E+02  0.16850490022E+03  0.00000000000E+00 0. -1.
        -11    1    3    3    0    0 -0.98654133355E+02  0.65158518635E+03  0.18420567844E+03  0.68427160183E+03  0.00000000000E+00 0.  1.
         22    1    1    2    0    0  0.14387453106E+03 -0.79383104952E+03 -0.38039135067E+03  0.89194461461E+03  0.00000000000E+00 0.  1.
<mgrwt>
<rscale>  0 0.17407271E+04</rscale>
<asrwt>0</asrwt>
<pdfrwt beam="1">  1        2 0.14328519E+00 0.17407271E+04</pdfrwt>
<pdfrwt beam="2">  1       -2 0.12513344E+00 0.17407271E+04</pdfrwt>
<totfact> 0.12669745E+01</totfact>
</mgrwt>
</event>
<event>
 6    1  0.1934315E-005  0.5795393E+03  0.7818608E-02  0.9948789E-01
          2   -1    0    0  501    0  0.00000000000E+00  0.00000000000E+00  0.19755385003E+04  0.19755385003E+04  0.00000000000E+00 0.  1.
         -2   -1    0    0    0  501 -0.00000000000E+00 -0.00000000000E+00 -0.42503074997E+02  0.42503074997E+02  0.00000000000E+00 0. -1.
         23    2    1    2    0    0 -0.21302195397E+03 -0.14247530066E+03  0.57359510065E+03  0.63465603234E+03  0.89996531735E+02 0.  0.
         11    1    3    3    0    0 -0.67780820497E+02 -0.67426433508E+02  0.31067008562E+03  0.32504840510E+03  0.00000000000E+00 0. -1.
        -11    1    3    3    0    0 -0.14524113347E+03 -0.75048867151E+02  0.26292501503E+03  0.30960762724E+03  0.00000000000E+00 0.  1.
         22    1    1    2    0    0  0.21302195397E+03  0.14247530066E+03  0.13594403246E+04  0.13833855429E+04  0.00000000000E+00 0. -1.
<mgrwt>
<rscale>  0 0.57953934E+03</rscale>
<asrwt>0</asrwt>
<pdfrwt beam="1">  1        2 0.30392893E+00 0.57953934E+03</pdfrwt>
<pdfrwt beam="2">  1       -2 0.65389361E-02 0.57953934E+03</pdfrwt>
<totfact> 0.96590642E+02</totfact>
</mgrwt>
</event>
<event>
 6    1  0.1934315E-005  0.1228232E+04  0.7818608E-02  0.9088498E-01
          2   -1    0    0  501    0  0.00000000000E+00  0.00000000000E+00  0.13785267503E+04  0.13785267503E+04  0.00000000000E+00 0.  1.
         -2   -1    0    0    0  501 -0.00000000000E+00 -0.00000000000E+00 -0.27358067197E+03  0.27358067197E+03  0.00000000000E+00 0. -1.
         23    2    1    2    0    0 -0.79857209013E+02  0.20502509851E+03 -0.20891751872E+03  0.31994751577E+03  0.10152545676E+03 0.  0.
         11    1    3    3    0    0 -0.87225415456E+01  0.13646600656E+01 -0.53110688603E+02  0.53839486179E+02  0.00000000000E+00 0. -1.
        -11    1    3    3    0    0 -0.71134667467E+02  0.20366043844E+03 -0.15580683012E+03  0.26610802959E+03  0.00000000000E+00 0.  1.
         22    1    1    2    0    0  0.79857209013E+02 -0.20502509851E+03  0.13138635971E+04  0.13321599065E+04  0.00000000000E+00 0.  1.
<mgrwt>
<rscale>  0 0.12282317E+04</rscale>
<asrwt>0</asrwt>
<pdfrwt beam="1">  1        2 0.21208104E+00 0.12282317E+04</pdfrwt>
<pdfrwt beam="2">  1       -2 0.42089335E-01 0.12282317E+04</pdfrwt>
<totfact> 0.78404425E+01</totfact>
</mgrwt>
</event>
<event>
 6    1  0.1934315E-005  0.5114906E+04  0.7818608E-02  0.7811022E-01
          2   -1    0    0  501    0  0.00000000000E+00  0.00000000000E+00  0.38375382632E+04  0.38375382632E+04  0.00000000000E+00 0.  1.
         -2   -1    0    0    0  501 -0.00000000000E+00 -0.00000000000E+00 -0.17043651719E+04  0.17043651719E+04  0.00000000000E+00 0. -1.
         23    2    1    2    0    0 -0.11052748696E+04 -0.20869274061E+04  0.21282317221E+04  0.31803524717E+04  0.91504347589E+02 0.  0.
         11    1    3    3    0    0 -0.54982932267E+03 -0.10886376480E+04  0.10461678864E+04  0.16068327416E+04  0.00000000000E+00 0.  1.
        -11    1    3    3    0    0 -0.55544554690E+03 -0.99828975809E+03  0.10820638357E+04  0.15735197301E+04  0.00000000000E+00 0. -1.
         22    1    1    2    0    0  0.11052748696E+04  0.20869274061E+04  0.49413690976E+01  0.23615509634E+04  0.00000000000E+00 0. -1.
<mgrwt>
<rscale>  0 0.51149063E+04</rscale>
<asrwt>0</asrwt>
<pdfrwt beam="1">  1        2 0.59039050E+00 0.51149063E+04</pdfrwt>
<pdfrwt beam="2">  1       -2 0.26221003E+00 0.51149063E+04</pdfrwt>
<totfact> 0.17869281E-02</totfact>
</mgrwt>
</event>
<event>
 6    1  0.1934315E-005  0.2476572E+04  0.7818608E-02  0.8411380E-01
          2   -1    0    0  501    0  0.00000000000E+00  0.00000000000E+00  0.12422618117E+04  0.12422618117E+04  0.00000000000E+00 0.  1.
         -2   -1    0    0    0  501 -0.00000000000E+00 -0.00000000000E+00 -0.12343233187E+04  0.12343233187E+04  0.00000000000E+00 0. -1.
         23    2    1    2    0    0 -0.30199605311E+03 -0.25171923485E+01  0.12030567335E+04  0.12438988114E+04  0.93438731640E+02 0.  0.
         13    1    3    3    0    0 -0.30340476438E+03  0.97534048441E+01  0.11642472945E+04  0.12031713688E+04  0.00000000000E+00 0. -1.
        -13    1    3    3    0    0  0.14087112778E+01 -0.12270597193E+02  0.38809439007E+02  0.40727442578E+02  0.00000000000E+00 0.  1.
         22    1    1    2    0    0  0.30199605311E+03  0.25171923485E+01 -0.11951182405E+04  0.12326863190E+04  0.00000000000E+00 0. -1.
<mgrwt>
<rscale>  0 0.24765724E+04</rscale>
<asrwt>0</asrwt>
<pdfrwt beam="1">  1        2 0.19111720E+00 0.24765724E+04</pdfrwt>
<pdfrwt beam="2">  1       -2 0.18989589E+00 0.24765724E+04</pdfrwt>
<totfact> 0.24798661E+00</totfact>
</mgrwt>
</event>
<event>
 6    1  0.1934315E-005  0.3792907E+04  0.7818608E-02  0.8047679E-01
         -2   -1    0    0    0  501 -0.00000000000E+00  0.00000000000E+00  0.19007594435E+04  0.19007594435E+04  0.00000000000E+00 0. -1.
          2   -1    0    0  501    0  0.00000000000E+00 -0.00000000000E+00 -0.18921573110E+04  0.18921573110E+04  0.00000000000E+00 0.  1.
         23    2    1    2    0    0 -0.10238955969E+04 -0.14049844882E+04 -0.75080396276E+03  0.18958028352E+04  0.89544367872E+02 0.  0.
         11    1    3    3    0    0 -0.78218093734E+03 -0.10994159847E+04 -0.61919300195E+03  0.14845613830E+04  0.00000000000E+00 0. -1.
        -11    1    3    3    0    0 -0.24171465960E+03 -0.30556850348E+03 -0.13161096080E+03  0.41124145218E+03  0.00000000000E+00 0.  1.
         22    1    1    2    0    0  0.10238955969E+04  0.14049844882E+04  0.75940609518E+03  0.18971139193E+04  0.00000000000E+00 0. -1.
<mgrwt>
<rscale>  0 0.37929070E+04</rscale>
<asrwt>0</asrwt>
<pdfrwt beam="1">  1        2 0.29110112E+00 0.37929070E+04</pdfrwt>
<pdfrwt beam="2">  1       -2 0.29242453E+00 0.37929070E+04</pdfrwt>
<totfact> 0.21760364E-01</totfact>
</mgrwt>
</event>
<event>
 6    1  0.1934315E-005  0.2540338E+04  0.7818608E-02  0.8388754E-01
         -2   -1    0    0    0  501 -0.00000000000E+00  0.00000000000E+00  0.58421743763E+03  0.58421743763E+03  0.00000000000E+00 0. -1.
          2   -1    0    0  501    0  0.00000000000E+00 -0.00000000000E+00 -0.27615213582E+04  0.27615213582E+04  0.00000000000E+00 0.  1.
         23    2    1    2    0    0  0.15266921792E+03  0.12558684541E+04 -0.96880944522E+03  0.15961753186E+04  0.93115210633E+02 0.  0.
         11    1    3    3    0    0  0.11582054199E+02  0.29692029538E+03 -0.18907279267E+03  0.35219927132E+03  0.00000000000E+00 0.  1.
        -11    1    3    3    0    0  0.14108716372E+03  0.95894815868E+03 -0.77973665255E+03  0.12439760473E+04  0.00000000000E+00 0. -1.
         22    1    1    2    0    0 -0.15266921792E+03 -0.12558684541E+04 -0.12084944753E+04  0.17495634773E+04  0.00000000000E+00 0. -1.
<mgrwt>
<rscale>  0 0.25403377E+04</rscale>
<asrwt>0</asrwt>
<pdfrwt beam="1">  1        2 0.42484943E+00 0.25403377E+04</pdfrwt>
<pdfrwt beam="2">  1       -2 0.89879607E-01 0.25403377E+04</pdfrwt>
<totfact> 0.22984830E+00</totfact>
</mgrwt>
</event>
<event>
 6    1  0.1934315E-005  0.2574326E+04  0.7818608E-02  0.8376975E-01
         -2   -1    0    0    0  501 -0.00000000000E+00  0.00000000000E+00  0.11799062160E+04  0.11799062160E+04  0.00000000000E+00 0. -1.
          2   -1    0    0  501    0  0.00000000000E+00 -0.00000000000E+00 -0.14041697593E+04  0.14041697593E+04  0.00000000000E+00 0.  1.
         23    2    1    2    0    0 -0.69212136773E+01 -0.12171988735E+04 -0.52713598183E+03  0.13297424013E+04  0.93389022101E+02 0.  0.
         13    1    3    3    0    0 -0.19000295445E+02 -0.46282144514E+03 -0.15478348629E+03  0.48838778541E+03  0.00000000000E+00 0. -1.
        -13    1    3    3    0    0  0.12079081768E+02 -0.75437742840E+03 -0.37235249554E+03  0.84135461586E+03  0.00000000000E+00 0.  1.
         22    1    1    2    0    0  0.69212136773E+01  0.12171988735E+04  0.30287243856E+03  0.12543335741E+04  0.00000000000E+00 0. -1.
<mgrwt>
<rscale>  0 0.25743260E+04</rscale>
<asrwt>0</asrwt>
<pdfrwt beam="1">  1        2 0.21602612E+00 0.25743260E+04</pdfrwt>
<pdfrwt beam="2">  1       -2 0.18152403E+00 0.25743260E+04</pdfrwt>
<totfact> 0.22581057E+00</totfact>
</mgrwt>
</event>
<event>
 6    1  0.1934315E-005  0.2744953E+04  0.7818608E-02  0.8320565E-01
         -2   -1    0    0    0  501 -0.00000000000E+00  0.00000000000E+00  0.83635317047E+03  0.83635317047E+03  0.00000000000E+00 0. -1.
          2   -1    0    0  501    0  0.00000000000E+00 -0.00000000000E+00 -0.22522675634E+04  0.22522675634E+04  0.00000000000E+00 0.  1.
         23    2    1    2    0    0 -0.68509374926E+03 -0.26562890582E+03  0.59361229053E+03  0.94896897426E+03  0.90853738280E+02 0.  0.
         11    1    3    3    0    0 -0.49717898264E+03 -0.15187560585E+03  0.39609690181E+03  0.65356399538E+03  0.00000000000E+00 0.  1.
        -11    1    3    3    0    0 -0.18791476662E+03 -0.11375329997E+03  0.19751538872E+03  0.29540497888E+03  0.00000000000E+00 0. -1.
         22    1    1    2    0    0  0.68509374926E+03  0.26562890582E+03 -0.20095266835E+04  0.21396517596E+04  0.00000000000E+00 0.  1.
<mgrwt>
<rscale>  0 0.27449525E+04</rscale>
<asrwt>0</asrwt>
<pdfrwt beam="1">  1        2 0.34650270E+00 0.27449525E+04</pdfrwt>
<pdfrwt beam="2">  1       -2 0.12866972E+00 0.27449525E+04</pdfrwt>
<totfact> 0.18797293E+00</totfact>
</mgrwt>
</event>
<event>
 6    1  0.1934315E-005  0.4495255E+04  0.7818608E-02  0.7911468E-01
         -2   -1    0    0    0  501 -0.00000000000E+00  0.00000000000E+00  0.20881001353E+04  0.20881001353E+04  0.00000000000E+00 0. -1.
          2   -1    0    0  501    0  0.00000000000E+00 -0.00000000000E+00 -0.24193426997E+04  0.24193426997E+04  0.00000000000E+00 0.  1.
         23    2    1    2    0    0 -0.55487643858E+03 -0.14337672364E+04  0.14779340492E+04  0.21332700593E+04  0.54550361475E+02 0.  0.
         11    1    3    3    0    0 -0.36819504856E+03 -0.97639529661E+03  0.96974675767E+03  0.14245434858E+04  0.00000000000E+00 0. -1.
        -11    1    3    3    0    0 -0.18668139003E+03 -0.45737193974E+03  0.50818729152E+03  0.70872657345E+03  0.00000000000E+00 0.  1.
         22    1    1    2    0    0  0.55487643858E+03  0.14337672364E+04 -0.18091766135E+04  0.23741727757E+04  0.00000000000E+00 0.  1.
<mgrwt>
<rscale>  0 0.44952552E+04</rscale>
<asrwt>0</asrwt>
<pdfrwt beam="1">  1        2 0.37220657E+00 0.44952552E+04</pdfrwt>
<pdfrwt beam="2">  1       -2 0.32124617E+00 0.44952552E+04</pdfrwt>
<totfact> 0.69096321E-02</totfact>
</mgrwt>
</event>
<event>
 6    1  0.1934315E-005  0.5235608E+03  0.7818608E-02  0.1007806E+00
          2   -1    0    0  501    0  0.00000000000E+00  0.00000000000E+00  0.42333215527E+04  0.42333215527E+04  0.00000000000E+00 0.  1.
         -2   -1    0    0    0  501 -0.00000000000E+00 -0.00000000000E+00 -0.16187994960E+02  0.16187994960E+02  0.00000000000E+00 0. -1.
         23    2    1    2    0    0 -0.59500191992E+02  0.31852859122E+02  0.41586840092E+04  0.41602278183E+04  0.91038089425E+02 0.  0.
         13    1    3    3    0    0 -0.66737045384E+01  0.14539610973E+01  0.29501527632E+04  0.29501606699E+04  0.00000000000E+00 0.  1.
        -13    1    3    3    0    0 -0.52826487453E+02  0.30398898025E+02  0.12085312461E+04  0.12100671484E+04  0.00000000000E+00 0. -1.
         22    1    1    2    0    0  0.59500191992E+02 -0.31852859122E+02  0.58449548473E+02  0.89281729363E+02  0.00000000000E+00 0. -1.
<mgrwt>
<rscale>  0 0.52356084E+03</rscale>
<asrwt>0</asrwt>
<pdfrwt beam="1">  1        2 0.65127936E+00 0.52356084E+03</pdfrwt>
<pdfrwt beam="2">  1       -2 0.24904641E-02 0.52356084E+03</pdfrwt>
<totfact> 0.15169115E+02</totfact>
</mgrwt>
</event>
<event>
 6    1  0.1934315E-005  0.5154375E+03  0.7818608E-02  0.1009826E+00
          2   -1    0    0  501    0  0.00000000000E+00  0.00000000000E+00  0.31032532472E+03  0.31032532472E+03  0.00000000000E+00 0.  1.
         -2   -1    0    0    0  501 -0.00000000000E+00 -0.00000000000E+00 -0.21403009145E+03  0.21403009145E+03  0.00000000000E+00 0. -1.
         23    2    1    2    0    0  0.82316466269E+02 -0.57206326273E+02  0.28212095580E+03  0.31321621199E+03  0.91997811750E+02 0.  0.
         13    1    3    3    0    0  0.25511725316E+02 -0.71116708584E+02  0.18518295578E+03  0.20000290368E+03  0.00000000000E+00 0. -1.
        -13    1    3    3    0    0  0.56804740953E+02  0.13910382312E+02  0.96938000026E+02  0.11321330832E+03  0.00000000000E+00 0.  1.
         22    1    1    2    0    0 -0.82316466269E+02  0.57206326273E+02 -0.18582572253E+03  0.21113920417E+03  0.00000000000E+00 0. -1.
<mgrwt>
<rscale>  0 0.51543751E+03</rscale>
<asrwt>0</asrwt>
<pdfrwt beam="1">  1        2 0.47742358E-01 0.51543751E+03</pdfrwt>
<pdfrwt beam="2">  1       -2 0.32927706E-01 0.51543751E+03</pdfrwt>
<totfact> 0.91223434E+02</totfact>
</mgrwt>
</event>
<event>
 6    1  0.1934315E-005  0.2361719E+04  0.7818608E-02  0.8453976E-01
         -2   -1    0    0    0  501 -0.00000000000E+00  0.00000000000E+00  0.22627460695E+04  0.22627460695E+04  0.00000000000E+00 0. -1.
          2   -1    0    0  501    0  0.00000000000E+00 -0.00000000000E+00 -0.61625546758E+03  0.61625546758E+03  0.00000000000E+00 0.  1.
         23    2    1    2    0    0 -0.11718406859E+04  0.33043394009E+02  0.67350424856E+03  0.13555170761E+04  0.97550559468E+02 0.  0.
         11    1    3    3    0    0 -0.87296423171E+02 -0.74325241552E+01  0.24516770074E+02  0.90977909014E+02  0.00000000000E+00 0.  1.
        -11    1    3    3    0    0 -0.10845442628E+04  0.40475918165E+02  0.64898747849E+03  0.12645391671E+04  0.00000000000E+00 0. -1.
         22    1    1    2    0    0  0.11718406859E+04 -0.33043394009E+02  0.97298635341E+03  0.15234844610E+04  0.00000000000E+00 0.  1.
<mgrwt>
<rscale>  0 0.23617194E+04</rscale>
<asrwt>0</asrwt>
<pdfrwt beam="1">  1        2 0.94808534E-01 0.23617194E+04</pdfrwt>
<pdfrwt beam="2">  1       -2 0.34811478E+00 0.23617194E+04</pdfrwt>
<totfact> 0.69306050E-01</totfact>
</mgrwt>
</event>
<event>
 6    1  0.1934315E-005  0.2301372E+04  0.7818608E-02  0.8477380E-01
         -2   -1    0    0    0  501 -0.00000000000E+00  0.00000000000E+00  0.13244347464E+04  0.13244347464E+04  0.00000000000E+00 0. -1.
          2   -1    0    0  501    0  0.00000000000E+00 -0.00000000000E+00 -0.99973096725E+03  0.99973096725E+03  0.00000000000E+00 0.  1.
         23    2    1    2    0    0  0.76071180381E+03  0.46906759971E+03 -0.56649667541E+03  0.10620464199E+04  0.91198975521E+02 0.  0.
         13    1    3    3    0    0  0.28482657040E+03  0.17603363258E+03 -0.26517875526E+03  0.42712268407E+03  0.00000000000E+00 0. -1.
        -13    1    3    3    0    0  0.47588523341E+03  0.29303396713E+03 -0.30131792016E+03  0.63492373580E+03  0.00000000000E+00 0.  1.
         22    1    1    2    0    0 -0.76071180381E+03 -0.46906759971E+03  0.89120045461E+03  0.12621192938E+04  0.00000000000E+00 0. -1.
<mgrwt>
<rscale>  0 0.23013721E+04</rscale>
<asrwt>0</asrwt>
<pdfrwt beam="1">  1        2 0.15380476E+00 0.23013721E+04</pdfrwt>
<pdfrwt beam="2">  1       -2 0.20375919E+00 0.23013721E+04</pdfrwt>
<totfact> 0.28701171E+00</totfact>
</mgrwt>
</event>
<event>
 6    1  0.1934315E-005  0.1436272E+04  0.7818608E-02  0.8927974E-01
         -2   -1    0    0    0  501 -0.00000000000E+00  0.00000000000E+00  0.29981786082E+03  0.29981786082E+03  0.00000000000E+00 0. -1.
          2   -1    0    0  501    0  0.00000000000E+00 -0.00000000000E+00 -0.17201075905E+04  0.17201075905E+04  0.00000000000E+00 0.  1.
         23    2    1    2    0    0 -0.71505454610E+03  0.51642065731E+00 -0.73938491016E+03  0.10325376633E+04  0.90225884775E+02 0.  0.
         13    1    3    3    0    0 -0.20007762376E+03 -0.33325615382E+02 -0.17654599190E+03  0.26890544699E+03  0.00000000000E+00 0. -1.
        -13    1    3    3    0    0 -0.51497692234E+03  0.33842036040E+02 -0.56283891826E+03  0.76363221635E+03  0.00000000000E+00 0.  1.
         22    1    1    2    0    0  0.71505454610E+03 -0.51642065731E+00 -0.68090481954E+03  0.98738778798E+03  0.00000000000E+00 0. -1.
<mgrwt>
<rscale>  0 0.14362715E+04</rscale>
<asrwt>0</asrwt>
<pdfrwt beam="1">  1        2 0.26463194E+00 0.14362715E+04</pdfrwt>
<pdfrwt beam="2">  1       -2 0.46125824E-01 0.14362715E+04</pdfrwt>
<totfact> 0.41343166E+01</totfact>
</mgrwt>
</event>
<event>
 6    1  0.1934315E-005  0.9678911E+03  0.7818608E-02  0.9344480E-01
         -1   -1    0    0    0  501 -0.00000000000E+00  0.00000000000E+00  0.31702711443E+03  0.31702711443E+03  0.00000000000E+00 0. -1.
          1   -1    0    0  501    0  0.00000000000E+00 -0.00000000000E+00 -0.73874848607E+03  0.73874848607E+03  0.00000000000E+00 0.  1.
         23    2    1    2    0    0 -0.26450344248E+03  0.22965737778E+03  0.14507864454E+03  0.38946723302E+03  0.89063630284E+02 0.  0.
         11    1    3    3    0    0 -0.12275113391E+03  0.14490473363E+03  0.41099909709E+02  0.19430498008E+03  0.00000000000E+00 0.  1.
        -11    1    3    3    0    0 -0.14175230857E+03  0.84752644148E+02  0.10397873483E+03  0.19516225294E+03  0.00000000000E+00 0. -1.
         22    1    1    2    0    0  0.26450344248E+03 -0.22965737778E+03 -0.56680001618E+03  0.66630836749E+03  0.00000000000E+00 0.  1.
<mgrwt>
<rscale>  0 0.96789111E+03</rscale>
<asrwt>0</asrwt>
<pdfrwt beam="1">  1        1 0.11365361E+00 0.96789111E+03</pdfrwt>
<pdfrwt beam="2">  1       -1 0.48773403E-01 0.96789111E+03</pdfrwt>
<totfact> 0.10594626E+02</totfact>
</mgrwt>
</event>
<event>
 6    1  0.1934315E-005  0.1890948E+04  0.7818608E-02  0.8659375E-01
         -2   -1    0    0    0  501 -0.00000000000E+00  0.00000000000E+00  0.58782288202E+03  0.58782288202E+03  0.00000000000E+00 0. -1.
          2   -1    0    0  501    0  0.00000000000E+00 -0.00000000000E+00 -0.15207317160E+04  0.15207317160E+04  0.00000000000E+00 0.  1.
         23    2    1    2    0    0 -0.59829080397E+03  0.69016741637E+03 -0.72927683988E+03  0.11727400129E+04  0.95872205735E+02 0.  0.
         11    1    3    3    0    0 -0.22960071494E+03  0.33160985888E+03 -0.29665545556E+03  0.50068557611E+03  0.00000000000E+00 0.  1.
        -11    1    3    3    0    0 -0.36869008903E+03  0.35855755748E+03 -0.43262138432E+03  0.67205443675E+03  0.00000000000E+00 0. -1.
         22    1    1    2    0    0  0.59829080397E+03 -0.69016741637E+03 -0.20363199406E+03  0.93581458512E+03  0.00000000000E+00 0.  1.
<mgrwt>
<rscale>  0 0.18909478E+04</rscale>
<asrwt>0</asrwt>
<pdfrwt beam="1">  1        2 0.23395872E+00 0.18909478E+04</pdfrwt>
<pdfrwt beam="2">  1       -2 0.90434292E-01 0.18909478E+04</pdfrwt>
<totfact> 0.12103888E+01</totfact>
</mgrwt>
</event>
<event>
 6    1  0.1934315E-005  0.6991617E+04  0.7818608E-02  0.7578301E-01
          2   -1    0    0  501    0  0.00000000000E+00  0.00000000000E+00  0.31220085587E+04  0.31220085587E+04  0.00000000000E+00 0.  1.
         -2   -1    0    0    0  501 -0.00000000000E+00 -0.00000000000E+00 -0.39143633285E+04  0.39143633285E+04  0.00000000000E+00 0. -1.
         23    2    1    2    0    0  0.22764621060E+04  0.22930543625E+04 -0.17373095020E+04  0.36698725963E+04  0.96656806127E+02 0.  0.
         11    1    3    3    0    0  0.13797645280E+04  0.14237117356E+04 -0.10196918416E+04  0.22294565953E+04  0.00000000000E+00 0.  1.
        -11    1    3    3    0    0  0.89669757808E+03  0.86934262694E+03 -0.71761766031E+03  0.14404160010E+04  0.00000000000E+00 0. -1.
         22    1    1    2    0    0 -0.22764621060E+04 -0.22930543625E+04  0.94495473222E+03  0.33664992909E+04  0.00000000000E+00 0.  1.
<mgrwt>
<rscale>  0 0.69916166E+04</rscale>
<asrwt>0</asrwt>
<pdfrwt beam="1">  1        2 0.48030901E+00 0.69916166E+04</pdfrwt>
<pdfrwt beam="2">  1       -2 0.60220974E+00 0.69916166E+04</pdfrwt>
<totfact> 0.46546540E-04</totfact>
</mgrwt>
</event>
<event>
 6    1  0.1934315E-005  0.2177787E+04  0.7818608E-02  0.8527731E-01
         -2   -1    0    0    0  501 -0.00000000000E+00  0.00000000000E+00  0.14119300371E+04  0.14119300371E+04  0.00000000000E+00 0.  1.
          2   -1    0    0  501    0  0.00000000000E+00 -0.00000000000E+00 -0.83976459463E+03  0.83976459463E+03  0.00000000000E+00 0. -1.
         23    2    1    2    0    0  0.84178130971E+03 -0.49471237506E+03  0.78060971803E+03  0.12533033640E+04  0.89898181273E+02 0.  0.
         11    1    3    3    0    0  0.68690335906E+03 -0.41822136675E+03  0.59983563537E+03  0.10032687206E+04  0.00000000000E+00 0.  1.
        -11    1    3    3    0    0  0.15487795065E+03 -0.76491008313E+02  0.18077408266E+03  0.25003464343E+03  0.00000000000E+00 0. -1.
         22    1    1    2    0    0 -0.84178130971E+03  0.49471237506E+03 -0.20844427555E+03  0.99839126770E+03  0.00000000000E+00 0. -1.
<mgrwt>
<rscale>  0 0.21777868E+04</rscale>
<asrwt>0</asrwt>
<pdfrwt beam="1">  1        2 0.12919455E+00 0.21777868E+04</pdfrwt>
<pdfrwt beam="2">  1       -2 0.21722001E+00 0.21777868E+04</pdfrwt>
<totfact> 0.30404315E+00</totfact>
</mgrwt>
</event>
<event>
 6    1  0.1934315E-005  0.1913530E+04  0.7818608E-02  0.8648151E-01
          2   -1    0    0  501    0  0.00000000000E+00  0.00000000000E+00  0.84026808842E+03  0.84026808842E+03  0.00000000000E+00 0.  1.
         -2   -1    0    0    0  501 -0.00000000000E+00 -0.00000000000E+00 -0.10894130239E+04  0.10894130239E+04  0.00000000000E+00 0. -1.
         23    2    1    2    0    0 -0.12840287492E+03 -0.72953892731E+03 -0.73241820998E+03  0.10452222932E+04  0.85667165071E+02 0.  0.
         13    1    3    3    0    0 -0.55410757916E+02 -0.19644738606E+03 -0.24827244937E+03  0.32140494194E+03  0.00000000000E+00 0. -1.
        -13    1    3    3    0    0 -0.72992117007E+02 -0.53309154126E+03 -0.48414576061E+03  0.72381735128E+03  0.00000000000E+00 0.  1.
         22    1    1    2    0    0  0.12840287492E+03  0.72953892731E+03  0.48327327454E+03  0.88445881907E+03  0.00000000000E+00 0.  1.
<mgrwt>
<rscale>  0 0.19135297E+04</rscale>
<asrwt>0</asrwt>
<pdfrwt beam="1">  1        2 0.12927201E+00 0.19135297E+04</pdfrwt>
<pdfrwt beam="2">  1       -2 0.16760200E+00 0.19135297E+04</pdfrwt>
<totfact> 0.66849814E+00</totfact>
</mgrwt>
</event>
<event>
 6    1  0.1934315E-005  0.1665330E+04  0.7818608E-02  0.8781389E-01
         -2   -1    0    0    0  501 -0.00000000000E+00  0.00000000000E+00  0.71234768733E+03  0.71234768733E+03  0.00000000000E+00 0. -1.
          2   -1    0    0  501    0  0.00000000000E+00 -0.00000000000E+00 -0.97330399565E+03  0.97330399565E+03  0.00000000000E+00 0.  1.
         23    2    1    2    0    0 -0.19158565603E+03  0.67456465070E+03  0.32174213223E+03  0.77390610213E+03  0.60581545840E+02 0.  0.
         13    1    3    3    0    0 -0.17354625570E+03  0.53473328885E+03  0.24347249578E+03  0.61264741024E+03  0.00000000000E+00 0. -1.
        -13    1    3    3    0    0 -0.18039400330E+02  0.13983136184E+03  0.78269636453E+02  0.16125869189E+03  0.00000000000E+00 0.  1.
         22    1    1    2    0    0  0.19158565603E+03 -0.67456465070E+03 -0.58269844056E+03  0.91174558085E+03  0.00000000000E+00 0.  1.
<mgrwt>
<rscale>  0 0.16653298E+04</rscale>
<asrwt>0</asrwt>
<pdfrwt beam="1">  1        2 0.14973908E+00 0.16653298E+04</pdfrwt>
<pdfrwt beam="2">  1       -2 0.10959195E+00 0.16653298E+04</pdfrwt>
<totfact> 0.16582138E+01</totfact>
</mgrwt>
</event>
<event>
 6    1  0.1934315E-005  0.1358428E+04  0.7818608E-02  0.8984473E-01
         -2   -1    0    0    0  501 -0.00000000000E+00  0.00000000000E+00  0.25804895062E+03  0.25804895062E+03  0.00000000000E+00 0. -1.
          2   -1    0    0  501    0  0.00000000000E+00 -0.00000000000E+00 -0.17877678293E+04  0.17877678293E+04  0.00000000000E+00 0.  1.
         23    2    1    2    0    0 -0.48715978894E+03  0.42085837992E+03 -0.46857123366E+03  0.80465572653E+03  0.11604051585E+03 0.  0.
         13    1    3    3    0    0 -0.17488961047E+03  0.22502604489E+03 -0.18790500235E+03  0.34136693841E+03  0.00000000000E+00 0.  1.
        -13    1    3    3    0    0 -0.31227017847E+03  0.19583233503E+03 -0.28066623131E+03  0.46328878812E+03  0.00000000000E+00 0. -1.
         22    1    1    2    0    0  0.48715978894E+03 -0.42085837992E+03 -0.10611476450E+04  0.12411610534E+04  0.00000000000E+00 0. -1.
<mgrwt>
<rscale>  0 0.13584279E+04</rscale>
<asrwt>0</asrwt>
<pdfrwt beam="1">  1        2 0.27504120E+00 0.13584279E+04</pdfrwt>
<pdfrwt beam="2">  1       -2 0.39699840E-01 0.13584279E+04</pdfrwt>
<totfact> 0.51357304E+01</totfact>
</mgrwt>
</event>
<event>
 6    1  0.1934315E-005  0.2209001E+04  0.7818608E-02  0.8514691E-01
          2   -1    0    0  501    0  0.00000000000E+00  0.00000000000E+00  0.19777415506E+04  0.19777415506E+04  0.00000000000E+00 0.  1.
         -2   -1    0    0    0  501 -0.00000000000E+00 -0.00000000000E+00 -0.61682526284E+03  0.61682526284E+03  0.00000000000E+00 0. -1.
         23    2    1    2    0    0 -0.79795095681E+03 -0.71501288574E+03  0.37581496563E+03  0.11390965214E+04  0.91295346800E+02 0.  0.
         13    1    3    3    0    0 -0.23567201755E+03 -0.18884216968E+03  0.14616156779E+03  0.33550837367E+03  0.00000000000E+00 0. -1.
        -13    1    3    3    0    0 -0.56227893927E+03 -0.52617071606E+03  0.22965339784E+03  0.80358814770E+03  0.00000000000E+00 0.  1.
         22    1    1    2    0    0  0.79795095681E+03  0.71501288574E+03  0.98510132218E+03  0.14554702921E+04  0.00000000000E+00 0. -1.
<mgrwt>
<rscale>  0 0.22090006E+04</rscale>
<asrwt>0</asrwt>
<pdfrwt beam="1">  1        2 0.30426793E+00 0.22090006E+04</pdfrwt>
<pdfrwt beam="2">  1       -2 0.94896195E-01 0.22090006E+04</pdfrwt>
<totfact> 0.58665431E+00</totfact>
</mgrwt>
</event>
<event>
 6    1  0.1934315E-005  0.1027920E+04  0.7818608E-02  0.9278441E-01
          2   -1    0    0  501    0  0.00000000000E+00  0.00000000000E+00  0.18719167601E+04  0.18719167601E+04  0.00000000000E+00 0.  1.
         -2   -1    0    0    0  501 -0.00000000000E+00 -0.00000000000E+00 -0.14111477893E+03  0.14111477893E+03  0.00000000000E+00 0. -1.
         23    2    1    2    0    0 -0.34427738307E+03  0.32466840765E+01  0.13573418697E+03  0.38122924539E+03  0.91512352043E+02 0.  0.
         13    1    3    3    0    0 -0.22673518979E+03 -0.16672859199E+01  0.13439144318E+03  0.26357671773E+03  0.00000000000E+00 0.  1.
        -13    1    3    3    0    0 -0.11754219329E+03  0.49139699964E+01  0.13427437860E+01  0.11765252766E+03  0.00000000000E+00 0. -1.
         22    1    1    2    0    0  0.34427738307E+03 -0.32466840765E+01  0.15950677942E+04  0.16318022936E+04  0.00000000000E+00 0. -1.
<mgrwt>
<rscale>  0 0.10279205E+04</rscale>
<asrwt>0</asrwt>
<pdfrwt beam="1">  1        2 0.28798718E+00 0.10279205E+04</pdfrwt>
<pdfrwt beam="2">  1       -2 0.21709967E-01 0.10279205E+04</pdfrwt>
<totfact> 0.14531714E+02</totfact>
</mgrwt>
</event>
<event>
 6    1  0.1934315E-005  0.1871021E+04  0.7818608E-02  0.8669417E-01
         -2   -1    0    0    0  501 -0.00000000000E+00  0.00000000000E+00  0.53860089392E+03  0.53860089392E+03  0.00000000000E+00 0. -1.
          2   -1    0    0  501    0  0.00000000000E+00 -0.00000000000E+00 -0.16249137065E+04  0.16249137065E+04  0.00000000000E+00 0.  1.
         23    2    1    2    0    0  0.24947465739E+03  0.49681391824E+03  0.32234655493E+03  0.64912268030E+03  0.91603922278E+02 0.  0.
         11    1    3    3    0    0  0.12422370466E+03  0.22894467258E+03  0.99430285222E+02  0.27880741296E+03  0.00000000000E+00 0. -1.
        -11    1    3    3    0    0  0.12525095274E+03  0.26786924566E+03  0.22291626971E+03  0.37031526735E+03  0.00000000000E+00 0.  1.
         22    1    1    2    0    0 -0.24947465739E+03 -0.49681391824E+03 -0.14086593675E+04  0.15143919201E+04  0.00000000000E+00 0.  1.
<mgrwt>
<rscale>  0 0.18710211E+04</rscale>
<asrwt>0</asrwt>
<pdfrwt beam="1">  1        2 0.24998672E+00 0.18710211E+04</pdfrwt>
<pdfrwt beam="2">  1       -2 0.82861678E-01 0.18710211E+04</pdfrwt>
<totfact> 0.12943351E+01</totfact>
</mgrwt>
</event>
<event>
 6    1  0.1934315E-005  0.3800377E+04  0.7818608E-02  0.8046074E-01
         -2   -1    0    0    0  501 -0.00000000000E+00  0.00000000000E+00  0.18207417878E+04  0.18207417878E+04  0.00000000000E+00 0. -1.
          2   -1    0    0  501    0  0.00000000000E+00 -0.00000000000E+00 -0.19831015705E+04  0.19831015705E+04  0.00000000000E+00 0.  1.
         23    2    1    2    0    0 -0.16885212275E+04  0.34462174331E+03 -0.87992753927E+03  0.19370890715E+04  0.90407493922E+02 0.  0.
         11    1    3    3    0    0 -0.13677065483E+04  0.24341543807E+03 -0.71670730024E+03  0.15631831729E+04  0.00000000000E+00 0.  1.
        -11    1    3    3    0    0 -0.32081467921E+03  0.10120630523E+03 -0.16322023903E+03  0.37390589865E+03  0.00000000000E+00 0. -1.
         22    1    1    2    0    0  0.16885212275E+04 -0.34462174331E+03  0.71756775655E+03  0.18667542867E+04  0.00000000000E+00 0. -1.
<mgrwt>
<rscale>  0 0.38003768E+04</rscale>
<asrwt>0</asrwt>
<pdfrwt beam="1">  1        2 0.30509255E+00 0.38003768E+04</pdfrwt>
<pdfrwt beam="2">  1       -2 0.28011412E+00 0.38003768E+04</pdfrwt>
<totfact> 0.23017326E-01</totfact>
</mgrwt>
</event>
<event>
 6    1  0.1934315E-005  0.2412120E+04  0.7818608E-02  0.8434980E-01
          2   -1    0    0  501    0  0.00000000000E+00  0.00000000000E+00  0.17872984347E+04  0.17872984347E+04  0.00000000000E+00 0.  1.
         -2   -1    0    0    0  501 -0.00000000000E+00 -0.00000000000E+00 -0.81384330325E+03  0.81384330325E+03  0.00000000000E+00 0. -1.
         23    2    1    2    0    0 -0.10383861708E+04  0.20840882094E+03 -0.13108941575E+03  0.10708807363E+04  0.89000225201E+02 0.  0.
         11    1    3    3    0    0 -0.28437132949E+03  0.66517979050E+02 -0.75340259435E+02  0.30160876854E+03  0.00000000000E+00 0. -1.
        -11    1    3    3    0    0 -0.75401484133E+03  0.14189084189E+03 -0.55749156315E+02  0.76927196776E+03  0.00000000000E+00 0.  1.
         22    1    1    2    0    0  0.10383861708E+04 -0.20840882094E+03  0.11045445472E+04  0.15302610016E+04  0.00000000000E+00 0.  1.
<mgrwt>
<rscale>  0 0.24121201E+04</rscale>
<asrwt>0</asrwt>
<pdfrwt beam="1">  1        2 0.27496899E+00 0.24121201E+04</pdfrwt>
<pdfrwt beam="2">  1       -2 0.12520666E+00 0.24121201E+04</pdfrwt>
<totfact> 0.37623112E+00</totfact>
</mgrwt>
</event>
<event>
 6    1  0.1934315E-005  0.2626736E+04  0.7818608E-02  0.8359176E-01
          2   -1    0    0  501    0  0.00000000000E+00  0.00000000000E+00  0.23572101303E+04  0.23572101303E+04  0.00000000000E+00 0.  1.
         -2   -1    0    0    0  501 -0.00000000000E+00 -0.00000000000E+00 -0.73177018369E+03  0.73177018369E+03  0.00000000000E+00 0. -1.
         23    2    1    2    0    0  0.34629794109E+03 -0.29135693243E+03  0.22616061867E+04  0.23082635849E+04  0.91690282614E+02 0.  0.
         13    1    3    3    0    0  0.13911592632E+03 -0.17447406360E+03  0.11596588796E+04  0.11809331720E+04  0.00000000000E+00 0. -1.
        -13    1    3    3    0    0  0.20718201477E+03 -0.11688286883E+03  0.11019473071E+04  0.11273304129E+04  0.00000000000E+00 0.  1.
         22    1    1    2    0    0 -0.34629794109E+03  0.29135693243E+03 -0.63616624004E+03  0.78071672906E+03  0.00000000000E+00 0. -1.
<mgrwt>
<rscale>  0 0.26267364E+04</rscale>
<asrwt>0</asrwt>
<pdfrwt beam="1">  1        2 0.36264771E+00 0.26267364E+04</pdfrwt>
<pdfrwt beam="2">  1       -2 0.11258003E+00 0.26267364E+04</pdfrwt>
<totfact> 0.23050876E+00</totfact>
</mgrwt>
</event>
<event>
 6    1  0.1934315E-005  0.6832091E+03  0.7818608E-02  0.9746386E-01
          4   -1    0    0  501    0  0.00000000000E+00  0.00000000000E+00  0.45841013301E+03  0.45841013301E+03  0.00000000000E+00 0.  1.
         -4   -1    0    0    0  501 -0.00000000000E+00 -0.00000000000E+00 -0.25456172050E+03  0.25456172050E+03  0.00000000000E+00 0. -1.
         23    2    1    2    0    0  0.10996872230E+03 -0.17270224552E+03  0.37919813297E+03  0.44340421829E+03  0.10438817582E+03 0.  0.
         13    1    3    3    0    0  0.10178814988E+03 -0.17315051666E+03  0.28396315491E+03  0.34781748406E+03  0.00000000000E+00 0.  1.
        -13    1    3    3    0    0  0.81805724213E+01  0.44827113793E+00  0.95234978068E+02  0.95586734225E+02  0.00000000000E+00 0. -1.
         22    1    1    2    0    0 -0.10996872230E+03  0.17270224552E+03 -0.17534972046E+03  0.26956763522E+03  0.00000000000E+00 0. -1.
<mgrwt>
<rscale>  0 0.68320911E+03</rscale>
<asrwt>0</asrwt>
<pdfrwt beam="1">  1        4 0.70524636E-01 0.68320911E+03</pdfrwt>
<pdfrwt beam="2">  1       -4 0.39163342E-01 0.68320911E+03</pdfrwt>
<totfact> 0.23225866E+01</totfact>
</mgrwt>
</event>
<event>
 6    1  0.1934315E-005  0.1903443E+04  0.7818608E-02  0.8653145E-01
         -2   -1    0    0    0  501 -0.00000000000E+00  0.00000000000E+00  0.35058101312E+03  0.35058101312E+03  0.00000000000E+00 0. -1.
          2   -1    0    0  501    0  0.00000000000E+00 -0.00000000000E+00 -0.25836354807E+04  0.25836354807E+04  0.00000000000E+00 0.  1.
         23    2    1    2    0    0  0.41432673384E+03  0.23182178749E+03 -0.23867082425E+04  0.24351999950E+04  0.91732203259E+02 0.  0.
         13    1    3    3    0    0  0.28755383669E+03  0.18062874445E+03 -0.18772105874E+04  0.19076775256E+04  0.00000000000E+00 0. -1.
        -13    1    3    3    0    0  0.12677289715E+03  0.51193043033E+02 -0.50949765518E+03  0.52752246942E+03  0.00000000000E+00 0.  1.
         22    1    1    2    0    0 -0.41432673384E+03 -0.23182178749E+03  0.15365377497E+03  0.49901649881E+03  0.00000000000E+00 0. -1.
<mgrwt>
<rscale>  0 0.19034427E+04</rscale>
<asrwt>0</asrwt>
<pdfrwt beam="1">  1        2 0.39748237E+00 0.19034427E+04</pdfrwt>
<pdfrwt beam="2">  1       -2 0.53935542E-01 0.19034427E+04</pdfrwt>
<totfact> 0.94424990E+00</totfact>
</mgrwt>
</event>
<event>
 6    1  0.2006087E-005  0.2714705E+04  0.7818608E-02  0.8330249E-01
          2   -1    0    0  501    0  0.00000000000E+00  0.00000000000E+00  0.38878487881E+04  0.38878487881E+04  0.00000000000E+00 0.  1.
         -2   -1    0    0    0  501 -0.00000000000E+00 -0.00000000000E+00 -0.47388820341E+03  0.47388820341E+03  0.00000000000E+00 0. -1.
         23    2    1    2    0    0  0.12899295678E+04  0.46570953684E+02  0.10374217246E+04  0.16572917439E+04  0.65459500816E+02 0.  0.
         13    1    3    3    0    0  0.74957569255E+03 -0.31465593844E+01  0.61650485301E+03  0.97054204107E+03  0.00000000000E+00 0.  1.
        -13    1    3    3    0    0  0.54035387524E+03  0.49717513069E+02  0.42091687157E+03  0.68674970285E+03  0.00000000000E+00 0. -1.
         22    1    1    2    0    0 -0.12899295678E+04 -0.46570953684E+02  0.23765388601E+04  0.27044452476E+04  0.00000000000E+00 0. -1.
<mgrwt>
<rscale>  0 0.27147049E+04</rscale>
<asrwt>0</asrwt>
<pdfrwt beam="1">  1        2 0.59813056E+00 0.27147049E+04</pdfrwt>
<pdfrwt beam="2">  1       -2 0.72905880E-01 0.27147049E+04</pdfrwt>
<totfact> 0.62656755E-01</totfact>
</mgrwt>
</event>
<event>
 6    1  0.1934315E-005  0.2159944E+04  0.7818608E-02  0.8535288E-01
         -2   -1    0    0    0  501 -0.00000000000E+00  0.00000000000E+00  0.13028855611E+04  0.13028855611E+04  0.00000000000E+00 0. -1.
          2   -1    0    0  501    0  0.00000000000E+00 -0.00000000000E+00 -0.89519720517E+03  0.89519720517E+03  0.00000000000E+00 0.  1.
         23    2    1    2    0    0 -0.13499790309E+03  0.49349513198E+03 -0.76150526860E+03  0.92184783069E+03  0.90284382500E+02 0.  0.
         11    1    3    3    0    0 -0.95855394335E+02  0.24072408556E+03 -0.32169578379E+03  0.41306720918E+03  0.00000000000E+00 0. -1.
        -11    1    3    3    0    0 -0.39142508759E+02  0.25277104642E+03 -0.43980948481E+03  0.50878062151E+03  0.00000000000E+00 0.  1.
         22    1    1    2    0    0  0.13499790309E+03 -0.49349513198E+03  0.11691936245E+04  0.12762349356E+04  0.00000000000E+00 0. -1.
<mgrwt>
<rscale>  0 0.21599440E+04</rscale>
<asrwt>0</asrwt>
<pdfrwt beam="1">  1        2 0.13772265E+00 0.21599440E+04</pdfrwt>
<pdfrwt beam="2">  1       -2 0.20044393E+00 0.21599440E+04</pdfrwt>
<totfact> 0.35778041E+00</totfact>
</mgrwt>
</event>
<event>
 6    1  0.1934315E-005  0.1736963E+04  0.7818608E-02  0.8740559E-01
          2   -1    0    0  501    0  0.00000000000E+00  0.00000000000E+00  0.17363011169E+04  0.17363011169E+04  0.00000000000E+00 0. -1.
         -2   -1    0    0    0  501 -0.00000000000E+00 -0.00000000000E+00 -0.43440624206E+03  0.43440624206E+03  0.00000000000E+00 0.  1.
         23    2    1    2    0    0  0.62854663350E+03 -0.14963473097E+02 -0.91833525202E+02  0.64172939016E+03  0.89935742762E+02 0.  0.
         13    1    3    3    0    0  0.27545170508E+03 -0.29410988029E+02 -0.16874377516E+01  0.27702255413E+03  0.00000000000E+00 0.  1.
        -13    1    3    3    0    0  0.35309492842E+03  0.14447514931E+02 -0.90146087450E+02  0.36470683603E+03  0.00000000000E+00 0. -1.
         22    1    1    2    0    0 -0.62854663350E+03  0.14963473097E+02  0.13937284001E+04  0.15289779688E+04  0.00000000000E+00 0. -1.
<mgrwt>
<rscale>  0 0.17369629E+04</rscale>
<asrwt>0</asrwt>
<pdfrwt beam="1">  1        2 0.26712325E+00 0.17369629E+04</pdfrwt>
<pdfrwt beam="2">  1       -2 0.66831730E-01 0.17369629E+04</pdfrwt>
<totfact> 0.18259575E+01</totfact>
</mgrwt>
</event>
<event>
 6    1  0.1934315E-005  0.5163632E+04  0.7818608E-02  0.7803750E-01
          2   -1    0    0  501    0  0.00000000000E+00  0.00000000000E+00  0.20601877831E+04  0.20601877831E+04  0.00000000000E+00 0.  1.
         -2   -1    0    0    0  501 -0.00000000000E+00 -0.00000000000E+00 -0.32355173055E+04  0.32355173055E+04  0.00000000000E+00 0. -1.
         23    2    1    2    0    0  0.13477200675E+04 -0.17292192715E+04 -0.19847344513E+04  0.29586802688E+04  0.89829960596E+02 0.  0.
         11    1    3    3    0    0  0.76509114406E+03 -0.99973007478E+03 -0.10813797040E+04  0.16595802919E+04  0.00000000000E+00 0. -1.
        -11    1    3    3    0    0  0.58262892346E+03 -0.72948919674E+03 -0.90335474728E+03  0.12990999769E+04  0.00000000000E+00 0.  1.
         22    1    1    2    0    0 -0.13477200675E+04  0.17292192715E+04  0.80940492885E+03  0.23370248198E+04  0.00000000000E+00 0.  1.
<mgrwt>
<rscale>  0 0.51636318E+04</rscale>
<asrwt>0</asrwt>
<pdfrwt beam="1">  1        2 0.31695197E+00 0.51636318E+04</pdfrwt>
<pdfrwt beam="2">  1       -2 0.49777189E+00 0.51636318E+04</pdfrwt>
<totfact> 0.76255999E-03</totfact>
</mgrwt>
</event>
<event>
 6    1  0.1934315E-005  0.1774629E+04  0.7818608E-02  0.8719909E-01
         -2   -1    0    0    0  501 -0.00000000000E+00  0.00000000000E+00  0.19131649644E+04  0.19131649644E+04  0.00000000000E+00 0. -1.
          2   -1    0    0  501    0  0.00000000000E+00 -0.00000000000E+00 -0.41153135609E+03  0.41153135609E+03  0.00000000000E+00 0.  1.
         23    2    1    2    0    0  0.12156809212E+03 -0.60667275437E+02  0.18983305936E+04  0.19053780435E+04  0.91362611081E+02 0.  0.
         11    1    3    3    0    0  0.95527301408E+02 -0.38167670667E+02  0.81035431227E+03  0.81685760559E+03  0.00000000000E+00 0. -1.
        -11    1    3    3    0    0  0.26040790708E+02 -0.22499604770E+02  0.10879762813E+04  0.10885204379E+04  0.00000000000E+00 0.  1.
         22    1    1    2    0    0 -0.12156809212E+03  0.60667275437E+02 -0.39669698526E+03  0.41931827702E+03  0.00000000000E+00 0.  1.
<mgrwt>
<rscale>  0 0.17746294E+04</rscale>
<asrwt>0</asrwt>
<pdfrwt beam="1">  1        2 0.63312517E-01 0.17746294E+04</pdfrwt>
<pdfrwt beam="2">  1       -2 0.29433307E+00 0.17746294E+04</pdfrwt>
<totfact> 0.25116032E+00</totfact>
</mgrwt>
</event>
<event>
 6    1  0.1934315E-005  0.3326901E+04  0.7818608E-02  0.8156084E-01
         -2   -1    0    0    0  501 -0.00000000000E+00  0.00000000000E+00  0.13827612503E+04  0.13827612503E+04  0.00000000000E+00 0.  1.
          2   -1    0    0  501    0  0.00000000000E+00 -0.00000000000E+00 -0.20011168603E+04  0.20011168603E+04  0.00000000000E+00 0. -1.
         23    2    1    2    0    0  0.16137334003E+04 -0.34219818399E+03 -0.51809352989E+03  0.17312173561E+04  0.86357072476E+02 0.  0.
         11    1    3    3    0    0  0.44641939820E+03 -0.13417956379E+03 -0.15032686602E+03  0.48978832272E+03  0.00000000000E+00 0.  1.
        -11    1    3    3    0    0  0.11673140021E+04 -0.20801862020E+03 -0.36776666388E+03  0.12414290334E+04  0.00000000000E+00 0. -1.
         22    1    1    2    0    0 -0.16137334003E+04  0.34219818399E+03 -0.10026208017E+03  0.16526607544E+04  0.00000000000E+00 0.  1.
<mgrwt>
<rscale>  0 0.33269006E+04</rscale>
<asrwt>0</asrwt>
<pdfrwt beam="1">  1        2 0.30786413E+00 0.33269006E+04</pdfrwt>
<pdfrwt beam="2">  1       -2 0.21273250E+00 0.33269006E+04</pdfrwt>
<totfact> 0.61146826E-01</totfact>
</mgrwt>
</event>
<event>
 6    1  0.1934315E-005  0.1152643E+04  0.7818608E-02  0.9155348E-01
         -2   -1    0    0    0  501 -0.00000000000E+00  0.00000000000E+00  0.19946903785E+03  0.19946903785E+03  0.00000000000E+00 0. -1.
          2   -1    0    0  501    0  0.00000000000E+00 -0.00000000000E+00 -0.16651537051E+04  0.16651537051E+04  0.00000000000E+00 0.  1.
         23    2    1    2    0    0  0.91459990743E+02  0.31671431264E+03 -0.14950691430E+04  0.15336600062E+04  0.90600145889E+02 0.  0.
         11    1    3    3    0    0  0.60277749819E+02  0.17588628723E+03 -0.63806117096E+03  0.66459871430E+03  0.00000000000E+00 0.  1.
        -11    1    3    3    0    0  0.31182240925E+02  0.14082802541E+03 -0.85700797207E+03  0.86906129190E+03  0.00000000000E+00 0. -1.
         22    1    1    2    0    0 -0.91459990743E+02 -0.31671431264E+03  0.29384475728E+02  0.33096273680E+03  0.00000000000E+00 0. -1.
<mgrwt>
<rscale>  0 0.11526432E+04</rscale>
<asrwt>0</asrwt>
<pdfrwt beam="1">  1        2 0.25617749E+00 0.11526432E+04</pdfrwt>
<pdfrwt beam="2">  1       -2 0.30687544E-01 0.11526432E+04</pdfrwt>
<totfact> 0.99733775E+01</totfact>
</mgrwt>
</event>
<event>
 6    1  0.1934315E-005  0.1393222E+04  0.7818608E-02  0.8958740E-01
          2   -1    0    0  501    0  0.00000000000E+00  0.00000000000E+00  0.37880723516E+03  0.37880723516E+03  0.00000000000E+00 0.  1.
         -2   -1    0    0    0  501 -0.00000000000E+00 -0.00000000000E+00 -0.12810384308E+04  0.12810384308E+04  0.00000000000E+00 0. -1.
         23    2    1    2    0    0 -0.85624971576E+01 -0.41109916690E+03 -0.11185940957E+04  0.11952073702E+04  0.90510030439E+02 0.  0.
         11    1    3    3    0    0  0.59759396680E+01 -0.75713880185E+02 -0.32067006020E+03  0.32954148603E+03  0.00000000000E+00 0. -1.
        -11    1    3    3    0    0 -0.14538436826E+02 -0.33538528672E+03 -0.79792403548E+03  0.86566588421E+03  0.00000000000E+00 0.  1.
         22    1    1    2    0    0  0.85624971576E+01  0.41109916690E+03  0.21636290001E+03  0.46463829576E+03  0.00000000000E+00 0.  1.
<mgrwt>
<rscale>  0 0.13932216E+04</rscale>
<asrwt>0</asrwt>
<pdfrwt beam="1">  1        2 0.58278037E-01 0.13932216E+04</pdfrwt>
<pdfrwt beam="2">  1       -2 0.19708283E+00 0.13932216E+04</pdfrwt>
<totfact> 0.11435110E+01</totfact>
</mgrwt>
</event>
<event>
 6    1  0.1934315E-005  0.9726505E+03  0.7818608E-02  0.9339061E-01
         -2   -1    0    0    0  501 -0.00000000000E+00  0.00000000000E+00  0.34181397283E+03  0.34181397283E+03  0.00000000000E+00 0. -1.
          2   -1    0    0  501    0  0.00000000000E+00 -0.00000000000E+00 -0.69193266159E+03  0.69193266159E+03  0.00000000000E+00 0.  1.
         23    2    1    2    0    0  0.17894047421E+03 -0.19517156212E+03  0.25159003870E+03  0.37635403888E+03  0.90736889041E+02 0.  0.
         11    1    3    3    0    0  0.70945520555E+02 -0.26535663113E+02  0.98667275184E+02  0.12438906502E+03  0.00000000000E+00 0.  1.
        -11    1    3    3    0    0  0.10799495365E+03 -0.16863589901E+03  0.15292276352E+03  0.25196497386E+03  0.00000000000E+00 0. -1.
         22    1    1    2    0    0 -0.17894047421E+03  0.19517156212E+03 -0.60170872747E+03  0.65739259555E+03  0.00000000000E+00 0.  1.
<mgrwt>
<rscale>  0 0.97265051E+03</rscale>
<asrwt>0</asrwt>
<pdfrwt beam="1">  1        2 0.10645118E+00 0.97265051E+03</pdfrwt>
<pdfrwt beam="2">  1       -2 0.52586765E-01 0.97265051E+03</pdfrwt>
<totfact> 0.14186864E+02</totfact>
</mgrwt>
</event>
<event>
 6    1  0.1934315E-005  0.4526851E+04  0.7818608E-02  0.7905953E-01
         -2   -1    0    0    0  501 -0.00000000000E+00  0.00000000000E+00  0.18979975489E+04  0.18979975489E+04  0.00000000000E+00 0. -1.
          2   -1    0    0  501    0  0.00000000000E+00 -0.00000000000E+00 -0.26992102917E+04  0.26992102917E+04  0.00000000000E+00 0.  1.
         23    2    1    2    0    0  0.16480281981E+04  0.14370654669E+04  0.18944640269E+03  0.21966746414E+04  0.91298645492E+02 0.  0.
         13    1    3    3    0    0  0.18791977842E+03  0.17058754814E+03 -0.68324393757E+01  0.25389099419E+03  0.00000000000E+00 0.  1.
        -13    1    3    3    0    0  0.14601084197E+04  0.12664779188E+04  0.19627884206E+03  0.19427836472E+04  0.00000000000E+00 0. -1.
         22    1    1    2    0    0 -0.16480281981E+04 -0.14370654669E+04 -0.99065914551E+03  0.24005331992E+04  0.00000000000E+00 0.  1.
<mgrwt>
<rscale>  0 0.45268508E+04</rscale>
<asrwt>0</asrwt>
<pdfrwt beam="1">  1        2 0.41526312E+00 0.45268508E+04</pdfrwt>
<pdfrwt beam="2">  1       -2 0.29199962E+00 0.45268508E+04</pdfrwt>
<totfact> 0.71494410E-02</totfact>
</mgrwt>
</event>
<event>
 6    1  0.1934315E-005  0.1080174E+04  0.7818608E-02  0.9224734E-01
         -2   -1    0    0    0  501 -0.00000000000E+00  0.00000000000E+00  0.40685855005E+03  0.40685855005E+03  0.00000000000E+00 0. -1.
          2   -1    0    0  501    0  0.00000000000E+00 -0.00000000000E+00 -0.71694198304E+03  0.71694198304E+03  0.00000000000E+00 0.  1.
         23    2    1    2    0    0  0.34991009769E+03 -0.11836003133E+03  0.24849473643E+03  0.45413214885E+03  0.89667168502E+02 0.  0.
         13    1    3    3    0    0  0.28725666119E+03 -0.10258155267E+03  0.15964885381E+03  0.34427767989E+03  0.00000000000E+00 0.  1.
        -13    1    3    3    0    0  0.62653436508E+02 -0.15778478658E+02  0.88845882612E+02  0.10985446897E+03  0.00000000000E+00 0. -1.
         22    1    1    2    0    0 -0.34991009769E+03  0.11836003133E+03 -0.55857816942E+03  0.66966838423E+03  0.00000000000E+00 0.  1.
<mgrwt>
<rscale>  0 0.10801740E+04</rscale>
<asrwt>0</asrwt>
<pdfrwt beam="1">  1        2 0.11029877E+00 0.10801740E+04</pdfrwt>
<pdfrwt beam="2">  1       -2 0.62593623E-01 0.10801740E+04</pdfrwt>
<totfact> 0.93559691E+01</totfact>
</mgrwt>
</event>
<event>
 6    1  0.1934315E-005  0.3125206E+04  0.7818608E-02  0.8208854E-01
          2   -1    0    0  501    0  0.00000000000E+00  0.00000000000E+00  0.12159175262E+04  0.12159175262E+04  0.00000000000E+00 0.  1.
         -2   -1    0    0    0  501 -0.00000000000E+00 -0.00000000000E+00 -0.20081369085E+04  0.20081369085E+04  0.00000000000E+00 0. -1.
         23    2    1    2    0    0  0.86410452954E+03  0.10888509806E+04 -0.11297682119E+04  0.17935956592E+04  0.91302136789E+02 0.  0.
         13    1    3    3    0    0  0.22125431313E+03  0.23791730858E+03 -0.30200492066E+03  0.44358211067E+03  0.00000000000E+00 0. -1.
        -13    1    3    3    0    0  0.64285021641E+03  0.85093367206E+03 -0.82776329124E+03  0.13500135486E+04  0.00000000000E+00 0.  1.
         22    1    1    2    0    0 -0.86410452954E+03 -0.10888509806E+04  0.33754882961E+03  0.14304587755E+04  0.00000000000E+00 0.  1.
<mgrwt>
<rscale>  0 0.31252065E+04</rscale>
<asrwt>0</asrwt>
<pdfrwt beam="1">  1        2 0.18706424E+00 0.31252065E+04</pdfrwt>
<pdfrwt beam="2">  1       -2 0.30894414E+00 0.31252065E+04</pdfrwt>
<totfact> 0.43972154E-01</totfact>
</mgrwt>
</event>
<event>
 6    1  0.1934315E-005  0.1731553E+04  0.7818608E-02  0.8743571E-01
          2   -1    0    0  501    0  0.00000000000E+00  0.00000000000E+00  0.34002016747E+04  0.34002016747E+04  0.00000000000E+00 0.  1.
         -2   -1    0    0    0  501 -0.00000000000E+00 -0.00000000000E+00 -0.22044828785E+03  0.22044828785E+03  0.00000000000E+00 0. -1.
         23    2    1    2    0    0 -0.76137095663E+03  0.27644866868E+03  0.96960689569E+03  0.12667474343E+04  0.91662043112E+02 0.  0.
         13    1    3    3    0    0 -0.22195269872E+03  0.11317998347E+03  0.25312255320E+03  0.35516719452E+03  0.00000000000E+00 0.  1.
        -13    1    3    3    0    0 -0.53941825791E+03  0.16326868521E+03  0.71648434249E+03  0.91158023979E+03  0.00000000000E+00 0. -1.
         22    1    1    2    0    0  0.76137095663E+03 -0.27644866868E+03  0.22101464911E+04  0.23539025282E+04  0.00000000000E+00 0.  1.
<mgrwt>
<rscale>  0 0.17315526E+04</rscale>
<asrwt>0</asrwt>
<pdfrwt beam="1">  1        2 0.52310791E+00 0.17315526E+04</pdfrwt>
<pdfrwt beam="2">  1       -2 0.33915124E-01 0.17315526E+04</pdfrwt>
<totfact> 0.74214109E+00</totfact>
</mgrwt>
</event>
<event>
 6    1  0.1934315E-005  0.2078834E+04  0.7818608E-02  0.8570625E-01
         -2   -1    0    0    0  501 -0.00000000000E+00  0.00000000000E+00  0.46187293236E+03  0.46187293236E+03  0.00000000000E+00 0. -1.
          2   -1    0    0  501    0  0.00000000000E+00 -0.00000000000E+00 -0.23391452857E+04  0.23391452857E+04  0.00000000000E+00 0.  1.
         23    2    1    2    0    0 -0.10258743398E+04  0.13842776146E+03 -0.84821794996E+03  0.13413835475E+04  0.90861018141E+02 0.  0.
         13    1    3    3    0    0 -0.50298709142E+03  0.26927627508E+02 -0.43781115066E+03  0.66738273495E+03  0.00000000000E+00 0. -1.
        -13    1    3    3    0    0 -0.52288724843E+03  0.11150013395E+03 -0.41040679929E+03  0.67400081257E+03  0.00000000000E+00 0.  1.
         22    1    1    2    0    0  0.10258743398E+04 -0.13842776146E+03 -0.10290544034E+04  0.14596346705E+04  0.00000000000E+00 0. -1.
<mgrwt>
<rscale>  0 0.20788342E+04</rscale>
<asrwt>0</asrwt>
<pdfrwt beam="1">  1        2 0.35986851E+00 0.20788342E+04</pdfrwt>
<pdfrwt beam="2">  1       -2 0.71057373E-01 0.20788342E+04</pdfrwt>
<totfact> 0.71529613E+00</totfact>
</mgrwt>
</event>
<event>
 6    1  0.1934315E-005  0.2781067E+04  0.7818608E-02  0.8309171E-01
          2   -1    0    0  501    0  0.00000000000E+00  0.00000000000E+00  0.15102615424E+04  0.15102615424E+04  0.00000000000E+00 0.  1.
         -2   -1    0    0    0  501 -0.00000000000E+00 -0.00000000000E+00 -0.12802968710E+04  0.12802968710E+04  0.00000000000E+00 0. -1.
         23    2    1    2    0    0 -0.61162377255E+03 -0.11727973779E+04  0.54042550122E+03  0.14319108301E+04  0.93656683774E+02 0.  0.
         13    1    3    3    0    0 -0.46289208632E+03 -0.80411649244E+03  0.39843764947E+03  0.10097648130E+04  0.00000000000E+00 0.  1.
        -13    1    3    3    0    0 -0.14873168623E+03 -0.36868088543E+03  0.14198785175E+03  0.42214601717E+03  0.00000000000E+00 0. -1.
         22    1    1    2    0    0  0.61162377255E+03  0.11727973779E+04 -0.31046082977E+03  0.13586475833E+04  0.00000000000E+00 0. -1.
<mgrwt>
<rscale>  0 0.27810668E+04</rscale>
<asrwt>0</asrwt>
<pdfrwt beam="1">  1        2 0.23234793E+00 0.27810668E+04</pdfrwt>
<pdfrwt beam="2">  1       -2 0.19696875E+00 0.27810668E+04</pdfrwt>
<totfact> 0.15204017E+00</totfact>
</mgrwt>
</event>
<event>
 6    1  0.1934315E-005  0.5763960E+04  0.7818608E-02  0.7720377E-01
         -2   -1    0    0    0  501 -0.00000000000E+00  0.00000000000E+00  0.15821917429E+04  0.15821917429E+04  0.00000000000E+00 0.  1.
          2   -1    0    0  501    0  0.00000000000E+00 -0.00000000000E+00 -0.52495582981E+04  0.52495582981E+04  0.00000000000E+00 0. -1.
         23    2    1    2    0    0  0.25683188273E+04 -0.53188732533E+03 -0.32477546115E+04  0.41755798829E+04  0.91605765916E+02 0.  0.
         11    1    3    3    0    0  0.23819582243E+04 -0.47013207100E+03 -0.29917623050E+04  0.38529716890E+04  0.00000000000E+00 0. -1.
        -11    1    3    3    0    0  0.18636060304E+03 -0.61755254329E+02 -0.25599230649E+03  0.32260819392E+03  0.00000000000E+00 0.  1.
         22    1    1    2    0    0 -0.25683188273E+04  0.53188732533E+03 -0.41961194369E+03  0.26561701581E+04  0.00000000000E+00 0.  1.
<mgrwt>
<rscale>  0 0.57639597E+04</rscale>
<asrwt>0</asrwt>
<pdfrwt beam="1">  1        2 0.80762435E+00 0.57639597E+04</pdfrwt>
<pdfrwt beam="2">  1       -2 0.24341411E+00 0.57639597E+04</pdfrwt>
<totfact> 0.73352703E-04</totfact>
</mgrwt>
</event>
<event>
 6    1  0.1934315E-005  0.1779784E+04  0.7818608E-02  0.8717124E-01
         -2   -1    0    0    0  501 -0.00000000000E+00  0.00000000000E+00  0.17241834037E+04  0.17241834037E+04  0.00000000000E+00 0. -1.
          2   -1    0    0  501    0  0.00000000000E+00 -0.00000000000E+00 -0.45929457116E+03  0.45929457116E+03  0.00000000000E+00 0.  1.
         23    2    1    2    0    0 -0.10747859345E+03  0.11692932449E+02  0.17147167307E+04  0.17208404162E+04  0.96694874024E+02 0.  0.
         11    1    3    3    0    0 -0.11708928813E+03  0.99650843304E+01  0.11399858734E+04  0.11460266122E+04  0.00000000000E+00 0. -1.
        -11    1    3    3    0    0  0.96106946743E+01  0.17278481187E+01  0.57473085735E+03  0.57481380402E+03  0.00000000000E+00 0.  1.
         22    1    1    2    0    0  0.10747859345E+03 -0.11692932449E+02 -0.44982789817E+03  0.46263755867E+03  0.00000000000E+00 0.  1.
<mgrwt>
<rscale>  0 0.17797843E+04</rscale>
<asrwt>0</asrwt>
<pdfrwt beam="1">  1        2 0.70660705E-01 0.17797843E+04</pdfrwt>
<pdfrwt beam="2">  1       -2 0.26525898E+00 0.17797843E+04</pdfrwt>
<totfact> 0.33297575E+00</totfact>
</mgrwt>
</event>
<event>
 6    1  0.1934315E-005  0.3494756E+03  0.7818608E-02  0.1062830E+00
          2   -1    0    0  501    0  0.00000000000E+00  0.00000000000E+00  0.57188821370E+03  0.57188821370E+03  0.00000000000E+00 0.  1.
         -2   -1    0    0    0  501 -0.00000000000E+00 -0.00000000000E+00 -0.53390337427E+02  0.53390337427E+02  0.00000000000E+00 0. -1.
         23    2    1    2    0    0  0.11243026316E+03 -0.11330901928E+03  0.33124158235E+03  0.37922079868E+03  0.92778932706E+02 0.  0.
         11    1    3    3    0    0  0.10615457224E+03 -0.48346009377E+02  0.17990355332E+03  0.21440946417E+03  0.00000000000E+00 0. -1.
        -11    1    3    3    0    0  0.62756909126E+01 -0.64963009900E+02  0.15133802904E+03  0.16481133451E+03  0.00000000000E+00 0.  1.
         22    1    1    2    0    0 -0.11243026316E+03  0.11330901928E+03  0.18725629392E+03  0.24605775244E+03  0.00000000000E+00 0. -1.
<mgrwt>
<rscale>  0 0.34947563E+03</rscale>
<asrwt>0</asrwt>
<pdfrwt beam="1">  1        2 0.87982798E-01 0.34947563E+03</pdfrwt>
<pdfrwt beam="2">  1       -2 0.82138984E-02 0.34947563E+03</pdfrwt>
<totfact> 0.48593716E+03</totfact>
</mgrwt>
</event>
<event>
 6    1  0.1934315E-005  0.2296841E+04  0.7818608E-02  0.8479168E-01
         -2   -1    0    0    0  501 -0.00000000000E+00  0.00000000000E+00  0.45481297006E+03  0.45481297006E+03  0.00000000000E+00 0. -1.
          2   -1    0    0  501    0  0.00000000000E+00 -0.00000000000E+00 -0.28998060475E+04  0.28998060475E+04  0.00000000000E+00 0.  1.
         23    2    1    2    0    0  0.15104166155E+03 -0.69152471336E+03 -0.25418934263E+04  0.26401893917E+04  0.91421117382E+02 0.  0.
         13    1    3    3    0    0  0.35831618747E+02 -0.21737776511E+03 -0.64701464799E+03  0.68349466156E+03  0.00000000000E+00 0.  1.
        -13    1    3    3    0    0  0.11521004281E+03 -0.47414694825E+03 -0.18948787783E+04  0.19566947302E+04  0.00000000000E+00 0. -1.
         22    1    1    2    0    0 -0.15104166155E+03  0.69152471336E+03  0.96900348843E+02  0.71442962587E+03  0.00000000000E+00 0. -1.
<mgrwt>
<rscale>  0 0.22968408E+04</rscale>
<asrwt>0</asrwt>
<pdfrwt beam="1">  1        2 0.44612399E+00 0.22968408E+04</pdfrwt>
<pdfrwt beam="2">  1       -2 0.69971228E-01 0.22968408E+04</pdfrwt>
<totfact> 0.33927286E+00</totfact>
</mgrwt>
</event>
<event>
 6    1  0.1934315E-005  0.1622111E+04  0.7818608E-02  0.8807079E-01
          2   -1    0    0  501    0  0.00000000000E+00  0.00000000000E+00  0.11674593437E+04  0.11674593437E+04  0.00000000000E+00 0.  1.
         -2   -1    0    0    0  501 -0.00000000000E+00 -0.00000000000E+00 -0.56345494954E+03  0.56345494954E+03  0.00000000000E+00 0. -1.
         23    2    1    2    0    0 -0.69299100708E+02 -0.42630865422E+03  0.10322996202E+04  0.11226559314E+04  0.90401330084E+02 0.  0.
         13    1    3    3    0    0 -0.58029919722E+02 -0.29183904152E+03  0.59905586856E+03  0.66888372038E+03  0.00000000000E+00 0. -1.
        -13    1    3    3    0    0 -0.11269180986E+02 -0.13446961270E+03  0.43324375164E+03  0.45377221105E+03  0.00000000000E+00 0.  1.
         22    1    1    2    0    0  0.69299100708E+02  0.42630865422E+03 -0.42829522606E+03  0.60825836179E+03  0.00000000000E+00 0.  1.
<mgrwt>
<rscale>  0 0.16221107E+04</rscale>
<asrwt>0</asrwt>
<pdfrwt beam="1">  1        2 0.17960913E+00 0.16221107E+04</pdfrwt>
<pdfrwt beam="2">  1       -2 0.86685377E-01 0.16221107E+04</pdfrwt>
<totfact> 0.21855787E+01</totfact>
</mgrwt>
</event>
<event>
 6    1  0.1934315E-005  0.5173917E+04  0.7818608E-02  0.7802225E-01
          2   -1    0    0  501    0  0.00000000000E+00  0.00000000000E+00  0.36818530077E+04  0.36818530077E+04  0.00000000000E+00 0.  1.
         -2   -1    0    0    0  501 -0.00000000000E+00 -0.00000000000E+00 -0.18176591844E+04  0.18176591844E+04  0.00000000000E+00 0. -1.
         23    2    1    2    0    0  0.16387296462E+04 -0.19094515222E+04  0.15671586622E+04  0.29658054499E+04  0.92605212666E+02 0.  0.
         13    1    3    3    0    0  0.96801906225E+03 -0.10975113758E+04  0.86270402720E+03  0.16987790803E+04  0.00000000000E+00 0. -1.
        -13    1    3    3    0    0  0.67071058392E+03 -0.81194014634E+03  0.70445463496E+03  0.12670263696E+04  0.00000000000E+00 0.  1.
         22    1    1    2    0    0 -0.16387296462E+04  0.19094515222E+04  0.29703516118E+03  0.25337067423E+04  0.00000000000E+00 0.  1.
<mgrwt>
<rscale>  0 0.51739169E+04</rscale>
<asrwt>0</asrwt>
<pdfrwt beam="1">  1        2 0.56643892E+00 0.51739169E+04</pdfrwt>
<pdfrwt beam="2">  1       -2 0.27963988E+00 0.51739169E+04</pdfrwt>
<totfact> 0.18243157E-02</totfact>
</mgrwt>
</event>
<event>
 6    1  0.1934315E-005  0.3531021E+04  0.7818608E-02  0.8106477E-01
          2   -1    0    0  501    0  0.00000000000E+00  0.00000000000E+00  0.22673077486E+04  0.22673077486E+04  0.00000000000E+00 0. -1.
         -2   -1    0    0    0  501 -0.00000000000E+00 -0.00000000000E+00 -0.13747705756E+04  0.13747705756E+04  0.00000000000E+00 0.  1.
         23    2    1    2    0    0  0.14716087380E+04  0.46356187960E+03 -0.43616869970E+03  0.16059100625E+04  0.90454961716E+02 0.  0.
         13    1    3    3    0    0  0.17459961725E+03  0.86361739160E+02 -0.53316879532E+02  0.20195560398E+03  0.00000000000E+00 0.  1.
        -13    1    3    3    0    0  0.12970091208E+04  0.37720014044E+03 -0.38285182017E+03  0.14039544585E+04  0.00000000000E+00 0. -1.
         22    1    1    2    0    0 -0.14716087380E+04 -0.46356187960E+03  0.13287058727E+04  0.20361682618E+04  0.00000000000E+00 0.  1.
<mgrwt>
<rscale>  0 0.35310214E+04</rscale>
<asrwt>0</asrwt>
<pdfrwt beam="1">  1        2 0.34881658E+00 0.35310214E+04</pdfrwt>
<pdfrwt beam="2">  1       -2 0.21150317E+00 0.35310214E+04</pdfrwt>
<totfact> 0.43427773E-01</totfact>
</mgrwt>
</event>
<event>
 6    1  0.1934315E-005  0.3220227E+04  0.7818608E-02  0.8183496E-01
         -2   -1    0    0    0  501 -0.00000000000E+00  0.00000000000E+00  0.14891303528E+04  0.14891303528E+04  0.00000000000E+00 0. -1.
          2   -1    0    0  501    0  0.00000000000E+00 -0.00000000000E+00 -0.17409256136E+04  0.17409256136E+04  0.00000000000E+00 0.  1.
         23    2    1    2    0    0  0.39166731416E+03 -0.45255283067E+03  0.13720508408E+04  0.14994250088E+04  0.86859069260E+02 0.  0.
         11    1    3    3    0    0  0.27082465022E+03 -0.31270537244E+03  0.10426027427E+04  0.11216733572E+04  0.00000000000E+00 0.  1.
        -11    1    3    3    0    0  0.12084266394E+03 -0.13984745823E+03  0.32944809806E+03  0.37775165164E+03  0.00000000000E+00 0. -1.
         22    1    1    2    0    0 -0.39166731416E+03  0.45255283067E+03 -0.16238461016E+04  0.17306309576E+04  0.00000000000E+00 0.  1.
<mgrwt>
<rscale>  0 0.32202268E+04</rscale>
<asrwt>0</asrwt>
<pdfrwt beam="1">  1        2 0.26783471E+00 0.32202268E+04</pdfrwt>
<pdfrwt beam="2">  1       -2 0.22909698E+00 0.32202268E+04</pdfrwt>
<totfact> 0.67770093E-01</totfact>
</mgrwt>
</event>
<event>
 6    1  0.1934315E-005  0.2470686E+04  0.7818608E-02  0.8413504E-01
         -2   -1    0    0    0  501 -0.00000000000E+00  0.00000000000E+00  0.46591892029E+03  0.46591892029E+03  0.00000000000E+00 0.  1.
          2   -1    0    0  501    0  0.00000000000E+00 -0.00000000000E+00 -0.32754024815E+04  0.32754024815E+04  0.00000000000E+00 0. -1.
         23    2    1    2    0    0  0.11034310162E+03 -0.10546036605E+04 -0.23614438731E+04  0.25901897660E+04  0.91111895086E+02 0.  0.
         11    1    3    3    0    0  0.12437258337E+03 -0.99620650287E+03 -0.22141737025E+04  0.24311439942E+04  0.00000000000E+00 0. -1.
        -11    1    3    3    0    0 -0.14029481757E+02 -0.58397157627E+02 -0.14727017056E+03  0.15904577176E+03  0.00000000000E+00 0.  1.
         22    1    1    2    0    0 -0.11034310162E+03  0.10546036605E+04 -0.44803968816E+03  0.11511316358E+04  0.00000000000E+00 0.  1.
<mgrwt>
<rscale>  0 0.24706857E+04</rscale>
<asrwt>0</asrwt>
<pdfrwt beam="1">  1        2 0.50390806E+00 0.24706857E+04</pdfrwt>
<pdfrwt beam="2">  1       -2 0.71679835E-01 0.24706857E+04</pdfrwt>
<totfact> 0.18264020E+00</totfact>
</mgrwt>
</event>
<event>
 6    1  0.1934315E-005  0.4535031E+04  0.7818608E-02  0.7904532E-01
         -2   -1    0    0    0  501 -0.00000000000E+00  0.00000000000E+00  0.15128706464E+04  0.15128706464E+04  0.00000000000E+00 0. -1.
          2   -1    0    0  501    0  0.00000000000E+00 -0.00000000000E+00 -0.33985902106E+04  0.33985902106E+04  0.00000000000E+00 0.  1.
         23    2    1    2    0    0  0.20936700670E+04 -0.21102798636E+03 -0.18554070849E+04  0.28069642411E+04  0.92334391157E+02 0.  0.
         11    1    3    3    0    0  0.71461261985E+03 -0.36349677552E+02 -0.66474382686E+03  0.97666619214E+03  0.00000000000E+00 0.  1.
        -11    1    3    3    0    0  0.13790574471E+04 -0.17467830881E+03 -0.11906632581E+04  0.18302980490E+04  0.00000000000E+00 0. -1.
         22    1    1    2    0    0 -0.20936700670E+04  0.21102798636E+03 -0.30312479264E+02  0.21044966160E+04  0.00000000000E+00 0. -1.
<mgrwt>
<rscale>  0 0.45350314E+04</rscale>
<asrwt>0</asrwt>
<pdfrwt beam="1">  1        2 0.52286003E+00 0.45350314E+04</pdfrwt>
<pdfrwt beam="2">  1       -2 0.23274933E+00 0.45350314E+04</pdfrwt>
<totfact> 0.59238267E-02</totfact>
</mgrwt>
</event>
<event>
 6    1  0.1934315E-005  0.1221024E+04  0.7818608E-02  0.9094651E-01
         -2   -1    0    0    0  501 -0.00000000000E+00  0.00000000000E+00  0.91726015859E+03  0.91726015859E+03  0.00000000000E+00 0. -1.
          2   -1    0    0  501    0  0.00000000000E+00 -0.00000000000E+00 -0.40634577057E+03  0.40634577057E+03  0.00000000000E+00 0.  1.
         23    2    1    2    0    0 -0.86135528567E+02 -0.15825320036E+02  0.90806544911E+03  0.91691349578E+03  0.92074583085E+02 0.  0.
         13    1    3    3    0    0 -0.44146200054E+02 -0.43824089251E+01  0.78724114302E+03  0.78849014563E+03  0.00000000000E+00 0. -1.
        -13    1    3    3    0    0 -0.41989328514E+02 -0.11442911111E+02  0.12082430608E+03  0.12842335015E+03  0.00000000000E+00 0.  1.
         22    1    1    2    0    0  0.86135528567E+02  0.15825320036E+02 -0.39715106109E+03  0.40669243337E+03  0.00000000000E+00 0.  1.
<mgrwt>
<rscale>  0 0.12210238E+04</rscale>
<asrwt>0</asrwt>
<pdfrwt beam="1">  1        2 0.62514735E-01 0.12210238E+04</pdfrwt>
<pdfrwt beam="2">  1       -2 0.14111695E+00 0.12210238E+04</pdfrwt>
<totfact> 0.27055958E+01</totfact>
</mgrwt>
</event>
<event>
 6    1  0.1934315E-005  0.5725232E+04  0.7818608E-02  0.7725435E-01
         -2   -1    0    0    0  501 -0.00000000000E+00  0.00000000000E+00  0.25418538558E+04  0.25418538558E+04  0.00000000000E+00 0. -1.
          2   -1    0    0  501    0  0.00000000000E+00 -0.00000000000E+00 -0.32238552722E+04  0.32238552722E+04  0.00000000000E+00 0.  1.
         23    2    1    2    0    0  0.83797496678E+03  0.16256145489E+04  0.18757713928E+04  0.26213448917E+04  0.90033420421E+02 0.  0.
         11    1    3    3    0    0  0.49833459701E+03  0.90393687632E+03  0.10090916767E+04  0.14435045061E+04  0.00000000000E+00 0. -1.
        -11    1    3    3    0    0  0.33964036978E+03  0.72167767255E+03  0.86667971611E+03  0.11778403857E+04  0.00000000000E+00 0.  1.
         22    1    1    2    0    0 -0.83797496678E+03 -0.16256145489E+04 -0.25577728093E+04  0.31443642363E+04  0.00000000000E+00 0.  1.
<mgrwt>
<rscale>  0 0.57252315E+04</rscale>
<asrwt>0</asrwt>
<pdfrwt beam="1">  1        2 0.49597773E+00 0.57252315E+04</pdfrwt>
<pdfrwt beam="2">  1       -2 0.39105444E+00 0.57252315E+04</pdfrwt>
<totfact> 0.73007237E-03</totfact>
</mgrwt>
</event>
<event>
 6    1  0.1934315E-005  0.1481935E+04  0.7818608E-02  0.8896555E-01
          2   -1    0    0  501    0  0.00000000000E+00  0.00000000000E+00  0.18574078926E+04  0.18574078926E+04  0.00000000000E+00 0.  1.
         -2   -1    0    0    0  501 -0.00000000000E+00 -0.00000000000E+00 -0.29559104359E+03  0.29559104359E+03  0.00000000000E+00 0. -1.
         23    2    1    2    0    0  0.22217522619E+03 -0.49148280987E+03  0.51617847369E+02  0.54937235619E+03  0.90710528872E+02 0.  0.
         13    1    3    3    0    0  0.15360197088E+03 -0.23602153820E+03  0.11447365891E+02  0.28183465745E+03  0.00000000000E+00 0.  1.
        -13    1    3    3    0    0  0.68573255315E+02 -0.25546127167E+03  0.40170481478E+02  0.26753769874E+03  0.00000000000E+00 0. -1.
         22    1    1    2    0    0 -0.22217522619E+03  0.49148280987E+03  0.15101990017E+04  0.16036265800E+04  0.00000000000E+00 0.  1.
<mgrwt>
<rscale>  0 0.14819354E+04</rscale>
<asrwt>0</asrwt>
<pdfrwt beam="1">  1        2 0.28575505E+00 0.14819354E+04</pdfrwt>
<pdfrwt beam="2">  1       -2 0.45475546E-01 0.14819354E+04</pdfrwt>
<totfact> 0.35575714E+01</totfact>
</mgrwt>
</event>
<event>
 6    1  0.1934315E-005  0.1837097E+04  0.7818608E-02  0.8686817E-01
         -2   -1    0    0    0  501 -0.00000000000E+00  0.00000000000E+00  0.25334480246E+03  0.25334480246E+03  0.00000000000E+00 0. -1.
          2   -1    0    0  501    0  0.00000000000E+00 -0.00000000000E+00 -0.33303659736E+04  0.33303659736E+04  0.00000000000E+00 0.  1.
         23    2    1    2    0    0 -0.14240008995E+03  0.48944684846E+03 -0.56911021470E+02  0.52088506778E+03  0.90809616206E+02 0.  0.
         11    1    3    3    0    0 -0.11813645525E+03  0.35541389487E+03 -0.34257710794E+01  0.37454905504E+03  0.00000000000E+00 0. -1.
        -11    1    3    3    0    0 -0.24263634694E+02  0.13403295359E+03 -0.53485250391E+02  0.14633601274E+03  0.00000000000E+00 0.  1.
         22    1    1    2    0    0  0.14240008995E+03 -0.48944684846E+03 -0.30201101496E+04  0.30628257082E+04  0.00000000000E+00 0.  1.
<mgrwt>
<rscale>  0 0.18370965E+04</rscale>
<asrwt>0</asrwt>
<pdfrwt beam="1">  1        2 0.51236396E+00 0.18370965E+04</pdfrwt>
<pdfrwt beam="2">  1       -2 0.38976126E-01 0.18370965E+04</pdfrwt>
<totfact> 0.62626564E+00</totfact>
</mgrwt>
</event>
<event>
 6    1  0.1934315E-005  0.3646638E+04  0.7818608E-02  0.8079891E-01
          2   -1    0    0  501    0  0.00000000000E+00  0.00000000000E+00  0.42773508470E+04  0.42773508470E+04  0.00000000000E+00 0.  1.
         -2   -1    0    0    0  501 -0.00000000000E+00 -0.00000000000E+00 -0.77723156637E+03  0.77723156637E+03  0.00000000000E+00 0. -1.
         23    2    1    2    0    0 -0.15841902598E+04 -0.55939191166E+03  0.27290730432E+04  0.32060450482E+04  0.91143217786E+02 0.  0.
         11    1    3    3    0    0 -0.41791265806E+03 -0.18801311256E+03  0.71729512594E+03  0.85118283463E+03  0.00000000000E+00 0. -1.
        -11    1    3    3    0    0 -0.11662776017E+04 -0.37137879910E+03  0.20117779173E+04  0.23548622136E+04  0.00000000000E+00 0.  1.
         22    1    1    2    0    0  0.15841902598E+04  0.55939191166E+03  0.77104623746E+03  0.18485373651E+04  0.00000000000E+00 0. -1.
<mgrwt>
<rscale>  0 0.36466380E+04</rscale>
<asrwt>0</asrwt>
<pdfrwt beam="1">  1        2 0.65805396E+00 0.36466380E+04</pdfrwt>
<pdfrwt beam="2">  1       -2 0.11957409E+00 0.36466380E+04</pdfrwt>
<totfact> 0.86088771E-02</totfact>
</mgrwt>
</event>
<event>
 6    1  0.1934315E-005  0.1390190E+04  0.7818608E-02  0.8960950E-01
         -2   -1    0    0    0  501 -0.00000000000E+00  0.00000000000E+00  0.12660284787E+03  0.12660284787E+03  0.00000000000E+00 0. -1.
          2   -1    0    0  501    0  0.00000000000E+00 -0.00000000000E+00 -0.38163215354E+04  0.38163215354E+04  0.00000000000E+00 0.  1.
         23    2    1    2    0    0 -0.56718348468E+01  0.61253498682E+03 -0.93941672242E+03  0.11252316784E+04  0.91712986601E+02 0.  0.
         11    1    3    3    0    0 -0.47622557526E+02  0.27224795722E+03 -0.40724348840E+03  0.49217285281E+03  0.00000000000E+00 0. -1.
        -11    1    3    3    0    0  0.41950722680E+02  0.34028702960E+03 -0.53217323402E+03  0.63305882559E+03  0.00000000000E+00 0.  1.
         22    1    1    2    0    0  0.56718348468E+01 -0.61253498682E+03 -0.27503019651E+04  0.28176927048E+04  0.00000000000E+00 0.  1.
<mgrwt>
<rscale>  0 0.13901902E+04</rscale>
<asrwt>0</asrwt>
<pdfrwt beam="1">  1        2 0.58712637E+00 0.13901902E+04</pdfrwt>
<pdfrwt beam="2">  1       -2 0.19477362E-01 0.13901902E+04</pdfrwt>
<totfact> 0.10664088E+01</totfact>
</mgrwt>
</event>
<event>
 6    1  0.1934315E-005  0.5290470E+04  0.7818608E-02  0.7785197E-01
         -2   -1    0    0    0  501 -0.00000000000E+00  0.00000000000E+00  0.19159912167E+04  0.19159912167E+04  0.00000000000E+00 0. -1.
          2   -1    0    0  501    0  0.00000000000E+00 -0.00000000000E+00 -0.36520358888E+04  0.36520358888E+04  0.00000000000E+00 0.  1.
         23    2    1    2    0    0  0.19180561312E+04 -0.13349298331E+04  0.43429278993E+03  0.23787730108E+04  0.94730289720E+02 0.  0.
         13    1    3    3    0    0  0.14293581374E+04 -0.10244800744E+04  0.36002310951E+03  0.17950600957E+04  0.00000000000E+00 0.  1.
        -13    1    3    3    0    0  0.48869799382E+03 -0.31044975864E+03  0.74269680416E+02  0.58371291509E+03  0.00000000000E+00 0. -1.
         22    1    1    2    0    0 -0.19180561312E+04  0.13349298331E+04 -0.21703374621E+04  0.31892540948E+04  0.00000000000E+00 0.  1.
<mgrwt>
<rscale>  0 0.52904702E+04</rscale>
<asrwt>0</asrwt>
<pdfrwt beam="1">  1        2 0.56185167E+00 0.52904702E+04</pdfrwt>
<pdfrwt beam="2">  1       -2 0.29476788E+00 0.52904702E+04</pdfrwt>
<totfact> 0.15367139E-02</totfact>
</mgrwt>
</event>
<event>
 6    1  0.1934315E-005  0.3447147E+04  0.7818608E-02  0.8126431E-01
          2   -1    0    0  501    0  0.00000000000E+00  0.00000000000E+00  0.37752526977E+04  0.37752526977E+04  0.00000000000E+00 0.  1.
         -2   -1    0    0    0  501 -0.00000000000E+00 -0.00000000000E+00 -0.78688915096E+03  0.78688915096E+03  0.00000000000E+00 0. -1.
         23    2    1    2    0    0 -0.48601964057E+03 -0.16199376692E+04  0.19261808507E+04  0.25649825604E+04  0.92464707394E+02 0.  0.
         11    1    3    3    0    0 -0.22103718989E+03 -0.60109337067E+03  0.76230868190E+03  0.99563306799E+03  0.00000000000E+00 0.  1.
        -11    1    3    3    0    0 -0.26498245068E+03 -0.10188442986E+04  0.11638721688E+04  0.15693494924E+04  0.00000000000E+00 0. -1.
         22    1    1    2    0    0  0.48601964057E+03  0.16199376692E+04  0.10621826961E+04  0.19971592883E+04  0.00000000000E+00 0. -1.
<mgrwt>
<rscale>  0 0.34471469E+04</rscale>
<asrwt>0</asrwt>
<pdfrwt beam="1">  1        2 0.58080810E+00 0.34471469E+04</pdfrwt>
<pdfrwt beam="2">  1       -2 0.12105987E+00 0.34471469E+04</pdfrwt>
<totfact> 0.21939634E-01</totfact>
</mgrwt>
</event>
<event>
 6    1  0.1934315E-005  0.1570161E+04  0.7818608E-02  0.8839092E-01
          2   -1    0    0  501    0  0.00000000000E+00  0.00000000000E+00  0.14595851497E+04  0.14595851497E+04  0.00000000000E+00 0.  1.
         -2   -1    0    0    0  501 -0.00000000000E+00 -0.00000000000E+00 -0.42227863425E+03  0.42227863425E+03  0.00000000000E+00 0. -1.
         23    2    1    2    0    0  0.29389130291E+03  0.19752678207E+03 -0.31575347118E+03  0.48323579375E+03  0.91802234373E+02 0.  0.
         13    1    3    3    0    0  0.15339626702E+03  0.67445879995E+02 -0.19393314501E+03  0.25629948536E+03  0.00000000000E+00 0.  1.
        -13    1    3    3    0    0  0.14049503590E+03  0.13008090208E+03 -0.12182032616E+03  0.22693630838E+03  0.00000000000E+00 0. -1.
         22    1    1    2    0    0 -0.29389130291E+03 -0.19752678207E+03  0.13530599866E+04  0.13986279902E+04  0.00000000000E+00 0.  1.
<mgrwt>
<rscale>  0 0.15701613E+04</rscale>
<asrwt>0</asrwt>
<pdfrwt beam="1">  1        2 0.22455156E+00 0.15701613E+04</pdfrwt>
<pdfrwt beam="2">  1       -2 0.64965944E-01 0.15701613E+04</pdfrwt>
<totfact> 0.28106254E+01</totfact>
</mgrwt>
</event>
<event>
 6    1  0.1934315E-005  0.1812540E+04  0.7818608E-02  0.8699659E-01
         -2   -1    0    0    0  501 -0.00000000000E+00  0.00000000000E+00  0.13052994570E+04  0.13052994570E+04  0.00000000000E+00 0. -1.
          2   -1    0    0  501    0  0.00000000000E+00 -0.00000000000E+00 -0.62922353888E+03  0.62922353888E+03  0.00000000000E+00 0.  1.
         23    2    1    2    0    0 -0.77635634529E+03  0.14518381532E+01 -0.15539491230E+03  0.79694881169E+03  0.90821511662E+02 0.  0.
         11    1    3    3    0    0 -0.39058227552E+03  0.36280674106E+02 -0.49379277807E+02  0.39535947483E+03  0.00000000000E+00 0. -1.
        -11    1    3    3    0    0 -0.38577406977E+03 -0.34828835953E+02 -0.10601563449E+03  0.40158933686E+03  0.00000000000E+00 0.  1.
         22    1    1    2    0    0  0.77635634529E+03 -0.14518381532E+01  0.83147083043E+03  0.11375741842E+04  0.00000000000E+00 0. -1.
<mgrwt>
<rscale>  0 0.18125398E+04</rscale>
<asrwt>0</asrwt>
<pdfrwt beam="1">  1        2 0.96803622E-01 0.18125398E+04</pdfrwt>
<pdfrwt beam="2">  1       -2 0.20081530E+00 0.18125398E+04</pdfrwt>
<totfact> 0.57939453E+00</totfact>
</mgrwt>
</event>
<event>
 6    1  0.1934315E-005  0.2235931E+04  0.7818608E-02  0.8503620E-01
          2   -1    0    0  501    0  0.00000000000E+00  0.00000000000E+00  0.20417345339E+04  0.20417345339E+04  0.00000000000E+00 0.  1.
         -2   -1    0    0    0  501 -0.00000000000E+00 -0.00000000000E+00 -0.61214954968E+03  0.61214954968E+03  0.00000000000E+00 0. -1.
         23    2    1    2    0    0  0.89808443251E+03 -0.56648013942E+03  0.11241226739E+04  0.15490028142E+04  0.91118253663E+02 0.  0.
         11    1    3    3    0    0  0.18511780641E+03 -0.13945225450E+03  0.19975079742E+03  0.30596717896E+03  0.00000000000E+00 0. -1.
        -11    1    3    3    0    0  0.71296662611E+03 -0.42702788492E+03  0.92437187651E+03  0.12430356353E+04  0.00000000000E+00 0.  1.
         22    1    1    2    0    0 -0.89808443251E+03  0.56648013942E+03  0.30546231024E+03  0.11048812693E+04  0.00000000000E+00 0. -1.
<mgrwt>
<rscale>  0 0.22359310E+04</rscale>
<asrwt>0</asrwt>
<pdfrwt beam="1">  1        2 0.31411300E+00 0.22359310E+04</pdfrwt>
<pdfrwt beam="2">  1       -2 0.94176854E-01 0.22359310E+04</pdfrwt>
<totfact> 0.54891306E+00</totfact>
</mgrwt>
</event>
<event>
 6    1  0.1934315E-005  0.1786225E+04  0.7818608E-02  0.8713659E-01
          2   -1    0    0  501    0  0.00000000000E+00  0.00000000000E+00  0.11579123982E+04  0.11579123982E+04  0.00000000000E+00 0.  1.
         -2   -1    0    0    0  501 -0.00000000000E+00 -0.00000000000E+00 -0.68886892838E+03  0.68886892838E+03  0.00000000000E+00 0. -1.
         23    2    1    2    0    0  0.18682546462E+03 -0.82848827037E+03 -0.42760336999E+02  0.85519688487E+03  0.90756251077E+02 0.  0.
         13    1    3    3    0    0  0.50614042255E+02 -0.13969880138E+03  0.21505517030E+02  0.15013335287E+03  0.00000000000E+00 0.  1.
        -13    1    3    3    0    0  0.13621142236E+03 -0.68878946899E+03 -0.64265854028E+02  0.70506353201E+03  0.00000000000E+00 0. -1.
         22    1    1    2    0    0 -0.18682546462E+03  0.82848827037E+03  0.51180380680E+03  0.99158444170E+03  0.00000000000E+00 0.  1.
<mgrwt>
<rscale>  0 0.17862249E+04</rscale>
<asrwt>0</asrwt>
<pdfrwt beam="1">  1        2 0.17814037E+00 0.17862249E+04</pdfrwt>
<pdfrwt beam="2">  1       -2 0.10597983E+00 0.17862249E+04</pdfrwt>
<totfact> 0.13643866E+01</totfact>
</mgrwt>
</event>
<event>
 6    1  0.1934315E-005  0.6099981E+04  0.7818608E-02  0.7678128E-01
         -2   -1    0    0    0  501 -0.00000000000E+00  0.00000000000E+00  0.38671397236E+04  0.38671397236E+04  0.00000000000E+00 0. -1.
          2   -1    0    0  501    0  0.00000000000E+00 -0.00000000000E+00 -0.24055096196E+04  0.24055096196E+04  0.00000000000E+00 0.  1.
         23    2    1    2    0    0  0.22029277242E+04 -0.70302960441E+03 -0.13130029195E+04  0.26607620805E+04  0.92395886646E+02 0.  0.
         13    1    3    3    0    0  0.39861219073E+03 -0.92518566623E+02 -0.24632124263E+03  0.47762487198E+03  0.00000000000E+00 0.  1.
        -13    1    3    3    0    0  0.18043155335E+04 -0.61051103778E+03 -0.10666816769E+04  0.21831372086E+04  0.00000000000E+00 0. -1.
         22    1    1    2    0    0 -0.22029277242E+04  0.70302960441E+03  0.27746330235E+04  0.36118872626E+04  0.00000000000E+00 0. -1.
<mgrwt>
<rscale>  0 0.60999809E+04</rscale>
<asrwt>0</asrwt>
<pdfrwt beam="1">  1        2 0.37007840E+00 0.60999809E+04</pdfrwt>
<pdfrwt beam="2">  1       -2 0.59494457E+00 0.60999809E+04</pdfrwt>
<totfact> 0.14327792E-03</totfact>
</mgrwt>
</event>
<event>
 6    1  0.1934315E-005  0.2538089E+04  0.7818608E-02  0.8389541E-01
         -2   -1    0    0    0  501 -0.00000000000E+00  0.00000000000E+00  0.12094474205E+04  0.12094474205E+04  0.00000000000E+00 0. -1.
          2   -1    0    0  501    0  0.00000000000E+00 -0.00000000000E+00 -0.13315778188E+04  0.13315778188E+04  0.00000000000E+00 0.  1.
         23    2    1    2    0    0 -0.93012431684E+03  0.83342600098E+03 -0.27731454305E+03  0.12825292072E+04  0.90816671122E+02 0.  0.
         11    1    3    3    0    0 -0.55439083257E+03  0.52746254415E+03 -0.20847789142E+03  0.79311346094E+03  0.00000000000E+00 0. -1.
        -11    1    3    3    0    0 -0.37573348426E+03  0.30596345683E+03 -0.68836651627E+02  0.48941574629E+03  0.00000000000E+00 0.  1.
         22    1    1    2    0    0  0.93012431684E+03 -0.83342600098E+03  0.15518414482E+03  0.12584960320E+04  0.00000000000E+00 0. -1.
<mgrwt>
<rscale>  0 0.25380885E+04</rscale>
<asrwt>0</asrwt>
<pdfrwt beam="1">  1        2 0.20485812E+00 0.25380885E+04</pdfrwt>
<pdfrwt beam="2">  1       -2 0.18606884E+00 0.25380885E+04</pdfrwt>
<totfact> 0.23216052E+00</totfact>
</mgrwt>
</event>
<event>
 6    1  0.1934315E-005  0.2200987E+04  0.7818608E-02  0.8518017E-01
         -2   -1    0    0    0  501 -0.00000000000E+00  0.00000000000E+00  0.40519460893E+03  0.40519460893E+03  0.00000000000E+00 0. -1.
          2   -1    0    0  501    0  0.00000000000E+00 -0.00000000000E+00 -0.29888997038E+04  0.29888997038E+04  0.00000000000E+00 0.  1.
         23    2    1    2    0    0  0.33932713685E+02 -0.74750415747E+02 -0.29835519990E+04  0.29859073451E+04  0.85563363530E+02 0.  0.
         11    1    3    3    0    0  0.44307391673E+02 -0.15993483843E+02 -0.70377083192E+03  0.70534553259E+03  0.00000000000E+00 0. -1.
        -11    1    3    3    0    0 -0.10374677989E+02 -0.58756931904E+02 -0.22797811671E+04  0.22805618125E+04  0.00000000000E+00 0.  1.
         22    1    1    2    0    0 -0.33932713685E+02  0.74750415747E+02  0.39984690417E+03  0.40818696756E+03  0.00000000000E+00 0. -1.
<mgrwt>
<rscale>  0 0.22009871E+04</rscale>
<asrwt>0</asrwt>
<pdfrwt beam="1">  1        2 0.45983073E+00 0.22009871E+04</pdfrwt>
<pdfrwt beam="2">  1       -2 0.62337631E-01 0.22009871E+04</pdfrwt>
<totfact> 0.38658971E+00</totfact>
</mgrwt>
</event>
<event>
 6    1  0.1934315E-005  0.2658044E+04  0.7818608E-02  0.8348748E-01
          2   -1    0    0  501    0  0.00000000000E+00  0.00000000000E+00  0.99306853594E+03  0.99306853594E+03  0.00000000000E+00 0.  1.
         -2   -1    0    0    0  501 -0.00000000000E+00 -0.00000000000E+00 -0.17786276272E+04  0.17786276272E+04  0.00000000000E+00 0. -1.
         23    2    1    2    0    0 -0.70242454730E+03  0.10838940708E+04 -0.74073297732E+02  0.12970983753E+04  0.93545391876E+02 0.  0.
         11    1    3    3    0    0 -0.40714276909E+03  0.60158085886E+03  0.25303007894E+01  0.72640977870E+03  0.00000000000E+00 0. -1.
        -11    1    3    3    0    0 -0.29528177821E+03  0.48231321197E+03 -0.76603598522E+02  0.57068859660E+03  0.00000000000E+00 0.  1.
         22    1    1    2    0    0  0.70242454730E+03 -0.10838940708E+04 -0.71148579349E+03  0.14745977878E+04  0.00000000000E+00 0. -1.
<mgrwt>
<rscale>  0 0.26580437E+04</rscale>
<asrwt>0</asrwt>
<pdfrwt beam="1">  1        2 0.15277978E+00 0.26580437E+04</pdfrwt>
<pdfrwt beam="2">  1       -2 0.27363502E+00 0.26580437E+04</pdfrwt>
<totfact> 0.10316899E+00</totfact>
</mgrwt>
</event>
<event>
 6    1  0.2031235E-005  0.3805179E+04  0.7818608E-02  0.8045044E-01
          2   -1    0    0  501    0  0.00000000000E+00  0.00000000000E+00  0.19037168211E+04  0.19037168211E+04  0.00000000000E+00 0.  1.
         -2   -1    0    0    0  501 -0.00000000000E+00 -0.00000000000E+00 -0.19014624692E+04  0.19014624692E+04  0.00000000000E+00 0. -1.
         23    2    1    2    0    0 -0.11802449823E+04  0.52003310566E+03  0.13983891385E+04  0.19044938898E+04  0.90510464901E+02 0.  0.
         11    1    3    3    0    0 -0.14831503158E+03  0.35709192752E+02  0.18103911119E+03  0.23674385909E+03  0.00000000000E+00 0.  1.
        -11    1    3    3    0    0 -0.10319299508E+04  0.48432391290E+03  0.12173500273E+04  0.16677500307E+04  0.00000000000E+00 0. -1.
         22    1    1    2    0    0  0.11802449823E+04 -0.52003310566E+03 -0.13961347866E+04  0.19006854005E+04  0.00000000000E+00 0. -1.
<mgrwt>
<rscale>  0 0.38051786E+04</rscale>
<asrwt>0</asrwt>
<pdfrwt beam="1">  1        2 0.29287951E+00 0.38051786E+04</pdfrwt>
<pdfrwt beam="2">  1       -2 0.29253269E+00 0.38051786E+04</pdfrwt>
<totfact> 0.21387100E-01</totfact>
</mgrwt>
</event>
<event>
 6    1  0.1934315E-005  0.1571348E+04  0.7818608E-02  0.8838346E-01
         -2   -1    0    0    0  501 -0.00000000000E+00  0.00000000000E+00  0.40433633929E+03  0.40433633929E+03  0.00000000000E+00 0. -1.
          2   -1    0    0  501    0  0.00000000000E+00 -0.00000000000E+00 -0.15266578519E+04  0.15266578519E+04  0.00000000000E+00 0.  1.
         23    2    1    2    0    0 -0.54416376598E+03  0.14190384703E+03 -0.12326080014E+04  0.13579200114E+04  0.91506098496E+02 0.  0.
         11    1    3    3    0    0 -0.10663814925E+03  0.45219694123E+01 -0.30518356184E+03  0.32330968049E+03  0.00000000000E+00 0. -1.
        -11    1    3    3    0    0 -0.43752561674E+03  0.13738187762E+03 -0.92742443959E+03  0.10346103309E+04  0.00000000000E+00 0.  1.
         22    1    1    2    0    0  0.54416376598E+03 -0.14190384703E+03  0.11028648878E+03  0.57307417986E+03  0.00000000000E+00 0. -1.
<mgrwt>
<rscale>  0 0.15713475E+04</rscale>
<asrwt>0</asrwt>
<pdfrwt beam="1">  1        2 0.23487044E+00 0.15713475E+04</pdfrwt>
<pdfrwt beam="2">  1       -2 0.62205591E-01 0.15713475E+04</pdfrwt>
<totfact> 0.28261948E+01</totfact>
</mgrwt>
</event>
<event>
 6    1  0.1934315E-005  0.2709238E+04  0.7818608E-02  0.8332014E-01
         -2   -1    0    0    0  501 -0.00000000000E+00  0.00000000000E+00  0.12070953136E+04  0.12070953136E+04  0.00000000000E+00 0. -1.
          2   -1    0    0  501    0  0.00000000000E+00 -0.00000000000E+00 -0.15201725088E+04  0.15201725088E+04  0.00000000000E+00 0.  1.
         23    2    1    2    0    0 -0.82011950002E+03  0.75758667310E+03 -0.92627284614E+03  0.14534772322E+04  0.89895035579E+02 0.  0.
         11    1    3    3    0    0 -0.30570812800E+02  0.44058294769E+02 -0.66105666205E+02  0.85121483996E+02  0.00000000000E+00 0.  1.
        -11    1    3    3    0    0 -0.78954868722E+03  0.71352837833E+03 -0.86016717993E+03  0.13683557482E+04  0.00000000000E+00 0. -1.
         22    1    1    2    0    0  0.82011950002E+03 -0.75758667310E+03  0.61319565090E+03  0.12737905903E+04  0.00000000000E+00 0. -1.
<mgrwt>
<rscale>  0 0.27092384E+04</rscale>
<asrwt>0</asrwt>
<pdfrwt beam="1">  1        2 0.23387269E+00 0.27092384E+04</pdfrwt>
<pdfrwt beam="2">  1       -2 0.18570697E+00 0.27092384E+04</pdfrwt>
<totfact> 0.17964696E+00</totfact>
</mgrwt>
</event>
<event>
 6    1  0.1934315E-005  0.4865461E+04  0.7818608E-02  0.7849603E-01
         -2   -1    0    0    0  501 -0.00000000000E+00  0.00000000000E+00  0.20870057827E+04  0.20870057827E+04  0.00000000000E+00 0. -1.
          2   -1    0    0  501    0  0.00000000000E+00 -0.00000000000E+00 -0.28357266533E+04  0.28357266533E+04  0.00000000000E+00 0.  1.
         23    2    1    2    0    0 -0.24259108195E+03  0.24163645991E+04 -0.50466046937E+03  0.24819879208E+04  0.88958084143E+02 0.  0.
         11    1    3    3    0    0 -0.48988080506E+02  0.22665239701E+03 -0.48075722711E+02  0.23681726334E+03  0.00000000000E+00 0.  1.
        -11    1    3    3    0    0 -0.19360300145E+03  0.21897122021E+04 -0.45658474666E+03  0.22451706575E+04  0.00000000000E+00 0. -1.
         22    1    1    2    0    0  0.24259108195E+03 -0.24163645991E+04 -0.24406040129E+03  0.24407445152E+04  0.00000000000E+00 0. -1.
<mgrwt>
<rscale>  0 0.48654611E+04</rscale>
<asrwt>0</asrwt>
<pdfrwt beam="1">  1        2 0.43626564E+00 0.48654611E+04</pdfrwt>
<pdfrwt beam="2">  1       -2 0.32107781E+00 0.48654611E+04</pdfrwt>
<totfact> 0.38157616E-02</totfact>
</mgrwt>
</event>
<event>
 6    1  0.1934315E-005  0.1164580E+04  0.7818608E-02  0.9144437E-01
          2   -1    0    0  501    0  0.00000000000E+00  0.00000000000E+00  0.97931842245E+03  0.97931842245E+03  0.00000000000E+00 0.  1.
         -2   -1    0    0    0  501 -0.00000000000E+00 -0.00000000000E+00 -0.34622199621E+03  0.34622199621E+03  0.00000000000E+00 0. -1.
         23    2    1    2    0    0 -0.34904530239E+03 -0.31886464405E+02  0.84259423905E+03  0.91720391122E+03  0.91916230027E+02 0.  0.
         13    1    3    3    0    0 -0.19134778285E+03 -0.38369226334E+02  0.36054572766E+03  0.40997486907E+03  0.00000000000E+00 0. -1.
        -13    1    3    3    0    0 -0.15769751954E+03  0.64827619284E+01  0.48204851139E+03  0.50722904216E+03  0.00000000000E+00 0.  1.
         22    1    1    2    0    0  0.34904530239E+03  0.31886464405E+02 -0.20949781281E+03  0.40833650744E+03  0.00000000000E+00 0. -1.
<mgrwt>
<rscale>  0 0.11645799E+04</rscale>
<asrwt>0</asrwt>
<pdfrwt beam="1">  1        2 0.15066437E+00 0.11645799E+04</pdfrwt>
<pdfrwt beam="2">  1       -2 0.53264923E-01 0.11645799E+04</pdfrwt>
<totfact> 0.85358206E+01</totfact>
</mgrwt>
</event>
<event>
 6    1  0.1934315E-005  0.3768198E+04  0.7818608E-02  0.8053014E-01
          2   -1    0    0  501    0  0.00000000000E+00  0.00000000000E+00  0.15268224024E+04  0.15268224024E+04  0.00000000000E+00 0.  1.
         -2   -1    0    0    0  501 -0.00000000000E+00 -0.00000000000E+00 -0.23249784265E+04  0.23249784265E+04  0.00000000000E+00 0. -1.
         23    2    1    2    0    0  0.16591373617E+04 -0.39944544869E+03  0.41412611515E+03  0.17584968766E+04  0.92289622762E+02 0.  0.
         11    1    3    3    0    0  0.86662061794E+03 -0.24581587339E+03  0.24779733107E+03  0.93426990551E+03  0.00000000000E+00 0.  1.
        -11    1    3    3    0    0  0.79251674373E+03 -0.15362957530E+03  0.16632878408E+03  0.82422697112E+03  0.00000000000E+00 0. -1.
         22    1    1    2    0    0 -0.16591373617E+04  0.39944544869E+03 -0.12122821393E+04  0.20933039523E+04  0.00000000000E+00 0. -1.
<mgrwt>
<rscale>  0 0.37681981E+04</rscale>
<asrwt>0</asrwt>
<pdfrwt beam="1">  1        2 0.23489576E+00 0.37681981E+04</pdfrwt>
<pdfrwt beam="2">  1       -2 0.35768899E+00 0.37681981E+04</pdfrwt>
<totfact> 0.13702414E-01</totfact>
</mgrwt>
</event>
<event>
 6    1  0.1934315E-005  0.2684392E+04  0.7818608E-02  0.8340087E-01
          1   -1    0    0  501    0  0.00000000000E+00  0.00000000000E+00  0.21473368775E+04  0.21473368775E+04  0.00000000000E+00 0.  1.
         -1   -1    0    0    0  501 -0.00000000000E+00 -0.00000000000E+00 -0.83894158537E+03  0.83894158537E+03  0.00000000000E+00 0. -1.
         23    2    1    2    0    0 -0.57072133733E+03  0.10658065218E+04  0.10268073998E+02  0.12123560685E+04  0.89640486278E+02 0.  0.
         13    1    3    3    0    0 -0.32785581258E+03  0.53167492110E+03 -0.18364188681E+02  0.62490391181E+03  0.00000000000E+00 0.  1.
        -13    1    3    3    0    0 -0.24286552475E+03  0.53413160068E+03  0.28632262679E+02  0.58745215671E+03  0.00000000000E+00 0. -1.
         22    1    1    2    0    0  0.57072133733E+03 -0.10658065218E+04  0.12981272181E+04  0.17739223944E+04  0.00000000000E+00 0.  1.
<mgrwt>
<rscale>  0 0.26843921E+04</rscale>
<asrwt>0</asrwt>
<pdfrwt beam="1">  1        1 0.33035952E+00 0.26843921E+04</pdfrwt>
<pdfrwt beam="2">  1       -1 0.12906794E+00 0.26843921E+04</pdfrwt>
<totfact> 0.10682099E+00</totfact>
</mgrwt>
</event>
<event>
 6    1  0.1934315E-005  0.1680324E+04  0.7818608E-02  0.8772667E-01
         -2   -1    0    0    0  501 -0.00000000000E+00  0.00000000000E+00  0.36544135515E+03  0.36544135515E+03  0.00000000000E+00 0. -1.
          2   -1    0    0  501    0  0.00000000000E+00 -0.00000000000E+00 -0.19315606953E+04  0.19315606953E+04  0.00000000000E+00 0.  1.
         23    2    1    2    0    0  0.82008401166E+03  0.16924933792E+03 -0.82086206661E+03  0.11760241165E+04  0.89638527976E+02 0.  0.
         13    1    3    3    0    0  0.49211906331E+03  0.89942071370E+02 -0.43006557640E+03  0.65971747641E+03  0.00000000000E+00 0.  1.
        -13    1    3    3    0    0  0.32796494835E+03  0.79307266549E+02 -0.39079649021E+03  0.51630664012E+03  0.00000000000E+00 0. -1.
         22    1    1    2    0    0 -0.82008401166E+03 -0.16924933792E+03 -0.74525727356E+03  0.11209779339E+04  0.00000000000E+00 0. -1.
<mgrwt>
<rscale>  0 0.16803240E+04</rscale>
<asrwt>0</asrwt>
<pdfrwt beam="1">  1        2 0.29716318E+00 0.16803240E+04</pdfrwt>
<pdfrwt beam="2">  1       -2 0.56221747E-01 0.16803240E+04</pdfrwt>
<totfact> 0.20641158E+01</totfact>
</mgrwt>
</event>
<event>
 6    1  0.1934315E-005  0.1567479E+04  0.7818608E-02  0.8840780E-01
         -2   -1    0    0    0  501 -0.00000000000E+00  0.00000000000E+00  0.25180373665E+03  0.25180373665E+03  0.00000000000E+00 0. -1.
          2   -1    0    0  501    0  0.00000000000E+00 -0.00000000000E+00 -0.24393914910E+04  0.24393914910E+04  0.00000000000E+00 0.  1.
         23    2    1    2    0    0  0.49914234703E+03 -0.27201122925E+03 -0.20174395845E+04  0.20978289065E+04  0.87695223908E+02 0.  0.
         13    1    3    3    0    0  0.43462002155E+03 -0.25943300920E+03 -0.17048518509E+04  0.17784037458E+04  0.00000000000E+00 0. -1.
        -13    1    3    3    0    0  0.64522325478E+02 -0.12578220054E+02 -0.31258773355E+03  0.31942516067E+03  0.00000000000E+00 0.  1.
         22    1    1    2    0    0 -0.49914234703E+03  0.27201122925E+03 -0.17014816989E+03  0.59336632122E+03  0.00000000000E+00 0. -1.
<mgrwt>
<rscale>  0 0.15674794E+04</rscale>
<asrwt>0</asrwt>
<pdfrwt beam="1">  1        2 0.37529099E+00 0.15674794E+04</pdfrwt>
<pdfrwt beam="2">  1       -2 0.38739037E-01 0.15674794E+04</pdfrwt>
<totfact> 0.22886009E+01</totfact>
</mgrwt>
</event>
<event>
 6    1  0.1934315E-005  0.1729031E+04  0.7818608E-02  0.8744978E-01
         -2   -1    0    0    0  501 -0.00000000000E+00  0.00000000000E+00  0.29790464952E+03  0.29790464952E+03  0.00000000000E+00 0. -1.
          2   -1    0    0  501    0  0.00000000000E+00 -0.00000000000E+00 -0.25088135573E+04  0.25088135573E+04  0.00000000000E+00 0.  1.
         23    2    1    2    0    0  0.58653345255E+03 -0.57654509971E+03 -0.15281094188E+04  0.17377743892E+04  0.91190401037E+02 0.  0.
         11    1    3    3    0    0  0.29204462521E+03 -0.34271997222E+03 -0.78616359381E+03  0.90598026397E+03  0.00000000000E+00 0. -1.
        -11    1    3    3    0    0  0.29448882734E+03 -0.23382512749E+03 -0.74194582495E+03  0.83179412527E+03  0.00000000000E+00 0.  1.
         22    1    1    2    0    0 -0.58653345255E+03  0.57654509971E+03 -0.68279948905E+03  0.10689438176E+04  0.00000000000E+00 0. -1.
<mgrwt>
<rscale>  0 0.17290312E+04</rscale>
<asrwt>0</asrwt>
<pdfrwt beam="1">  1        2 0.38597131E+00 0.17290312E+04</pdfrwt>
<pdfrwt beam="2">  1       -2 0.45831485E-01 0.17290312E+04</pdfrwt>
<totfact> 0.14767306E+01</totfact>
</mgrwt>
</event>
<event>
 6    1  0.1934315E-005  0.4209783E+04  0.7818608E-02  0.7963514E-01
          2   -1    0    0  501    0  0.00000000000E+00  0.00000000000E+00  0.51664330631E+04  0.51664330631E+04  0.00000000000E+00 0.  1.
         -2   -1    0    0    0  501 -0.00000000000E+00 -0.00000000000E+00 -0.85756813798E+03  0.85756813798E+03  0.00000000000E+00 0. -1.
         23    2    1    2    0    0  0.19758508182E+04 -0.72273310686E+03  0.21356098750E+04  0.29992091235E+04  0.89979047183E+02 0.  0.
         13    1    3    3    0    0  0.12682867247E+04 -0.44691876469E+03  0.14215622069E+04  0.19568154502E+04  0.00000000000E+00 0. -1.
        -13    1    3    3    0    0  0.70756409352E+03 -0.27581434217E+03  0.71404766812E+03  0.10423936733E+04  0.00000000000E+00 0.  1.
         22    1    1    2    0    0 -0.19758508182E+04  0.72273310686E+03  0.21732550501E+04  0.30247920776E+04  0.00000000000E+00 0.  1.
<mgrwt>
<rscale>  0 0.42097831E+04</rscale>
<asrwt>0</asrwt>
<pdfrwt beam="1">  1        2 0.79483584E+00 0.42097831E+04</pdfrwt>
<pdfrwt beam="2">  1       -2 0.13193356E+00 0.42097831E+04</pdfrwt>
<totfact> 0.65767986E-03</totfact>
</mgrwt>
</event>
<event>
 6    1  0.1934315E-005  0.4404678E+04  0.7818608E-02  0.7927541E-01
         -2   -1    0    0    0  501 -0.00000000000E+00  0.00000000000E+00  0.24807493267E+04  0.24807493267E+04  0.00000000000E+00 0. -1.
          2   -1    0    0  501    0  0.00000000000E+00 -0.00000000000E+00 -0.19551742918E+04  0.19551742918E+04  0.00000000000E+00 0.  1.
         23    2    1    2    0    0  0.13737173383E+04  0.12329709952E+04 -0.94353457508E+03  0.20767712608E+04  0.12411516809E+03 0.  0.
         11    1    3    3    0    0  0.38540827718E+03  0.34690639968E+03 -0.32863066076E+03  0.61390691595E+03  0.00000000000E+00 0.  1.
        -11    1    3    3    0    0  0.98830906114E+03  0.88606459548E+03 -0.61490391433E+03  0.14628643449E+04  0.00000000000E+00 0. -1.
         22    1    1    2    0    0 -0.13737173383E+04 -0.12329709952E+04  0.14691096100E+04  0.23591523577E+04  0.00000000000E+00 0. -1.
<mgrwt>
<rscale>  0 0.44046781E+04</rscale>
<asrwt>0</asrwt>
<pdfrwt beam="1">  1        2 0.30079605E+00 0.44046781E+04</pdfrwt>
<pdfrwt beam="2">  1       -2 0.38165374E+00 0.44046781E+04</pdfrwt>
<totfact> 0.52776965E-02</totfact>
</mgrwt>
</event>
<event>
 6    1  0.1934315E-005  0.1836675E+04  0.7818608E-02  0.8687036E-01
          2   -1    0    0  501    0  0.00000000000E+00  0.00000000000E+00  0.12393725223E+04  0.12393725223E+04  0.00000000000E+00 0.  1.
         -2   -1    0    0    0  501 -0.00000000000E+00 -0.00000000000E+00 -0.68046009242E+03  0.68046009242E+03  0.00000000000E+00 0. -1.
         23    2    1    2    0    0  0.43745812408E+03  0.14092191712E+02  0.11212120111E+04  0.12072675164E+04  0.93863103345E+02 0.  0.
         13    1    3    3    0    0  0.23281275632E+03  0.43657541227E+02  0.51767501607E+03  0.56929358214E+03  0.00000000000E+00 0.  1.
        -13    1    3    3    0    0  0.20464536776E+03 -0.29565349516E+02  0.60353699503E+03  0.63797393427E+03  0.00000000000E+00 0. -1.
         22    1    1    2    0    0 -0.43745812408E+03 -0.14092191712E+02 -0.56229958125E+03  0.71256509827E+03  0.00000000000E+00 0. -1.
<mgrwt>
<rscale>  0 0.18366748E+04</rscale>
<asrwt>0</asrwt>
<pdfrwt beam="1">  1        2 0.19067270E+00 0.18366748E+04</pdfrwt>
<pdfrwt beam="2">  1       -2 0.10468617E+00 0.18366748E+04</pdfrwt>
<totfact> 0.12509045E+01</totfact>
</mgrwt>
</event>
<event>
 6    1  0.1934315E-005  0.2057225E+04  0.7818608E-02  0.8580324E-01
          4   -1    0    0  501    0  0.00000000000E+00  0.00000000000E+00  0.12745885892E+04  0.12745885892E+04  0.00000000000E+00 0.  1.
         -4   -1    0    0    0  501 -0.00000000000E+00 -0.00000000000E+00 -0.83010564460E+03  0.83010564460E+03  0.00000000000E+00 0. -1.
         23    2    1    2    0    0 -0.85553214552E+03  0.10785381164E+03 -0.34721035016E+03  0.93407646116E+03  0.91521097691E+02 0.  0.
         13    1    3    3    0    0 -0.73025663647E+03  0.10257328258E+03 -0.26248374245E+03  0.78274756369E+03  0.00000000000E+00 0. -1.
        -13    1    3    3    0    0 -0.12527550905E+03  0.52805290556E+01 -0.84726607708E+02  0.15132889747E+03  0.00000000000E+00 0.  1.
         22    1    1    2    0    0  0.85553214552E+03 -0.10785381164E+03  0.79169329479E+03  0.11706177727E+04  0.00000000000E+00 0.  1.
<mgrwt>
<rscale>  0 0.20572245E+04</rscale>
<asrwt>0</asrwt>
<pdfrwt beam="1">  1        4 0.19609055E+00 0.20572245E+04</pdfrwt>
<pdfrwt beam="2">  1       -4 0.12770856E+00 0.20572245E+04</pdfrwt>
<totfact> 0.11691522E-01</totfact>
</mgrwt>
</event>
<event>
 6    1  0.1934315E-005  0.6737284E+04  0.7818608E-02  0.7605153E-01
          2   -1    0    0  501    0  0.00000000000E+00  0.00000000000E+00  0.46692870620E+04  0.46692870620E+04  0.00000000000E+00 0.  1.
         -2   -1    0    0    0  501 -0.00000000000E+00 -0.00000000000E+00 -0.24302961443E+04  0.24302961443E+04  0.00000000000E+00 0. -1.
         23    2    1    2    0    0  0.12069448435E+04 -0.19512449210E+04  0.37179522447E+04  0.43698580913E+04  0.91751009832E+02 0.  0.
         11    1    3    3    0    0  0.33778228671E+03 -0.47661677119E+03  0.97698841279E+03  0.11383175210E+04  0.00000000000E+00 0. -1.
        -11    1    3    3    0    0  0.86916255677E+03 -0.14746281498E+04  0.27409638319E+04  0.32315405704E+04  0.00000000000E+00 0.  1.
         22    1    1    2    0    0 -0.12069448435E+04  0.19512449210E+04 -0.14789613270E+04  0.27297251150E+04  0.00000000000E+00 0. -1.
<mgrwt>
<rscale>  0 0.67372844E+04</rscale>
<asrwt>0</asrwt>
<pdfrwt beam="1">  1        2 0.71835185E+00 0.67372844E+04</pdfrwt>
<pdfrwt beam="2">  1       -2 0.37389172E+00 0.67372844E+04</pdfrwt>
<totfact> 0.56813044E-04</totfact>
</mgrwt>
</event>
<event>
 6    1  0.1934315E-005  0.2305235E+04  0.7818608E-02  0.8475860E-01
          2   -1    0    0  501    0  0.00000000000E+00  0.00000000000E+00  0.23710030799E+04  0.23710030799E+04  0.00000000000E+00 0.  1.
         -2   -1    0    0    0  501 -0.00000000000E+00 -0.00000000000E+00 -0.56032265619E+03  0.56032265619E+03  0.00000000000E+00 0. -1.
         23    2    1    2    0    0 -0.31443904176E+03  0.10358223491E+04  0.14041124853E+04  0.17749964843E+04  0.85327592291E+02 0.  0.
         11    1    3    3    0    0 -0.59099678538E+02  0.32197749267E+03  0.40263284882E+03  0.51891761267E+03  0.00000000000E+00 0. -1.
        -11    1    3    3    0    0 -0.25533936322E+03  0.71384485647E+03  0.10014796365E+04  0.12560788717E+04  0.00000000000E+00 0.  1.
         22    1    1    2    0    0  0.31443904176E+03 -0.10358223491E+04  0.40656793839E+03  0.11563292518E+04  0.00000000000E+00 0. -1.
<mgrwt>
<rscale>  0 0.23052347E+04</rscale>
<asrwt>0</asrwt>
<pdfrwt beam="1">  1        2 0.36476970E+00 0.23052347E+04</pdfrwt>
<pdfrwt beam="2">  1       -2 0.86203487E-01 0.23052347E+04</pdfrwt>
<totfact> 0.43671479E+00</totfact>
</mgrwt>
</event>
<event>
 6    1  0.1934315E-005  0.4766151E+04  0.7818608E-02  0.7865629E-01
         -2   -1    0    0    0  501 -0.00000000000E+00  0.00000000000E+00  0.10955602986E+04  0.10955602986E+04  0.00000000000E+00 0. -1.
          2   -1    0    0  501    0  0.00000000000E+00 -0.00000000000E+00 -0.51836934795E+04  0.51836934795E+04  0.00000000000E+00 0.  1.
         23    2    1    2    0    0  0.18222312047E+04 -0.72403968159E+03 -0.38271074600E+04  0.43011500268E+04  0.91542439908E+02 0.  0.
         11    1    3    3    0    0  0.60822149839E+03 -0.26741368665E+03 -0.12181533449E+04  0.13875665904E+04  0.00000000000E+00 0. -1.
        -11    1    3    3    0    0  0.12140097063E+04 -0.45662599495E+03 -0.26089541151E+04  0.29135834364E+04  0.00000000000E+00 0.  1.
         22    1    1    2    0    0 -0.18222312047E+04  0.72403968159E+03 -0.26102572094E+03  0.19781037513E+04  0.00000000000E+00 0. -1.
<mgrwt>
<rscale>  0 0.47661510E+04</rscale>
<asrwt>0</asrwt>
<pdfrwt beam="1">  1        2 0.79749128E+00 0.47661510E+04</pdfrwt>
<pdfrwt beam="2">  1       -2 0.16854774E+00 0.47661510E+04</pdfrwt>
<totfact> 0.30883545E-03</totfact>
</mgrwt>
</event>
<event>
 6    1  0.1934315E-005  0.1949987E+04  0.7818608E-02  0.8630367E-01
         -2   -1    0    0    0  501 -0.00000000000E+00  0.00000000000E+00  0.29532703207E+03  0.29532703207E+03  0.00000000000E+00 0. -1.
          2   -1    0    0  501    0  0.00000000000E+00 -0.00000000000E+00 -0.32188465508E+04  0.32188465508E+04  0.00000000000E+00 0.  1.
         23    2    1    2    0    0  0.96857863564E+03 -0.91285560486E+02 -0.14730855789E+04  0.17676810290E+04  0.90760512023E+02 0.  0.
         13    1    3    3    0    0  0.42239578519E+03 -0.75552516771E+02 -0.69823621739E+03  0.81954877671E+03  0.00000000000E+00 0.  1.
        -13    1    3    3    0    0  0.54618285045E+03 -0.15733043715E+02 -0.77484936152E+03  0.94813225229E+03  0.00000000000E+00 0. -1.
         22    1    1    2    0    0 -0.96857863564E+03  0.91285560486E+02 -0.14504339398E+04  0.17464925539E+04  0.00000000000E+00 0. -1.
<mgrwt>
<rscale>  0 0.19499871E+04</rscale>
<asrwt>0</asrwt>
<pdfrwt beam="1">  1        2 0.49520713E+00 0.19499871E+04</pdfrwt>
<pdfrwt beam="2">  1       -2 0.45434931E-01 0.19499871E+04</pdfrwt>
<totfact> 0.54231772E+00</totfact>
</mgrwt>
</event>
<event>
 6    1  0.1934315E-005  0.4537564E+04  0.7818608E-02  0.7904093E-01
         -2   -1    0    0    0  501 -0.00000000000E+00  0.00000000000E+00  0.11125829338E+04  0.11125829338E+04  0.00000000000E+00 0. -1.
          2   -1    0    0  501    0  0.00000000000E+00 -0.00000000000E+00 -0.46265070959E+04  0.46265070959E+04  0.00000000000E+00 0.  1.
         23    2    1    2    0    0 -0.78092069286E+03  0.21192570632E+04 -0.20172804656E+04  0.30296565127E+04  0.91161832572E+02 0.  0.
         13    1    3    3    0    0 -0.27341378109E+03  0.85230321967E+03 -0.76813716311E+03  0.11794958988E+04  0.00000000000E+00 0. -1.
        -13    1    3    3    0    0 -0.50750691177E+03  0.12669538436E+04 -0.12491433024E+04  0.18501606139E+04  0.00000000000E+00 0.  1.
         22    1    1    2    0    0  0.78092069286E+03 -0.21192570632E+04 -0.14966436965E+04  0.27094335170E+04  0.00000000000E+00 0. -1.
<mgrwt>
<rscale>  0 0.45375645E+04</rscale>
<asrwt>0</asrwt>
<pdfrwt beam="1">  1        2 0.71177032E+00 0.45375645E+04</pdfrwt>
<pdfrwt beam="2">  1       -2 0.17116661E+00 0.45375645E+04</pdfrwt>
<totfact> 0.14347950E-02</totfact>
</mgrwt>
</event>
<event>
 6    1  0.1934315E-005  0.3199152E+04  0.7818608E-02  0.8189041E-01
         -2   -1    0    0    0  501 -0.00000000000E+00  0.00000000000E+00  0.20832302652E+04  0.20832302652E+04  0.00000000000E+00 0. -1.
          2   -1    0    0  501    0  0.00000000000E+00 -0.00000000000E+00 -0.12282096235E+04  0.12282096235E+04  0.00000000000E+00 0.  1.
         23    2    1    2    0    0 -0.57957414391E+03  0.14824162086E+04  0.57817356926E+03  0.16958569273E+04  0.90454618421E+02 0.  0.
         13    1    3    3    0    0 -0.46317043340E+03  0.11484712126E+04  0.48676353422E+03  0.13305832236E+04  0.00000000000E+00 0. -1.
        -13    1    3    3    0    0 -0.11640371052E+03  0.33394499594E+03  0.91410035046E+02  0.36527370373E+03  0.00000000000E+00 0.  1.
         22    1    1    2    0    0  0.57957414391E+03 -0.14824162086E+04  0.27684707237E+03  0.16155829614E+04  0.00000000000E+00 0.  1.
<mgrwt>
<rscale>  0 0.31991520E+04</rscale>
<asrwt>0</asrwt>
<pdfrwt beam="1">  1        2 0.18895533E+00 0.31991520E+04</pdfrwt>
<pdfrwt beam="2">  1       -2 0.32049697E+00 0.31991520E+04</pdfrwt>
<totfact> 0.36474878E-01</totfact>
</mgrwt>
</event>
<event>
 6    1  0.1934315E-005  0.1720351E+04  0.7818608E-02  0.8749842E-01
          2   -1    0    0  501    0  0.00000000000E+00  0.00000000000E+00  0.15987469122E+04  0.15987469122E+04  0.00000000000E+00 0.  1.
         -2   -1    0    0    0  501 -0.00000000000E+00 -0.00000000000E+00 -0.46280123397E+03  0.46280123397E+03  0.00000000000E+00 0. -1.
         23    2    1    2    0    0 -0.18447563340E+03 -0.54581845538E+03  0.13310260868E+04  0.14532674451E+04  0.91688481173E+02 0.  0.
         13    1    3    3    0    0 -0.17852329388E+03 -0.43995436951E+03  0.10314921043E+04  0.11355203103E+04  0.00000000000E+00 0.  1.
        -13    1    3    3    0    0 -0.59523395259E+01 -0.10586408587E+03  0.29953398248E+03  0.31774713481E+03  0.00000000000E+00 0. -1.
         22    1    1    2    0    0  0.18447563340E+03  0.54581845538E+03 -0.19508040856E+03  0.60828070112E+03  0.00000000000E+00 0. -1.
<mgrwt>
<rscale>  0 0.17203512E+04</rscale>
<asrwt>0</asrwt>
<pdfrwt beam="1">  1        2 0.24596106E+00 0.17203512E+04</pdfrwt>
<pdfrwt beam="2">  1       -2 0.71200191E-01 0.17203512E+04</pdfrwt>
<totfact> 0.19003789E+01</totfact>
</mgrwt>
</event>
<event>
 6    1  0.1934315E-005  0.2181556E+04  0.7818608E-02  0.8526144E-01
         -2   -1    0    0    0  501 -0.00000000000E+00  0.00000000000E+00  0.12166235757E+04  0.12166235757E+04  0.00000000000E+00 0. -1.
          2   -1    0    0  501    0  0.00000000000E+00 -0.00000000000E+00 -0.97794988312E+03  0.97794988312E+03  0.00000000000E+00 0.  1.
         23    2    1    2    0    0  0.16408168631E+03  0.85251133824E+03  0.77991908098E+03  0.11715167879E+04  0.10236908622E+03 0.  0.
         13    1    3    3    0    0  0.72328327108E+02  0.27780960731E+03  0.19956981883E+03  0.34962505259E+03  0.00000000000E+00 0.  1.
        -13    1    3    3    0    0  0.91753359204E+02  0.57470173093E+03  0.58034926215E+03  0.82189173529E+03  0.00000000000E+00 0. -1.
         22    1    1    2    0    0 -0.16408168631E+03 -0.85251133824E+03 -0.54124538836E+03  0.10230566710E+04  0.00000000000E+00 0.  1.
<mgrwt>
<rscale>  0 0.21815562E+04</rscale>
<asrwt>0</asrwt>
<pdfrwt beam="1">  1        2 0.15045383E+00 0.21815562E+04</pdfrwt>
<pdfrwt beam="2">  1       -2 0.18717286E+00 0.21815562E+04</pdfrwt>
<totfact> 0.38581318E+00</totfact>
</mgrwt>
</event>
<event>
 6    1  0.1934315E-005  0.3150472E+04  0.7818608E-02  0.8202021E-01
         -1   -1    0    0    0  501 -0.00000000000E+00  0.00000000000E+00  0.12417919295E+04  0.12417919295E+04  0.00000000000E+00 0. -1.
          1   -1    0    0  501    0  0.00000000000E+00 -0.00000000000E+00 -0.19982164795E+04  0.19982164795E+04  0.00000000000E+00 0.  1.
         23    2    1    2    0    0 -0.72462888982E+03 -0.39838889183E+03  0.99874281995E+03  0.12997988240E+04  0.90493233776E+02 0.  0.
         13    1    3    3    0    0 -0.32479894560E+03 -0.17276114833E+03  0.37511579016E+03  0.52540710450E+03  0.00000000000E+00 0.  1.
        -13    1    3    3    0    0 -0.39982994422E+03 -0.22562774349E+03  0.62362702978E+03  0.77439171949E+03  0.00000000000E+00 0. -1.
         22    1    1    2    0    0  0.72462888982E+03  0.39838889183E+03 -0.17551673700E+04  0.19402095850E+04  0.00000000000E+00 0.  1.
<mgrwt>
<rscale>  0 0.31504724E+04</rscale>
<asrwt>0</asrwt>
<pdfrwt beam="1">  1        1 0.30741792E+00 0.31504724E+04</pdfrwt>
<pdfrwt beam="2">  1       -1 0.19104491E+00 0.31504724E+04</pdfrwt>
<totfact> 0.43623380E-01</totfact>
</mgrwt>
</event>
<event>
 6    1  0.1934315E-005  0.1610673E+04  0.7818608E-02  0.8814018E-01
         -2   -1    0    0    0  501 -0.00000000000E+00  0.00000000000E+00  0.12818303417E+04  0.12818303417E+04  0.00000000000E+00 0. -1.
          2   -1    0    0  501    0  0.00000000000E+00 -0.00000000000E+00 -0.50596925691E+03  0.50596925691E+03  0.00000000000E+00 0.  1.
         23    2    1    2    0    0 -0.25577490574E+03 -0.61221500046E+03 -0.11186503967E+03  0.67951909206E+03  0.94891517911E+02 0.  0.
         11    1    3    3    0    0 -0.23999034481E+03 -0.47556759021E+03 -0.89326769105E+02  0.54012884587E+03  0.00000000000E+00 0. -1.
        -11    1    3    3    0    0 -0.15784560930E+02 -0.13664741025E+03 -0.22538270563E+02  0.13939024619E+03  0.00000000000E+00 0.  1.
         22    1    1    2    0    0  0.25577490574E+03  0.61221500046E+03  0.88772612449E+03  0.11082805066E+04  0.00000000000E+00 0. -1.
<mgrwt>
<rscale>  0 0.16106728E+04</rscale>
<asrwt>0</asrwt>
<pdfrwt beam="1">  1        2 0.77841424E-01 0.16106728E+04</pdfrwt>
<pdfrwt beam="2">  1       -2 0.19720467E+00 0.16106728E+04</pdfrwt>
<totfact> 0.80669551E+00</totfact>
</mgrwt>
</event>
<event>
 6    1  0.1934315E-005  0.1270649E+04  0.7818608E-02  0.9053170E-01
         -2   -1    0    0    0  501 -0.00000000000E+00  0.00000000000E+00  0.19157513735E+03  0.19157513735E+03  0.00000000000E+00 0. -1.
          2   -1    0    0  501    0  0.00000000000E+00 -0.00000000000E+00 -0.21069405301E+04  0.21069405301E+04  0.00000000000E+00 0.  1.
         23    2    1    2    0    0  0.29036471594E+03 -0.45563015067E+03 -0.15561045755E+04  0.16496868478E+04  0.89970791035E+02 0.  0.
         13    1    3    3    0    0  0.94995104534E+02 -0.20856417981E+03 -0.56410012936E+03  0.60887769127E+03  0.00000000000E+00 0.  1.
        -13    1    3    3    0    0  0.19536961141E+03 -0.24706597086E+03 -0.99200444616E+03  0.10408091565E+04  0.00000000000E+00 0. -1.
         22    1    1    2    0    0 -0.29036471594E+03  0.45563015067E+03 -0.35926081720E+03  0.64882881967E+03  0.00000000000E+00 0. -1.
<mgrwt>
<rscale>  0 0.12706493E+04</rscale>
<asrwt>0</asrwt>
<pdfrwt beam="1">  1        2 0.32414470E+00 0.12706493E+04</pdfrwt>
<pdfrwt beam="2">  1       -2 0.29473098E-01 0.12706493E+04</pdfrwt>
<totfact> 0.60721685E+01</totfact>
</mgrwt>
</event>
<event>
 6    1  0.1934315E-005  0.3272489E+04  0.7818608E-02  0.8169931E-01
          2   -1    0    0  501    0  0.00000000000E+00  0.00000000000E+00  0.38724686709E+04  0.38724686709E+04  0.00000000000E+00 0.  1.
         -2   -1    0    0    0  501 -0.00000000000E+00 -0.00000000000E+00 -0.69136679720E+03  0.69136679720E+03  0.00000000000E+00 0. -1.
         23    2    1    2    0    0  0.24870803608E+03  0.10323190840E+04  0.33255607871E+04  0.34921980499E+04  0.92489419007E+02 0.  0.
         13    1    3    3    0    0  0.42026560831E+02  0.17352149108E+03  0.45379988005E+03  0.48765794448E+03  0.00000000000E+00 0.  1.
        -13    1    3    3    0    0  0.20668147525E+03  0.85879759296E+03  0.28717609071E+04  0.30045401054E+04  0.00000000000E+00 0. -1.
         22    1    1    2    0    0 -0.24870803608E+03 -0.10323190840E+04 -0.14445891337E+03  0.10716374182E+04  0.00000000000E+00 0. -1.
<mgrwt>
<rscale>  0 0.32724891E+04</rscale>
<asrwt>0</asrwt>
<pdfrwt beam="1">  1        2 0.59576440E+00 0.32724891E+04</pdfrwt>
<pdfrwt beam="2">  1       -2 0.10636413E+00 0.32724891E+04</pdfrwt>
<totfact> 0.25718635E-01</totfact>
</mgrwt>
</event>
<event>
 6    1  0.1934315E-005  0.1704289E+04  0.7818608E-02  0.8758922E-01
         -1   -1    0    0    0  501 -0.00000000000E+00  0.00000000000E+00  0.27656052258E+04  0.27656052258E+04  0.00000000000E+00 0. -1.
          1   -1    0    0  501    0  0.00000000000E+00 -0.00000000000E+00 -0.26256462946E+03  0.26256462946E+03  0.00000000000E+00 0.  1.
         23    2    1    2    0    0 -0.50980892425E+01 -0.82660042381E+03  0.16043256001E+04  0.18071117503E+04  0.92184574992E+02 0.  0.
         11    1    3    3    0    0  0.43875774529E+01 -0.12117265364E+03  0.31247323490E+03  0.33517396283E+03  0.00000000000E+00 0.  1.
        -11    1    3    3    0    0 -0.94856666954E+01 -0.70542777017E+03  0.12918523652E+04  0.14719377875E+04  0.00000000000E+00 0. -1.
         22    1    1    2    0    0  0.50980892425E+01  0.82660042381E+03  0.89871499626E+03  0.12210581050E+04  0.00000000000E+00 0.  1.
<mgrwt>
<rscale>  0 0.17042888E+04</rscale>
<asrwt>0</asrwt>
<pdfrwt beam="1">  1        1 0.40394560E-01 0.17042888E+04</pdfrwt>
<pdfrwt beam="2">  1       -1 0.42547771E+00 0.17042888E+04</pdfrwt>
<totfact> 0.47616984E-01</totfact>
</mgrwt>
</event>
<event>
 6    1  0.1934315E-005  0.1394697E+04  0.7818608E-02  0.8957666E-01
          2   -1    0    0  501    0  0.00000000000E+00  0.00000000000E+00  0.70275205204E+03  0.70275205204E+03  0.00000000000E+00 0.  1.
         -2   -1    0    0    0  501 -0.00000000000E+00 -0.00000000000E+00 -0.69198657225E+03  0.69198657225E+03  0.00000000000E+00 0. -1.
         23    2    1    2    0    0 -0.22087361334E+03  0.64669920493E+03 -0.11753616797E+03  0.69942119495E+03  0.91489029019E+02 0.  0.
         11    1    3    3    0    0  0.74932367671E+01  0.32784417901E+02 -0.13306243483E+02  0.36166597435E+02  0.00000000000E+00 0. -1.
        -11    1    3    3    0    0 -0.22836685011E+03  0.61391478703E+03 -0.10422992448E+03  0.66325459751E+03  0.00000000000E+00 0.  1.
         22    1    1    2    0    0  0.22087361334E+03 -0.64669920493E+03  0.12830164776E+03  0.69531742934E+03  0.00000000000E+00 0.  1.
<mgrwt>
<rscale>  0 0.13946971E+04</rscale>
<asrwt>0</asrwt>
<pdfrwt beam="1">  1        2 0.10811570E+00 0.13946971E+04</pdfrwt>
<pdfrwt beam="2">  1       -2 0.10645947E+00 0.13946971E+04</pdfrwt>
<totfact> 0.28230506E+01</totfact>
</mgrwt>
</event>
<event>
 6    1  0.1934315E-005  0.7989209E+03  0.7818608E-02  0.9561580E-01
         -2   -1    0    0    0  501 -0.00000000000E+00  0.00000000000E+00  0.37863269693E+03  0.37863269693E+03  0.00000000000E+00 0. -1.
          2   -1    0    0  501    0  0.00000000000E+00 -0.00000000000E+00 -0.42143385161E+03  0.42143385161E+03  0.00000000000E+00 0.  1.
         23    2    1    2    0    0  0.81510080747E+02 -0.26163720474E+03 -0.30564905356E+03  0.42034699662E+03  0.90400959394E+02 0.  0.
         13    1    3    3    0    0  0.82479536575E+01 -0.11789870860E+03 -0.79064137408E+02  0.14219448672E+03  0.00000000000E+00 0. -1.
        -13    1    3    3    0    0  0.73262127090E+02 -0.14373849614E+03 -0.22658491615E+03  0.27815250990E+03  0.00000000000E+00 0.  1.
         22    1    1    2    0    0 -0.81510080747E+02  0.26163720474E+03  0.26284789888E+03  0.37971955193E+03  0.00000000000E+00 0. -1.
<mgrwt>
<rscale>  0 0.79892086E+03</rscale>
<asrwt>0</asrwt>
<pdfrwt beam="1">  1        2 0.64835977E-01 0.79892086E+03</pdfrwt>
<pdfrwt beam="2">  1       -2 0.58251184E-01 0.79892086E+03</pdfrwt>
<totfact> 0.20819918E+02</totfact>
</mgrwt>
</event>
<event>
 6    1  0.1934315E-005  0.3475691E+04  0.7818608E-02  0.8119575E-01
          1   -1    0    0  501    0  0.00000000000E+00  0.00000000000E+00  0.42314432130E+04  0.42314432130E+04  0.00000000000E+00 0.  1.
         -1   -1    0    0    0  501 -0.00000000000E+00 -0.00000000000E+00 -0.71372992313E+03  0.71372992313E+03  0.00000000000E+00 0. -1.
         23    2    1    2    0    0  0.90700069820E+03 -0.10700974258E+04  0.30363414272E+03  0.14383136392E+04  0.93774542332E+02 0.  0.
         11    1    3    3    0    0  0.33451780040E+03 -0.46270978525E+03  0.10941701314E+03  0.58135581782E+03  0.00000000000E+00 0. -1.
        -11    1    3    3    0    0  0.57248289780E+03 -0.60738764054E+03  0.19421712958E+03  0.85695782135E+03  0.00000000000E+00 0.  1.
         22    1    1    2    0    0 -0.90700069820E+03  0.10700974258E+04  0.32140791471E+04  0.35068594969E+04  0.00000000000E+00 0.  1.
<mgrwt>
<rscale>  0 0.34756914E+04</rscale>
<asrwt>0</asrwt>
<pdfrwt beam="1">  1        1 0.65099125E+00 0.34756914E+04</pdfrwt>
<pdfrwt beam="2">  1       -1 0.10980461E+00 0.34756914E+04</pdfrwt>
<totfact> 0.36921813E-02</totfact>
</mgrwt>
</event>
<event>
 6    1  0.1934315E-005  0.3864576E+04  0.7818608E-02  0.8032437E-01
         -2   -1    0    0    0  501 -0.00000000000E+00  0.00000000000E+00  0.10820404951E+04  0.10820404951E+04  0.00000000000E+00 0. -1.
          2   -1    0    0  501    0  0.00000000000E+00 -0.00000000000E+00 -0.34506449450E+04  0.34506449450E+04  0.00000000000E+00 0.  1.
         23    2    1    2    0    0  0.11039660999E+04  0.12036622189E+04  0.24008871898E+02  0.16357659737E+04  0.87235357030E+02 0.  0.
         13    1    3    3    0    0  0.85931248541E+03  0.88419096774E+03  0.29958753455E+02  0.12333325350E+04  0.00000000000E+00 0.  1.
        -13    1    3    3    0    0  0.24465361453E+03  0.31947125120E+03 -0.59498815571E+01  0.40243343864E+03  0.00000000000E+00 0. -1.
         22    1    1    2    0    0 -0.11039660999E+04 -0.12036622189E+04 -0.23926133218E+04  0.28969194664E+04  0.00000000000E+00 0.  1.
<mgrwt>
<rscale>  0 0.38645763E+04</rscale>
<asrwt>0</asrwt>
<pdfrwt beam="1">  1        2 0.53086846E+00 0.38645763E+04</pdfrwt>
<pdfrwt beam="2">  1       -2 0.16646777E+00 0.38645763E+04</pdfrwt>
<totfact> 0.15829477E-01</totfact>
</mgrwt>
</event>
<event>
 6    1  0.1934315E-005  0.1693976E+04  0.7818608E-02  0.8764807E-01
          1   -1    0    0  501    0  0.00000000000E+00  0.00000000000E+00  0.12189568823E+04  0.12189568823E+04  0.00000000000E+00 0.  1.
         -1   -1    0    0    0  501 -0.00000000000E+00 -0.00000000000E+00 -0.58852700087E+03  0.58852700087E+03  0.00000000000E+00 0. -1.
         23    2    1    2    0    0  0.68653799577E+03 -0.13190939824E+03  0.82024395474E+03  0.10830779945E+04  0.10734657883E+03 0.  0.
         13    1    3    3    0    0  0.30497586779E+03 -0.11287114725E+03  0.38417865778E+03  0.50333231261E+03  0.00000000000E+00 0.  1.
        -13    1    3    3    0    0  0.38156212798E+03 -0.19038250986E+02  0.43606529695E+03  0.57974568193E+03  0.00000000000E+00 0. -1.
         22    1    1    2    0    0 -0.68653799577E+03  0.13190939824E+03 -0.18981407336E+03  0.72440588859E+03  0.00000000000E+00 0. -1.
<mgrwt>
<rscale>  0 0.16939764E+04</rscale>
<asrwt>0</asrwt>
<pdfrwt beam="1">  1        1 0.18753183E+00 0.16939764E+04</pdfrwt>
<pdfrwt beam="2">  1       -1 0.90542616E-01 0.16939764E+04</pdfrwt>
<totfact> 0.11747460E+01</totfact>
</mgrwt>
</event>
<event>
 6    1  0.1934315E-005  0.4960677E+04  0.7818608E-02  0.7834602E-01
          2   -1    0    0  501    0  0.00000000000E+00  0.00000000000E+00  0.24924211653E+04  0.24924211653E+04  0.00000000000E+00 0.  1.
         -2   -1    0    0    0  501 -0.00000000000E+00 -0.00000000000E+00 -0.24683147362E+04  0.24683147362E+04  0.00000000000E+00 0. -1.
         23    2    1    2    0    0 -0.20239370064E+04  0.30913310021E+03  0.14106496390E+04  0.24880073776E+04  0.91455056898E+02 0.  0.
         11    1    3    3    0    0 -0.68485940487E+03  0.90944204663E+02  0.52624651409E+03  0.86846913957E+03  0.00000000000E+00 0.  1.
        -11    1    3    3    0    0 -0.13390776016E+04  0.21818889555E+03  0.88440312493E+03  0.16195382381E+04  0.00000000000E+00 0. -1.
         22    1    1    2    0    0  0.20239370064E+04 -0.30913310021E+03 -0.13865432099E+04  0.24727285238E+04  0.00000000000E+00 0. -1.
<mgrwt>
<rscale>  0 0.49606773E+04</rscale>
<asrwt>0</asrwt>
<pdfrwt beam="1">  1        2 0.38344941E+00 0.49606773E+04</pdfrwt>
<pdfrwt beam="2">  1       -2 0.37974073E+00 0.49606773E+04</pdfrwt>
<totfact> 0.25820231E-02</totfact>
</mgrwt>
</event>
<event>
 6    1  0.1934315E-005  0.1976902E+04  0.7818608E-02  0.8617496E-01
         -2   -1    0    0    0  501 -0.00000000000E+00  0.00000000000E+00  0.52063539215E+03  0.52063539215E+03  0.00000000000E+00 0. -1.
          2   -1    0    0  501    0  0.00000000000E+00 -0.00000000000E+00 -0.18766212178E+04  0.18766212178E+04  0.00000000000E+00 0.  1.
         23    2    1    2    0    0 -0.35731442900E+03  0.73120959505E+03 -0.13550008405E+04  0.15834126179E+04  0.93953009429E+02 0.  0.
         13    1    3    3    0    0 -0.25863770500E+03  0.58302129147E+03 -0.99653063994E+03  0.11831655020E+04  0.00000000000E+00 0. -1.
        -13    1    3    3    0    0 -0.98676724007E+02  0.14818830358E+03 -0.35847020051E+03  0.40024711596E+03  0.00000000000E+00 0.  1.
         22    1    1    2    0    0  0.35731442900E+03 -0.73120959505E+03 -0.98498516128E+00  0.81384399197E+03  0.00000000000E+00 0. -1.
<mgrwt>
<rscale>  0 0.19769020E+04</rscale>
<asrwt>0</asrwt>
<pdfrwt beam="1">  1        2 0.28871096E+00 0.19769020E+04</pdfrwt>
<pdfrwt beam="2">  1       -2 0.80097752E-01 0.19769020E+04</pdfrwt>
<totfact> 0.10037917E+01</totfact>
</mgrwt>
</event>
<event>
 6    1  0.1934315E-005  0.2427840E+04  0.7818608E-02  0.8429153E-01
          2   -1    0    0  501    0  0.00000000000E+00  0.00000000000E+00  0.25779480463E+04  0.25779480463E+04  0.00000000000E+00 0.  1.
         -2   -1    0    0    0  501 -0.00000000000E+00 -0.00000000000E+00 -0.57161832235E+03  0.57161832235E+03  0.00000000000E+00 0. -1.
         23    2    1    2    0    0  0.81687380213E+03  0.77864690537E+03  0.15787554754E+04  0.19427550537E+04  0.90854476427E+02 0.  0.
         13    1    3    3    0    0  0.23924004093E+03  0.22419651039E+03  0.39012338487E+03  0.50960389312E+03  0.00000000000E+00 0.  1.
        -13    1    3    3    0    0  0.57763376120E+03  0.55445039497E+03  0.11886320905E+04  0.14331511606E+04  0.00000000000E+00 0. -1.
         22    1    1    2    0    0 -0.81687380213E+03 -0.77864690537E+03  0.42757424862E+03  0.12068113150E+04  0.00000000000E+00 0. -1.
<mgrwt>
<rscale>  0 0.24278405E+04</rscale>
<asrwt>0</asrwt>
<pdfrwt beam="1">  1        2 0.39660739E+00 0.24278405E+04</pdfrwt>
<pdfrwt beam="2">  1       -2 0.87941282E-01 0.24278405E+04</pdfrwt>
<totfact> 0.31351519E+00</totfact>
</mgrwt>
</event>
<event>
 6    1  0.1934315E-005  0.1976183E+04  0.7818608E-02  0.8617838E-01
         -2   -1    0    0    0  501 -0.00000000000E+00  0.00000000000E+00  0.56943131066E+03  0.56943131066E+03  0.00000000000E+00 0. -1.
          2   -1    0    0  501    0  0.00000000000E+00 -0.00000000000E+00 -0.17145610190E+04  0.17145610190E+04  0.00000000000E+00 0.  1.
         23    2    1    2    0    0 -0.27608707849E+03  0.36685110366E+03  0.43413018151E+03  0.63934476655E+03  0.97411030430E+02 0.  0.
         11    1    3    3    0    0 -0.67978789623E+02  0.16416818010E+03  0.18690823887E+03  0.25788950532E+03  0.00000000000E+00 0. -1.
        -11    1    3    3    0    0 -0.20810828887E+03  0.20268292357E+03  0.24722194264E+03  0.38145526124E+03  0.00000000000E+00 0.  1.
         22    1    1    2    0    0  0.27608707849E+03 -0.36685110366E+03 -0.15792598898E+04  0.16446475631E+04  0.00000000000E+00 0.  1.
<mgrwt>
<rscale>  0 0.19761829E+04</rscale>
<asrwt>0</asrwt>
<pdfrwt beam="1">  1        2 0.26377862E+00 0.19761829E+04</pdfrwt>
<pdfrwt beam="2">  1       -2 0.87604818E-01 0.19761829E+04</pdfrwt>
<totfact> 0.10075470E+01</totfact>
</mgrwt>
</event>
<event>
 6    1  0.1934315E-005  0.1831130E+04  0.7818608E-02  0.8689918E-01
         -2   -1    0    0    0  501 -0.00000000000E+00  0.00000000000E+00  0.56332420177E+03  0.56332420177E+03  0.00000000000E+00 0. -1.
          2   -1    0    0  501    0  0.00000000000E+00 -0.00000000000E+00 -0.14880579511E+04  0.14880579511E+04  0.00000000000E+00 0.  1.
         23    2    1    2    0    0 -0.38339096374E+03 -0.29756810005E+03 -0.13308104513E+04  0.14185838491E+04  0.76080709862E+02 0.  0.
         13    1    3    3    0    0 -0.33418761320E+03 -0.24516060692E+03 -0.11963853731E+04  0.12661449542E+04  0.00000000000E+00 0.  1.
        -13    1    3    3    0    0 -0.49203350535E+02 -0.52407493132E+02 -0.13442507820E+03  0.15243889493E+03  0.00000000000E+00 0. -1.
         22    1    1    2    0    0  0.38339096374E+03  0.29756810005E+03  0.40607670202E+03  0.63279830370E+03  0.00000000000E+00 0. -1.
<mgrwt>
<rscale>  0 0.18311298E+04</rscale>
<asrwt>0</asrwt>
<pdfrwt beam="1">  1        2 0.22893199E+00 0.18311298E+04</pdfrwt>
<pdfrwt beam="2">  1       -2 0.86665261E-01 0.18311298E+04</pdfrwt>
<totfact> 0.13995539E+01</totfact>
</mgrwt>
</event>
<event>
 6    1  0.1934315E-005  0.1192472E+04  0.7818608E-02  0.9119472E-01
         -2   -1    0    0    0  501 -0.00000000000E+00  0.00000000000E+00  0.33519160570E+03  0.33519160570E+03  0.00000000000E+00 0. -1.
          2   -1    0    0  501    0  0.00000000000E+00 -0.00000000000E+00 -0.10605790507E+04  0.10605790507E+04  0.00000000000E+00 0.  1.
         23    2    1    2    0    0  0.29399357130E+03  0.49077843863E+03 -0.18262652910E+03  0.60717373299E+03  0.89508642677E+02 0.  0.
         11    1    3    3    0    0  0.21389129582E+03  0.34595726888E+03 -0.86669715708E+02  0.41586964056E+03  0.00000000000E+00 0. -1.
        -11    1    3    3    0    0  0.80102275480E+02  0.14482116975E+03 -0.95956813391E+02  0.19130409243E+03  0.00000000000E+00 0.  1.
         22    1    1    2    0    0 -0.29399357130E+03 -0.49077843863E+03 -0.54276091593E+03  0.78859692344E+03  0.00000000000E+00 0.  1.
<mgrwt>
<rscale>  0 0.11924717E+04</rscale>
<asrwt>0</asrwt>
<pdfrwt beam="1">  1        2 0.16316601E+00 0.11924717E+04</pdfrwt>
<pdfrwt beam="2">  1       -2 0.51567940E-01 0.11924717E+04</pdfrwt>
<totfact> 0.80828749E+01</totfact>
</mgrwt>
</event>
<event>
 6    1  0.1934315E-005  0.5966504E+04  0.7818608E-02  0.7694569E-01
          2   -1    0    0  501    0  0.00000000000E+00  0.00000000000E+00  0.30506791843E+04  0.30506791843E+04  0.00000000000E+00 0.  1.
         -2   -1    0    0    0  501 -0.00000000000E+00 -0.00000000000E+00 -0.29173155483E+04  0.29173155483E+04  0.00000000000E+00 0. -1.
         23    2    1    2    0    0 -0.51913184851E+03 -0.42319474873E+03  0.29735407971E+04  0.30499135176E+04  0.10693886839E+03 0.  0.
         13    1    3    3    0    0 -0.38202949392E+03 -0.33708651208E+03  0.20550804955E+04  0.21172930109E+04  0.00000000000E+00 0.  1.
        -13    1    3    3    0    0 -0.13710235460E+03 -0.86108236647E+02  0.91846030152E+03  0.93262050671E+03  0.00000000000E+00 0. -1.
         22    1    1    2    0    0  0.51913184851E+03  0.42319474873E+03 -0.28401771611E+04  0.29180812151E+04  0.00000000000E+00 0. -1.
<mgrwt>
<rscale>  0 0.59665044E+04</rscale>
<asrwt>0</asrwt>
<pdfrwt beam="1">  1        2 0.46933526E+00 0.59665044E+04</pdfrwt>
<pdfrwt beam="2">  1       -2 0.44881777E+00 0.59665044E+04</pdfrwt>
<totfact> 0.38736464E-03</totfact>
</mgrwt>
</event>
<event>
 6    1  0.1934315E-005  0.1373590E+04  0.7818608E-02  0.8973161E-01
         -2   -1    0    0    0  501 -0.00000000000E+00  0.00000000000E+00  0.14485692375E+03  0.14485692375E+03  0.00000000000E+00 0. -1.
          2   -1    0    0  501    0  0.00000000000E+00 -0.00000000000E+00 -0.32562278124E+04  0.32562278124E+04  0.00000000000E+00 0.  1.
         23    2    1    2    0    0 -0.46002567537E+03  0.31830845725E+03 -0.58746770537E+03  0.81592880767E+03  0.87622019947E+02 0.  0.
         11    1    3    3    0    0 -0.19076327985E+03  0.97496031911E+02 -0.27039069615E+03  0.34497425084E+03  0.00000000000E+00 0.  1.
        -11    1    3    3    0    0 -0.26926239552E+03  0.22081242534E+03 -0.31707700922E+03  0.47095455684E+03  0.00000000000E+00 0. -1.
         22    1    1    2    0    0  0.46002567537E+03 -0.31830845725E+03 -0.25239031833E+04  0.25851559285E+04  0.00000000000E+00 0.  1.
<mgrwt>
<rscale>  0 0.13735897E+04</rscale>
<asrwt>0</asrwt>
<pdfrwt beam="1">  1        2 0.50095809E+00 0.13735897E+04</pdfrwt>
<pdfrwt beam="2">  1       -2 0.22285682E-01 0.13735897E+04</pdfrwt>
<totfact> 0.20774597E+01</totfact>
</mgrwt>
</event>
<event>
 6    1  0.1934315E-005  0.2930099E+04  0.7818608E-02  0.8263978E-01
         -2   -1    0    0    0  501 -0.00000000000E+00  0.00000000000E+00  0.17182806471E+04  0.17182806471E+04  0.00000000000E+00 0. -1.
          2   -1    0    0  501    0  0.00000000000E+00 -0.00000000000E+00 -0.12491379983E+04  0.12491379983E+04  0.00000000000E+00 0.  1.
         23    2    1    2    0    0  0.74094077935E+03  0.96647320674E+03 -0.58715836410E+03  0.13553282237E+04  0.95372697965E+02 0.  0.
         13    1    3    3    0    0  0.75367580491E+02  0.14491444928E+03 -0.96285146881E+02  0.18960827859E+03  0.00000000000E+00 0. -1.
        -13    1    3    3    0    0  0.66557319886E+03  0.82155875746E+03 -0.49087321722E+03  0.11657199451E+04  0.00000000000E+00 0.  1.
         22    1    1    2    0    0 -0.74094077935E+03 -0.96647320674E+03  0.10563010129E+04  0.16120904217E+04  0.00000000000E+00 0. -1.
<mgrwt>
<rscale>  0 0.29300987E+04</rscale>
<asrwt>0</asrwt>
<pdfrwt beam="1">  1        2 0.19217508E+00 0.29300987E+04</pdfrwt>
<pdfrwt beam="2">  1       -2 0.26435087E+00 0.29300987E+04</pdfrwt>
<totfact> 0.80004913E-01</totfact>
</mgrwt>
</event>
<event>
 6    1  0.1934315E-005  0.1334220E+04  0.7818608E-02  0.9002860E-01
         -2   -1    0    0    0  501 -0.00000000000E+00  0.00000000000E+00  0.13609161767E+04  0.13609161767E+04  0.00000000000E+00 0. -1.
          2   -1    0    0  501    0  0.00000000000E+00 -0.00000000000E+00 -0.32701184814E+03  0.32701184814E+03  0.00000000000E+00 0.  1.
         23    2    1    2    0    0 -0.14198385563E+02 -0.50722084505E+03 -0.22448631207E+02  0.51602523219E+03  0.91123649014E+02 0.  0.
         13    1    3    3    0    0  0.41903569023E+01 -0.22259482486E+03 -0.53931836686E+02  0.22907347763E+03  0.00000000000E+00 0.  1.
        -13    1    3    3    0    0 -0.18388742465E+02 -0.28462602019E+03  0.31483205479E+02  0.28695175456E+03  0.00000000000E+00 0. -1.
         22    1    1    2    0    0  0.14198385563E+02  0.50722084505E+03  0.10563529598E+04  0.11719027927E+04  0.00000000000E+00 0. -1.
<mgrwt>
<rscale>  0 0.13342199E+04</rscale>
<asrwt>0</asrwt>
<pdfrwt beam="1">  1        2 0.50309516E-01 0.13342199E+04</pdfrwt>
<pdfrwt beam="2">  1       -2 0.20937172E+00 0.13342199E+04</pdfrwt>
<totfact> 0.11262632E+01</totfact>
</mgrwt>
</event>
<event>
 6    1  0.1934315E-005  0.1309817E+04  0.7818608E-02  0.9021817E-01
          2   -1    0    0  501    0  0.00000000000E+00  0.00000000000E+00  0.19064665696E+04  0.19064665696E+04  0.00000000000E+00 0.  1.
         -2   -1    0    0    0  501 -0.00000000000E+00 -0.00000000000E+00 -0.22497369387E+03  0.22497369387E+03  0.00000000000E+00 0. -1.
         23    2    1    2    0    0  0.15701393279E+03  0.36643018834E+03  0.57744696222E+01  0.40895466568E+03  0.91028105914E+02 0.  0.
         11    1    3    3    0    0  0.83118615929E+02  0.11104740555E+03  0.30257555933E+02  0.14197094873E+03  0.00000000000E+00 0. -1.
        -11    1    3    3    0    0  0.73895316858E+02  0.25538278279E+03 -0.24483086311E+02  0.26698371695E+03  0.00000000000E+00 0.  1.
         22    1    1    2    0    0 -0.15701393279E+03 -0.36643018834E+03  0.16757184061E+04  0.17224855978E+04  0.00000000000E+00 0.  1.
<mgrwt>
<rscale>  0 0.13098165E+04</rscale>
<asrwt>0</asrwt>
<pdfrwt beam="1">  1        2 0.29330254E+00 0.13098165E+04</pdfrwt>
<pdfrwt beam="2">  1       -2 0.34611339E-01 0.13098165E+04</pdfrwt>
<totfact> 0.57757734E+01</totfact>
</mgrwt>
</event>
<event>
 6    1  0.1934315E-005  0.1050573E+04  0.7818608E-02  0.9254753E-01
          2   -1    0    0  501    0  0.00000000000E+00  0.00000000000E+00  0.11314910584E+04  0.11314910584E+04  0.00000000000E+00 0. -1.
         -2   -1    0    0    0  501 -0.00000000000E+00 -0.00000000000E+00 -0.24386032397E+03  0.24386032397E+03  0.00000000000E+00 0.  1.
         23    2    1    2    0    0 -0.41599837942E+03 -0.28877306809E+02  0.37315624406E+02  0.42829048842E+03  0.90286965367E+02 0.  0.
         13    1    3    3    0    0 -0.16634436652E+03 -0.43753833452E+02 -0.15426367118E+02  0.17269284587E+03  0.00000000000E+00 0.  1.
        -13    1    3    3    0    0 -0.24965401290E+03  0.14876526642E+02  0.52741991524E+02  0.25559764254E+03  0.00000000000E+00 0. -1.
         22    1    1    2    0    0  0.41599837942E+03  0.28877306809E+02  0.85031511005E+03  0.94706089398E+03  0.00000000000E+00 0. -1.
<mgrwt>
<rscale>  0 0.10505728E+04</rscale>
<asrwt>0</asrwt>
<pdfrwt beam="1">  1        2 0.17407554E+00 0.10505728E+04</pdfrwt>
<pdfrwt beam="2">  1       -2 0.37516974E-01 0.10505728E+04</pdfrwt>
<totfact> 0.13888745E+02</totfact>
</mgrwt>
</event>
<event>
 6    1  0.1934315E-005  0.3040235E+04  0.7818608E-02  0.8232334E-01
         -2   -1    0    0    0  501 -0.00000000000E+00  0.00000000000E+00  0.67593141203E+03  0.67593141203E+03  0.00000000000E+00 0. -1.
          2   -1    0    0  501    0  0.00000000000E+00 -0.00000000000E+00 -0.34186258056E+04  0.34186258056E+04  0.00000000000E+00 0.  1.
         23    2    1    2    0    0  0.73528976420E+03 -0.70034925693E+03  0.14869308473E+03  0.10300406703E+04  0.87943334351E+02 0.  0.
         11    1    3    3    0    0  0.40167795859E+03 -0.40871408252E+03  0.44083770811E+02  0.57474843412E+03  0.00000000000E+00 0.  1.
        -11    1    3    3    0    0  0.33361180561E+03 -0.29163517441E+03  0.10460931392E+03  0.45529223621E+03  0.00000000000E+00 0. -1.
         22    1    1    2    0    0 -0.73528976420E+03  0.70034925693E+03 -0.28913874783E+04  0.30645165473E+04  0.00000000000E+00 0.  1.
<mgrwt>
<rscale>  0 0.30402346E+04</rscale>
<asrwt>0</asrwt>
<pdfrwt beam="1">  1        2 0.52594243E+00 0.30402346E+04</pdfrwt>
<pdfrwt beam="2">  1       -2 0.10398945E+00 0.30402346E+04</pdfrwt>
<totfact> 0.59374343E-01</totfact>
</mgrwt>
</event>
<event>
 6    1  0.1934315E-005  0.5119515E+04  0.7818608E-02  0.7810331E-01
         -2   -1    0    0    0  501 -0.00000000000E+00  0.00000000000E+00  0.15503014156E+04  0.15503014156E+04  0.00000000000E+00 0. -1.
          2   -1    0    0  501    0  0.00000000000E+00 -0.00000000000E+00 -0.42265058331E+04  0.42265058331E+04  0.00000000000E+00 0.  1.
         23    2    1    2    0    0 -0.28638091237E+03  0.16538411757E+04  0.84095837786E+03  0.18796751249E+04  0.93610472810E+02 0.  0.
         13    1    3    3    0    0 -0.40861127269E+02  0.48174554794E+03  0.23519217737E+03  0.53764650560E+03  0.00000000000E+00 0.  1.
        -13    1    3    3    0    0 -0.24551978510E+03  0.11720956277E+04  0.60576620049E+03  0.13420286193E+04  0.00000000000E+00 0. -1.
         22    1    1    2    0    0  0.28638091237E+03 -0.16538411757E+04 -0.35171627953E+04  0.38971321238E+04  0.00000000000E+00 0.  1.
<mgrwt>
<rscale>  0 0.51195148E+04</rscale>
<asrwt>0</asrwt>
<pdfrwt beam="1">  1        2 0.65023167E+00 0.51195148E+04</pdfrwt>
<pdfrwt beam="2">  1       -2 0.23850791E+00 0.51195148E+04</pdfrwt>
<totfact> 0.11950334E-02</totfact>
</mgrwt>
</event>
<event>
 6    1  0.1934315E-005  0.2896341E+04  0.7818608E-02  0.8273967E-01
         -2   -1    0    0    0  501 -0.00000000000E+00  0.00000000000E+00  0.51743160851E+03  0.51743160851E+03  0.00000000000E+00 0. -1.
          2   -1    0    0  501    0  0.00000000000E+00 -0.00000000000E+00 -0.40530916264E+04  0.40530916264E+04  0.00000000000E+00 0.  1.
         23    2    1    2    0    0  0.25598879542E+03  0.10903230657E+04 -0.32147251676E+04  0.34054765280E+04  0.92075123441E+02 0.  0.
         11    1    3    3    0    0  0.13864583390E+03  0.70950415280E+03 -0.19653546219E+04  0.20940958908E+04  0.00000000000E+00 0. -1.
        -11    1    3    3    0    0  0.11734296152E+03  0.38081891294E+03 -0.12493705458E+04  0.13113806372E+04  0.00000000000E+00 0.  1.
         22    1    1    2    0    0 -0.25598879542E+03 -0.10903230657E+04 -0.32093485022E+03  0.11650467069E+04  0.00000000000E+00 0. -1.
<mgrwt>
<rscale>  0 0.28963409E+04</rscale>
<asrwt>0</asrwt>
<pdfrwt beam="1">  1        2 0.62355258E+00 0.28963409E+04</pdfrwt>
<pdfrwt beam="2">  1       -2 0.79604860E-01 0.28963409E+04</pdfrwt>
<totfact> 0.37362956E-01</totfact>
</mgrwt>
</event>
<event>
 6    1  0.1934315E-005  0.1675925E+04  0.7818608E-02  0.8775216E-01
         -1   -1    0    0    0  501 -0.00000000000E+00  0.00000000000E+00  0.86968107975E+03  0.86968107975E+03  0.00000000000E+00 0. -1.
          1   -1    0    0  501    0  0.00000000000E+00 -0.00000000000E+00 -0.80740059064E+03  0.80740059064E+03  0.00000000000E+00 0.  1.
         23    2    1    2    0    0  0.80974855128E+03 -0.19277586986E+03  0.91456281222E+02  0.84419123393E+03  0.10695483054E+03 0.  0.
         13    1    3    3    0    0  0.55507597644E+03 -0.18251859742E+03  0.60397638931E+02  0.58742680635E+03  0.00000000000E+00 0. -1.
        -13    1    3    3    0    0  0.25467257484E+03 -0.10257272439E+02  0.31058642290E+02  0.25676442759E+03  0.00000000000E+00 0.  1.
         22    1    1    2    0    0 -0.80974855128E+03  0.19277586986E+03 -0.29175792107E+02  0.83289043646E+03  0.00000000000E+00 0.  1.
<mgrwt>
<rscale>  0 0.16759248E+04</rscale>
<asrwt>0</asrwt>
<pdfrwt beam="1">  1        1 0.12421547E+00 0.16759248E+04</pdfrwt>
<pdfrwt beam="2">  1       -1 0.13379709E+00 0.16759248E+04</pdfrwt>
<totfact> 0.97918999E+00</totfact>
</mgrwt>
</event>
<event>
 6    1  0.1934315E-005  0.2382410E+04  0.7818608E-02  0.8446119E-01
         -2   -1    0    0    0  501 -0.00000000000E+00  0.00000000000E+00  0.13391158795E+04  0.13391158795E+04  0.00000000000E+00 0. -1.
          2   -1    0    0  501    0  0.00000000000E+00 -0.00000000000E+00 -0.10596311975E+04  0.10596311975E+04  0.00000000000E+00 0.  1.
         23    2    1    2    0    0 -0.36833568631E+03 -0.76725994395E+03  0.97659077786E+03  0.12986034916E+04  0.91008140696E+02 0.  0.
         13    1    3    3    0    0 -0.28876732129E+03 -0.66022222109E+03  0.79056985415E+03  0.10697105409E+04  0.00000000000E+00 0.  1.
        -13    1    3    3    0    0 -0.79568365012E+02 -0.10703772286E+03  0.18602092371E+03  0.22889295071E+03  0.00000000000E+00 0. -1.
         22    1    1    2    0    0  0.36833568631E+03  0.76725994395E+03 -0.69710609587E+03  0.11001435853E+04  0.00000000000E+00 0.  1.
<mgrwt>
<rscale>  0 0.23824097E+04</rscale>
<asrwt>0</asrwt>
<pdfrwt beam="1">  1        2 0.16302018E+00 0.23824097E+04</pdfrwt>
<pdfrwt beam="2">  1       -2 0.20601783E+00 0.23824097E+04</pdfrwt>
<totfact> 0.25252792E+00</totfact>
</mgrwt>
</event>
<event>
 6    1  0.1934315E-005  0.4262206E+04  0.7818608E-02  0.7953644E-01
         -2   -1    0    0    0  501 -0.00000000000E+00  0.00000000000E+00  0.11128482747E+04  0.11128482747E+04  0.00000000000E+00 0. -1.
          2   -1    0    0  501    0  0.00000000000E+00 -0.00000000000E+00 -0.40810586687E+04  0.40810586687E+04  0.00000000000E+00 0.  1.
         23    2    1    2    0    0 -0.18201855712E+04  0.54265797413E+03 -0.26599238991E+04  0.32696944413E+04  0.90296181245E+02 0.  0.
         11    1    3    3    0    0 -0.13691209071E+04  0.37100773051E+03 -0.20129056885E+04  0.24625044376E+04  0.00000000000E+00 0. -1.
        -11    1    3    3    0    0 -0.45106466401E+03  0.17165024362E+03 -0.64701821062E+03  0.80719000373E+03  0.00000000000E+00 0.  1.
         22    1    1    2    0    0  0.18201855712E+04 -0.54265797413E+03 -0.30828649492E+03  0.19242125021E+04  0.00000000000E+00 0. -1.
<mgrwt>
<rscale>  0 0.42622056E+04</rscale>
<asrwt>0</asrwt>
<pdfrwt beam="1">  1        2 0.62785517E+00 0.42622056E+04</pdfrwt>
<pdfrwt beam="2">  1       -2 0.17120743E+00 0.42622056E+04</pdfrwt>
<totfact> 0.47159741E-02</totfact>
</mgrwt>
</event>
<event>
 6    1  0.1934315E-005  0.1649101E+04  0.7818608E-02  0.8790938E-01
         -2   -1    0    0    0  501 -0.00000000000E+00  0.00000000000E+00  0.86762832734E+03  0.86762832734E+03  0.00000000000E+00 0.  1.
          2   -1    0    0  501    0  0.00000000000E+00 -0.00000000000E+00 -0.78361149489E+03  0.78361149489E+03  0.00000000000E+00 0. -1.
         23    2    1    2    0    0 -0.76818987151E+03  0.28410658384E+03  0.11306866236E+03  0.83168125904E+03  0.89871934194E+02 0.  0.
         13    1    3    3    0    0 -0.20506616382E+03  0.10539947400E+03  0.61539623081E+02  0.23863844173E+03  0.00000000000E+00 0.  1.
        -13    1    3    3    0    0 -0.56312370769E+03  0.17870710984E+03  0.51529039278E+02  0.59304281731E+03  0.00000000000E+00 0. -1.
         22    1    1    2    0    0  0.76818987151E+03 -0.28410658384E+03 -0.29051829915E+02  0.81955856319E+03  0.00000000000E+00 0. -1.
<mgrwt>
<rscale>  0 0.16491010E+04</rscale>
<asrwt>0</asrwt>
<pdfrwt beam="1">  1        2 0.12055561E+00 0.16491010E+04</pdfrwt>
<pdfrwt beam="2">  1       -2 0.13348128E+00 0.16491010E+04</pdfrwt>
<totfact> 0.13731826E+01</totfact>
</mgrwt>
</event>
<event>
 6    1  0.1934315E-005  0.5752588E+03  0.7818608E-02  0.9958109E-01
         -2   -1    0    0    0  501 -0.00000000000E+00  0.00000000000E+00  0.35208306704E+02  0.35208306704E+02  0.00000000000E+00 0. -1.
          2   -1    0    0  501    0  0.00000000000E+00 -0.00000000000E+00 -0.23497490316E+04  0.23497490316E+04  0.00000000000E+00 0.  1.
         23    2    1    2    0    0  0.79203080710E+02  0.27412005344E+02 -0.22956577803E+04  0.22990439422E+04  0.92378881436E+02 0.  0.
         11    1    3    3    0    0  0.31038278924E+02  0.46194719972E+02 -0.17642075515E+04  0.17650851571E+04  0.00000000000E+00 0.  1.
        -11    1    3    3    0    0  0.48164801786E+02 -0.18782714628E+02 -0.53145022883E+03  0.53395878514E+03  0.00000000000E+00 0. -1.
         22    1    1    2    0    0 -0.79203080710E+02 -0.27412005344E+02 -0.18882944535E+02  0.85913396075E+02  0.00000000000E+00 0. -1.
<mgrwt>
<rscale>  0 0.57525884E+03</rscale>
<asrwt>0</asrwt>
<pdfrwt beam="1">  1        2 0.36149992E+00 0.57525884E+03</pdfrwt>
<pdfrwt beam="2">  1       -2 0.54166616E-02 0.57525884E+03</pdfrwt>
<totfact> 0.81050419E+02</totfact>
</mgrwt>
</event>
<event>
 6    1  0.1934315E-005  0.1167747E+04  0.7818608E-02  0.9141566E-01
          2   -1    0    0  501    0  0.00000000000E+00  0.00000000000E+00  0.20126709306E+04  0.20126709306E+04  0.00000000000E+00 0.  1.
         -2   -1    0    0    0  501 -0.00000000000E+00 -0.00000000000E+00 -0.16938093957E+03  0.16938093957E+03  0.00000000000E+00 0. -1.
         23    2    1    2    0    0 -0.41390121902E+03  0.20238005511E+02  0.16864344356E+04  0.17389633223E+04  0.90600964223E+02 0.  0.
         11    1    3    3    0    0 -0.23755483980E+03 -0.24728800820E+02  0.84714899352E+03  0.88017341060E+03  0.00000000000E+00 0. -1.
        -11    1    3    3    0    0 -0.17634637922E+03  0.44966806331E+02  0.83928544205E+03  0.85878991166E+03  0.00000000000E+00 0.  1.
         22    1    1    2    0    0  0.41390121902E+03 -0.20238005511E+02  0.15685555541E+03  0.44308854786E+03  0.00000000000E+00 0. -1.
<mgrwt>
<rscale>  0 0.11677467E+04</rscale>
<asrwt>0</asrwt>
<pdfrwt beam="1">  1        2 0.30964167E+00 0.11677467E+04</pdfrwt>
<pdfrwt beam="2">  1       -2 0.26058607E-01 0.11677467E+04</pdfrwt>
<totfact> 0.86607537E+01</totfact>
</mgrwt>
</event>
<event>
 6    1  0.1934315E-005  0.2291675E+04  0.7818608E-02  0.8481211E-01
         -2   -1    0    0    0  501 -0.00000000000E+00  0.00000000000E+00  0.91636931048E+03  0.91636931048E+03  0.00000000000E+00 0. -1.
          2   -1    0    0  501    0  0.00000000000E+00 -0.00000000000E+00 -0.14327673510E+04  0.14327673510E+04  0.00000000000E+00 0.  1.
         23    2    1    2    0    0  0.77683492404E+03 -0.82551624008E+03 -0.42353816377E+03  0.12117833661E+04  0.63912349455E+02 0.  0.
         11    1    3    3    0    0  0.30105048159E+03 -0.28491305235E+03 -0.13421733737E+03  0.43568467211E+03  0.00000000000E+00 0. -1.
        -11    1    3    3    0    0  0.47578444245E+03 -0.54060318773E+03 -0.28932082640E+03  0.77609869401E+03  0.00000000000E+00 0.  1.
         22    1    1    2    0    0 -0.77683492404E+03  0.82551624008E+03 -0.92859876796E+02  0.11373532954E+04  0.00000000000E+00 0.  1.
<mgrwt>
<rscale>  0 0.22916754E+04</rscale>
<asrwt>0</asrwt>
<pdfrwt beam="1">  1        2 0.22042575E+00 0.22916754E+04</pdfrwt>
<pdfrwt beam="2">  1       -2 0.14097989E+00 0.22916754E+04</pdfrwt>
<totfact> 0.44355960E+00</totfact>
</mgrwt>
</event>
<event>
 6    1  0.1934315E-005  0.1362113E+04  0.7818608E-02  0.8981709E-01
          2   -1    0    0  501    0  0.00000000000E+00  0.00000000000E+00  0.55887025654E+03  0.55887025654E+03  0.00000000000E+00 0.  1.
         -2   -1    0    0    0  501 -0.00000000000E+00 -0.00000000000E+00 -0.82995686136E+03  0.82995686136E+03  0.00000000000E+00 0. -1.
         23    2    1    2    0    0 -0.70820870655E+02 -0.86783570842E+02 -0.81784810788E+03  0.83070963464E+03  0.93037549627E+02 0.  0.
         13    1    3    3    0    0  0.55875479235E+00 -0.93233450215E+00 -0.33960880036E+03  0.33961053979E+03  0.00000000000E+00 0. -1.
        -13    1    3    3    0    0 -0.71379625447E+02 -0.85851236340E+02 -0.47823930752E+03  0.49109909485E+03  0.00000000000E+00 0.  1.
         22    1    1    2    0    0  0.70820870655E+02  0.86783570842E+02  0.54676150306E+03  0.55811748325E+03  0.00000000000E+00 0.  1.
<mgrwt>
<rscale>  0 0.13621134E+04</rscale>
<asrwt>0</asrwt>
<pdfrwt beam="1">  1        2 0.85980040E-01 0.13621134E+04</pdfrwt>
<pdfrwt beam="2">  1       -2 0.12768567E+00 0.13621134E+04</pdfrwt>
<totfact> 0.23948377E+01</totfact>
</mgrwt>
</event>
<event>
 6    1  0.1934315E-005  0.1277970E+04  0.7818608E-02  0.9047220E-01
          2   -1    0    0  501    0  0.00000000000E+00  0.00000000000E+00  0.81809129970E+03  0.81809129970E+03  0.00000000000E+00 0.  1.
         -2   -1    0    0    0  501 -0.00000000000E+00 -0.00000000000E+00 -0.49909073523E+03  0.49909073523E+03  0.00000000000E+00 0. -1.
         23    2    1    2    0    0 -0.41568251526E+02 -0.37837964929E+03 -0.36430684816E+03  0.53500040724E+03  0.92773259075E+02 0.  0.
         13    1    3    3    0    0 -0.41992711750E+02 -0.19585227531E+03 -0.13338455479E+03  0.24065107737E+03  0.00000000000E+00 0. -1.
        -13    1    3    3    0    0  0.42446022331E+00 -0.18252737398E+03 -0.23092229337E+03  0.29434932987E+03  0.00000000000E+00 0.  1.
         22    1    1    2    0    0  0.41568251526E+02  0.37837964929E+03  0.68330741264E+03  0.78218162769E+03  0.00000000000E+00 0.  1.
<mgrwt>
<rscale>  0 0.12779699E+04</rscale>
<asrwt>0</asrwt>
<pdfrwt beam="1">  1        2 0.12586020E+00 0.12779699E+04</pdfrwt>
<pdfrwt beam="2">  1       -2 0.76783190E-01 0.12779699E+04</pdfrwt>
<totfact> 0.49752720E+01</totfact>
</mgrwt>
</event>
<event>
 6    1  0.1934315E-005  0.2265573E+04  0.7818608E-02  0.8491620E-01
          2   -1    0    0  501    0  0.00000000000E+00  0.00000000000E+00  0.21689909378E+04  0.21689909378E+04  0.00000000000E+00 0.  1.
         -2   -1    0    0    0  501 -0.00000000000E+00 -0.00000000000E+00 -0.59161406270E+03  0.59161406270E+03  0.00000000000E+00 0. -1.
         23    2    1    2    0    0 -0.46248584254E+03 -0.58616880019E+03 -0.24703406286E+03  0.78932057470E+03  0.67187235179E+02 0.  0.
         11    1    3    3    0    0 -0.34381845930E+03 -0.45597996995E+03 -0.21538405447E+03  0.61034347450E+03  0.00000000000E+00 0. -1.
        -11    1    3    3    0    0 -0.11866738325E+03 -0.13018883023E+03 -0.31650008392E+02  0.17897710020E+03  0.00000000000E+00 0.  1.
         22    1    1    2    0    0  0.46248584254E+03  0.58616880019E+03  0.18244109379E+04  0.19712844258E+04  0.00000000000E+00 0.  1.
<mgrwt>
<rscale>  0 0.22655733E+04</rscale>
<asrwt>0</asrwt>
<pdfrwt beam="1">  1        2 0.33369091E+00 0.22655733E+04</pdfrwt>
<pdfrwt beam="2">  1       -2 0.91017549E-01 0.22655733E+04</pdfrwt>
<totfact> 0.50315180E+00</totfact>
</mgrwt>
</event>
<event>
 6    1  0.1934315E-005  0.2551418E+04  0.7818608E-02  0.8384893E-01
          2   -1    0    0  501    0  0.00000000000E+00  0.00000000000E+00  0.12421451995E+04  0.12421451995E+04  0.00000000000E+00 0.  1.
         -2   -1    0    0    0  501 -0.00000000000E+00 -0.00000000000E+00 -0.13101801426E+04  0.13101801426E+04  0.00000000000E+00 0. -1.
         23    2    1    2    0    0  0.41374209854E+03 -0.11567667316E+04  0.30383056560E+03  0.12687460684E+04  0.90065409642E+02 0.  0.
         13    1    3    3    0    0  0.15005720030E+03 -0.50339916191E+03  0.16533037924E+03  0.55069230417E+03  0.00000000000E+00 0.  1.
        -13    1    3    3    0    0  0.26368489824E+03 -0.65336756966E+03  0.13850018636E+03  0.71805376419E+03  0.00000000000E+00 0. -1.
         22    1    1    2    0    0 -0.41374209854E+03  0.11567667316E+04 -0.37186550868E+03  0.12835792737E+04  0.00000000000E+00 0. -1.
<mgrwt>
<rscale>  0 0.25514184E+04</rscale>
<asrwt>0</asrwt>
<pdfrwt beam="1">  1        2 0.19109926E+00 0.25514184E+04</pdfrwt>
<pdfrwt beam="2">  1       -2 0.20156618E+00 0.25514184E+04</pdfrwt>
<totfact> 0.20623390E+00</totfact>
</mgrwt>
</event>
<event>
 6    1  0.1934315E-005  0.8563297E+03  0.7818608E-02  0.9481881E-01
          2   -1    0    0  501    0  0.00000000000E+00  0.00000000000E+00  0.71136068042E+03  0.71136068042E+03  0.00000000000E+00 0.  1.
         -2   -1    0    0    0  501 -0.00000000000E+00 -0.00000000000E+00 -0.25771053202E+03  0.25771053202E+03  0.00000000000E+00 0. -1.
         23    2    1    2    0    0  0.38588598714E+03  0.15059017540E+03  0.32731256848E+03  0.53600472783E+03  0.92639919978E+02 0.  0.
         11    1    3    3    0    0  0.15033232903E+03  0.83452239910E+02  0.86329878046E+02  0.19239785171E+03  0.00000000000E+00 0.  1.
        -11    1    3    3    0    0  0.23555365810E+03  0.67137935491E+02  0.24098269043E+03  0.34360687612E+03  0.00000000000E+00 0. -1.
         22    1    1    2    0    0 -0.38588598714E+03 -0.15059017540E+03  0.12633757992E+03  0.43306648461E+03  0.00000000000E+00 0.  1.
<mgrwt>
<rscale>  0 0.85632970E+03</rscale>
<asrwt>0</asrwt>
<pdfrwt beam="1">  1        2 0.10944010E+00 0.85632970E+03</pdfrwt>
<pdfrwt beam="2">  1       -2 0.39647775E-01 0.85632970E+03</pdfrwt>
<totfact> 0.24252549E+02</totfact>
</mgrwt>
</event>
<event>
 6    1  0.1934315E-005  0.1739608E+04  0.7818608E-02  0.8739091E-01
         -4   -1    0    0    0  501 -0.00000000000E+00  0.00000000000E+00  0.10996735556E+04  0.10996735556E+04  0.00000000000E+00 0.  1.
          4   -1    0    0  501    0  0.00000000000E+00 -0.00000000000E+00 -0.68798501354E+03  0.68798501354E+03  0.00000000000E+00 0. -1.
         23    2    1    2    0    0 -0.93826655738E+02 -0.14654989180E+03  0.10797437064E+04  0.10973122685E+04  0.89260466903E+02 0.  0.
         13    1    3    3    0    0 -0.46055481145E+02 -0.10637338243E+03  0.45791382525E+03  0.47235735962E+03  0.00000000000E+00 0. -1.
        -13    1    3    3    0    0 -0.47771174592E+02 -0.40176509369E+02  0.62182988115E+03  0.62495490887E+03  0.00000000000E+00 0.  1.
         22    1    1    2    0    0  0.93826655738E+02  0.14654989180E+03 -0.66805516438E+03  0.69034630061E+03  0.00000000000E+00 0. -1.
<mgrwt>
<rscale>  0 0.17396079E+04</rscale>
<asrwt>0</asrwt>
<pdfrwt beam="1">  1        4 0.10584385E+00 0.17396079E+04</pdfrwt>
<pdfrwt beam="2">  1       -4 0.16918055E+00 0.17396079E+04</pdfrwt>
<totfact> 0.29299319E-01</totfact>
</mgrwt>
</event>
<event>
 6    1  0.1934315E-005  0.2325694E+04  0.7818608E-02  0.8467859E-01
         -2   -1    0    0    0  501 -0.00000000000E+00  0.00000000000E+00  0.98109077177E+03  0.98109077177E+03  0.00000000000E+00 0. -1.
          2   -1    0    0  501    0  0.00000000000E+00 -0.00000000000E+00 -0.13782755862E+04  0.13782755862E+04  0.00000000000E+00 0.  1.
         23    2    1    2    0    0 -0.54103825829E+03  0.50062643609E+03 -0.11088823988E+04  0.13347382903E+04  0.92503534316E+02 0.  0.
         13    1    3    3    0    0 -0.32176001619E+03  0.32328808897E+03 -0.61013610777E+03  0.76178131146E+03  0.00000000000E+00 0.  1.
        -13    1    3    3    0    0 -0.21927824210E+03  0.17733834712E+03 -0.49874629103E+03  0.57295697887E+03  0.00000000000E+00 0. -1.
         22    1    1    2    0    0  0.54103825829E+03 -0.50062643609E+03  0.71169758436E+03  0.10246280677E+04  0.00000000000E+00 0. -1.
<mgrwt>
<rscale>  0 0.23256943E+04</rscale>
<asrwt>0</asrwt>
<pdfrwt beam="1">  1        2 0.21204240E+00 0.23256943E+04</pdfrwt>
<pdfrwt beam="2">  1       -2 0.15093704E+00 0.23256943E+04</pdfrwt>
<totfact> 0.39711904E+00</totfact>
</mgrwt>
</event>
<event>
 6    1  0.1934315E-005  0.4046126E+04  0.7818608E-02  0.7995306E-01
          2   -1    0    0  501    0  0.00000000000E+00  0.00000000000E+00  0.42506738936E+04  0.42506738936E+04  0.00000000000E+00 0.  1.
         -2   -1    0    0    0  501 -0.00000000000E+00 -0.00000000000E+00 -0.96285524131E+03  0.96285524131E+03  0.00000000000E+00 0. -1.
         23    2    1    2    0    0 -0.13323580491E+04  0.99815653133E+03  0.31234681027E+04  0.35406556983E+04  0.93248876735E+02 0.  0.
         11    1    3    3    0    0 -0.96115949944E+03  0.74817926790E+03  0.22089714883E+04  0.25225294521E+04  0.00000000000E+00 0.  1.
        -11    1    3    3    0    0 -0.37119854963E+03  0.24997726343E+03  0.91449661436E+03  0.10181262462E+04  0.00000000000E+00 0. -1.
         22    1    1    2    0    0  0.13323580491E+04 -0.99815653133E+03  0.16435054959E+03  0.16728734367E+04  0.00000000000E+00 0. -1.
<mgrwt>
<rscale>  0 0.40461259E+04</rscale>
<asrwt>0</asrwt>
<pdfrwt beam="1">  1        2 0.65394982E+00 0.40461259E+04</pdfrwt>
<pdfrwt beam="2">  1       -2 0.14813158E+00 0.40461259E+04</pdfrwt>
<totfact> 0.50834972E-02</totfact>
</mgrwt>
</event>
<event>
 6    1  0.1934315E-005  0.1492683E+04  0.7818608E-02  0.8889334E-01
         -2   -1    0    0    0  501 -0.00000000000E+00  0.00000000000E+00  0.49778230958E+03  0.49778230958E+03  0.00000000000E+00 0. -1.
          2   -1    0    0  501    0  0.00000000000E+00 -0.00000000000E+00 -0.11190139480E+04  0.11190139480E+04  0.00000000000E+00 0.  1.
         23    2    1    2    0    0 -0.12300272768E+03 -0.73265192441E+03 -0.28099582366E+03  0.79968615302E+03  0.92901975512E+02 0.  0.
         11    1    3    3    0    0 -0.16934661084E+02 -0.28887593267E+03 -0.74191239414E+02  0.29873136298E+03  0.00000000000E+00 0.  1.
        -11    1    3    3    0    0 -0.10606806659E+03 -0.44377599175E+03 -0.20680458425E+03  0.50095479004E+03  0.00000000000E+00 0. -1.
         22    1    1    2    0    0  0.12300272768E+03  0.73265192441E+03 -0.34023581480E+03  0.81711010460E+03  0.00000000000E+00 0.  1.
<mgrwt>
<rscale>  0 0.14926826E+04</rscale>
<asrwt>0</asrwt>
<pdfrwt beam="1">  1        2 0.17215599E+00 0.14926826E+04</pdfrwt>
<pdfrwt beam="2">  1       -2 0.76581894E-01 0.14926826E+04</pdfrwt>
<totfact> 0.31255955E+01</totfact>
</mgrwt>
</event>
<event>
 6    1  0.1934315E-005  0.1107489E+04  0.7818608E-02  0.9197923E-01
         -1   -1    0    0    0  501 -0.00000000000E+00  0.00000000000E+00  0.48399422165E+03  0.48399422165E+03  0.00000000000E+00 0. -1.
          1   -1    0    0  501    0  0.00000000000E+00 -0.00000000000E+00 -0.63354681260E+03  0.63354681260E+03  0.00000000000E+00 0.  1.
         23    2    1    2    0    0  0.11480907188E+03 -0.28556733285E+03  0.38471181586E+03  0.50096315518E+03  0.90725283199E+02 0.  0.
         11    1    3    3    0    0  0.84477463378E+02 -0.23344592722E+03  0.35639910251E+03  0.43434290949E+03  0.00000000000E+00 0.  1.
        -11    1    3    3    0    0  0.30331608501E+02 -0.52121405625E+02  0.28312713351E+02  0.66620245691E+02  0.00000000000E+00 0. -1.
         22    1    1    2    0    0 -0.11480907188E+03  0.28556733285E+03 -0.53426440681E+03  0.61657787907E+03  0.00000000000E+00 0.  1.
<mgrwt>
<rscale>  0 0.11074890E+04</rscale>
<asrwt>0</asrwt>
<pdfrwt beam="1">  1        1 0.97468740E-01 0.11074890E+04</pdfrwt>
<pdfrwt beam="2">  1       -1 0.74460650E-01 0.11074890E+04</pdfrwt>
<totfact> 0.57214995E+01</totfact>
</mgrwt>
</event>
<event>
 6    1  0.1934315E-005  0.7321736E+03  0.7818608E-02  0.9663740E-01
          2   -1    0    0  501    0  0.00000000000E+00  0.00000000000E+00  0.76296264206E+03  0.76296264206E+03  0.00000000000E+00 0.  1.
         -2   -1    0    0    0  501 -0.00000000000E+00 -0.00000000000E+00 -0.17565673767E+03  0.17565673767E+03  0.00000000000E+00 0. -1.
         23    2    1    2    0    0 -0.18228891495E+03 -0.13030333347E+03  0.65992360703E+03  0.70307418670E+03  0.92768193146E+02 0.  0.
         13    1    3    3    0    0 -0.19298165426E+03 -0.12597664914E+03  0.61728022926E+03  0.65889825955E+03  0.00000000000E+00 0. -1.
        -13    1    3    3    0    0  0.10692739313E+02 -0.43266843305E+01  0.42643377771E+02  0.44175927144E+02  0.00000000000E+00 0.  1.
         22    1    1    2    0    0  0.18228891495E+03  0.13030333347E+03 -0.72617702643E+02  0.23554519303E+03  0.00000000000E+00 0. -1.
<mgrwt>
<rscale>  0 0.73217356E+03</rscale>
<asrwt>0</asrwt>
<pdfrwt beam="1">  1        2 0.11737887E+00 0.73217356E+03</pdfrwt>
<pdfrwt beam="2">  1       -2 0.27024114E-01 0.73217356E+03</pdfrwt>
<totfact> 0.45868659E+02</totfact>
</mgrwt>
</event>
<event>
 6    1  0.1934315E-005  0.6299232E+03  0.7818608E-02  0.9845199E-01
          2   -1    0    0  501    0  0.00000000000E+00  0.00000000000E+00  0.29771099576E+03  0.29771099576E+03  0.00000000000E+00 0.  1.
         -2   -1    0    0    0  501 -0.00000000000E+00 -0.00000000000E+00 -0.33321177207E+03  0.33321177207E+03  0.00000000000E+00 0. -1.
         23    2    1    2    0    0  0.94476050690E+02  0.24925546409E+03  0.13704785926E+03  0.31339002593E+03  0.91526947350E+02 0.  0.
         13    1    3    3    0    0  0.32178939121E+02  0.22444519837E+02  0.47745442273E+02  0.61796989017E+02  0.00000000000E+00 0. -1.
        -13    1    3    3    0    0  0.62297111569E+02  0.22681094426E+03  0.89302416990E+02  0.25159303692E+03  0.00000000000E+00 0.  1.
         22    1    1    2    0    0 -0.94476050690E+02 -0.24925546409E+03 -0.17254863557E+03  0.31753274189E+03  0.00000000000E+00 0. -1.
<mgrwt>
<rscale>  0 0.62992320E+03</rscale>
<asrwt>0</asrwt>
<pdfrwt beam="1">  1        2 0.45801692E-01 0.62992320E+03</pdfrwt>
<pdfrwt beam="2">  1       -2 0.51263349E-01 0.62992320E+03</pdfrwt>
<totfact> 0.40188667E+02</totfact>
</mgrwt>
</event>
<event>
 6    1  0.1934315E-005  0.3602483E+04  0.7818608E-02  0.8089923E-01
         -2   -1    0    0    0  501 -0.00000000000E+00  0.00000000000E+00  0.23587548189E+04  0.23587548189E+04  0.00000000000E+00 0. -1.
          2   -1    0    0  501    0  0.00000000000E+00 -0.00000000000E+00 -0.13755014296E+04  0.13755014296E+04  0.00000000000E+00 0.  1.
         23    2    1    2    0    0 -0.69938273773E+03  0.13038898288E+04  0.15546110918E+04  0.21481558344E+04  0.92157163539E+02 0.  0.
         11    1    3    3    0    0 -0.28727231784E+03  0.44579296355E+03  0.53854336234E+03  0.75583444223E+03  0.00000000000E+00 0. -1.
        -11    1    3    3    0    0 -0.41211041989E+03  0.85809686520E+03  0.10160677294E+04  0.13923213922E+04  0.00000000000E+00 0.  1.
         22    1    1    2    0    0  0.69938273773E+03 -0.13038898288E+04 -0.57135770253E+03  0.15861004141E+04  0.00000000000E+00 0.  1.
<mgrwt>
<rscale>  0 0.36024828E+04</rscale>
<asrwt>0</asrwt>
<pdfrwt beam="1">  1        2 0.21161560E+00 0.36024828E+04</pdfrwt>
<pdfrwt beam="2">  1       -2 0.36288536E+00 0.36024828E+04</pdfrwt>
<totfact> 0.15692620E-01</totfact>
</mgrwt>
</event>
<event>
 6    1  0.1934315E-005  0.1463197E+04  0.7818608E-02  0.8909302E-01
         -2   -1    0    0    0  501 -0.00000000000E+00  0.00000000000E+00  0.11431402055E+04  0.11431402055E+04  0.00000000000E+00 0. -1.
          2   -1    0    0  501    0  0.00000000000E+00 -0.00000000000E+00 -0.46821572524E+03  0.46821572524E+03  0.00000000000E+00 0.  1.
         23    2    1    2    0    0  0.59583648367E+01 -0.40026769238E+03 -0.33186321752E+03  0.52790256485E+03  0.91094429902E+02 0.  0.
         13    1    3    3    0    0  0.48438018338E+02 -0.22219603069E+03 -0.18845173777E+03  0.29534958125E+03  0.00000000000E+00 0. -1.
        -13    1    3    3    0    0 -0.42479653501E+02 -0.17807166169E+03 -0.14341147975E+03  0.23255298360E+03  0.00000000000E+00 0.  1.
         22    1    1    2    0    0 -0.59583648367E+01  0.40026769238E+03  0.10067876977E+04  0.10834533659E+04  0.00000000000E+00 0. -1.
<mgrwt>
<rscale>  0 0.14631968E+04</rscale>
<asrwt>0</asrwt>
<pdfrwt beam="1">  1        2 0.72033189E-01 0.14631968E+04</pdfrwt>
<pdfrwt beam="2">  1       -2 0.17586772E+00 0.14631968E+04</pdfrwt>
<totfact> 0.12458658E+01</totfact>
</mgrwt>
</event>
<event>
 6    1  0.1934315E-005  0.4006069E+04  0.7818608E-02  0.8003323E-01
          2   -1    0    0  501    0  0.00000000000E+00  0.00000000000E+00  0.29876544266E+04  0.29876544266E+04  0.00000000000E+00 0.  1.
         -2   -1    0    0    0  501 -0.00000000000E+00 -0.00000000000E+00 -0.13429090368E+04  0.13429090368E+04  0.00000000000E+00 0. -1.
         23    2    1    2    0    0 -0.10619522248E+03  0.15549525412E+04 -0.53549059269E+03  0.16505291782E+04  0.91332154845E+02 0.  0.
         13    1    3    3    0    0 -0.33532996702E+02  0.57283031923E+03 -0.24358076326E+03  0.62337037524E+03  0.00000000000E+00 0. -1.
        -13    1    3    3    0    0 -0.72662225779E+02  0.98212222200E+03 -0.29190982943E+03  0.10271588030E+04  0.00000000000E+00 0.  1.
         22    1    1    2    0    0  0.10619522248E+03 -0.15549525412E+04  0.21802359825E+04  0.26800342852E+04  0.00000000000E+00 0.  1.
<mgrwt>
<rscale>  0 0.40060695E+04</rscale>
<asrwt>0</asrwt>
<pdfrwt beam="1">  1        2 0.45963914E+00 0.40060695E+04</pdfrwt>
<pdfrwt beam="2">  1       -2 0.20660139E+00 0.40060695E+04</pdfrwt>
<totfact> 0.16823074E-01</totfact>
</mgrwt>
</event>
<event>
 6    1  0.1934315E-005  0.1215491E+04  0.7818608E-02  0.9099404E-01
         -2   -1    0    0    0  501 -0.00000000000E+00  0.00000000000E+00  0.33175529358E+03  0.33175529358E+03  0.00000000000E+00 0. -1.
          2   -1    0    0  501    0  0.00000000000E+00 -0.00000000000E+00 -0.11133342288E+04  0.11133342288E+04  0.00000000000E+00 0.  1.
         23    2    1    2    0    0  0.20160790644E+03  0.27477838708E+03 -0.98662632129E+03  0.10473542581E+04  0.85851815444E+02 0.  0.
         11    1    3    3    0    0  0.11105880011E+03  0.12567669948E+03 -0.60373252587E+03  0.62659528618E+03  0.00000000000E+00 0. -1.
        -11    1    3    3    0    0  0.90549106329E+02  0.14910168760E+03 -0.38289379542E+03  0.42075897195E+03  0.00000000000E+00 0.  1.
         22    1    1    2    0    0 -0.20160790644E+03 -0.27477838708E+03  0.20504738603E+03  0.39773526429E+03  0.00000000000E+00 0. -1.
<mgrwt>
<rscale>  0 0.12154909E+04</rscale>
<asrwt>0</asrwt>
<pdfrwt beam="1">  1        2 0.17128219E+00 0.12154909E+04</pdfrwt>
<pdfrwt beam="2">  1       -2 0.51039276E-01 0.12154909E+04</pdfrwt>
<totfact> 0.76441188E+01</totfact>
</mgrwt>
</event>
<event>
 6    1  0.1934315E-005  0.2585548E+04  0.7818608E-02  0.8373127E-01
         -2   -1    0    0    0  501 -0.00000000000E+00  0.00000000000E+00  0.53330969936E+03  0.53330969936E+03  0.00000000000E+00 0. -1.
          2   -1    0    0  501    0  0.00000000000E+00 -0.00000000000E+00 -0.31337605797E+04  0.31337605797E+04  0.00000000000E+00 0.  1.
         23    2    1    2    0    0  0.33689769372E+03  0.71255857685E+03  0.14871911824E+03  0.80714449985E+03  0.90139259114E+02 0.  0.
         11    1    3    3    0    0  0.22580660446E+03  0.40245640590E+03  0.55455746484E+02  0.46479578428E+03  0.00000000000E+00 0.  1.
        -11    1    3    3    0    0  0.11109108926E+03  0.31010217096E+03  0.93263371757E+02  0.34234871558E+03  0.00000000000E+00 0. -1.
         22    1    1    2    0    0 -0.33689769372E+03 -0.71255857685E+03 -0.27491699985E+04  0.28599257792E+04  0.00000000000E+00 0.  1.
<mgrwt>
<rscale>  0 0.25855482E+04</rscale>
<asrwt>0</asrwt>
<pdfrwt beam="1">  1        2 0.48211702E+00 0.25855482E+04</pdfrwt>
<pdfrwt beam="2">  1       -2 0.82047645E-01 0.25855482E+04</pdfrwt>
<totfact> 0.16555264E+00</totfact>
</mgrwt>
</event>
<event>
 6    1  0.1934315E-005  0.1375507E+04  0.7818608E-02  0.8971741E-01
          2   -1    0    0  501    0  0.00000000000E+00  0.00000000000E+00  0.53413449104E+03  0.53413449104E+03  0.00000000000E+00 0.  1.
         -2   -1    0    0    0  501 -0.00000000000E+00 -0.00000000000E+00 -0.88555441823E+03  0.88555441823E+03  0.00000000000E+00 0. -1.
         23    2    1    2    0    0 -0.67787089285E+03 -0.47490323211E+02 -0.88971416903E+02  0.69123609767E+03  0.90150715592E+02 0.  0.
         13    1    3    3    0    0 -0.25685564962E+03  0.63359471804E+01  0.29662062304E+01  0.25695090455E+03  0.00000000000E+00 0. -1.
        -13    1    3    3    0    0 -0.42101524323E+03 -0.53826270392E+02 -0.91937623133E+02  0.43428519312E+03  0.00000000000E+00 0.  1.
         22    1    1    2    0    0  0.67787089285E+03  0.47490323211E+02 -0.26244851028E+03  0.72845281160E+03  0.00000000000E+00 0.  1.
<mgrwt>
<rscale>  0 0.13755074E+04</rscale>
<asrwt>0</asrwt>
<pdfrwt beam="1">  1        2 0.82174538E-01 0.13755074E+04</pdfrwt>
<pdfrwt beam="2">  1       -2 0.13623914E+00 0.13755074E+04</pdfrwt>
<totfact> 0.21402152E+01</totfact>
</mgrwt>
</event>
<event>
 6    1  0.1934315E-005  0.6296934E+03  0.7818608E-02  0.9845647E-01
         -2   -1    0    0    0  501 -0.00000000000E+00  0.00000000000E+00  0.15972254977E+03  0.15972254977E+03  0.00000000000E+00 0. -1.
          2   -1    0    0  501    0  0.00000000000E+00 -0.00000000000E+00 -0.62062893815E+03  0.62062893815E+03  0.00000000000E+00 0.  1.
         23    2    1    2    0    0 -0.83724489597E+02 -0.29205488321E+03 -0.16741821823E+03  0.35792853521E+03  0.88193716109E+02 0.  0.
         11    1    3    3    0    0  0.96677512814E+01 -0.11030899008E+03 -0.43610966728E+02  0.11901031521E+03  0.00000000000E+00 0. -1.
        -11    1    3    3    0    0 -0.93392240878E+02 -0.18174589312E+03 -0.12380725150E+03  0.23891822000E+03  0.00000000000E+00 0.  1.
         22    1    1    2    0    0  0.83724489597E+02  0.29205488321E+03 -0.29348817014E+03  0.42242295271E+03  0.00000000000E+00 0. -1.
<mgrwt>
<rscale>  0 0.62969337E+03</rscale>
<asrwt>0</asrwt>
<pdfrwt beam="1">  1        2 0.95481375E-01 0.62969337E+03</pdfrwt>
<pdfrwt beam="2">  1       -2 0.24572700E-01 0.62969337E+03</pdfrwt>
<totfact> 0.70765861E+02</totfact>
</mgrwt>
</event>
<event>
 6    1  0.1934315E-005  0.1383606E+04  0.7818608E-02  0.8965771E-01
          2   -1    0    0  501    0  0.00000000000E+00  0.00000000000E+00  0.96530255731E+03  0.96530255731E+03  0.00000000000E+00 0.  1.
         -2   -1    0    0    0  501 -0.00000000000E+00 -0.00000000000E+00 -0.49579451288E+03  0.49579451288E+03  0.00000000000E+00 0. -1.
         23    2    1    2    0    0 -0.40341171081E+03  0.42937532134E+03 -0.14072124331E+03  0.61287306757E+03  0.93309986833E+02 0.  0.
         13    1    3    3    0    0 -0.97514415850E+02  0.13438320808E+03 -0.26980712567E+01  0.16605778362E+03  0.00000000000E+00 0.  1.
        -13    1    3    3    0    0 -0.30589729496E+03  0.29499211326E+03 -0.13802317205E+03  0.44681528395E+03  0.00000000000E+00 0. -1.
         22    1    1    2    0    0  0.40341171081E+03 -0.42937532134E+03  0.61022928774E+03  0.84822400261E+03  0.00000000000E+00 0. -1.
<mgrwt>
<rscale>  0 0.13836065E+04</rscale>
<asrwt>0</asrwt>
<pdfrwt beam="1">  1        2 0.14850809E+00 0.13836065E+04</pdfrwt>
<pdfrwt beam="2">  1       -2 0.76276079E-01 0.13836065E+04</pdfrwt>
<totfact> 0.39770480E+01</totfact>
</mgrwt>
</event>
<event>
 6    1  0.1934315E-005  0.3383879E+04  0.7818608E-02  0.8141874E-01
          2   -1    0    0  501    0  0.00000000000E+00  0.00000000000E+00  0.13223863186E+04  0.13223863186E+04  0.00000000000E+00 0.  1.
         -2   -1    0    0    0  501 -0.00000000000E+00 -0.00000000000E+00 -0.21647678710E+04  0.21647678710E+04  0.00000000000E+00 0. -1.
         23    2    1    2    0    0  0.10220271687E+04 -0.10733325074E+04 -0.12598339103E+04  0.19473981453E+04  0.92713805193E+02 0.  0.
         11    1    3    3    0    0  0.77927678111E+03 -0.76214673637E+03 -0.94199496537E+03  0.14406576499E+04  0.00000000000E+00 0. -1.
        -11    1    3    3    0    0  0.24275038755E+03 -0.31118577107E+03 -0.31783894489E+03  0.50674049538E+03  0.00000000000E+00 0.  1.
         22    1    1    2    0    0 -0.10220271687E+04  0.10733325074E+04  0.41745235785E+03  0.15397560443E+04  0.00000000000E+00 0.  1.
<mgrwt>
<rscale>  0 0.33838791E+04</rscale>
<asrwt>0</asrwt>
<pdfrwt beam="1">  1        2 0.20344405E+00 0.33838791E+04</pdfrwt>
<pdfrwt beam="2">  1       -2 0.33304121E+00 0.33838791E+04</pdfrwt>
<totfact> 0.26438460E-01</totfact>
</mgrwt>
</event>
<event>
 6    1  0.1934315E-005  0.2515899E+04  0.7818608E-02  0.8397343E-01
         -2   -1    0    0    0  501 -0.00000000000E+00  0.00000000000E+00  0.38833686126E+03  0.38833686126E+03  0.00000000000E+00 0.  1.
          2   -1    0    0  501    0  0.00000000000E+00 -0.00000000000E+00 -0.40749093504E+04  0.40749093504E+04  0.00000000000E+00 0. -1.
         23    2    1    2    0    0 -0.41222346093E+03 -0.64271902698E+03 -0.75928411110E+02  0.77274941751E+03  0.91436367289E+02 0.  0.
         11    1    3    3    0    0 -0.94254976085E+02 -0.22500733352E+03 -0.29741532003E+02  0.24575772496E+03  0.00000000000E+00 0. -1.
        -11    1    3    3    0    0 -0.31796848484E+03 -0.41771169347E+03 -0.46186879106E+02  0.52699169255E+03  0.00000000000E+00 0.  1.
         22    1    1    2    0    0  0.41222346093E+03  0.64271902698E+03 -0.36106440780E+04  0.36904967941E+04  0.00000000000E+00 0. -1.
<mgrwt>
<rscale>  0 0.25158994E+04</rscale>
<asrwt>0</asrwt>
<pdfrwt beam="1">  1        2 0.62690915E+00 0.25158994E+04</pdfrwt>
<pdfrwt beam="2">  1       -2 0.59744130E-01 0.25158994E+04</pdfrwt>
<totfact> 0.69383013E-01</totfact>
</mgrwt>
</event>
<event>
 6    1  0.1934315E-005  0.2749320E+04  0.7818608E-02  0.8319177E-01
         -2   -1    0    0    0  501 -0.00000000000E+00  0.00000000000E+00  0.88041512105E+03  0.88041512105E+03  0.00000000000E+00 0.  1.
          2   -1    0    0  501    0  0.00000000000E+00 -0.00000000000E+00 -0.21463624563E+04  0.21463624563E+04  0.00000000000E+00 0. -1.
         23    2    1    2    0    0  0.48205305957E+03 -0.77334227085E+03 -0.17645118643E+04  0.19880283248E+04  0.91219958930E+02 0.  0.
         13    1    3    3    0    0  0.30053842941E+03 -0.48000414355E+03 -0.11904906699E+04  0.13183305202E+04  0.00000000000E+00 0. -1.
        -13    1    3    3    0    0  0.18151463017E+03 -0.29333812730E+03 -0.57402119440E+03  0.66969780462E+03  0.00000000000E+00 0.  1.
         22    1    1    2    0    0 -0.48205305957E+03  0.77334227085E+03  0.49856452901E+03  0.10387492526E+04  0.00000000000E+00 0.  1.
<mgrwt>
<rscale>  0 0.27493199E+04</rscale>
<asrwt>0</asrwt>
<pdfrwt beam="1">  1        2 0.33020960E+00 0.27493199E+04</pdfrwt>
<pdfrwt beam="2">  1       -2 0.13544848E+00 0.27493199E+04</pdfrwt>
<totfact> 0.18917858E+00</totfact>
</mgrwt>
</event>
<event>
 6    1  0.1934315E-005  0.2663715E+04  0.7818608E-02  0.8346875E-01
         -2   -1    0    0    0  501 -0.00000000000E+00  0.00000000000E+00  0.56150896559E+03  0.56150896559E+03  0.00000000000E+00 0. -1.
          2   -1    0    0  501    0  0.00000000000E+00 -0.00000000000E+00 -0.31590666952E+04  0.31590666952E+04  0.00000000000E+00 0.  1.
         23    2    1    2    0    0  0.85616331321E+03  0.64647519057E+03 -0.23989785261E+04  0.26295305238E+04  0.91580652049E+02 0.  0.
         13    1    3    3    0    0  0.70644834379E+03  0.52606398629E+03 -0.20487318114E+04  0.22300481195E+04  0.00000000000E+00 0. -1.
        -13    1    3    3    0    0  0.14971496941E+03  0.12041120428E+03 -0.35024671469E+03  0.39948240428E+03  0.00000000000E+00 0.  1.
         22    1    1    2    0    0 -0.85616331321E+03 -0.64647519057E+03 -0.19857920349E+03  0.10910451370E+04  0.00000000000E+00 0. -1.
<mgrwt>
<rscale>  0 0.26637149E+04</rscale>
<asrwt>0</asrwt>
<pdfrwt beam="1">  1        2 0.48601026E+00 0.26637149E+04</pdfrwt>
<pdfrwt beam="2">  1       -2 0.86385995E-01 0.26637149E+04</pdfrwt>
<totfact> 0.14086003E+00</totfact>
</mgrwt>
</event>
<event>
 6    1  0.1934315E-005  0.2399277E+04  0.7818608E-02  0.8439774E-01
          2   -1    0    0  501    0  0.00000000000E+00  0.00000000000E+00  0.21999259095E+04  0.21999259095E+04  0.00000000000E+00 0.  1.
         -2   -1    0    0    0  501 -0.00000000000E+00 -0.00000000000E+00 -0.65417301865E+03  0.65417301865E+03  0.00000000000E+00 0. -1.
         23    2    1    2    0    0 -0.66649543830E+03 -0.21997820242E+03 -0.38068981949E+03  0.80378478271E+03  0.92404866918E+02 0.  0.
         11    1    3    3    0    0 -0.14629304143E+03 -0.34572168937E+02 -0.12363972135E+03  0.19463727683E+03  0.00000000000E+00 0. -1.
        -11    1    3    3    0    0 -0.52020239687E+03 -0.18540603349E+03 -0.25705009814E+03  0.60914750588E+03  0.00000000000E+00 0.  1.
         22    1    1    2    0    0  0.66649543830E+03  0.21997820242E+03  0.19264427103E+04  0.20503141454E+04  0.00000000000E+00 0.  1.
<mgrwt>
<rscale>  0 0.23992767E+04</rscale>
<asrwt>0</asrwt>
<pdfrwt beam="1">  1        2 0.33845014E+00 0.23992767E+04</pdfrwt>
<pdfrwt beam="2">  1       -2 0.10064200E+00 0.23992767E+04</pdfrwt>
<totfact> 0.37777331E+00</totfact>
</mgrwt>
</event>
<event>
 6    1  0.1934315E-005  0.2497863E+04  0.7818608E-02  0.8403747E-01
         -1   -1    0    0    0  501 -0.00000000000E+00  0.00000000000E+00  0.88236046499E+03  0.88236046499E+03  0.00000000000E+00 0. -1.
          1   -1    0    0  501    0  0.00000000000E+00 -0.00000000000E+00 -0.17677921590E+04  0.17677921590E+04  0.00000000000E+00 0.  1.
         23    2    1    2    0    0  0.61900996369E+02 -0.12321594810E+04 -0.63807085107E+03  0.13918855194E+04  0.90344718962E+02 0.  0.
         13    1    3    3    0    0  0.22366956224E+02 -0.18326292136E+03 -0.12960864558E+03  0.22557477715E+03  0.00000000000E+00 0.  1.
        -13    1    3    3    0    0  0.39534040145E+02 -0.10488965596E+04 -0.50846220549E+03  0.11663107422E+04  0.00000000000E+00 0. -1.
         22    1    1    2    0    0 -0.61900996369E+02  0.12321594810E+04 -0.24736084291E+03  0.12582671046E+04  0.00000000000E+00 0.  1.
<mgrwt>
<rscale>  0 0.24978630E+04</rscale>
<asrwt>0</asrwt>
<pdfrwt beam="1">  1        1 0.27196802E+00 0.24978630E+04</pdfrwt>
<pdfrwt beam="2">  1       -1 0.13574777E+00 0.24978630E+04</pdfrwt>
<totfact> 0.17290275E+00</totfact>
</mgrwt>
</event>
<event>
 6    1  0.1934315E-005  0.1188919E+04  0.7818608E-02  0.9122611E-01
         -2   -1    0    0    0  501 -0.00000000000E+00  0.00000000000E+00  0.11937128593E+03  0.11937128593E+03  0.00000000000E+00 0. -1.
          2   -1    0    0  501    0  0.00000000000E+00 -0.00000000000E+00 -0.29603626218E+04  0.29603626218E+04  0.00000000000E+00 0.  1.
         23    2    1    2    0    0  0.26283695130E+03  0.39202166506E+03 -0.23503270489E+04  0.23989140407E+04  0.89370515120E+02 0.  0.
         13    1    3    3    0    0  0.24837297754E+03  0.36774175584E+03 -0.22856838141E+04  0.23283628654E+04  0.00000000000E+00 0.  1.
        -13    1    3    3    0    0  0.14463973766E+02  0.24279909223E+02 -0.64643234856E+02  0.70551175338E+02  0.00000000000E+00 0. -1.
         22    1    1    2    0    0 -0.26283695130E+03 -0.39202166506E+03 -0.49066428699E+03  0.68081986706E+03  0.00000000000E+00 0. -1.
<mgrwt>
<rscale>  0 0.11889193E+04</rscale>
<asrwt>0</asrwt>
<pdfrwt beam="1">  1        2 0.45544038E+00 0.11889193E+04</pdfrwt>
<pdfrwt beam="2">  1       -2 0.18364814E-01 0.11889193E+04</pdfrwt>
<totfact> 0.45811144E+01</totfact>
</mgrwt>
</event>
<event>
 6    1  0.1934315E-005  0.2987720E+04  0.7818608E-02  0.8247246E-01
          2   -1    0    0  501    0  0.00000000000E+00  0.00000000000E+00  0.22491074969E+04  0.22491074969E+04  0.00000000000E+00 0.  1.
         -2   -1    0    0    0  501 -0.00000000000E+00 -0.00000000000E+00 -0.99222350026E+03  0.99222350026E+03  0.00000000000E+00 0. -1.
         23    2    1    2    0    0 -0.12509928523E+04 -0.21503602208E+03  0.14807889722E+04  0.19523945963E+04  0.88797930375E+02 0.  0.
         11    1    3    3    0    0 -0.10095606334E+04 -0.13773167616E+03  0.11810488855E+04  0.15598266433E+04  0.00000000000E+00 0. -1.
        -11    1    3    3    0    0 -0.24143221890E+03 -0.77304345918E+02  0.29974008663E+03  0.39256795304E+03  0.00000000000E+00 0.  1.
         22    1    1    2    0    0  0.12509928523E+04  0.21503602208E+03 -0.22390497553E+03  0.12889364008E+04  0.00000000000E+00 0. -1.
<mgrwt>
<rscale>  0 0.29877197E+04</rscale>
<asrwt>0</asrwt>
<pdfrwt beam="1">  1        2 0.34601654E+00 0.29877197E+04</pdfrwt>
<pdfrwt beam="2">  1       -2 0.15264977E+00 0.29877197E+04</pdfrwt>
<totfact> 0.11871394E+00</totfact>
</mgrwt>
</event>
<event>
 6    1  0.1934315E-005  0.2657081E+04  0.7818608E-02  0.8349067E-01
          2   -1    0    0  501    0  0.00000000000E+00  0.00000000000E+00  0.17302765906E+04  0.17302765906E+04  0.00000000000E+00 0.  1.
         -2   -1    0    0    0  501 -0.00000000000E+00 -0.00000000000E+00 -0.10200796433E+04  0.10200796433E+04  0.00000000000E+00 0. -1.
         23    2    1    2    0    0 -0.91028268630E+03  0.71202612702E+03 -0.31944628086E+03  0.12025316470E+04  0.91873071281E+02 0.  0.
         13    1    3    3    0    0 -0.35501097414E+03  0.22853559870E+03 -0.94348231290E+02  0.43262327767E+03  0.00000000000E+00 0. -1.
        -13    1    3    3    0    0 -0.55527171216E+03  0.48349052831E+03 -0.22509804957E+03  0.76990836936E+03  0.00000000000E+00 0.  1.
         22    1    1    2    0    0  0.91028268630E+03 -0.71202612702E+03  0.10296432282E+04  0.15478245869E+04  0.00000000000E+00 0.  1.
<mgrwt>
<rscale>  0 0.26570811E+04</rscale>
<asrwt>0</asrwt>
<pdfrwt beam="1">  1        2 0.26619640E+00 0.26570811E+04</pdfrwt>
<pdfrwt beam="2">  1       -2 0.15693533E+00 0.26570811E+04</pdfrwt>
<totfact> 0.22052890E+00</totfact>
</mgrwt>
</event>
<event>
 6    1  0.1934315E-005  0.3807539E+04  0.7818608E-02  0.8044539E-01
         -1   -1    0    0    0  501 -0.00000000000E+00  0.00000000000E+00  0.17597430940E+04  0.17597430940E+04  0.00000000000E+00 0. -1.
          1   -1    0    0  501    0  0.00000000000E+00 -0.00000000000E+00 -0.20595842560E+04  0.20595842560E+04  0.00000000000E+00 0.  1.
         23    2    1    2    0    0 -0.57493408538E+03  0.28756783225E+03 -0.19462946330E+04  0.20518281301E+04  0.93227765956E+02 0.  0.
         11    1    3    3    0    0 -0.28396002953E+03  0.14041387189E+03 -0.11065328634E+04  0.11509840709E+04  0.00000000000E+00 0.  1.
        -11    1    3    3    0    0 -0.29097405585E+03  0.14715396036E+03 -0.83976176958E+03  0.90084405913E+03  0.00000000000E+00 0. -1.
         22    1    1    2    0    0  0.57493408538E+03 -0.28756783225E+03  0.16464534709E+04  0.17674992200E+04  0.00000000000E+00 0. -1.
<mgrwt>
<rscale>  0 0.38075395E+04</rscale>
<asrwt>0</asrwt>
<pdfrwt beam="1">  1        1 0.31685912E+00 0.38075395E+04</pdfrwt>
<pdfrwt beam="2">  1       -1 0.27072971E+00 0.38075395E+04</pdfrwt>
<totfact> 0.11033925E-01</totfact>
</mgrwt>
</event>
<event>
 6    1  0.1934315E-005  0.1484349E+04  0.7818608E-02  0.8894928E-01
          2   -1    0    0  501    0  0.00000000000E+00  0.00000000000E+00  0.29008137661E+04  0.29008137661E+04  0.00000000000E+00 0.  1.
         -2   -1    0    0    0  501 -0.00000000000E+00 -0.00000000000E+00 -0.18988580148E+03  0.18988580148E+03  0.00000000000E+00 0. -1.
         23    2    1    2    0    0  0.54204205190E+03 -0.49991010396E+03  0.14728466753E+04  0.16496704295E+04  0.91736027119E+02 0.  0.
         13    1    3    3    0    0  0.68383503822E+02 -0.10773231378E+03  0.23067558979E+03  0.26361673458E+03  0.00000000000E+00 0. -1.
        -13    1    3    3    0    0  0.47365854808E+03 -0.39217779018E+03  0.12421710856E+04  0.13860536949E+04  0.00000000000E+00 0.  1.
         22    1    1    2    0    0 -0.54204205190E+03  0.49991010396E+03  0.12380812892E+04  0.14410291381E+04  0.00000000000E+00 0. -1.
<mgrwt>
<rscale>  0 0.14843495E+04</rscale>
<asrwt>0</asrwt>
<pdfrwt beam="1">  1        2 0.44627901E+00 0.14843495E+04</pdfrwt>
<pdfrwt beam="2">  1       -2 0.29213202E-01 0.14843495E+04</pdfrwt>
<totfact> 0.21053100E+01</totfact>
</mgrwt>
</event>
<event>
 6    1  0.1934315E-005  0.1504142E+04  0.7818608E-02  0.8881703E-01
          2   -1    0    0  501    0  0.00000000000E+00  0.00000000000E+00  0.21200648013E+04  0.21200648013E+04  0.00000000000E+00 0.  1.
         -2   -1    0    0    0  501 -0.00000000000E+00 -0.00000000000E+00 -0.26678947066E+03  0.26678947066E+03  0.00000000000E+00 0. -1.
         23    2    1    2    0    0  0.67984007953E+03 -0.21745661733E+03  0.12899600921E+04  0.14775721529E+04  0.98754815127E+02 0.  0.
         13    1    3    3    0    0  0.21612274347E+03 -0.23728350342E+02  0.36247693678E+03  0.42268381155E+03  0.00000000000E+00 0.  1.
        -13    1    3    3    0    0  0.46371733606E+03 -0.19372826699E+03  0.92748315536E+03  0.10548883413E+04  0.00000000000E+00 0. -1.
         22    1    1    2    0    0 -0.67984007953E+03  0.21745661733E+03  0.56331523853E+03  0.90928211910E+03  0.00000000000E+00 0.  1.
<mgrwt>
<rscale>  0 0.15041422E+04</rscale>
<asrwt>0</asrwt>
<pdfrwt beam="1">  1        2 0.32616381E+00 0.15041422E+04</pdfrwt>
<pdfrwt beam="2">  1       -2 0.41044535E-01 0.15041422E+04</pdfrwt>
<totfact> 0.31117259E+01</totfact>
</mgrwt>
</event>
<event>
 6    1  0.1934315E-005  0.7871719E+03  0.7818608E-02  0.9578773E-01
         -2   -1    0    0    0  501 -0.00000000000E+00  0.00000000000E+00  0.15724051911E+03  0.15724051911E+03  0.00000000000E+00 0. -1.
          2   -1    0    0  501    0  0.00000000000E+00 -0.00000000000E+00 -0.98517805068E+03  0.98517805068E+03  0.00000000000E+00 0.  1.
         23    2    1    2    0    0  0.98734967086E+02  0.27947611896E+03 -0.78374265135E+03  0.84273760237E+03  0.89992378107E+02 0.  0.
         11    1    3    3    0    0  0.30204305645E+02  0.19962792969E+03 -0.56528464477E+03  0.60025856095E+03  0.00000000000E+00 0. -1.
        -11    1    3    3    0    0  0.68530661441E+02  0.79848189279E+02 -0.21845800658E+03  0.24247904142E+03  0.00000000000E+00 0.  1.
         22    1    1    2    0    0 -0.98734967086E+02 -0.27947611896E+03 -0.44194880219E+02  0.29968096742E+03  0.00000000000E+00 0. -1.
<mgrwt>
<rscale>  0 0.78717192E+03</rscale>
<asrwt>0</asrwt>
<pdfrwt beam="1">  1        2 0.15156585E+00 0.78717192E+03</pdfrwt>
<pdfrwt beam="2">  1       -2 0.24190849E-01 0.78717192E+03</pdfrwt>
<totfact> 0.39366422E+02</totfact>
</mgrwt>
</event>
<event>
 6    1  0.1934315E-005  0.4529788E+04  0.7818608E-02  0.7905442E-01
         -2   -1    0    0    0  501 -0.00000000000E+00  0.00000000000E+00  0.14100560110E+04  0.14100560110E+04  0.00000000000E+00 0. -1.
          2   -1    0    0  501    0  0.00000000000E+00 -0.00000000000E+00 -0.36379729352E+04  0.36379729352E+04  0.00000000000E+00 0.  1.
         23    2    1    2    0    0  0.21972488443E+04  0.52875383344E+03 -0.12646377549E+04  0.25913258999E+04  0.90433227161E+02 0.  0.
         11    1    3    3    0    0  0.83152131159E+02  0.20342369191E+02 -0.28968246345E+02  0.90372828864E+02  0.00000000000E+00 0.  1.
        -11    1    3    3    0    0  0.21140967131E+04  0.50841146425E+03 -0.12356695086E+04  0.25009530711E+04  0.00000000000E+00 0. -1.
         22    1    1    2    0    0 -0.21972488443E+04 -0.52875383344E+03 -0.96327916928E+03  0.24567030463E+04  0.00000000000E+00 0.  1.
<mgrwt>
<rscale>  0 0.45297883E+04</rscale>
<asrwt>0</asrwt>
<pdfrwt beam="1">  1        2 0.55968815E+00 0.45297883E+04</pdfrwt>
<pdfrwt beam="2">  1       -2 0.21693169E+00 0.45297883E+04</pdfrwt>
<totfact> 0.50518972E-02</totfact>
</mgrwt>
</event>
<event>
 6    1  0.1934315E-005  0.3319478E+04  0.7818608E-02  0.8157957E-01
          2   -1    0    0  501    0  0.00000000000E+00  0.00000000000E+00  0.17088519458E+04  0.17088519458E+04  0.00000000000E+00 0. -1.
         -2   -1    0    0    0  501 -0.00000000000E+00 -0.00000000000E+00 -0.16120375762E+04  0.16120375762E+04  0.00000000000E+00 0.  1.
         23    2    1    2    0    0 -0.68049218303E+02  0.95747297938E+03  0.14015404596E+04  0.17011070143E+04  0.89800956752E+02 0.  0.
         11    1    3    3    0    0 -0.36073594244E+02  0.16918234441E+03  0.29777406576E+03  0.34437387256E+03  0.00000000000E+00 0. -1.
        -11    1    3    3    0    0 -0.31975624059E+02  0.78829063497E+03  0.11037663938E+04  0.13567331417E+04  0.00000000000E+00 0.  1.
         22    1    1    2    0    0  0.68049218303E+02 -0.95747297938E+03 -0.13047260899E+04  0.16197825077E+04  0.00000000000E+00 0.  1.
<mgrwt>
<rscale>  0 0.33194780E+04</rscale>
<asrwt>0</asrwt>
<pdfrwt beam="1">  1        2 0.26290030E+00 0.33194780E+04</pdfrwt>
<pdfrwt beam="2">  1       -2 0.24800578E+00 0.33194780E+04</pdfrwt>
<totfact> 0.53452498E-01</totfact>
</mgrwt>
</event>
<event>
 6    1  0.2201935E-005  0.2811007E+04  0.7818608E-02  0.8299859E-01
          2   -1    0    0  501    0  0.00000000000E+00  0.00000000000E+00  0.12820395851E+04  0.12820395851E+04  0.00000000000E+00 0.  1.
         -2   -1    0    0    0  501 -0.00000000000E+00 -0.00000000000E+00 -0.15408568037E+04  0.15408568037E+04  0.00000000000E+00 0. -1.
         23    2    1    2    0    0  0.97767950347E+03 -0.12670987742E+03 -0.11327407855E+04  0.15054537885E+04  0.10666216547E+03 0.  0.
         13    1    3    3    0    0  0.83222271226E+03 -0.14348045046E+03 -0.94489272824E+03  0.12672819538E+04  0.00000000000E+00 0. -1.
        -13    1    3    3    0    0  0.14545679121E+03  0.16770573042E+02 -0.18784805724E+03  0.23817183469E+03  0.00000000000E+00 0.  1.
         22    1    1    2    0    0 -0.97767950347E+03  0.12670987742E+03  0.87392356683E+03  0.13174426003E+04  0.00000000000E+00 0.  1.
<mgrwt>
<rscale>  0 0.28110065E+04</rscale>
<asrwt>0</asrwt>
<pdfrwt beam="1">  1        2 0.19723686E+00 0.28110065E+04</pdfrwt>
<pdfrwt beam="2">  1       -2 0.23705489E+00 0.28110065E+04</pdfrwt>
<totfact> 0.11375643E+00</totfact>
</mgrwt>
</event>
<event>
 6    1  0.1934315E-005  0.2195087E+04  0.7818608E-02  0.8520476E-01
          2   -1    0    0  501    0  0.00000000000E+00  0.00000000000E+00  0.18327865865E+04  0.18327865865E+04  0.00000000000E+00 0.  1.
         -2   -1    0    0    0  501 -0.00000000000E+00 -0.00000000000E+00 -0.65725148021E+03  0.65725148021E+03  0.00000000000E+00 0. -1.
         23    2    1    2    0    0  0.32504466400E+03 -0.35328944165E+03  0.17059758423E+04  0.17746117339E+04  0.91791983001E+02 0.  0.
         13    1    3    3    0    0  0.88230868573E+02 -0.16066428499E+03  0.66527546051E+03  0.69006458900E+03  0.00000000000E+00 0. -1.
        -13    1    3    3    0    0  0.23681379543E+03 -0.19262515666E+03  0.10407003818E+04  0.10845471449E+04  0.00000000000E+00 0.  1.
         22    1    1    2    0    0 -0.32504466400E+03  0.35328944165E+03 -0.53044073609E+03  0.71542633281E+03  0.00000000000E+00 0. -1.
<mgrwt>
<rscale>  0 0.21950870E+04</rscale>
<asrwt>0</asrwt>
<pdfrwt beam="1">  1        2 0.28196716E+00 0.21950870E+04</pdfrwt>
<pdfrwt beam="2">  1       -2 0.10111561E+00 0.21950870E+04</pdfrwt>
<totfact> 0.60870609E+00</totfact>
</mgrwt>
</event>
<event>
 6    1  0.1934315E-005  0.1201309E+04  0.7818608E-02  0.9111711E-01
         -1   -1    0    0    0  501 -0.00000000000E+00  0.00000000000E+00  0.11097952884E+04  0.11097952884E+04  0.00000000000E+00 0. -1.
          1   -1    0    0  501    0  0.00000000000E+00 -0.00000000000E+00 -0.32509247711E+03  0.32509247711E+03  0.00000000000E+00 0.  1.
         23    2    1    2    0    0 -0.58682579563E+03  0.30793347479E+02  0.26629270272E+03  0.65126682058E+03  0.89016422082E+02 0.  0.
         11    1    3    3    0    0 -0.71405363171E+02  0.24662767334E+02  0.11982122612E+02  0.76488883143E+02  0.00000000000E+00 0. -1.
        -11    1    3    3    0    0 -0.51542043246E+03  0.61305801450E+01  0.25431058011E+03  0.57477793744E+03  0.00000000000E+00 0.  1.
         22    1    1    2    0    0  0.58682579563E+03 -0.30793347479E+02  0.51841010857E+03  0.78362094493E+03  0.00000000000E+00 0. -1.
<mgrwt>
<rscale>  0 0.12013095E+04</rscale>
<asrwt>0</asrwt>
<pdfrwt beam="1">  1        1 0.50014228E-01 0.12013095E+04</pdfrwt>
<pdfrwt beam="2">  1       -1 0.17073774E+00 0.12013095E+04</pdfrwt>
<totfact> 0.18979666E+01</totfact>
</mgrwt>
</event>
<event>
 6    1  0.1934315E-005  0.1522822E+04  0.7818608E-02  0.8869417E-01
         -2   -1    0    0    0  501 -0.00000000000E+00  0.00000000000E+00  0.35319856820E+03  0.35319856820E+03  0.00000000000E+00 0. -1.
          2   -1    0    0  501    0  0.00000000000E+00 -0.00000000000E+00 -0.16414181318E+04  0.16414181318E+04  0.00000000000E+00 0.  1.
         23    2    1    2    0    0  0.40434887516E+03 -0.57649935168E+03 -0.10164563390E+04  0.12398288056E+04  0.90235595575E+02 0.  0.
         13    1    3    3    0    0  0.29131447515E+03 -0.34918246909E+03 -0.61566430169E+03  0.76539862329E+03  0.00000000000E+00 0. -1.
        -13    1    3    3    0    0  0.11303440001E+03 -0.22731688259E+03 -0.40079203730E+03  0.47443018228E+03  0.00000000000E+00 0.  1.
         22    1    1    2    0    0 -0.40434887516E+03  0.57649935168E+03 -0.27176322460E+03  0.75478789443E+03  0.00000000000E+00 0. -1.
<mgrwt>
<rscale>  0 0.15228218E+04</rscale>
<asrwt>0</asrwt>
<pdfrwt beam="1">  1        2 0.25252587E+00 0.15228218E+04</pdfrwt>
<pdfrwt beam="2">  1       -2 0.54338241E-01 0.15228218E+04</pdfrwt>
<totfact> 0.32508214E+01</totfact>
</mgrwt>
</event>
<event>
 6    1  0.1934315E-005  0.4512479E+04  0.7818608E-02  0.7908456E-01
          2   -1    0    0  501    0  0.00000000000E+00  0.00000000000E+00  0.35733395372E+04  0.35733395372E+04  0.00000000000E+00 0.  1.
         -2   -1    0    0    0  501 -0.00000000000E+00 -0.00000000000E+00 -0.14246101826E+04  0.14246101826E+04  0.00000000000E+00 0. -1.
         23    2    1    2    0    0 -0.17232233298E+03 -0.17726144706E+04 -0.45770351065E+03  0.18411555662E+04  0.92218584826E+02 0.  0.
         13    1    3    3    0    0 -0.35831742191E+02 -0.43876864200E+03 -0.72948631903E+02  0.44623238100E+03  0.00000000000E+00 0. -1.
        -13    1    3    3    0    0 -0.13649059079E+03 -0.13338458286E+04 -0.38475487875E+03  0.13949231852E+04  0.00000000000E+00 0.  1.
         22    1    1    2    0    0  0.17232233298E+03  0.17726144706E+04  0.26064328652E+04  0.31567941537E+04  0.00000000000E+00 0.  1.
<mgrwt>
<rscale>  0 0.45124786E+04</rscale>
<asrwt>0</asrwt>
<pdfrwt beam="1">  1        2 0.54974454E+00 0.45124786E+04</pdfrwt>
<pdfrwt beam="2">  1       -2 0.21917080E+00 0.45124786E+04</pdfrwt>
<totfact> 0.54511967E-02</totfact>
</mgrwt>
</event>
<event>
 6    1  0.1934315E-005  0.1532052E+04  0.7818608E-02  0.8863414E-01
          2   -1    0    0  501    0  0.00000000000E+00  0.00000000000E+00  0.12376815083E+04  0.12376815083E+04  0.00000000000E+00 0.  1.
         -2   -1    0    0    0  501 -0.00000000000E+00 -0.00000000000E+00 -0.47410897639E+03  0.47410897639E+03  0.00000000000E+00 0. -1.
         23    2    1    2    0    0 -0.46676500636E+03  0.60362716914E+03  0.40804556477E+03  0.86998602112E+03  0.90217312819E+02 0.  0.
         11    1    3    3    0    0 -0.25297331741E+03  0.39437971337E+03  0.23130004196E+03  0.52252326939E+03  0.00000000000E+00 0. -1.
        -11    1    3    3    0    0 -0.21379168894E+03  0.20924745577E+03  0.17674552282E+03  0.34746275173E+03  0.00000000000E+00 0.  1.
         22    1    1    2    0    0  0.46676500636E+03 -0.60362716914E+03  0.35552696710E+03  0.84180446353E+03  0.00000000000E+00 0.  1.
<mgrwt>
<rscale>  0 0.15320521E+04</rscale>
<asrwt>0</asrwt>
<pdfrwt beam="1">  1        2 0.19041254E+00 0.15320521E+04</pdfrwt>
<pdfrwt beam="2">  1       -2 0.72939843E-01 0.15320521E+04</pdfrwt>
<totfact> 0.29446429E+01</totfact>
</mgrwt>
</event>
<event>
 6    1  0.1934315E-005  0.2656904E+04  0.7818608E-02  0.8349125E-01
          2   -1    0    0  501    0  0.00000000000E+00  0.00000000000E+00  0.50128051064E+04  0.50128051064E+04  0.00000000000E+00 0.  1.
         -2   -1    0    0    0  501 -0.00000000000E+00 -0.00000000000E+00 -0.35205530759E+03  0.35205530759E+03  0.00000000000E+00 0. -1.
         23    2    1    2    0    0  0.86607692407E+03 -0.94935312764E+03  0.16655317428E+04  0.21056132919E+04  0.90833637012E+02 0.  0.
         11    1    3    3    0    0  0.31590988588E+03 -0.28607652047E+03  0.52939485468E+03  0.67963059358E+03  0.00000000000E+00 0. -1.
        -11    1    3    3    0    0  0.55016703819E+03 -0.66327660717E+03  0.11361368881E+04  0.14259826984E+04  0.00000000000E+00 0.  1.
         22    1    1    2    0    0 -0.86607692407E+03  0.94935312764E+03  0.29952180560E+04  0.32592471220E+04  0.00000000000E+00 0.  1.
<mgrwt>
<rscale>  0 0.26569039E+04</rscale>
<asrwt>0</asrwt>
<pdfrwt beam="1">  1        2 0.77120074E+00 0.26569039E+04</pdfrwt>
<pdfrwt beam="2">  1       -2 0.54162358E-01 0.26569039E+04</pdfrwt>
<totfact> 0.94013699E-02</totfact>
</mgrwt>
</event>
<event>
 6    1  0.1934315E-005  0.1840637E+04  0.7818608E-02  0.8684983E-01
          2   -1    0    0  501    0  0.00000000000E+00  0.00000000000E+00  0.82953531709E+03  0.82953531709E+03  0.00000000000E+00 0.  1.
         -2   -1    0    0    0  501 -0.00000000000E+00 -0.00000000000E+00 -0.10210370359E+04  0.10210370359E+04  0.00000000000E+00 0. -1.
         23    2    1    2    0    0 -0.76560441618E+03 -0.28112861604E+03 -0.51963285656E+03  0.97145150557E+03  0.92283808056E+02 0.  0.
         13    1    3    3    0    0 -0.46606656343E+03 -0.21209624239E+03 -0.29757903461E+03  0.59224668798E+03  0.00000000000E+00 0.  1.
        -13    1    3    3    0    0 -0.29953785275E+03 -0.69032373647E+02 -0.22205382195E+03  0.37920481759E+03  0.00000000000E+00 0. -1.
         22    1    1    2    0    0  0.76560441618E+03  0.28112861604E+03  0.32813113774E+03  0.87912084743E+03  0.00000000000E+00 0. -1.
<mgrwt>
<rscale>  0 0.18406372E+04</rscale>
<asrwt>0</asrwt>
<pdfrwt beam="1">  1        2 0.12762082E+00 0.18406372E+04</pdfrwt>
<pdfrwt beam="2">  1       -2 0.15708262E+00 0.18406372E+04</pdfrwt>
<totfact> 0.81722723E+00</totfact>
</mgrwt>
</event>
<event>
 6    1  0.1934315E-005  0.1570442E+04  0.7818608E-02  0.8838915E-01
          1   -1    0    0  501    0  0.00000000000E+00  0.00000000000E+00  0.97477607378E+03  0.97477607378E+03  0.00000000000E+00 0.  1.
         -1   -1    0    0    0  501 -0.00000000000E+00 -0.00000000000E+00 -0.63252701812E+03  0.63252701812E+03  0.00000000000E+00 0. -1.
         23    2    1    2    0    0 -0.63712885848E+03  0.43139232270E+03  0.31715180091E+03  0.83745739918E+03  0.93365476632E+02 0.  0.
         11    1    3    3    0    0 -0.19704599037E+03  0.87488625865E+02  0.69754761151E+02  0.22659900415E+03  0.00000000000E+00 0. -1.
        -11    1    3    3    0    0 -0.44008286811E+03  0.34390369684E+03  0.24739703976E+03  0.61085839503E+03  0.00000000000E+00 0.  1.
         22    1    1    2    0    0  0.63712885848E+03 -0.43139232270E+03  0.25097254746E+02  0.76984569271E+03  0.00000000000E+00 0.  1.
<mgrwt>
<rscale>  0 0.15704422E+04</rscale>
<asrwt>0</asrwt>
<pdfrwt beam="1">  1        1 0.14996555E+00 0.15704422E+04</pdfrwt>
<pdfrwt beam="2">  1       -1 0.97311849E-01 0.15704422E+04</pdfrwt>
<totfact> 0.15454400E+01</totfact>
</mgrwt>
</event>
<event>
 6    1  0.1934315E-005  0.2886640E+04  0.7818608E-02  0.8276864E-01
         -2   -1    0    0    0  501 -0.00000000000E+00  0.00000000000E+00  0.12441267389E+04  0.12441267389E+04  0.00000000000E+00 0. -1.
          2   -1    0    0  501    0  0.00000000000E+00 -0.00000000000E+00 -0.16744055887E+04  0.16744055887E+04  0.00000000000E+00 0.  1.
         23    2    1    2    0    0  0.69798075255E+03 -0.68466606411E+03  0.85605030460E+03  0.13028010864E+04  0.92324409152E+02 0.  0.
         11    1    3    3    0    0  0.29113629322E+03 -0.22376183251E+03  0.32918607280E+03  0.49314619480E+03  0.00000000000E+00 0. -1.
        -11    1    3    3    0    0  0.40684445933E+03 -0.46090423160E+03  0.52686423180E+03  0.80965489163E+03  0.00000000000E+00 0.  1.
         22    1    1    2    0    0 -0.69798075255E+03  0.68466606411E+03 -0.12863291544E+04  0.16157312412E+04  0.00000000000E+00 0.  1.
<mgrwt>
<rscale>  0 0.28866401E+04</rscale>
<asrwt>0</asrwt>
<pdfrwt beam="1">  1        2 0.25760086E+00 0.28866401E+04</pdfrwt>
<pdfrwt beam="2">  1       -2 0.19140411E+00 0.28866401E+04</pdfrwt>
<totfact> 0.13282654E+00</totfact>
</mgrwt>
</event>
<event>
 6    1  0.1934315E-005  0.3035440E+04  0.7818608E-02  0.8233683E-01
         -2   -1    0    0    0  501 -0.00000000000E+00  0.00000000000E+00  0.14366920373E+04  0.14366920373E+04  0.00000000000E+00 0. -1.
          2   -1    0    0  501    0  0.00000000000E+00 -0.00000000000E+00 -0.16033181374E+04  0.16033181374E+04  0.00000000000E+00 0.  1.
         23    2    1    2    0    0 -0.11431630870E+04  0.48801626016E+03  0.78648072887E+03  0.14736786832E+04  0.90527404549E+02 0.  0.
         11    1    3    3    0    0 -0.94111104374E+03  0.41988493320E+03  0.68585970434E+03  0.12379001930E+04  0.00000000000E+00 0. -1.
        -11    1    3    3    0    0 -0.20205204323E+03  0.68131326956E+02  0.10062102452E+03  0.23577849025E+03  0.00000000000E+00 0.  1.
         22    1    1    2    0    0  0.11431630870E+04 -0.48801626016E+03 -0.95310682904E+03  0.15663314915E+04  0.00000000000E+00 0.  1.
<mgrwt>
<rscale>  0 0.30354403E+04</rscale>
<asrwt>0</asrwt>
<pdfrwt beam="1">  1        2 0.24666433E+00 0.30354403E+04</pdfrwt>
<pdfrwt beam="2">  1       -2 0.22102955E+00 0.30354403E+04</pdfrwt>
<totfact> 0.92285817E-01</totfact>
</mgrwt>
</event>
<event>
 6    1  0.1934315E-005  0.2348679E+04  0.7818608E-02  0.8458971E-01
         -2   -1    0    0    0  501 -0.00000000000E+00  0.00000000000E+00  0.44484715228E+03  0.44484715228E+03  0.00000000000E+00 0. -1.
          2   -1    0    0  501    0  0.00000000000E+00 -0.00000000000E+00 -0.31001062109E+04  0.31001062109E+04  0.00000000000E+00 0.  1.
         23    2    1    2    0    0  0.80577802560E+03 -0.67467472241E+03 -0.54484090881E+03  0.11873425016E+04  0.92013002279E+02 0.  0.
         13    1    3    3    0    0  0.23841064050E+03 -0.25334150504E+03 -0.19461855284E+03  0.39862003561E+03  0.00000000000E+00 0. -1.
        -13    1    3    3    0    0  0.56736738510E+03 -0.42133321738E+03 -0.35022235597E+03  0.78872246599E+03  0.00000000000E+00 0.  1.
         22    1    1    2    0    0 -0.80577802560E+03  0.67467472241E+03 -0.21104181498E+04  0.23576108616E+04  0.00000000000E+00 0.  1.
<mgrwt>
<rscale>  0 0.23486791E+04</rscale>
<asrwt>0</asrwt>
<pdfrwt beam="1">  1        2 0.47693942E+00 0.23486791E+04</pdfrwt>
<pdfrwt beam="2">  1       -2 0.68438024E-01 0.23486791E+04</pdfrwt>
<totfact> 0.26554995E+00</totfact>
</mgrwt>
</event>
<event>
 6    1  0.1934315E-005  0.2236194E+04  0.7818608E-02  0.8503513E-01
         -2   -1    0    0    0  501 -0.00000000000E+00  0.00000000000E+00  0.51840713354E+03  0.51840713354E+03  0.00000000000E+00 0. -1.
          2   -1    0    0  501    0  0.00000000000E+00 -0.00000000000E+00 -0.24115031304E+04  0.24115031304E+04  0.00000000000E+00 0.  1.
         23    2    1    2    0    0  0.42425889100E+03 -0.80426669900E+03 -0.99695043690E+02  0.91915729340E+03  0.89835953612E+02 0.  0.
         11    1    3    3    0    0  0.20421769642E+03 -0.40528109950E+03 -0.94123562824E+02  0.46348342173E+03  0.00000000000E+00 0. -1.
        -11    1    3    3    0    0  0.22004119459E+03 -0.39898559949E+03 -0.55714808662E+01  0.45567387167E+03  0.00000000000E+00 0.  1.
         22    1    1    2    0    0 -0.42425889100E+03  0.80426669900E+03 -0.17934009531E+04  0.20107529705E+04  0.00000000000E+00 0.  1.
<mgrwt>
<rscale>  0 0.22361936E+04</rscale>
<asrwt>0</asrwt>
<pdfrwt beam="1">  1        2 0.37100049E+00 0.22361936E+04</pdfrwt>
<pdfrwt beam="2">  1       -2 0.79754942E-01 0.22361936E+04</pdfrwt>
<totfact> 0.49665212E+00</totfact>
</mgrwt>
</event>
<event>
 6    1  0.1934315E-005  0.2667534E+04  0.7818608E-02  0.8345617E-01
         -2   -1    0    0    0  501 -0.00000000000E+00  0.00000000000E+00  0.19961857971E+04  0.19961857971E+04  0.00000000000E+00 0. -1.
          2   -1    0    0  501    0  0.00000000000E+00 -0.00000000000E+00 -0.89116650111E+03  0.89116650111E+03  0.00000000000E+00 0.  1.
         23    2    1    2    0    0 -0.18212547338E+03 -0.20367902958E+03  0.19646295503E+04  0.19853630386E+04  0.85101644210E+02 0.  0.
         13    1    3    3    0    0 -0.90631940628E+02 -0.67105531064E+02  0.10539005570E+04  0.10599168292E+04  0.00000000000E+00 0.  1.
        -13    1    3    3    0    0 -0.91493532756E+02 -0.13657349851E+03  0.91072899337E+03  0.92544620935E+03  0.00000000000E+00 0. -1.
         22    1    1    2    0    0  0.18212547338E+03  0.20367902958E+03 -0.85961025432E+03  0.90198925963E+03  0.00000000000E+00 0.  1.
<mgrwt>
<rscale>  0 0.26675336E+04</rscale>
<asrwt>0</asrwt>
<pdfrwt beam="1">  1        2 0.13710254E+00 0.26675336E+04</pdfrwt>
<pdfrwt beam="2">  1       -2 0.30710551E+00 0.26675336E+04</pdfrwt>
<totfact> 0.75187906E-01</totfact>
</mgrwt>
</event>
<event>
 6    1  0.1934315E-005  0.4202392E+04  0.7818608E-02  0.7964917E-01
         -1   -1    0    0    0  501 -0.00000000000E+00  0.00000000000E+00  0.14227602596E+04  0.14227602596E+04  0.00000000000E+00 0. -1.
          1   -1    0    0  501    0  0.00000000000E+00 -0.00000000000E+00 -0.31031405376E+04  0.31031405376E+04  0.00000000000E+00 0.  1.
         23    2    1    2    0    0  0.49423214478E+03 -0.18771796098E+04 -0.17040442599E+04  0.25846051772E+04  0.91369481069E+02 0.  0.
         11    1    3    3    0    0  0.56676660569E+02 -0.13354250268E+03 -0.14349854426E+03  0.20405312073E+03  0.00000000000E+00 0.  1.
        -11    1    3    3    0    0  0.43755548421E+03 -0.17436371071E+04 -0.15605457157E+04  0.23805520565E+04  0.00000000000E+00 0. -1.
         22    1    1    2    0    0 -0.49423214478E+03  0.18771796098E+04  0.23663981962E+02  0.19412956200E+04  0.00000000000E+00 0. -1.
<mgrwt>
<rscale>  0 0.42023922E+04</rscale>
<asrwt>0</asrwt>
<pdfrwt beam="1">  1        1 0.47740623E+00 0.42023922E+04</pdfrwt>
<pdfrwt beam="2">  1       -1 0.21888620E+00 0.42023922E+04</pdfrwt>
<totfact> 0.43240184E-02</totfact>
</mgrwt>
</event>
<event>
 6    1  0.1934315E-005  0.1276336E+04  0.7818608E-02  0.9048544E-01
         -2   -1    0    0    0  501 -0.00000000000E+00  0.00000000000E+00  0.19986677558E+03  0.19986677558E+03  0.00000000000E+00 0. -1.
          2   -1    0    0  501    0  0.00000000000E+00 -0.00000000000E+00 -0.20376504745E+04  0.20376504745E+04  0.00000000000E+00 0.  1.
         23    2    1    2    0    0 -0.50595352871E+03  0.37916354533E+03 -0.10247949814E+04  0.12076120981E+04  0.91478184293E+02 0.  0.
         11    1    3    3    0    0 -0.24029804418E+03  0.12544638643E+03 -0.45696332412E+03  0.53131480828E+03  0.00000000000E+00 0.  1.
        -11    1    3    3    0    0 -0.26565548453E+03  0.25371715890E+03 -0.56783165726E+03  0.67629728979E+03  0.00000000000E+00 0. -1.
         22    1    1    2    0    0  0.50595352871E+03 -0.37916354533E+03 -0.81298871758E+03  0.10299051521E+04  0.00000000000E+00 0. -1.
<mgrwt>
<rscale>  0 0.12763364E+04</rscale>
<asrwt>0</asrwt>
<pdfrwt beam="1">  1        2 0.31348469E+00 0.12763364E+04</pdfrwt>
<pdfrwt beam="2">  1       -2 0.30748735E-01 0.12763364E+04</pdfrwt>
<totfact> 0.61273644E+01</totfact>
</mgrwt>
</event>
<event>
 6    1  0.1934315E-005  0.1957914E+04  0.7818608E-02  0.8626554E-01
         -2   -1    0    0    0  501 -0.00000000000E+00  0.00000000000E+00  0.97041433141E+03  0.97041433141E+03  0.00000000000E+00 0.  1.
          2   -1    0    0  501    0  0.00000000000E+00 -0.00000000000E+00 -0.98757492312E+03  0.98757492312E+03  0.00000000000E+00 0. -1.
         23    2    1    2    0    0 -0.10962164935E+02 -0.45166354283E+03 -0.87477917170E+03  0.98864424178E+03  0.89770332386E+02 0.  0.
         11    1    3    3    0    0 -0.93922058307E+01 -0.33283033121E+01 -0.38470771056E+02  0.39740298928E+02  0.00000000000E+00 0.  1.
        -11    1    3    3    0    0 -0.15699591042E+01 -0.44833523951E+03 -0.83630840065E+03  0.94890394285E+03  0.00000000000E+00 0. -1.
         22    1    1    2    0    0  0.10962164935E+02  0.45166354283E+03  0.85761858000E+03  0.96934501275E+03  0.00000000000E+00 0.  1.
<mgrwt>
<rscale>  0 0.19579141E+04</rscale>
<asrwt>0</asrwt>
<pdfrwt beam="1">  1        2 0.15193460E+00 0.19579141E+04</pdfrwt>
<pdfrwt beam="2">  1       -2 0.14929451E+00 0.19579141E+04</pdfrwt>
<totfact> 0.72558205E+00</totfact>
</mgrwt>
</event>
<event>
 6    1  0.1934315E-005  0.3700736E+04  0.7818608E-02  0.8067799E-01
         -2   -1    0    0    0  501 -0.00000000000E+00  0.00000000000E+00  0.91381661904E+03  0.91381661904E+03  0.00000000000E+00 0. -1.
          2   -1    0    0  501    0  0.00000000000E+00 -0.00000000000E+00 -0.37467705290E+04  0.37467705290E+04  0.00000000000E+00 0.  1.
         23    2    1    2    0    0  0.25601763745E+03  0.57340880606E+03 -0.36078604297E+04  0.36631791052E+04  0.88778299947E+02 0.  0.
         11    1    3    3    0    0  0.10709492487E+03  0.24180844367E+03 -0.12717849967E+04  0.12989910408E+04  0.00000000000E+00 0.  1.
        -11    1    3    3    0    0  0.14892271258E+03  0.33160036239E+03 -0.23360754331E+04  0.23641880644E+04  0.00000000000E+00 0. -1.
         22    1    1    2    0    0 -0.25601763745E+03 -0.57340880606E+03  0.77490651979E+03  0.99740804286E+03  0.00000000000E+00 0. -1.
<mgrwt>
<rscale>  0 0.37007357E+04</rscale>
<asrwt>0</asrwt>
<pdfrwt beam="1">  1        2 0.57642625E+00 0.37007357E+04</pdfrwt>
<pdfrwt beam="2">  1       -2 0.14058717E+00 0.37007357E+04</pdfrwt>
<totfact> 0.15435021E-01</totfact>
</mgrwt>
</event>
<event>
 6    1  0.1934315E-005  0.2062729E+04  0.7818608E-02  0.8577842E-01
          1   -1    0    0  501    0  0.00000000000E+00  0.00000000000E+00  0.59785949569E+03  0.59785949569E+03  0.00000000000E+00 0.  1.
         -1   -1    0    0    0  501 -0.00000000000E+00 -0.00000000000E+00 -0.17792022060E+04  0.17792022060E+04  0.00000000000E+00 0. -1.
         23    2    1    2    0    0 -0.37559847888E+03 -0.47128587374E+03  0.36956788808E+03  0.71317820927E+03  0.94117703700E+02 0.  0.
         13    1    3    3    0    0 -0.31648166107E+03 -0.35872236527E+03  0.25532129100E+03  0.54224656641E+03  0.00000000000E+00 0. -1.
        -13    1    3    3    0    0 -0.59116817807E+02 -0.11256350847E+03  0.11424659709E+03  0.17093164286E+03  0.00000000000E+00 0.  1.
         22    1    1    2    0    0  0.37559847888E+03  0.47128587374E+03 -0.15509105984E+04  0.16638834924E+04  0.00000000000E+00 0. -1.
<mgrwt>
<rscale>  0 0.20627292E+04</rscale>
<asrwt>0</asrwt>
<pdfrwt beam="1">  1        1 0.91978387E-01 0.20627292E+04</pdfrwt>
<pdfrwt beam="2">  1       -1 0.27372341E+00 0.20627292E+04</pdfrwt>
<totfact> 0.15527363E+00</totfact>
</mgrwt>
</event>
<event>
 6    1  0.1934315E-005  0.2806835E+04  0.7818608E-02  0.8301149E-01
          2   -1    0    0  501    0  0.00000000000E+00  0.00000000000E+00  0.18793295490E+04  0.18793295490E+04  0.00000000000E+00 0.  1.
         -2   -1    0    0    0  501 -0.00000000000E+00 -0.00000000000E+00 -0.10480231243E+04  0.10480231243E+04  0.00000000000E+00 0. -1.
         23    2    1    2    0    0 -0.13829289878E+04  0.14647673072E+03  0.22977558258E+03  0.14121670834E+04  0.86435149600E+02 0.  0.
         11    1    3    3    0    0 -0.86895653743E+03  0.13341215171E+03  0.15187628524E+03  0.89216067622E+03  0.00000000000E+00 0. -1.
        -11    1    3    3    0    0 -0.51397245034E+03  0.13064579003E+02  0.77899297347E+02  0.52000640714E+03  0.00000000000E+00 0.  1.
         22    1    1    2    0    0  0.13829289878E+04 -0.14647673072E+03  0.60153084209E+03  0.15151855899E+04  0.00000000000E+00 0.  1.
<mgrwt>
<rscale>  0 0.28068351E+04</rscale>
<asrwt>0</asrwt>
<pdfrwt beam="1">  1        2 0.28912762E+00 0.28068351E+04</pdfrwt>
<pdfrwt beam="2">  1       -2 0.16123433E+00 0.28068351E+04</pdfrwt>
<totfact> 0.16727342E+00</totfact>
</mgrwt>
</event>
<event>
 6    1  0.1934315E-005  0.1367959E+04  0.7818608E-02  0.8977343E-01
         -2   -1    0    0    0  501 -0.00000000000E+00  0.00000000000E+00  0.38318480732E+03  0.38318480732E+03  0.00000000000E+00 0.  1.
          2   -1    0    0  501    0  0.00000000000E+00 -0.00000000000E+00 -0.12208944529E+04  0.12208944529E+04  0.00000000000E+00 0. -1.
         23    2    1    2    0    0  0.27106302954E+03  0.16388464058E+03 -0.11274602997E+04  0.11747905661E+04  0.92912891068E+02 0.  0.
         13    1    3    3    0    0  0.10129182519E+03  0.11977435796E+02 -0.37186712812E+03  0.38560167764E+03  0.00000000000E+00 0. -1.
        -13    1    3    3    0    0  0.16977120435E+03  0.15190720478E+03 -0.75559317158E+03  0.78918888844E+03  0.00000000000E+00 0.  1.
         22    1    1    2    0    0 -0.27106302954E+03 -0.16388464058E+03  0.28975065409E+03  0.42928869418E+03  0.00000000000E+00 0.  1.
<mgrwt>
<rscale>  0 0.13679594E+04</rscale>
<asrwt>0</asrwt>
<pdfrwt beam="1">  1        2 0.18782991E+00 0.13679594E+04</pdfrwt>
<pdfrwt beam="2">  1       -2 0.58951510E-01 0.13679594E+04</pdfrwt>
<totfact> 0.48264199E+01</totfact>
</mgrwt>
</event>
<event>
 6    1  0.1934315E-005  0.1968006E+04  0.7818608E-02  0.8621727E-01
          2   -1    0    0  501    0  0.00000000000E+00  0.00000000000E+00  0.87149902270E+03  0.87149902270E+03  0.00000000000E+00 0.  1.
         -2   -1    0    0    0  501 -0.00000000000E+00 -0.00000000000E+00 -0.11110306139E+04  0.11110306139E+04  0.00000000000E+00 0. -1.
         23    2    1    2    0    0 -0.64201024860E+03  0.33549145013E+03  0.54799454163E+03  0.91251604681E+03  0.87497689252E+02 0.  0.
         13    1    3    3    0    0 -0.37407347966E+03  0.24067943936E+03  0.35259403381E+03  0.56760912025E+03  0.00000000000E+00 0. -1.
        -13    1    3    3    0    0 -0.26793676894E+03  0.94812010776E+02  0.19540050781E+03  0.34490692656E+03  0.00000000000E+00 0.  1.
         22    1    1    2    0    0  0.64201024860E+03 -0.33549145013E+03 -0.78752613280E+03  0.10700135898E+04  0.00000000000E+00 0. -1.
<mgrwt>
<rscale>  0 0.19680062E+04</rscale>
<asrwt>0</asrwt>
<pdfrwt beam="1">  1        2 0.13407677E+00 0.19680062E+04</pdfrwt>
<pdfrwt beam="2">  1       -2 0.17092779E+00 0.19680062E+04</pdfrwt>
<totfact> 0.59940983E+00</totfact>
</mgrwt>
</event>
<event>
 6    1  0.1934315E-005  0.1552374E+04  0.7818608E-02  0.8850353E-01
         -2   -1    0    0    0  501 -0.00000000000E+00  0.00000000000E+00  0.15354658711E+04  0.15354658711E+04  0.00000000000E+00 0. -1.
          2   -1    0    0  501    0  0.00000000000E+00 -0.00000000000E+00 -0.39236702276E+03  0.39236702276E+03  0.00000000000E+00 0.  1.
         23    2    1    2    0    0 -0.29484699829E+03  0.56891789248E+03  0.11116041053E+04  0.12862767859E+04  0.90785253538E+02 0.  0.
         11    1    3    3    0    0 -0.14255313397E+03  0.33571445857E+03  0.55925989662E+03  0.66768048172E+03  0.00000000000E+00 0. -1.
        -11    1    3    3    0    0 -0.15229386432E+03  0.23320343391E+03  0.55234420865E+03  0.61859630416E+03  0.00000000000E+00 0.  1.
         22    1    1    2    0    0  0.29484699829E+03 -0.56891789248E+03  0.31494743027E+02  0.64155610793E+03  0.00000000000E+00 0.  1.
<mgrwt>
<rscale>  0 0.15523739E+04</rscale>
<asrwt>0</asrwt>
<pdfrwt beam="1">  1        2 0.60364158E-01 0.15523739E+04</pdfrwt>
<pdfrwt beam="2">  1       -2 0.23622551E+00 0.15523739E+04</pdfrwt>
<totfact> 0.61139484E+00</totfact>
</mgrwt>
</event>
<event>
 6    1  0.1934315E-005  0.5381255E+04  0.7818608E-02  0.7772243E-01
         -2   -1    0    0    0  501 -0.00000000000E+00  0.00000000000E+00  0.32753174954E+04  0.32753174954E+04  0.00000000000E+00 0. -1.
          2   -1    0    0  501    0  0.00000000000E+00 -0.00000000000E+00 -0.22103125746E+04  0.22103125746E+04  0.00000000000E+00 0.  1.
         23    2    1    2    0    0  0.25657760597E+03  0.23875751533E+04  0.17679714910E+04  0.29835291169E+04  0.96827772740E+02 0.  0.
         13    1    3    3    0    0  0.24712194050E+03  0.22363412304E+04  0.16272014453E+04  0.27767023420E+04  0.00000000000E+00 0.  1.
        -13    1    3    3    0    0  0.94556654702E+01  0.15123392289E+03  0.14077004570E+03  0.20682677488E+03  0.00000000000E+00 0. -1.
         22    1    1    2    0    0 -0.25657760597E+03 -0.23875751533E+04 -0.70296657025E+03  0.25021009531E+04  0.00000000000E+00 0.  1.
<mgrwt>
<rscale>  0 0.53812547E+04</rscale>
<asrwt>0</asrwt>
<pdfrwt beam="1">  1        2 0.34004809E+00 0.53812547E+04</pdfrwt>
<pdfrwt beam="2">  1       -2 0.50389500E+00 0.53812547E+04</pdfrwt>
<totfact> 0.56694908E-03</totfact>
</mgrwt>
</event>
<event>
 6    1  0.1934315E-005  0.2943165E+04  0.7818608E-02  0.8260149E-01
          2   -1    0    0  501    0  0.00000000000E+00  0.00000000000E+00  0.26065876828E+04  0.26065876828E+04  0.00000000000E+00 0.  1.
         -2   -1    0    0    0  501 -0.00000000000E+00 -0.00000000000E+00 -0.83080049699E+03  0.83080049699E+03  0.00000000000E+00 0. -1.
         23    2    1    2    0    0  0.13718292005E+04 -0.43517655851E+03  0.53811282478E+03  0.15391964571E+04  0.90919354027E+02 0.  0.
         13    1    3    3    0    0  0.49067494048E+03 -0.15781548636E+03  0.23950325993E+03  0.56835678624E+03  0.00000000000E+00 0.  1.
        -13    1    3    3    0    0  0.88115425997E+03 -0.27736107215E+03  0.29860956486E+03  0.97083967082E+03  0.00000000000E+00 0. -1.
         22    1    1    2    0    0 -0.13718292005E+04  0.43517655851E+03  0.12376743610E+04  0.18981917227E+04  0.00000000000E+00 0. -1.
<mgrwt>
<rscale>  0 0.29431645E+04</rscale>
<asrwt>0</asrwt>
<pdfrwt beam="1">  1        2 0.40101348E+00 0.29431645E+04</pdfrwt>
<pdfrwt beam="2">  1       -2 0.12781546E+00 0.29431645E+04</pdfrwt>
<totfact> 0.11755722E+00</totfact>
</mgrwt>
</event>
<event>
 6    1  0.1934315E-005  0.1388649E+04  0.7818608E-02  0.8962076E-01
         -2   -1    0    0    0  501 -0.00000000000E+00  0.00000000000E+00  0.25189842985E+03  0.25189842985E+03  0.00000000000E+00 0. -1.
          2   -1    0    0  501    0  0.00000000000E+00 -0.00000000000E+00 -0.19138128856E+04  0.19138128856E+04  0.00000000000E+00 0.  1.
         23    2    1    2    0    0 -0.48386448898E+03  0.48054621656E+03 -0.10110132744E+04  0.12229908597E+04  0.92245822460E+02 0.  0.
         11    1    3    3    0    0 -0.33298862242E+03  0.29995315792E+03 -0.72839592514E+03  0.85522742202E+03  0.00000000000E+00 0.  1.
        -11    1    3    3    0    0 -0.15087586656E+03  0.18059305864E+03 -0.28261734930E+03  0.36776343764E+03  0.00000000000E+00 0. -1.
         22    1    1    2    0    0  0.48386448898E+03 -0.48054621656E+03 -0.65090118129E+03  0.94272045578E+03  0.00000000000E+00 0. -1.
<mgrwt>
<rscale>  0 0.13886489E+04</rscale>
<asrwt>0</asrwt>
<pdfrwt beam="1">  1        2 0.29443275E+00 0.13886489E+04</pdfrwt>
<pdfrwt beam="2">  1       -2 0.38753605E-01 0.13886489E+04</pdfrwt>
<totfact> 0.45740081E+01</totfact>
</mgrwt>
</event>
<event>
 6    1  0.1934315E-005  0.2709016E+04  0.7818608E-02  0.8332085E-01
         -2   -1    0    0    0  501 -0.00000000000E+00  0.00000000000E+00  0.19245371739E+04  0.19245371739E+04  0.00000000000E+00 0. -1.
          2   -1    0    0  501    0  0.00000000000E+00 -0.00000000000E+00 -0.95331605728E+03  0.95331605728E+03  0.00000000000E+00 0.  1.
         23    2    1    2    0    0  0.65509311916E+03 -0.11612903987E+04  0.24217324015E+03  0.13582305178E+04  0.91650839024E+02 0.  0.
         13    1    3    3    0    0  0.30159821724E+03 -0.44354427801E+03  0.10103931375E+03  0.54580395209E+03  0.00000000000E+00 0.  1.
        -13    1    3    3    0    0  0.35349490192E+03 -0.71774612069E+03  0.14113392640E+03  0.81242656568E+03  0.00000000000E+00 0. -1.
         22    1    1    2    0    0 -0.65509311916E+03  0.11612903987E+04  0.72904787645E+03  0.15196227134E+04  0.00000000000E+00 0. -1.
<mgrwt>
<rscale>  0 0.27090162E+04</rscale>
<asrwt>0</asrwt>
<pdfrwt beam="1">  1        2 0.14666401E+00 0.27090162E+04</pdfrwt>
<pdfrwt beam="2">  1       -2 0.29608264E+00 0.27090162E+04</pdfrwt>
<totfact> 0.79541291E-01</totfact>
</mgrwt>
</event>
<event>
 6    1  0.1934315E-005  0.2224250E+04  0.7818608E-02  0.8508402E-01
         -2   -1    0    0    0  501 -0.00000000000E+00  0.00000000000E+00  0.13670620724E+04  0.13670620724E+04  0.00000000000E+00 0. -1.
          2   -1    0    0  501    0  0.00000000000E+00 -0.00000000000E+00 -0.90473021646E+03  0.90473021646E+03  0.00000000000E+00 0.  1.
         23    2    1    2    0    0 -0.36157825645E+03  0.35791712098E+03  0.12394859319E+04  0.13429155701E+04  0.90847961401E+02 0.  0.
         11    1    3    3    0    0 -0.29180101089E+03  0.23552687229E+03  0.93598268541E+03  0.10083076539E+04  0.00000000000E+00 0. -1.
        -11    1    3    3    0    0 -0.69777245554E+02  0.12239024869E+03  0.30350324644E+03  0.33460791618E+03  0.00000000000E+00 0.  1.
         22    1    1    2    0    0  0.36157825645E+03 -0.35791712098E+03 -0.77715407590E+03  0.92887671879E+03  0.00000000000E+00 0.  1.
<mgrwt>
<rscale>  0 0.22242503E+04</rscale>
<asrwt>0</asrwt>
<pdfrwt beam="1">  1        2 0.13918927E+00 0.22242503E+04</pdfrwt>
<pdfrwt beam="2">  1       -2 0.21031724E+00 0.22242503E+04</pdfrwt>
<totfact> 0.30251244E+00</totfact>
</mgrwt>
</event>
<event>
 6    1  0.1934315E-005  0.3629593E+04  0.7818608E-02  0.8083746E-01
         -2   -1    0    0    0  501 -0.00000000000E+00  0.00000000000E+00  0.90129077590E+03  0.90129077590E+03  0.00000000000E+00 0. -1.
          2   -1    0    0  501    0  0.00000000000E+00 -0.00000000000E+00 -0.36541888297E+04  0.36541888297E+04  0.00000000000E+00 0.  1.
         23    2    1    2    0    0  0.85072129903E+03  0.14538622358E+04 -0.53353725562E+03  0.17692627293E+04  0.90479129804E+02 0.  0.
         13    1    3    3    0    0  0.48895907446E+03  0.75051088878E+03 -0.26883924413E+03  0.93521233410E+03  0.00000000000E+00 0.  1.
        -13    1    3    3    0    0  0.36176222457E+03  0.70335134701E+03 -0.26469801149E+03  0.83405039521E+03  0.00000000000E+00 0. -1.
         22    1    1    2    0    0 -0.85072129903E+03 -0.14538622358E+04 -0.22193607982E+04  0.27862168763E+04  0.00000000000E+00 0.  1.
<mgrwt>
<rscale>  0 0.36295932E+04</rscale>
<asrwt>0</asrwt>
<pdfrwt beam="1">  1        2 0.56218291E+00 0.36295932E+04</pdfrwt>
<pdfrwt beam="2">  1       -2 0.13866012E+00 0.36295932E+04</pdfrwt>
<totfact> 0.18845490E-01</totfact>
</mgrwt>
</event>
<event>
 6    1  0.1934315E-005  0.2365203E+04  0.7818608E-02  0.8452647E-01
          2   -1    0    0  501    0  0.00000000000E+00  0.00000000000E+00  0.24652776640E+04  0.24652776640E+04  0.00000000000E+00 0.  1.
         -2   -1    0    0    0  501 -0.00000000000E+00 -0.00000000000E+00 -0.56729770832E+03  0.56729770832E+03  0.00000000000E+00 0. -1.
         23    2    1    2    0    0 -0.29112907758E+03  0.10716768790E+04  0.14649311338E+04  0.18406111300E+04  0.92620907412E+02 0.  0.
         11    1    3    3    0    0 -0.15611287806E+03  0.41702211259E+03  0.55497097481E+03  0.71152755109E+03  0.00000000000E+00 0.  1.
        -11    1    3    3    0    0 -0.13501619952E+03  0.65465476638E+03  0.90996015901E+03  0.11290835790E+04  0.00000000000E+00 0. -1.
         22    1    1    2    0    0  0.29112907758E+03 -0.10716768790E+04  0.43304882185E+03  0.11919642423E+04  0.00000000000E+00 0. -1.
<mgrwt>
<rscale>  0 0.23652031E+04</rscale>
<asrwt>0</asrwt>
<pdfrwt beam="1">  1        2 0.37927348E+00 0.23652031E+04</pdfrwt>
<pdfrwt beam="2">  1       -2 0.87276572E-01 0.23652031E+04</pdfrwt>
<totfact> 0.37290081E+00</totfact>
</mgrwt>
</event>
<event>
 6    1  0.1934315E-005  0.6015312E+04  0.7818608E-02  0.7688506E-01
          2   -1    0    0  501    0  0.00000000000E+00  0.00000000000E+00  0.44053134626E+04  0.44053134626E+04  0.00000000000E+00 0.  1.
         -2   -1    0    0    0  501 -0.00000000000E+00 -0.00000000000E+00 -0.20534284355E+04  0.20534284355E+04  0.00000000000E+00 0. -1.
         23    2    1    2    0    0  0.16753029013E+04  0.21988601337E+04 -0.94444615496E+02  0.27673797620E+04  0.88573490837E+02 0.  0.
         13    1    3    3    0    0  0.11075943030E+04  0.13865361540E+04 -0.72659418873E+02  0.17760988254E+04  0.00000000000E+00 0. -1.
        -13    1    3    3    0    0  0.56770859826E+03  0.81232397974E+03 -0.21785196623E+02  0.99128093667E+03  0.00000000000E+00 0.  1.
         22    1    1    2    0    0 -0.16753029013E+04 -0.21988601337E+04  0.24463296426E+04  0.36913621360E+04  0.00000000000E+00 0.  1.
<mgrwt>
<rscale>  0 0.60153124E+04</rscale>
<asrwt>0</asrwt>
<pdfrwt beam="1">  1        2 0.67774053E+00 0.60153124E+04</pdfrwt>
<pdfrwt beam="2">  1       -2 0.31591207E+00 0.60153124E+04</pdfrwt>
<totfact> 0.25618782E-03</totfact>
</mgrwt>
</event>
<event>
 6    1  0.1934315E-005  0.2302456E+04  0.7818608E-02  0.8476953E-01
         -2   -1    0    0    0  501 -0.00000000000E+00  0.00000000000E+00  0.20260613206E+04  0.20260613206E+04  0.00000000000E+00 0.  1.
          2   -1    0    0  501    0  0.00000000000E+00 -0.00000000000E+00 -0.65413922835E+03  0.65413922835E+03  0.00000000000E+00 0. -1.
         23    2    1    2    0    0 -0.91275402252E+03  0.62302130008E+03  0.31867966113E+03  0.11535718892E+04  0.88859052626E+02 0.  0.
         11    1    3    3    0    0 -0.24739678318E+03  0.13373854603E+03  0.10778105791E+03  0.30117756136E+03  0.00000000000E+00 0.  1.
        -11    1    3    3    0    0 -0.66535723934E+03  0.48928275405E+03  0.21089860322E+03  0.85239432788E+03  0.00000000000E+00 0. -1.
         22    1    1    2    0    0  0.91275402252E+03 -0.62302130008E+03  0.10532424312E+04  0.15266286598E+04  0.00000000000E+00 0.  1.
<mgrwt>
<rscale>  0 0.23024562E+04</rscale>
<asrwt>0</asrwt>
<pdfrwt beam="1">  1        2 0.10063681E+00 0.23024562E+04</pdfrwt>
<pdfrwt beam="2">  1       -2 0.31170174E+00 0.23024562E+04</pdfrwt>
<totfact> 0.10898708E+00</totfact>
</mgrwt>
</event>
<event>
 6    1  0.1934315E-005  0.1243832E+04  0.7818608E-02  0.9075332E-01
         -2   -1    0    0    0  501 -0.00000000000E+00  0.00000000000E+00  0.14249909273E+03  0.14249909273E+03  0.00000000000E+00 0. -1.
          2   -1    0    0  501    0  0.00000000000E+00 -0.00000000000E+00 -0.27142615414E+04  0.27142615414E+04  0.00000000000E+00 0.  1.
         23    2    1    2    0    0  0.22299127421E+03  0.25818059080E+03 -0.24779028566E+04  0.25029358910E+04  0.91121796883E+02 0.  0.
         13    1    3    3    0    0  0.14036191745E+03  0.18794422636E+03 -0.13914329026E+04  0.14110669802E+04  0.00000000000E+00 0.  1.
        -13    1    3    3    0    0  0.82629356767E+02  0.70236364435E+02 -0.10864699540E+04  0.10918689108E+04  0.00000000000E+00 0. -1.
         22    1    1    2    0    0 -0.22299127421E+03 -0.25818059080E+03 -0.93859592098E+02  0.35382474315E+03  0.00000000000E+00 0. -1.
<mgrwt>
<rscale>  0 0.12438325E+04</rscale>
<asrwt>0</asrwt>
<pdfrwt beam="1">  1        2 0.41757875E+00 0.12438325E+04</pdfrwt>
<pdfrwt beam="2">  1       -2 0.21922935E-01 0.12438325E+04</pdfrwt>
<totfact> 0.46943661E+01</totfact>
</mgrwt>
</event>
<event>
 6    1  0.1934315E-005  0.2923787E+04  0.7818608E-02  0.8265835E-01
         -2   -1    0    0    0  501 -0.00000000000E+00  0.00000000000E+00  0.25291459027E+04  0.25291459027E+04  0.00000000000E+00 0. -1.
          2   -1    0    0  501    0  0.00000000000E+00 -0.00000000000E+00 -0.84500184634E+03  0.84500184634E+03  0.00000000000E+00 0.  1.
         23    2    1    2    0    0  0.11948882484E+04  0.52483474655E+03  0.86312025558E+02  0.13110731900E+04  0.90849910976E+02 0.  0.
         11    1    3    3    0    0  0.52585872479E+03  0.20305549546E+03  0.15742765203E+00  0.56370112423E+03  0.00000000000E+00 0. -1.
        -11    1    3    3    0    0  0.66902952366E+03  0.32177925109E+03  0.86154597906E+02  0.74737206577E+03  0.00000000000E+00 0.  1.
         22    1    1    2    0    0 -0.11948882484E+04 -0.52483474655E+03  0.15978320308E+04  0.20630745590E+04  0.00000000000E+00 0. -1.
<mgrwt>
<rscale>  0 0.29237872E+04</rscale>
<asrwt>0</asrwt>
<pdfrwt beam="1">  1        2 0.13000029E+00 0.29237872E+04</pdfrwt>
<pdfrwt beam="2">  1       -2 0.38909937E+00 0.29237872E+04</pdfrwt>
<totfact> 0.24081410E-01</totfact>
</mgrwt>
</event>
<event>
 6    1  0.1934315E-005  0.1090089E+04  0.7818608E-02  0.9214906E-01
         -2   -1    0    0    0  501 -0.00000000000E+00  0.00000000000E+00  0.22349982667E+03  0.22349982667E+03  0.00000000000E+00 0. -1.
          2   -1    0    0  501    0  0.00000000000E+00 -0.00000000000E+00 -0.13291896274E+04  0.13291896274E+04  0.00000000000E+00 0.  1.
         23    2    1    2    0    0 -0.30624453807E+03  0.39698322822E+03 -0.26671953720E+03  0.57531925621E+03  0.92040939008E+02 0.  0.
         13    1    3    3    0    0 -0.93175570105E+02  0.15427485782E+03 -0.14067601746E+03  0.22863105762E+03  0.00000000000E+00 0. -1.
        -13    1    3    3    0    0 -0.21306896796E+03  0.24270837040E+03 -0.12604351974E+03  0.34668819859E+03  0.00000000000E+00 0.  1.
         22    1    1    2    0    0  0.30624453807E+03 -0.39698322822E+03 -0.83897026348E+03  0.97737019782E+03  0.00000000000E+00 0.  1.
<mgrwt>
<rscale>  0 0.10900893E+04</rscale>
<asrwt>0</asrwt>
<pdfrwt beam="1">  1        2 0.20449071E+00 0.10900893E+04</pdfrwt>
<pdfrwt beam="2">  1       -2 0.34384589E-01 0.10900893E+04</pdfrwt>
<totfact> 0.12503727E+02</totfact>
</mgrwt>
</event>
<event>
 6    1  0.1934315E-005  0.1002355E+04  0.7818608E-02  0.9305966E-01
         -2   -1    0    0    0  501 -0.00000000000E+00  0.00000000000E+00  0.23949102736E+03  0.23949102736E+03  0.00000000000E+00 0. -1.
          2   -1    0    0  501    0  0.00000000000E+00 -0.00000000000E+00 -0.10488024732E+04  0.10488024732E+04  0.00000000000E+00 0.  1.
         23    2    1    2    0    0  0.29009490320E+02  0.17627421542E+03 -0.10041163545E+04  0.10239772090E+04  0.91463225368E+02 0.  0.
         13    1    3    3    0    0 -0.15857244186E+02  0.16694150824E+02 -0.28827767009E+03  0.28919571563E+03  0.00000000000E+00 0. -1.
        -13    1    3    3    0    0  0.44866734507E+02  0.15958006460E+03 -0.71583868445E+03  0.73478149340E+03  0.00000000000E+00 0.  1.
         22    1    1    2    0    0 -0.29009490320E+02 -0.17627421542E+03  0.19480490866E+03  0.26431629157E+03  0.00000000000E+00 0. -1.
<mgrwt>
<rscale>  0 0.10023548E+04</rscale>
<asrwt>0</asrwt>
<pdfrwt beam="1">  1        2 0.16135423E+00 0.10023548E+04</pdfrwt>
<pdfrwt beam="2">  1       -2 0.36844773E-01 0.10023548E+04</pdfrwt>
<totfact> 0.16226739E+02</totfact>
</mgrwt>
</event>
<event>
 6    1  0.1934315E-005  0.5231044E+04  0.7818608E-02  0.7793822E-01
         -2   -1    0    0    0  501 -0.00000000000E+00  0.00000000000E+00  0.21538458570E+04  0.21538458570E+04  0.00000000000E+00 0. -1.
          2   -1    0    0  501    0  0.00000000000E+00 -0.00000000000E+00 -0.31761580949E+04  0.31761580949E+04  0.00000000000E+00 0.  1.
         23    2    1    2    0    0 -0.20096619290E+04 -0.72557646114E+03 -0.20469976485E+04  0.29603663298E+04  0.91472201432E+02 0.  0.
         13    1    3    3    0    0 -0.17434132550E+04 -0.64360285318E+03 -0.18175002130E+04  0.25994271359E+04  0.00000000000E+00 0.  1.
        -13    1    3    3    0    0 -0.26624867397E+03 -0.81973607960E+02 -0.22949743550E+03  0.36093919390E+03  0.00000000000E+00 0. -1.
         22    1    1    2    0    0  0.20096619290E+04  0.72557646114E+03  0.10246854106E+04  0.23696376222E+04  0.00000000000E+00 0. -1.
<mgrwt>
<rscale>  0 0.52310439E+04</rscale>
<asrwt>0</asrwt>
<pdfrwt beam="1">  1        2 0.48863971E+00 0.52310439E+04</pdfrwt>
<pdfrwt beam="2">  1       -2 0.33136090E+00 0.52310439E+04</pdfrwt>
<totfact> 0.19541351E-02</totfact>
</mgrwt>
</event>
<event>
 6    1  0.1934315E-005  0.2578423E+04  0.7818608E-02  0.8375567E-01
         -2   -1    0    0    0  501 -0.00000000000E+00  0.00000000000E+00  0.42323323408E+03  0.42323323408E+03  0.00000000000E+00 0. -1.
          2   -1    0    0  501    0  0.00000000000E+00 -0.00000000000E+00 -0.39270704893E+04  0.39270704893E+04  0.00000000000E+00 0.  1.
         23    2    1    2    0    0  0.14999497566E+03  0.48490117560E+03 -0.37506486374E+04  0.37859071419E+04  0.90000239498E+02 0.  0.
         13    1    3    3    0    0  0.14841346707E+03  0.34532607433E+03 -0.27547062120E+04  0.27802307403E+04  0.00000000000E+00 0.  1.
        -13    1    3    3    0    0  0.15815085962E+01  0.13957510128E+03 -0.99594242533E+03  0.10056764016E+04  0.00000000000E+00 0. -1.
         22    1    1    2    0    0 -0.14999497566E+03 -0.48490117560E+03  0.24681138217E+03  0.56439658148E+03  0.00000000000E+00 0. -1.
<mgrwt>
<rscale>  0 0.25784234E+04</rscale>
<asrwt>0</asrwt>
<pdfrwt beam="1">  1        2 0.60416471E+00 0.25784234E+04</pdfrwt>
<pdfrwt beam="2">  1       -2 0.65112803E-01 0.25784234E+04</pdfrwt>
<totfact> 0.75604868E-01</totfact>
</mgrwt>
</event>
<event>
 6    1  0.1934315E-005  0.3086491E+04  0.7818608E-02  0.8219455E-01
         -2   -1    0    0    0  501 -0.00000000000E+00  0.00000000000E+00  0.22755857679E+04  0.22755857679E+04  0.00000000000E+00 0. -1.
          2   -1    0    0  501    0  0.00000000000E+00 -0.00000000000E+00 -0.10465907681E+04  0.10465907681E+04  0.00000000000E+00 0.  1.
         23    2    1    2    0    0 -0.14420006785E+04 -0.28324770902E+03  0.11173999365E+04  0.18483893466E+04  0.91462215355E+02 0.  0.
         11    1    3    3    0    0 -0.34836760509E+03 -0.28831774878E+02  0.26325483471E+03  0.43760069415E+03  0.00000000000E+00 0. -1.
        -11    1    3    3    0    0 -0.10936330734E+04 -0.25441593414E+03  0.85414510179E+03  0.14107886524E+04  0.00000000000E+00 0.  1.
         22    1    1    2    0    0  0.14420006785E+04  0.28324770902E+03  0.11159506327E+03  0.14737871894E+04  0.00000000000E+00 0. -1.
<mgrwt>
<rscale>  0 0.30864912E+04</rscale>
<asrwt>0</asrwt>
<pdfrwt beam="1">  1        2 0.16101396E+00 0.30864912E+04</pdfrwt>
<pdfrwt beam="2">  1       -2 0.35009012E+00 0.30864912E+04</pdfrwt>
<totfact> 0.31057438E-01</totfact>
</mgrwt>
</event>
<event>
 6    1  0.1934315E-005  0.1955208E+04  0.7818608E-02  0.8627854E-01
         -2   -1    0    0    0  501 -0.00000000000E+00  0.00000000000E+00  0.82798446282E+03  0.82798446282E+03  0.00000000000E+00 0. -1.
          2   -1    0    0  501    0  0.00000000000E+00 -0.00000000000E+00 -0.11542602710E+04  0.11542602710E+04  0.00000000000E+00 0.  1.
         23    2    1    2    0    0  0.22636468930E+02  0.69249343938E+03 -0.85969775647E+03  0.11078314744E+04  0.90281613804E+02 0.  0.
         13    1    3    3    0    0  0.49624949578E+02  0.32654729574E+03 -0.44338669636E+03  0.55289016494E+03  0.00000000000E+00 0. -1.
        -13    1    3    3    0    0 -0.26988480648E+02  0.36594614364E+03 -0.41631106011E+03  0.55494130942E+03  0.00000000000E+00 0.  1.
         22    1    1    2    0    0 -0.22636468930E+02 -0.69249343938E+03  0.53342194833E+03  0.87441325943E+03  0.00000000000E+00 0. -1.
<mgrwt>
<rscale>  0 0.19552080E+04</rscale>
<asrwt>0</asrwt>
<pdfrwt beam="1">  1        2 0.17757850E+00 0.19552080E+04</pdfrwt>
<pdfrwt beam="2">  1       -2 0.12738222E+00 0.19552080E+04</pdfrwt>
<totfact> 0.86051659E+00</totfact>
</mgrwt>
</event>
<event>
 6    1  0.1934315E-005  0.2517066E+04  0.7818608E-02  0.8396931E-01
         -1   -1    0    0    0  501 -0.00000000000E+00  0.00000000000E+00  0.26118273268E+04  0.26118273268E+04  0.00000000000E+00 0. -1.
          1   -1    0    0  501    0  0.00000000000E+00 -0.00000000000E+00 -0.60643565115E+03  0.60643565115E+03  0.00000000000E+00 0.  1.
         23    2    1    2    0    0  0.45720830162E+03 -0.70699594783E+03  0.21971902337E+04  0.23547414738E+04  0.90993319074E+02 0.  0.
         11    1    3    3    0    0  0.21559434790E+03 -0.25576779207E+03  0.82917251475E+03  0.89410577983E+03  0.00000000000E+00 0. -1.
        -11    1    3    3    0    0  0.24161395372E+03 -0.45122815576E+03  0.13680177190E+04  0.14606356940E+04  0.00000000000E+00 0.  1.
         22    1    1    2    0    0 -0.45720830162E+03  0.70699594783E+03 -0.19179855801E+03  0.86352150417E+03  0.00000000000E+00 0.  1.
<mgrwt>
<rscale>  0 0.25170659E+04</rscale>
<asrwt>0</asrwt>
<pdfrwt beam="1">  1        1 0.93297794E-01 0.25170659E+04</pdfrwt>
<pdfrwt beam="2">  1       -1 0.40181958E+00 0.25170659E+04</pdfrwt>
<totfact> 0.20795488E-01</totfact>
</mgrwt>
</event>
<event>
 6    1  0.1934315E-005  0.2531042E+04  0.7818608E-02  0.8392009E-01
         -2   -1    0    0    0  501 -0.00000000000E+00  0.00000000000E+00  0.55754132616E+03  0.55754132616E+03  0.00000000000E+00 0. -1.
          2   -1    0    0  501    0  0.00000000000E+00 -0.00000000000E+00 -0.28725117443E+04  0.28725117443E+04  0.00000000000E+00 0.  1.
         23    2    1    2    0    0 -0.23605294932E+03 -0.12297476016E+04 -0.13905441040E+04  0.18735942150E+04  0.93499834176E+02 0.  0.
         11    1    3    3    0    0 -0.11322747556E+03 -0.42319427681E+03 -0.53357394500E+03  0.69037309618E+03  0.00000000000E+00 0. -1.
        -11    1    3    3    0    0 -0.12282547376E+03 -0.80655332475E+03 -0.85697015899E+03  0.11832211188E+04  0.00000000000E+00 0.  1.
         22    1    1    2    0    0  0.23605294932E+03  0.12297476016E+04 -0.92442631420E+03  0.15564588555E+04  0.00000000000E+00 0. -1.
<mgrwt>
<rscale>  0 0.25310425E+04</rscale>
<asrwt>0</asrwt>
<pdfrwt beam="1">  1        2 0.44192489E+00 0.25310425E+04</pdfrwt>
<pdfrwt beam="2">  1       -2 0.85775588E-01 0.25310425E+04</pdfrwt>
<totfact> 0.21928822E+00</totfact>
</mgrwt>
</event>
<event>
 6    1  0.1934315E-005  0.2667981E+04  0.7818608E-02  0.8345469E-01
          1   -1    0    0  501    0  0.00000000000E+00  0.00000000000E+00  0.19445263026E+04  0.19445263026E+04  0.00000000000E+00 0.  1.
         -1   -1    0    0    0  501 -0.00000000000E+00 -0.00000000000E+00 -0.91514886414E+03  0.91514886414E+03  0.00000000000E+00 0. -1.
         23    2    1    2    0    0  0.96749325398E+03  0.87951621384E+02 -0.46214887086E+03  0.10796669040E+04  0.91216009908E+02 0.  0.
         13    1    3    3    0    0  0.74383757569E+03  0.52182742021E+02 -0.39275278564E+03  0.84277644023E+03  0.00000000000E+00 0.  1.
        -13    1    3    3    0    0  0.22365567829E+03  0.35768879363E+02 -0.69396085213E+02  0.23689046373E+03  0.00000000000E+00 0. -1.
         22    1    1    2    0    0 -0.96749325398E+03 -0.87951621384E+02  0.14915263093E+04  0.17800082628E+04  0.00000000000E+00 0. -1.
<mgrwt>
<rscale>  0 0.26679813E+04</rscale>
<asrwt>0</asrwt>
<pdfrwt beam="1">  1        1 0.29915789E+00 0.26679813E+04</pdfrwt>
<pdfrwt beam="2">  1       -1 0.14079213E+00 0.26679813E+04</pdfrwt>
<totfact> 0.11750712E+00</totfact>
</mgrwt>
</event>
<event>
 6    1  0.1934315E-005  0.3726162E+04  0.7818608E-02  0.8062189E-01
         -2   -1    0    0    0  501 -0.00000000000E+00  0.00000000000E+00  0.12506644952E+04  0.12506644952E+04  0.00000000000E+00 0. -1.
          2   -1    0    0  501    0  0.00000000000E+00 -0.00000000000E+00 -0.27753817357E+04  0.27753817357E+04  0.00000000000E+00 0.  1.
         23    2    1    2    0    0 -0.26324462688E+03  0.13327343628E+04  0.61306542424E+03  0.14931440739E+04  0.90285080311E+02 0.  0.
         13    1    3    3    0    0 -0.46383301996E+02  0.35506924109E+03  0.12654130828E+03  0.37978715010E+03  0.00000000000E+00 0. -1.
        -13    1    3    3    0    0 -0.21686132489E+03  0.97766512170E+03  0.48652411596E+03  0.11133569238E+04  0.00000000000E+00 0.  1.
         22    1    1    2    0    0  0.26324462688E+03 -0.13327343628E+04 -0.21377826647E+04  0.25329021570E+04  0.00000000000E+00 0.  1.
<mgrwt>
<rscale>  0 0.37261623E+04</rscale>
<asrwt>0</asrwt>
<pdfrwt beam="1">  1        2 0.42698180E+00 0.37261623E+04</pdfrwt>
<pdfrwt beam="2">  1       -2 0.19240992E+00 0.37261623E+04</pdfrwt>
<totfact> 0.28819715E-01</totfact>
</mgrwt>
</event>
<event>
 6    1  0.1934315E-005  0.2541956E+04  0.7818608E-02  0.8388189E-01
         -2   -1    0    0    0  501 -0.00000000000E+00  0.00000000000E+00  0.60912252592E+03  0.60912252592E+03  0.00000000000E+00 0. -1.
          2   -1    0    0  501    0  0.00000000000E+00 -0.00000000000E+00 -0.26519868255E+04  0.26519868255E+04  0.00000000000E+00 0.  1.
         23    2    1    2    0    0  0.43163884024E+03 -0.61828747981E+03 -0.23327115349E+04  0.24532709295E+04  0.91671437288E+02 0.  0.
         11    1    3    3    0    0  0.38418167227E+02 -0.10945927829E+03 -0.32450860037E+03  0.34462025607E+03  0.00000000000E+00 0. -1.
        -11    1    3    3    0    0  0.39322067302E+03 -0.50882820151E+03 -0.20082029345E+04  0.21086506734E+04  0.00000000000E+00 0.  1.
         22    1    1    2    0    0 -0.43163884024E+03  0.61828747981E+03  0.28984723532E+03  0.80783842191E+03  0.00000000000E+00 0. -1.
<mgrwt>
<rscale>  0 0.25419559E+04</rscale>
<asrwt>0</asrwt>
<pdfrwt beam="1">  1        2 0.40799797E+00 0.25419559E+04</pdfrwt>
<pdfrwt beam="2">  1       -2 0.93711159E-01 0.25419559E+04</pdfrwt>
<totfact> 0.24247921E+00</totfact>
</mgrwt>
</event>
<event>
 6    1  0.1934315E-005  0.2624198E+04  0.7818608E-02  0.8360028E-01
         -2   -1    0    0    0  501 -0.00000000000E+00  0.00000000000E+00  0.73491292451E+03  0.73491292451E+03  0.00000000000E+00 0. -1.
          2   -1    0    0  501    0  0.00000000000E+00 -0.00000000000E+00 -0.23425954765E+04  0.23425954765E+04  0.00000000000E+00 0.  1.
         23    2    1    2    0    0 -0.36958443054E+03 -0.33221840066E+03  0.61762545790E+03  0.79738615518E+03  0.86033465458E+02 0.  0.
         11    1    3    3    0    0 -0.11345657786E+03 -0.53164154142E+02  0.16499948433E+03  0.20718024080E+03  0.00000000000E+00 0. -1.
        -11    1    3    3    0    0 -0.25612785268E+03 -0.27905424652E+03  0.45262597357E+03  0.59020591438E+03  0.00000000000E+00 0.  1.
         22    1    1    2    0    0  0.36958443054E+03  0.33221840066E+03 -0.22253080099E+04  0.22801222459E+04  0.00000000000E+00 0.  1.
<mgrwt>
<rscale>  0 0.26241979E+04</rscale>
<asrwt>0</asrwt>
<pdfrwt beam="1">  1        2 0.36039931E+00 0.26241979E+04</pdfrwt>
<pdfrwt beam="2">  1       -2 0.11306353E+00 0.26241979E+04</pdfrwt>
<totfact> 0.23258758E+00</totfact>
</mgrwt>
</event>
<event>
 6    1  0.1934315E-005  0.9568423E+03  0.7818608E-02  0.9357189E-01
          2   -1    0    0  501    0  0.00000000000E+00  0.00000000000E+00  0.17950572368E+04  0.17950572368E+04  0.00000000000E+00 0.  1.
         -2   -1    0    0    0  501 -0.00000000000E+00 -0.00000000000E+00 -0.12750946550E+03  0.12750946550E+03  0.00000000000E+00 0. -1.
         23    2    1    2    0    0 -0.35755845460E+03 -0.14482521513E+03  0.28859183633E+03  0.49066521756E+03  0.92976966686E+02 0.  0.
         11    1    3    3    0    0 -0.27809855908E+03 -0.98671418078E+02  0.26299912753E+03  0.39527635699E+03  0.00000000000E+00 0. -1.
        -11    1    3    3    0    0 -0.79459895520E+02 -0.46153797056E+02  0.25592708799E+02  0.95388860578E+02  0.00000000000E+00 0.  1.
         22    1    1    2    0    0  0.35755845460E+03  0.14482521513E+03  0.13789559349E+04  0.14319014847E+04  0.00000000000E+00 0.  1.
<mgrwt>
<rscale>  0 0.95684228E+03</rscale>
<asrwt>0</asrwt>
<pdfrwt beam="1">  1        2 0.27616263E+00 0.95684228E+03</pdfrwt>
<pdfrwt beam="2">  1       -2 0.19616842E-01 0.95684228E+03</pdfrwt>
<totfact> 0.19249191E+02</totfact>
</mgrwt>
</event>
<event>
 6    1  0.1934315E-005  0.2938937E+04  0.7818608E-02  0.8261386E-01
         -2   -1    0    0    0  501 -0.00000000000E+00  0.00000000000E+00  0.59210990993E+03  0.59210990993E+03  0.00000000000E+00 0. -1.
          2   -1    0    0  501    0  0.00000000000E+00 -0.00000000000E+00 -0.36468529201E+04  0.36468529201E+04  0.00000000000E+00 0.  1.
         23    2    1    2    0    0 -0.65483216022E+03  0.12894071329E+04 -0.18928585710E+04  0.23838748638E+04  0.92573667049E+02 0.  0.
         13    1    3    3    0    0 -0.50416824530E+03  0.92451437172E+03 -0.13310686636E+04  0.16972496075E+04  0.00000000000E+00 0.  1.
        -13    1    3    3    0    0 -0.15066391492E+03  0.36489276121E+03 -0.56178990740E+03  0.68662525624E+03  0.00000000000E+00 0. -1.
         22    1    1    2    0    0  0.65483216022E+03 -0.12894071329E+04 -0.11618844391E+04  0.18550879662E+04  0.00000000000E+00 0.  1.
<mgrwt>
<rscale>  0 0.29389371E+04</rscale>
<asrwt>0</asrwt>
<pdfrwt beam="1">  1        2 0.56105430E+00 0.29389371E+04</pdfrwt>
<pdfrwt beam="2">  1       -2 0.91093832E-01 0.29389371E+04</pdfrwt>
<totfact> 0.56424382E-01</totfact>
</mgrwt>
</event>
<event>
 6    1  0.1934315E-005  0.6959713E+03  0.7818608E-02  0.9724147E-01
          2   -1    0    0  501    0  0.00000000000E+00  0.00000000000E+00  0.10760553214E+03  0.10760553214E+03  0.00000000000E+00 0.  1.
         -2   -1    0    0    0  501 -0.00000000000E+00 -0.00000000000E+00 -0.11253512432E+04  0.11253512432E+04  0.00000000000E+00 0. -1.
         23    2    1    2    0    0  0.85501800989E+02  0.29506594317E+03 -0.78463760145E+03  0.84732241542E+03  0.89020454208E+02 0.  0.
         13    1    3    3    0    0  0.54332022146E+02  0.24304509144E+03 -0.53049192690E+03  0.58604144018E+03  0.00000000000E+00 0. -1.
        -13    1    3    3    0    0  0.31169778843E+02  0.52020851733E+02 -0.25414567455E+03  0.26128097524E+03  0.00000000000E+00 0.  1.
         22    1    1    2    0    0 -0.85501800989E+02 -0.29506594317E+03 -0.23310810961E+03  0.38563435993E+03  0.00000000000E+00 0. -1.
<mgrwt>
<rscale>  0 0.69597132E+03</rscale>
<asrwt>0</asrwt>
<pdfrwt beam="1">  1        2 0.16554697E-01 0.69597132E+03</pdfrwt>
<pdfrwt beam="2">  1       -2 0.17313096E+00 0.69597132E+03</pdfrwt>
<totfact> 0.73234302E+01</totfact>
</mgrwt>
</event>
<event>
 6    1  0.1934315E-005  0.1731095E+04  0.7818608E-02  0.8743826E-01
          1   -1    0    0  501    0  0.00000000000E+00  0.00000000000E+00  0.53921227439E+03  0.53921227439E+03  0.00000000000E+00 0. -1.
         -1   -1    0    0    0  501 -0.00000000000E+00 -0.00000000000E+00 -0.13893824754E+04  0.13893824754E+04  0.00000000000E+00 0.  1.
         23    2    1    2    0    0  0.98472978248E+01  0.78565639704E+03 -0.82453526892E+03  0.11424585700E+04  0.89444010332E+02 0.  0.
         13    1    3    3    0    0  0.28823386762E+01  0.70690356769E+03 -0.77588966860E+03  0.10496312399E+04  0.00000000000E+00 0. -1.
        -13    1    3    3    0    0  0.69649591486E+01  0.78752829348E+02 -0.48645600319E+02  0.92827330117E+02  0.00000000000E+00 0.  1.
         22    1    1    2    0    0 -0.98472978248E+01 -0.78565639704E+03 -0.25634932119E+02  0.78613617982E+03  0.00000000000E+00 0. -1.
<mgrwt>
<rscale>  0 0.17310945E+04</rscale>
<asrwt>0</asrwt>
<pdfrwt beam="1">  1        1 0.82955736E-01 0.17310945E+04</pdfrwt>
<pdfrwt beam="2">  1       -1 0.21375115E+00 0.17310945E+04</pdfrwt>
<totfact> 0.45898605E+00</totfact>
</mgrwt>
</event>
<event>
 6    1  0.1934315E-005  0.1165193E+04  0.7818608E-02  0.9143881E-01
          2   -1    0    0  501    0  0.00000000000E+00  0.00000000000E+00  0.17899403305E+04  0.17899403305E+04  0.00000000000E+00 0.  1.
         -2   -1    0    0    0  501 -0.00000000000E+00 -0.00000000000E+00 -0.18962557143E+03  0.18962557143E+03  0.00000000000E+00 0. -1.
         23    2    1    2    0    0 -0.84336353372E+02  0.14271951451E+03  0.17473687225E+04  0.17579663792E+04  0.98320178867E+02 0.  0.
         13    1    3    3    0    0 -0.25508377433E+02  0.69256785553E+02  0.12225522236E+04  0.12247779877E+04  0.00000000000E+00 0. -1.
        -13    1    3    3    0    0 -0.58827975939E+02  0.73462728956E+02  0.52481649887E+03  0.53318839146E+03  0.00000000000E+00 0.  1.
         22    1    1    2    0    0  0.84336353372E+02 -0.14271951451E+03 -0.14705396344E+03  0.22159952276E+03  0.00000000000E+00 0. -1.
<mgrwt>
<rscale>  0 0.11651926E+04</rscale>
<asrwt>0</asrwt>
<pdfrwt beam="1">  1        2 0.27537542E+00 0.11651926E+04</pdfrwt>
<pdfrwt beam="2">  1       -2 0.29173166E-01 0.11651926E+04</pdfrwt>
<totfact> 0.93402406E+01</totfact>
</mgrwt>
</event>
<event>
 6    1  0.1934315E-005  0.1119497E+04  0.7818608E-02  0.9186395E-01
          2   -1    0    0  501    0  0.00000000000E+00  0.00000000000E+00  0.19239452764E+04  0.19239452764E+04  0.00000000000E+00 0.  1.
         -2   -1    0    0    0  501 -0.00000000000E+00 -0.00000000000E+00 -0.16285192474E+03  0.16285192474E+03  0.00000000000E+00 0. -1.
         23    2    1    2    0    0  0.49759303952E+03  0.24763030861E+03  0.87989615348E+03  0.10449583917E+04  0.93814693952E+02 0.  0.
         13    1    3    3    0    0  0.17284492443E+03  0.13359656142E+03  0.31132244028E+03  0.38032232507E+03  0.00000000000E+00 0. -1.
        -13    1    3    3    0    0  0.32474811509E+03  0.11403374718E+03  0.56857371320E+03  0.66463606665E+03  0.00000000000E+00 0.  1.
         22    1    1    2    0    0 -0.49759303952E+03 -0.24763030861E+03  0.88119719814E+03  0.10418388094E+04  0.00000000000E+00 0. -1.
<mgrwt>
<rscale>  0 0.11194967E+04</rscale>
<asrwt>0</asrwt>
<pdfrwt beam="1">  1        2 0.29599157E+00 0.11194967E+04</pdfrwt>
<pdfrwt beam="2">  1       -2 0.25054144E-01 0.11194967E+04</pdfrwt>
<totfact> 0.10450535E+02</totfact>
</mgrwt>
</event>
<event>
 6    1  0.1934315E-005  0.3853899E+04  0.7818608E-02  0.8034686E-01
          2   -1    0    0  501    0  0.00000000000E+00  0.00000000000E+00  0.15337785892E+04  0.15337785892E+04  0.00000000000E+00 0.  1.
         -2   -1    0    0    0  501 -0.00000000000E+00 -0.00000000000E+00 -0.24209067195E+04  0.24209067195E+04  0.00000000000E+00 0. -1.
         23    2    1    2    0    0  0.96824105442E+03  0.14010933361E+04  0.47884867250E+03  0.17714661485E+04  0.90790902662E+02 0.  0.
         13    1    3    3    0    0  0.58307557905E+03  0.90461290352E+03  0.27438077346E+03  0.11106693680E+04  0.00000000000E+00 0. -1.
        -13    1    3    3    0    0  0.38516547537E+03  0.49648043260E+03  0.20446789904E+03  0.66079678049E+03  0.00000000000E+00 0.  1.
         22    1    1    2    0    0 -0.96824105442E+03 -0.14010933361E+04 -0.13659768027E+04  0.21832191602E+04  0.00000000000E+00 0. -1.
<mgrwt>
<rscale>  0 0.38538993E+04</rscale>
<asrwt>0</asrwt>
<pdfrwt beam="1">  1        2 0.23596594E+00 0.38538993E+04</pdfrwt>
<pdfrwt beam="2">  1       -2 0.37244719E+00 0.38538993E+04</pdfrwt>
<totfact> 0.10854753E-01</totfact>
</mgrwt>
</event>
<event>
 6    1  0.1934315E-005  0.2064050E+04  0.7818608E-02  0.8577247E-01
         -2   -1    0    0    0  501 -0.00000000000E+00  0.00000000000E+00  0.11231033477E+04  0.11231033477E+04  0.00000000000E+00 0. -1.
          2   -1    0    0  501    0  0.00000000000E+00 -0.00000000000E+00 -0.94833300935E+03  0.94833300935E+03  0.00000000000E+00 0.  1.
         23    2    1    2    0    0  0.47710635236E+03 -0.56321311768E+03  0.80854337496E+03  0.10985500588E+04  0.90721305176E+02 0.  0.
         13    1    3    3    0    0  0.11086519058E+03 -0.16526363838E+03  0.16983207888E+03  0.26162204737E+03  0.00000000000E+00 0. -1.
        -13    1    3    3    0    0  0.36624116178E+03 -0.39794947930E+03  0.63871129608E+03  0.83692801147E+03  0.00000000000E+00 0.  1.
         22    1    1    2    0    0 -0.47710635236E+03  0.56321311768E+03 -0.63377303659E+03  0.97288629823E+03  0.00000000000E+00 0.  1.
<mgrwt>
<rscale>  0 0.20640504E+04</rscale>
<asrwt>0</asrwt>
<pdfrwt beam="1">  1        2 0.14589739E+00 0.20640504E+04</pdfrwt>
<pdfrwt beam="2">  1       -2 0.17278513E+00 0.20640504E+04</pdfrwt>
<totfact> 0.51222235E+00</totfact>
</mgrwt>
</event>
<event>
 6    1  0.1934315E-005  0.3507378E+04  0.7818608E-02  0.8112044E-01
         -2   -1    0    0    0  501 -0.00000000000E+00  0.00000000000E+00  0.10528395609E+04  0.10528395609E+04  0.00000000000E+00 0. -1.
          2   -1    0    0  501    0  0.00000000000E+00 -0.00000000000E+00 -0.29210773644E+04  0.29210773644E+04  0.00000000000E+00 0.  1.
         23    2    1    2    0    0  0.13812262390E+04 -0.85017502057E+03 -0.18278984284E+03  0.16348319938E+04  0.93166692318E+02 0.  0.
         11    1    3    3    0    0  0.72152365504E+03 -0.39325306197E+03 -0.75232386262E+02  0.82516923566E+03  0.00000000000E+00 0. -1.
        -11    1    3    3    0    0  0.65970258394E+03 -0.45692195860E+03 -0.10755745658E+03  0.80966275818E+03  0.00000000000E+00 0.  1.
         22    1    1    2    0    0 -0.13812262390E+04  0.85017502057E+03 -0.16854479607E+04  0.23390849315E+04  0.00000000000E+00 0.  1.
<mgrwt>
<rscale>  0 0.35073784E+04</rscale>
<asrwt>0</asrwt>
<pdfrwt beam="1">  1        2 0.44939652E+00 0.35073784E+04</pdfrwt>
<pdfrwt beam="2">  1       -2 0.16197531E+00 0.35073784E+04</pdfrwt>
<totfact> 0.38980201E-01</totfact>
</mgrwt>
</event>
<event>
 6    1  0.1934315E-005  0.1600248E+04  0.7818608E-02  0.8820396E-01
          2   -1    0    0  501    0  0.00000000000E+00  0.00000000000E+00  0.12937977808E+04  0.12937977808E+04  0.00000000000E+00 0.  1.
         -2   -1    0    0    0  501 -0.00000000000E+00 -0.00000000000E+00 -0.49482114923E+03  0.49482114923E+03  0.00000000000E+00 0. -1.
         23    2    1    2    0    0 -0.30865264848E+03 -0.69942592310E+03  0.65614950365E+03  0.10108897562E+04  0.83083384573E+02 0.  0.
         11    1    3    3    0    0 -0.93857655841E+02 -0.14539652352E+03  0.17719349205E+03  0.24768314887E+03  0.00000000000E+00 0. -1.
        -11    1    3    3    0    0 -0.21479499264E+03 -0.55402939958E+03  0.47895601160E+03  0.76320660736E+03  0.00000000000E+00 0.  1.
         22    1    1    2    0    0  0.30865264848E+03  0.69942592310E+03  0.14282712793E+03  0.77772917381E+03  0.00000000000E+00 0. -1.
<mgrwt>
<rscale>  0 0.16002481E+04</rscale>
<asrwt>0</asrwt>
<pdfrwt beam="1">  1        2 0.19904581E+00 0.16002481E+04</pdfrwt>
<pdfrwt beam="2">  1       -2 0.76126331E-01 0.16002481E+04</pdfrwt>
<totfact> 0.24694605E+01</totfact>
</mgrwt>
</event>
<event>
 6    1  0.1934315E-005  0.1147554E+04  0.7818608E-02  0.9160043E-01
         -2   -1    0    0    0  501 -0.00000000000E+00  0.00000000000E+00  0.40837180408E+03  0.40837180408E+03  0.00000000000E+00 0. -1.
          2   -1    0    0  501    0  0.00000000000E+00 -0.00000000000E+00 -0.80617785796E+03  0.80617785796E+03  0.00000000000E+00 0.  1.
         23    2    1    2    0    0 -0.12473227202E+03 -0.51358647738E+03  0.26516481120E+02  0.53677475608E+03  0.89971137346E+02 0.  0.
         13    1    3    3    0    0 -0.65199374028E+02 -0.37500279559E+03  0.50797322900E+02  0.38400315505E+03  0.00000000000E+00 0.  1.
        -13    1    3    3    0    0 -0.59532897991E+02 -0.13858368179E+03 -0.24280841781E+02  0.15277160102E+03  0.00000000000E+00 0. -1.
         22    1    1    2    0    0  0.12473227202E+03  0.51358647738E+03 -0.42432253500E+03  0.67777490596E+03  0.00000000000E+00 0.  1.
<mgrwt>
<rscale>  0 0.11475545E+04</rscale>
<asrwt>0</asrwt>
<pdfrwt beam="1">  1        2 0.12402736E+00 0.11475545E+04</pdfrwt>
<pdfrwt beam="2">  1       -2 0.62826432E-01 0.11475545E+04</pdfrwt>
<totfact> 0.79296180E+01</totfact>
</mgrwt>
</event>
<event>
 6    1  0.1934315E-005  0.2742116E+04  0.7818608E-02  0.8321468E-01
          2   -1    0    0  501    0  0.00000000000E+00  0.00000000000E+00  0.21032644059E+04  0.21032644059E+04  0.00000000000E+00 0.  1.
         -2   -1    0    0    0  501 -0.00000000000E+00 -0.00000000000E+00 -0.89375362614E+03  0.89375362614E+03  0.00000000000E+00 0. -1.
         23    2    1    2    0    0 -0.89941194215E+02 -0.13022861482E+04  0.10575481725E+04  0.16828143704E+04  0.97043483577E+02 0.  0.
         13    1    3    3    0    0 -0.54716536851E+02 -0.11877478257E+04  0.96798691468E+03  0.15332114870E+04  0.00000000000E+00 0. -1.
        -13    1    3    3    0    0 -0.35224657365E+02 -0.11453832248E+03  0.89561257837E+02  0.14960288335E+03  0.00000000000E+00 0.  1.
         22    1    1    2    0    0  0.89941194215E+02  0.13022861482E+04  0.15196260719E+03  0.13142036616E+04  0.00000000000E+00 0. -1.
<mgrwt>
<rscale>  0 0.27421161E+04</rscale>
<asrwt>0</asrwt>
<pdfrwt beam="1">  1        2 0.32357914E+00 0.27421161E+04</pdfrwt>
<pdfrwt beam="2">  1       -2 0.13750056E+00 0.27421161E+04</pdfrwt>
<totfact> 0.19252407E+00</totfact>
</mgrwt>
</event>
<event>
 6    1  0.1934315E-005  0.3320239E+04  0.7818608E-02  0.8157765E-01
         -2   -1    0    0    0  501 -0.00000000000E+00  0.00000000000E+00  0.16461277225E+04  0.16461277225E+04  0.00000000000E+00 0. -1.
          2   -1    0    0  501    0  0.00000000000E+00 -0.00000000000E+00 -0.16742305553E+04  0.16742305553E+04  0.00000000000E+00 0.  1.
         23    2    1    2    0    0 -0.69913679422E+03  0.40458338668E+03 -0.14629553016E+04  0.16737613080E+04  0.93588075217E+02 0.  0.
         11    1    3    3    0    0 -0.14083709331E+03  0.41387243273E+02 -0.24615369706E+03  0.28660012794E+03  0.00000000000E+00 0. -1.
        -11    1    3    3    0    0 -0.55829970091E+03  0.36319614340E+03 -0.12168016045E+04  0.13871611801E+04  0.00000000000E+00 0.  1.
         22    1    1    2    0    0  0.69913679422E+03 -0.40458338668E+03  0.14348524688E+04  0.16465969699E+04  0.00000000000E+00 0. -1.
<mgrwt>
<rscale>  0 0.33202393E+04</rscale>
<asrwt>0</asrwt>
<pdfrwt beam="1">  1        2 0.25757393E+00 0.33202393E+04</pdfrwt>
<pdfrwt beam="2">  1       -2 0.25325042E+00 0.33202393E+04</pdfrwt>
<totfact> 0.51873516E-01</totfact>
</mgrwt>
</event>
<event>
 6    1  0.2275523E-005  0.3060611E+04  0.7818608E-02  0.8226632E-01
          1   -1    0    0  501    0  0.00000000000E+00  0.00000000000E+00  0.10431862025E+04  0.10431862025E+04  0.00000000000E+00 0.  1.
         -1   -1    0    0    0  501 -0.00000000000E+00 -0.00000000000E+00 -0.22448867350E+04  0.22448867350E+04  0.00000000000E+00 0. -1.
         23    2    1    2    0    0  0.14428513099E+04  0.59012564063E+02 -0.11410447820E+04  0.18427420048E+04  0.91719771001E+02 0.  0.
         13    1    3    3    0    0  0.86888714402E+03 -0.57609060395E+01 -0.66274303689E+03  0.10928066572E+04  0.00000000000E+00 0. -1.
        -13    1    3    3    0    0  0.57396416588E+03  0.64773470102E+02 -0.47830174516E+03  0.74993534759E+03  0.00000000000E+00 0.  1.
         22    1    1    2    0    0 -0.14428513099E+04 -0.59012564063E+02 -0.60655750462E+02  0.14453309328E+04  0.00000000000E+00 0.  1.
<mgrwt>
<rscale>  0 0.30606110E+04</rscale>
<asrwt>0</asrwt>
<pdfrwt beam="1">  1        1 0.16049019E+00 0.30606110E+04</pdfrwt>
<pdfrwt beam="2">  1       -1 0.34536719E+00 0.30606110E+04</pdfrwt>
<totfact> 0.19769866E-01</totfact>
</mgrwt>
</event>
<event>
 6    1  0.1934315E-005  0.1170685E+04  0.7818608E-02  0.9138910E-01
         -2   -1    0    0    0  501 -0.00000000000E+00  0.00000000000E+00  0.26535917766E+03  0.26535917766E+03  0.00000000000E+00 0. -1.
          2   -1    0    0  501    0  0.00000000000E+00 -0.00000000000E+00 -0.12911783664E+04  0.12911783664E+04  0.00000000000E+00 0.  1.
         23    2    1    2    0    0  0.10957464627E+03 -0.25836189266E+03  0.16145334324E+03  0.33654839006E+03  0.91870376747E+02 0.  0.
         13    1    3    3    0    0  0.53617793505E+01 -0.12131372995E+03  0.84646858390E+02  0.14802317517E+03  0.00000000000E+00 0.  1.
        -13    1    3    3    0    0  0.10421286692E+03 -0.13704816270E+03  0.76806484852E+02  0.18852521488E+03  0.00000000000E+00 0. -1.
         22    1    1    2    0    0 -0.10957464627E+03  0.25836189266E+03 -0.11872725320E+04  0.12199891540E+04  0.00000000000E+00 0.  1.
<mgrwt>
<rscale>  0 0.11706853E+04</rscale>
<asrwt>0</asrwt>
<pdfrwt beam="1">  1        2 0.19864282E+00 0.11706853E+04</pdfrwt>
<pdfrwt beam="2">  1       -2 0.40824489E-01 0.11706853E+04</pdfrwt>
<totfact> 0.93906694E+01</totfact>
</mgrwt>
</event>
<event>
 6    1  0.1934315E-005  0.1696803E+04  0.7818608E-02  0.8763190E-01
          2   -1    0    0  501    0  0.00000000000E+00  0.00000000000E+00  0.47507100864E+03  0.47507100864E+03  0.00000000000E+00 0.  1.
         -2   -1    0    0    0  501 -0.00000000000E+00 -0.00000000000E+00 -0.15151108767E+04  0.15151108767E+04  0.00000000000E+00 0. -1.
         23    2    1    2    0    0  0.70150841646E+02 -0.72285883519E+03 -0.12673185951E+02  0.73203708616E+03  0.90948610044E+02 0.  0.
         11    1    3    3    0    0 -0.81296639916E+01 -0.26032658647E+03 -0.32711200613E+02  0.26249961087E+03  0.00000000000E+00 0. -1.
        -11    1    3    3    0    0  0.78280505637E+02 -0.46253224872E+03  0.20038014662E+02  0.46953747529E+03  0.00000000000E+00 0.  1.
         22    1    1    2    0    0 -0.70150841646E+02  0.72285883519E+03 -0.10273666821E+04  0.12581447992E+04  0.00000000000E+00 0. -1.
<mgrwt>
<rscale>  0 0.16968032E+04</rscale>
<asrwt>0</asrwt>
<pdfrwt beam="1">  1        2 0.73087849E-01 0.16968032E+04</pdfrwt>
<pdfrwt beam="2">  1       -2 0.23309398E+00 0.16968032E+04</pdfrwt>
<totfact> 0.50836160E+00</totfact>
</mgrwt>
</event>
<event>
 6    1  0.1934315E-005  0.1983244E+04  0.7818608E-02  0.8614495E-01
         -2   -1    0    0    0  501 -0.00000000000E+00  0.00000000000E+00  0.54332466643E+03  0.54332466643E+03  0.00000000000E+00 0. -1.
          2   -1    0    0  501    0  0.00000000000E+00 -0.00000000000E+00 -0.18098098163E+04  0.18098098163E+04  0.00000000000E+00 0.  1.
         23    2    1    2    0    0  0.33290681657E+03  0.32035095328E+03  0.40373591344E+03  0.62019187487E+03  0.90463208331E+02 0.  0.
         11    1    3    3    0    0  0.18866997459E+03  0.21384007870E+03  0.19736406881E+03  0.34680904577E+03  0.00000000000E+00 0.  1.
        -11    1    3    3    0    0  0.14423684198E+03  0.10651087458E+03  0.20637184463E+03  0.27338282909E+03  0.00000000000E+00 0. -1.
         22    1    1    2    0    0 -0.33290681657E+03 -0.32035095328E+03 -0.16702210633E+04  0.17329426078E+04  0.00000000000E+00 0.  1.
<mgrwt>
<rscale>  0 0.19832441E+04</rscale>
<asrwt>0</asrwt>
<pdfrwt beam="1">  1        2 0.27843228E+00 0.19832441E+04</pdfrwt>
<pdfrwt beam="2">  1       -2 0.83588410E-01 0.19832441E+04</pdfrwt>
<totfact> 0.99222360E+00</totfact>
</mgrwt>
</event>
<event>
 6    1  0.1934315E-005  0.1966259E+04  0.7818608E-02  0.8622560E-01
         -2   -1    0    0    0  501 -0.00000000000E+00  0.00000000000E+00  0.29615490615E+03  0.29615490615E+03  0.00000000000E+00 0. -1.
          2   -1    0    0  501    0  0.00000000000E+00 -0.00000000000E+00 -0.32636410401E+04  0.32636410401E+04  0.00000000000E+00 0.  1.
         23    2    1    2    0    0 -0.24760809708E+03  0.36819232805E+03 -0.30709493491E+04  0.31041864676E+04  0.91478746247E+02 0.  0.
         13    1    3    3    0    0 -0.16835541580E+03  0.17182979329E+03 -0.17205937784E+04  0.17373289770E+04  0.00000000000E+00 0. -1.
        -13    1    3    3    0    0 -0.79252681280E+02  0.19636253476E+03 -0.13503555707E+04  0.13668574907E+04  0.00000000000E+00 0.  1.
         22    1    1    2    0    0  0.24760809708E+03 -0.36819232805E+03  0.10346321509E+03  0.45560947867E+03  0.00000000000E+00 0. -1.
<mgrwt>
<rscale>  0 0.19662587E+04</rscale>
<asrwt>0</asrwt>
<pdfrwt beam="1">  1        2 0.50209859E+00 0.19662587E+04</pdfrwt>
<pdfrwt beam="2">  1       -2 0.45562296E-01 0.19662587E+04</pdfrwt>
<totfact> 0.50326190E+00</totfact>
</mgrwt>
</event>
<event>
 6    1  0.1934315E-005  0.3117004E+04  0.7818608E-02  0.8211087E-01
          2   -1    0    0  501    0  0.00000000000E+00  0.00000000000E+00  0.32302567919E+04  0.32302567919E+04  0.00000000000E+00 0.  1.
         -2   -1    0    0    0  501 -0.00000000000E+00 -0.00000000000E+00 -0.75193040234E+03  0.75193040234E+03  0.00000000000E+00 0. -1.
         23    2    1    2    0    0 -0.87299758574E+02  0.64322547886E+03 -0.56802688573E+03  0.86744345801E+03  0.91887678295E+02 0.  0.
         11    1    3    3    0    0 -0.60226449653E+02  0.36905575317E+03 -0.38486874495E+03  0.53661282599E+03  0.00000000000E+00 0.  1.
        -11    1    3    3    0    0 -0.27073308921E+02  0.27416972569E+03 -0.18315814078E+03  0.33083063201E+03  0.00000000000E+00 0. -1.
         22    1    1    2    0    0  0.87299758574E+02 -0.64322547886E+03  0.30463532752E+04  0.31147437362E+04  0.00000000000E+00 0.  1.
<mgrwt>
<rscale>  0 0.31170039E+04</rscale>
<asrwt>0</asrwt>
<pdfrwt beam="1">  1        2 0.49696257E+00 0.31170039E+04</pdfrwt>
<pdfrwt beam="2">  1       -2 0.11568160E+00 0.31170039E+04</pdfrwt>
<totfact> 0.60992487E-01</totfact>
</mgrwt>
</event>
<event>
 6    1  0.1934315E-005  0.2073442E+04  0.7818608E-02  0.8573034E-01
         -2   -1    0    0    0  501 -0.00000000000E+00  0.00000000000E+00  0.14212183856E+04  0.14212183856E+04  0.00000000000E+00 0. -1.
          2   -1    0    0  501    0  0.00000000000E+00 -0.00000000000E+00 -0.75624566921E+03  0.75624566921E+03  0.00000000000E+00 0.  1.
         23    2    1    2    0    0  0.74316857523E+03  0.60873764483E+03 -0.70442710485E+02  0.96763063588E+03  0.92118513740E+02 0.  0.
         13    1    3    3    0    0  0.28760197425E+03  0.26619141344E+03  0.99362494715E+01  0.39200955758E+03  0.00000000000E+00 0.  1.
        -13    1    3    3    0    0  0.45556660098E+03  0.34254623139E+03 -0.80378959956E+02  0.57562107829E+03  0.00000000000E+00 0. -1.
         22    1    1    2    0    0 -0.74316857523E+03 -0.60873764483E+03  0.73541542684E+03  0.12098334189E+04  0.00000000000E+00 0. -1.
<mgrwt>
<rscale>  0 0.20734418E+04</rscale>
<asrwt>0</asrwt>
<pdfrwt beam="1">  1        2 0.11634549E+00 0.20734418E+04</pdfrwt>
<pdfrwt beam="2">  1       -2 0.21864898E+00 0.20734418E+04</pdfrwt>
<totfact> 0.34520735E+00</totfact>
</mgrwt>
</event>
<event>
 6    1  0.1934315E-005  0.3075706E+04  0.7818608E-02  0.8222437E-01
          2   -1    0    0  501    0  0.00000000000E+00  0.00000000000E+00  0.38758912140E+04  0.38758912140E+04  0.00000000000E+00 0.  1.
         -2   -1    0    0    0  501 -0.00000000000E+00 -0.00000000000E+00 -0.61018004529E+03  0.61018004529E+03  0.00000000000E+00 0. -1.
         23    2    1    2    0    0 -0.12414500962E+04 -0.19464625430E+03  0.29238973152E+04  0.31837954759E+04  0.91063804858E+02 0.  0.
         13    1    3    3    0    0 -0.17568327488E+03  0.40421463257E+01  0.41804608898E+03  0.45347930993E+03  0.00000000000E+00 0. -1.
        -13    1    3    3    0    0 -0.10657668213E+04 -0.19868840062E+03  0.25058512262E+04  0.27303161660E+04  0.00000000000E+00 0.  1.
         22    1    1    2    0    0  0.12414500962E+04  0.19464625430E+03  0.34181385353E+03  0.13022757834E+04  0.00000000000E+00 0. -1.
<mgrwt>
<rscale>  0 0.30757058E+04</rscale>
<asrwt>0</asrwt>
<pdfrwt beam="1">  1        2 0.59629094E+00 0.30757058E+04</pdfrwt>
<pdfrwt beam="2">  1       -2 0.93873856E-01 0.30757058E+04</pdfrwt>
<totfact> 0.34963334E-01</totfact>
</mgrwt>
</event>
<event>
 6    1  0.2486387E-005  0.2640064E+04  0.7818608E-02  0.8354719E-01
         -2   -1    0    0    0  501 -0.00000000000E+00  0.00000000000E+00  0.67316439561E+03  0.67316439561E+03  0.00000000000E+00 0. -1.
          2   -1    0    0  501    0  0.00000000000E+00 -0.00000000000E+00 -0.25884967181E+04  0.25884967181E+04  0.00000000000E+00 0.  1.
         23    2    1    2    0    0 -0.52205133088E+03  0.73611715718E+03 -0.21463375737E+04  0.23301196561E+04  0.91030600432E+02 0.  0.
         11    1    3    3    0    0 -0.15596247655E+03  0.25996114126E+03 -0.62944220398E+03  0.69864266775E+03  0.00000000000E+00 0.  1.
        -11    1    3    3    0    0 -0.36608885434E+03  0.47615601592E+03 -0.15168953697E+04  0.16314769883E+04  0.00000000000E+00 0. -1.
         22    1    1    2    0    0  0.52205133088E+03 -0.73611715718E+03  0.23100525122E+03  0.93154145762E+03  0.00000000000E+00 0. -1.
<mgrwt>
<rscale>  0 0.26400635E+04</rscale>
<asrwt>0</asrwt>
<pdfrwt beam="1">  1        2 0.39823026E+00 0.26400635E+04</pdfrwt>
<pdfrwt beam="2">  1       -2 0.10356375E+00 0.26400635E+04</pdfrwt>
<totfact> 0.20699524E+00</totfact>
</mgrwt>
</event>
<event>
 6    1  0.1934315E-005  0.4059321E+03  0.7818608E-02  0.1041745E+00
          4   -1    0    0  501    0  0.00000000000E+00  0.00000000000E+00  0.30583532015E+02  0.30583532015E+02  0.00000000000E+00 0.  1.
         -4   -1    0    0    0  501 -0.00000000000E+00 -0.00000000000E+00 -0.13469737790E+04  0.13469737790E+04  0.00000000000E+00 0. -1.
         23    2    1    2    0    0 -0.88411787210E+02 -0.17111815954E+03 -0.67998883196E+03  0.71264767077E+03  0.91563215434E+02 0.  0.
         11    1    3    3    0    0 -0.28094812155E+02 -0.74170287727E+02 -0.14174093467E+03  0.16242242029E+03  0.00000000000E+00 0.  1.
        -11    1    3    3    0    0 -0.60316975055E+02 -0.96947871817E+02 -0.53824789729E+03  0.55022525048E+03  0.00000000000E+00 0. -1.
         22    1    1    2    0    0  0.88411787210E+02  0.17111815954E+03 -0.63640141501E+03  0.66490964023E+03  0.00000000000E+00 0.  1.
<mgrwt>
<rscale>  0 0.40593209E+03</rscale>
<asrwt>0</asrwt>
<pdfrwt beam="1">  1        4 0.47051585E-02 0.40593209E+03</pdfrwt>
<pdfrwt beam="2">  1       -4 0.20722675E+00 0.40593209E+03</pdfrwt>
<totfact> 0.65271047E+01</totfact>
</mgrwt>
</event>
<event>
 6    1  0.1934315E-005  0.8509639E+03  0.7818608E-02  0.9489044E-01
          2   -1    0    0  501    0  0.00000000000E+00  0.00000000000E+00  0.12260186464E+04  0.12260186464E+04  0.00000000000E+00 0.  1.
         -2   -1    0    0    0  501 -0.00000000000E+00 -0.00000000000E+00 -0.14766077937E+03  0.14766077937E+03  0.00000000000E+00 0. -1.
         23    2    1    2    0    0 -0.27135427328E+03  0.30260264920E+03  0.72013875807E+03  0.83190231757E+03  0.90885258340E+02 0.  0.
         11    1    3    3    0    0 -0.19515332256E+03  0.16365983123E+03  0.49364025677E+03  0.55547282811E+03  0.00000000000E+00 0.  1.
        -11    1    3    3    0    0 -0.76200950725E+02  0.13894281796E+03  0.22649850130E+03  0.27642948947E+03  0.00000000000E+00 0. -1.
         22    1    1    2    0    0  0.27135427328E+03 -0.30260264920E+03  0.35821910896E+03  0.54177710818E+03  0.00000000000E+00 0.  1.
<mgrwt>
<rscale>  0 0.85096385E+03</rscale>
<asrwt>0</asrwt>
<pdfrwt beam="1">  1        2 0.18861825E+00 0.85096385E+03</pdfrwt>
<pdfrwt beam="2">  1       -2 0.22717044E-01 0.85096385E+03</pdfrwt>
<totfact> 0.31250843E+02</totfact>
</mgrwt>
</event>
<event>
 6    1  0.1934315E-005  0.3486297E+04  0.7818608E-02  0.8117045E-01
         -2   -1    0    0    0  501 -0.00000000000E+00  0.00000000000E+00  0.22059590811E+04  0.22059590811E+04  0.00000000000E+00 0. -1.
          2   -1    0    0  501    0  0.00000000000E+00 -0.00000000000E+00 -0.13774355212E+04  0.13774355212E+04  0.00000000000E+00 0.  1.
         23    2    1    2    0    0  0.57390236282E+02 -0.94251719165E+03 -0.10900140157E+04  0.14450731287E+04  0.92051600682E+02 0.  0.
         11    1    3    3    0    0 -0.20014312842E+02 -0.37903094740E+03 -0.41574066515E+03  0.56294345405E+03  0.00000000000E+00 0.  1.
        -11    1    3    3    0    0  0.77404549123E+02 -0.56348624425E+03 -0.67427335052E+03  0.88212967465E+03  0.00000000000E+00 0. -1.
         22    1    1    2    0    0 -0.57390236282E+02  0.94251719165E+03  0.19185375755E+04  0.21383214736E+04  0.00000000000E+00 0. -1.
<mgrwt>
<rscale>  0 0.34862968E+04</rscale>
<asrwt>0</asrwt>
<pdfrwt beam="1">  1        2 0.21191316E+00 0.34862968E+04</pdfrwt>
<pdfrwt beam="2">  1       -2 0.33937832E+00 0.34862968E+04</pdfrwt>
<totfact> 0.22243405E-01</totfact>
</mgrwt>
</event>
<event>
 6    1  0.1934315E-005  0.4687088E+04  0.7818608E-02  0.7878677E-01
          2   -1    0    0  501    0  0.00000000000E+00  0.00000000000E+00  0.22599872134E+04  0.22599872134E+04  0.00000000000E+00 0.  1.
         -2   -1    0    0    0  501 -0.00000000000E+00 -0.00000000000E+00 -0.24301904345E+04  0.24301904345E+04  0.00000000000E+00 0. -1.
         23    2    1    2    0    0 -0.13164774654E+04  0.17602342973E+04 -0.89589059518E+03  0.23754077104E+04  0.91674063814E+02 0.  0.
         11    1    3    3    0    0 -0.27512393419E+03  0.34817722574E+03 -0.14361354932E+03  0.46641763607E+03  0.00000000000E+00 0.  1.
        -11    1    3    3    0    0 -0.10413535312E+04  0.14120570715E+04 -0.75227704587E+03  0.19089900743E+04  0.00000000000E+00 0. -1.
         22    1    1    2    0    0  0.13164774654E+04 -0.17602342973E+04  0.72568737411E+03  0.23147699374E+04  0.00000000000E+00 0.  1.
<mgrwt>
<rscale>  0 0.46870884E+04</rscale>
<asrwt>0</asrwt>
<pdfrwt beam="1">  1        2 0.34769034E+00 0.46870884E+04</pdfrwt>
<pdfrwt beam="2">  1       -2 0.37387545E+00 0.46870884E+04</pdfrwt>
<totfact> 0.39092051E-02</totfact>
</mgrwt>
</event>
<event>
 6    1  0.1934315E-005  0.1875888E+04  0.7818608E-02  0.8666953E-01
          2   -1    0    0  501    0  0.00000000000E+00  0.00000000000E+00  0.18735756620E+04  0.18735756620E+04  0.00000000000E+00 0.  1.
         -2   -1    0    0    0  501 -0.00000000000E+00 -0.00000000000E+00 -0.46955069589E+03  0.46955069589E+03  0.00000000000E+00 0. -1.
         23    2    1    2    0    0  0.29428381915E+03  0.64170241767E+03 -0.61804774751E+02  0.71615315951E+03  0.10329839610E+03 0.  0.
         13    1    3    3    0    0  0.27988050164E+03  0.55249564528E+03 -0.28999758233E+02  0.62002057968E+03  0.00000000000E+00 0. -1.
        -13    1    3    3    0    0  0.14403317506E+02  0.89206772390E+02 -0.32805016518E+02  0.96132579827E+02  0.00000000000E+00 0.  1.
         22    1    1    2    0    0 -0.29428381915E+03 -0.64170241767E+03  0.14658297409E+04  0.16269731984E+04  0.00000000000E+00 0.  1.
<mgrwt>
<rscale>  0 0.18758878E+04</rscale>
<asrwt>0</asrwt>
<pdfrwt beam="1">  1        2 0.28824241E+00 0.18758878E+04</pdfrwt>
<pdfrwt beam="2">  1       -2 0.72238569E-01 0.18758878E+04</pdfrwt>
<totfact> 0.12785142E+01</totfact>
</mgrwt>
</event>
<event>
 6    1  0.1934315E-005  0.1484079E+04  0.7818608E-02  0.8895110E-01
          2   -1    0    0  501    0  0.00000000000E+00  0.00000000000E+00  0.61986291224E+03  0.61986291224E+03  0.00000000000E+00 0.  1.
         -2   -1    0    0    0  501 -0.00000000000E+00 -0.00000000000E+00 -0.88829750286E+03  0.88829750286E+03  0.00000000000E+00 0. -1.
         23    2    1    2    0    0 -0.35266896816E+03 -0.18851453291E+03 -0.76644706991E+03  0.86946677981E+03  0.92834476407E+02 0.  0.
         13    1    3    3    0    0 -0.29411948288E+03 -0.16523911356E+03 -0.56148067429E+03  0.65503494752E+03  0.00000000000E+00 0. -1.
        -13    1    3    3    0    0 -0.58549485277E+02 -0.23275419351E+02 -0.20496639561E+03  0.21443183230E+03  0.00000000000E+00 0.  1.
         22    1    1    2    0    0  0.35266896816E+03  0.18851453291E+03  0.49801247930E+03  0.63869363529E+03  0.00000000000E+00 0.  1.
<mgrwt>
<rscale>  0 0.14840791E+04</rscale>
<asrwt>0</asrwt>
<pdfrwt beam="1">  1        2 0.95363524E-01 0.14840791E+04</pdfrwt>
<pdfrwt beam="2">  1       -2 0.13666116E+00 0.14840791E+04</pdfrwt>
<totfact> 0.17621514E+01</totfact>
</mgrwt>
</event>
<event>
 6    1  0.1934315E-005  0.1348829E+04  0.7818608E-02  0.8991715E-01
         -2   -1    0    0    0  501 -0.00000000000E+00  0.00000000000E+00  0.70943433449E+03  0.70943433449E+03  0.00000000000E+00 0. -1.
          2   -1    0    0  501    0  0.00000000000E+00 -0.00000000000E+00 -0.64112375525E+03  0.64112375525E+03  0.00000000000E+00 0.  1.
         23    2    1    2    0    0  0.63010843865E+03 -0.12480986041E+03 -0.16100253968E+03  0.66850336158E+03  0.91437306084E+02 0.  0.
         11    1    3    3    0    0  0.51595649185E+03 -0.66722949469E+02 -0.13948874916E+03  0.53862803920E+03  0.00000000000E+00 0. -1.
        -11    1    3    3    0    0  0.11415194680E+03 -0.58086910938E+02 -0.21513790519E+02  0.12987532238E+03  0.00000000000E+00 0.  1.
         22    1    1    2    0    0 -0.63010843865E+03  0.12480986041E+03  0.22931311892E+03  0.68205472817E+03  0.00000000000E+00 0. -1.
<mgrwt>
<rscale>  0 0.13488294E+04</rscale>
<asrwt>0</asrwt>
<pdfrwt beam="1">  1        2 0.98634424E-01 0.13488294E+04</pdfrwt>
<pdfrwt beam="2">  1       -2 0.10914374E+00 0.13488294E+04</pdfrwt>
<totfact> 0.29915209E+01</totfact>
</mgrwt>
</event>
<event>
 6    1  0.1934315E-005  0.1210737E+04  0.7818608E-02  0.9103510E-01
          2   -1    0    0  501    0  0.00000000000E+00  0.00000000000E+00  0.82057827209E+03  0.82057827209E+03  0.00000000000E+00 0.  1.
         -2   -1    0    0    0  501 -0.00000000000E+00 -0.00000000000E+00 -0.44660128579E+03  0.44660128579E+03  0.00000000000E+00 0. -1.
         23    2    1    2    0    0  0.75505380603E+02  0.58927750160E+03  0.29001337442E+03  0.66718045413E+03  0.89849678049E+02 0.  0.
         13    1    3    3    0    0  0.11039576596E+02  0.12282492305E+03  0.10241123744E+03  0.16029939341E+03  0.00000000000E+00 0.  1.
        -13    1    3    3    0    0  0.64465804006E+02  0.46645257854E+03  0.18760213698E+03  0.50688106072E+03  0.00000000000E+00 0. -1.
         22    1    1    2    0    0 -0.75505380603E+02 -0.58927750160E+03  0.83963611875E+02  0.59999910375E+03  0.00000000000E+00 0.  1.
<mgrwt>
<rscale>  0 0.12107375E+04</rscale>
<asrwt>0</asrwt>
<pdfrwt beam="1">  1        2 0.12624281E+00 0.12107375E+04</pdfrwt>
<pdfrwt beam="2">  1       -2 0.68707890E-01 0.12107375E+04</pdfrwt>
<totfact> 0.63585331E+01</totfact>
</mgrwt>
</event>
<event>
 6    1  0.1934315E-005  0.1531980E+04  0.7818608E-02  0.8863461E-01
          2   -1    0    0  501    0  0.00000000000E+00  0.00000000000E+00  0.18283124458E+04  0.18283124458E+04  0.00000000000E+00 0.  1.
         -2   -1    0    0    0  501 -0.00000000000E+00 -0.00000000000E+00 -0.32091940759E+03  0.32091940759E+03  0.00000000000E+00 0. -1.
         23    2    1    2    0    0 -0.67946991214E+03 -0.74884095045E+02  0.12326804490E+04  0.14125134568E+04  0.91685260951E+02 0.  0.
         13    1    3    3    0    0 -0.35641250822E+03 -0.16309654438E+02  0.72292395921E+03  0.80617301595E+03  0.00000000000E+00 0.  1.
        -13    1    3    3    0    0 -0.32305740392E+03 -0.58574440607E+02  0.50975648982E+03  0.60634044087E+03  0.00000000000E+00 0. -1.
         22    1    1    2    0    0  0.67946991214E+03  0.74884095045E+02  0.27471258917E+03  0.73671839657E+03  0.00000000000E+00 0. -1.
<mgrwt>
<rscale>  0 0.15319803E+04</rscale>
<asrwt>0</asrwt>
<pdfrwt beam="1">  1        2 0.28127883E+00 0.15319803E+04</pdfrwt>
<pdfrwt beam="2">  1       -2 0.49372218E-01 0.15319803E+04</pdfrwt>
<totfact> 0.31147872E+01</totfact>
</mgrwt>
</event>
<event>
 6    1  0.1934315E-005  0.2340832E+04  0.7818608E-02  0.8461993E-01
          2   -1    0    0  501    0  0.00000000000E+00  0.00000000000E+00  0.19913426590E+04  0.19913426590E+04  0.00000000000E+00 0.  1.
         -2   -1    0    0    0  501 -0.00000000000E+00 -0.00000000000E+00 -0.68791467317E+03  0.68791467317E+03  0.00000000000E+00 0. -1.
         23    2    1    2    0    0  0.73290461948E+03  0.23647109362E+03 -0.35322493691E+03  0.85235649583E+03  0.93144943766E+02 0.  0.
         13    1    3    3    0    0  0.46142456855E+03  0.11839400002E+03 -0.17928085706E+03  0.50899056712E+03  0.00000000000E+00 0. -1.
        -13    1    3    3    0    0  0.27148005093E+03  0.11807709360E+03 -0.17394407985E+03  0.34336592871E+03  0.00000000000E+00 0.  1.
         22    1    1    2    0    0 -0.73290461948E+03 -0.23647109362E+03  0.16566529227E+04  0.18269008363E+04  0.00000000000E+00 0.  1.
<mgrwt>
<rscale>  0 0.23408322E+04</rscale>
<asrwt>0</asrwt>
<pdfrwt beam="1">  1        2 0.30636041E+00 0.23408322E+04</pdfrwt>
<pdfrwt beam="2">  1       -2 0.10583303E+00 0.23408322E+04</pdfrwt>
<totfact> 0.44026335E+00</totfact>
</mgrwt>
</event>
<event>
 6    1  0.1934315E-005  0.1470738E+04  0.7818608E-02  0.8904149E-01
         -2   -1    0    0    0  501 -0.00000000000E+00  0.00000000000E+00  0.62533143278E+03  0.62533143278E+03  0.00000000000E+00 0. -1.
          2   -1    0    0  501    0  0.00000000000E+00 -0.00000000000E+00 -0.86476911922E+03  0.86476911922E+03  0.00000000000E+00 0.  1.
         23    2    1    2    0    0  0.70220457267E+03 -0.18550407462E+03 -0.21720692133E+03  0.76346637272E+03  0.90548506503E+02 0.  0.
         13    1    3    3    0    0  0.28009353958E+03 -0.11104661354E+03 -0.11743342280E+03  0.32337957585E+03  0.00000000000E+00 0. -1.
        -13    1    3    3    0    0  0.42211103309E+03 -0.74457461084E+02 -0.99773498531E+02  0.44008679687E+03  0.00000000000E+00 0.  1.
         22    1    1    2    0    0 -0.70220457267E+03  0.18550407462E+03 -0.22230765104E+02  0.72663417928E+03  0.00000000000E+00 0. -1.
<mgrwt>
<rscale>  0 0.14707377E+04</rscale>
<asrwt>0</asrwt>
<pdfrwt beam="1">  1        2 0.13304140E+00 0.14707377E+04</pdfrwt>
<pdfrwt beam="2">  1       -2 0.96204836E-01 0.14707377E+04</pdfrwt>
<totfact> 0.27166290E+01</totfact>
</mgrwt>
</event>
<event>
 6    1  0.1934315E-005  0.1760859E+04  0.7818608E-02  0.8727396E-01
         -2   -1    0    0    0  501 -0.00000000000E+00  0.00000000000E+00  0.16976280885E+04  0.16976280885E+04  0.00000000000E+00 0. -1.
          2   -1    0    0  501    0  0.00000000000E+00 -0.00000000000E+00 -0.45661111057E+03  0.45661111057E+03  0.00000000000E+00 0.  1.
         23    2    1    2    0    0  0.70047699393E+03 -0.51691415633E+03  0.48333760517E+03  0.10001394218E+04  0.93783572166E+02 0.  0.
         11    1    3    3    0    0  0.18893545808E+03 -0.14779030513E+03  0.18167486908E+03  0.30090586512E+03  0.00000000000E+00 0.  1.
        -11    1    3    3    0    0  0.51154153585E+03 -0.36912385121E+03  0.30166273609E+03  0.69923355667E+03  0.00000000000E+00 0. -1.
         22    1    1    2    0    0 -0.70047699393E+03  0.51691415633E+03  0.75767937280E+03  0.11540997773E+04  0.00000000000E+00 0. -1.
<mgrwt>
<rscale>  0 0.17608587E+04</rscale>
<asrwt>0</asrwt>
<pdfrwt beam="1">  1        2 0.70247864E-01 0.17608587E+04</pdfrwt>
<pdfrwt beam="2">  1       -2 0.26117355E+00 0.17608587E+04</pdfrwt>
<totfact> 0.35556419E+00</totfact>
</mgrwt>
</event>
<event>
 6    1  0.3115625E-005  0.3297650E+04  0.7818608E-02  0.8163494E-01
         -2   -1    0    0    0  501 -0.00000000000E+00  0.00000000000E+00  0.12540985754E+04  0.12540985754E+04  0.00000000000E+00 0. -1.
          2   -1    0    0  501    0  0.00000000000E+00 -0.00000000000E+00 -0.21677910002E+04  0.21677910002E+04  0.00000000000E+00 0.  1.
         23    2    1    2    0    0  0.80826163656E+03  0.26911437859E+03 -0.19206123120E+04  0.21029517145E+04  0.89133824725E+02 0.  0.
         11    1    3    3    0    0  0.46483465423E+03  0.10952350329E+03 -0.10445994141E+04  0.11485880852E+04  0.00000000000E+00 0. -1.
        -11    1    3    3    0    0  0.34342698233E+03  0.15959087529E+03 -0.87601289790E+03  0.95436362931E+03  0.00000000000E+00 0.  1.
         22    1    1    2    0    0 -0.80826163656E+03 -0.26911437859E+03  0.10069198873E+04  0.13189378610E+04  0.00000000000E+00 0. -1.
<mgrwt>
<rscale>  0 0.32976498E+04</rscale>
<asrwt>0</asrwt>
<pdfrwt beam="1">  1        2 0.33350631E+00 0.32976498E+04</pdfrwt>
<pdfrwt beam="2">  1       -2 0.19293824E+00 0.32976498E+04</pdfrwt>
<totfact> 0.66623207E-01</totfact>
</mgrwt>
</event>
<event>
 6    1  0.1934315E-005  0.2487224E+04  0.7818608E-02  0.8407551E-01
         -2   -1    0    0    0  501 -0.00000000000E+00  0.00000000000E+00  0.11945093588E+04  0.11945093588E+04  0.00000000000E+00 0. -1.
          2   -1    0    0  501    0  0.00000000000E+00 -0.00000000000E+00 -0.12947328341E+04  0.12947328341E+04  0.00000000000E+00 0.  1.
         23    2    1    2    0    0 -0.12019543096E+04  0.85913858464E+01  0.26250965542E+03  0.12337170842E+04  0.91534421600E+02 0.  0.
         13    1    3    3    0    0 -0.71846319274E+03  0.13214238001E+02  0.20196898057E+03  0.74642845908E+03  0.00000000000E+00 0. -1.
        -13    1    3    3    0    0 -0.48349111688E+03 -0.46228521547E+01  0.60540674849E+02  0.48728862513E+03  0.00000000000E+00 0.  1.
         22    1    1    2    0    0  0.12019543096E+04 -0.85913858464E+01 -0.36273313073E+03  0.12555251087E+04  0.00000000000E+00 0.  1.
<mgrwt>
<rscale>  0 0.24872237E+04</rscale>
<asrwt>0</asrwt>
<pdfrwt beam="1">  1        2 0.19918967E+00 0.24872237E+04</pdfrwt>
<pdfrwt beam="2">  1       -2 0.18377067E+00 0.24872237E+04</pdfrwt>
<totfact> 0.25392934E+00</totfact>
</mgrwt>
</event>
<event>
 6    1  0.1934315E-005  0.1665053E+04  0.7818608E-02  0.8781551E-01
         -2   -1    0    0    0  501 -0.00000000000E+00  0.00000000000E+00  0.60545414390E+03  0.60545414390E+03  0.00000000000E+00 0. -1.
          2   -1    0    0  501    0  0.00000000000E+00 -0.00000000000E+00 -0.11447605703E+04  0.11447605703E+04  0.00000000000E+00 0.  1.
         23    2    1    2    0    0 -0.23811489000E+03 -0.15366427500E+02 -0.11061258554E+04  0.11352195167E+04  0.90962163739E+02 0.  0.
         13    1    3    3    0    0 -0.16053497946E+03 -0.15693592996E+02 -0.53316625371E+03  0.55703143769E+03  0.00000000000E+00 0.  1.
        -13    1    3    3    0    0 -0.77579910546E+02  0.32716549590E+00 -0.57295960170E+03  0.57818807903E+03  0.00000000000E+00 0. -1.
         22    1    1    2    0    0  0.23811489000E+03  0.15366427500E+02  0.56681942895E+03  0.61499519752E+03  0.00000000000E+00 0. -1.
<mgrwt>
<rscale>  0 0.16650526E+04</rscale>
<asrwt>0</asrwt>
<pdfrwt beam="1">  1        2 0.17611701E+00 0.16650526E+04</pdfrwt>
<pdfrwt beam="2">  1       -2 0.93146792E-01 0.16650526E+04</pdfrwt>
<totfact> 0.19046337E+01</totfact>
</mgrwt>
</event>
<event>
 6    1  0.1934315E-005  0.2018536E+04  0.7818608E-02  0.8598003E-01
         -2   -1    0    0    0  501 -0.00000000000E+00  0.00000000000E+00  0.67285744825E+03  0.67285744825E+03  0.00000000000E+00 0. -1.
          2   -1    0    0  501    0  0.00000000000E+00 -0.00000000000E+00 -0.15138751055E+04  0.15138751055E+04  0.00000000000E+00 0.  1.
         23    2    1    2    0    0 -0.14022109996E+02 -0.94371419138E+03 -0.40857386089E+02  0.94937668168E+03  0.94093905975E+02 0.  0.
         13    1    3    3    0    0 -0.30657097735E+02 -0.63138890497E+03  0.11605294906E+02  0.63223926628E+03  0.00000000000E+00 0.  1.
        -13    1    3    3    0    0  0.16634987739E+02 -0.31232528641E+03 -0.52462680995E+02  0.31713741540E+03  0.00000000000E+00 0. -1.
         22    1    1    2    0    0  0.14022109996E+02  0.94371419138E+03 -0.80016027113E+03  0.12373558720E+04  0.00000000000E+00 0.  1.
<mgrwt>
<rscale>  0 0.20185362E+04</rscale>
<asrwt>0</asrwt>
<pdfrwt beam="1">  1        2 0.23290386E+00 0.20185362E+04</pdfrwt>
<pdfrwt beam="2">  1       -2 0.10351653E+00 0.20185362E+04</pdfrwt>
<totfact> 0.87975657E+00</totfact>
</mgrwt>
</event>
<event>
 6    1  0.1934315E-005  0.3987441E+04  0.7818608E-02  0.8007085E-01
          2   -1    0    0  501    0  0.00000000000E+00  0.00000000000E+00  0.22606275456E+04  0.22606275456E+04  0.00000000000E+00 0.  1.
         -2   -1    0    0    0  501 -0.00000000000E+00 -0.00000000000E+00 -0.17583262610E+04  0.17583262610E+04  0.00000000000E+00 0. -1.
         23    2    1    2    0    0  0.56794464014E+03 -0.12365574105E+04  0.17185138220E+04  0.21939035937E+04  0.91037784905E+02 0.  0.
         13    1    3    3    0    0  0.47108848028E+03 -0.10484060162E+04  0.13979667561E+04  0.18098040176E+04  0.00000000000E+00 0. -1.
        -13    1    3    3    0    0  0.96856159861E+02 -0.18815139433E+03  0.32054706586E+03  0.38409957605E+03  0.00000000000E+00 0.  1.
         22    1    1    2    0    0 -0.56794464014E+03  0.12365574105E+04 -0.12162125374E+04  0.18250502130E+04  0.00000000000E+00 0. -1.
<mgrwt>
<rscale>  0 0.39874407E+04</rscale>
<asrwt>0</asrwt>
<pdfrwt beam="1">  1        2 0.34778885E+00 0.39874407E+04</pdfrwt>
<pdfrwt beam="2">  1       -2 0.27051173E+00 0.39874407E+04</pdfrwt>
<totfact> 0.18136723E-01</totfact>
</mgrwt>
</event>
<event>
 6    1  0.1934315E-005  0.2168789E+04  0.7818608E-02  0.8531532E-01
          2   -1    0    0  501    0  0.00000000000E+00  0.00000000000E+00  0.14608531373E+04  0.14608531373E+04  0.00000000000E+00 0.  1.
         -2   -1    0    0    0  501 -0.00000000000E+00 -0.00000000000E+00 -0.80494860847E+03  0.80494860847E+03  0.00000000000E+00 0. -1.
         23    2    1    2    0    0  0.48774805940E+03  0.64754263995E+03  0.10779240445E+04  0.13518487319E+04  0.91460965792E+02 0.  0.
         13    1    3    3    0    0  0.23078302032E+03  0.25766707188E+03  0.40223973879E+03  0.53051854808E+03  0.00000000000E+00 0. -1.
        -13    1    3    3    0    0  0.25696503908E+03  0.38987556807E+03  0.67568430569E+03  0.82133018382E+03  0.00000000000E+00 0.  1.
         22    1    1    2    0    0 -0.48774805940E+03 -0.64754263995E+03 -0.42201951564E+03  0.91395301389E+03  0.00000000000E+00 0. -1.
<mgrwt>
<rscale>  0 0.21687892E+04</rscale>
<asrwt>0</asrwt>
<pdfrwt beam="1">  1        2 0.22474664E+00 0.21687892E+04</pdfrwt>
<pdfrwt beam="2">  1       -2 0.12383825E+00 0.21687892E+04</pdfrwt>
<totfact> 0.60100091E+00</totfact>
</mgrwt>
</event>
<event>
 6    1  0.1934315E-005  0.5487200E+03  0.7818608E-02  0.1001791E+00
         -2   -1    0    0    0  501 -0.00000000000E+00  0.00000000000E+00  0.15373924978E+03  0.15373924978E+03  0.00000000000E+00 0. -1.
          2   -1    0    0  501    0  0.00000000000E+00 -0.00000000000E+00 -0.48961746985E+03  0.48961746985E+03  0.00000000000E+00 0.  1.
         23    2    1    2    0    0  0.43487871983E+02  0.21024040428E+03 -0.35892585371E+03  0.42743215869E+03  0.88194439827E+02 0.  0.
         13    1    3    3    0    0  0.32110289185E+02  0.20071952786E+03 -0.27371163832E+03  0.34093615310E+03  0.00000000000E+00 0. -1.
        -13    1    3    3    0    0  0.11377582798E+02  0.95208764162E+01 -0.85214215396E+02  0.86496005593E+02  0.00000000000E+00 0.  1.
         22    1    1    2    0    0 -0.43487871983E+02 -0.21024040428E+03  0.23047633651E+02  0.21592456094E+03  0.00000000000E+00 0. -1.
<mgrwt>
<rscale>  0 0.54872005E+03</rscale>
<asrwt>0</asrwt>
<pdfrwt beam="1">  1        2 0.75325765E-01 0.54872005E+03</pdfrwt>
<pdfrwt beam="2">  1       -2 0.23652192E-01 0.54872005E+03</pdfrwt>
<totfact> 0.10023904E+03</totfact>
</mgrwt>
</event>
<event>
 6    1  0.1934315E-005  0.2187161E+04  0.7818608E-02  0.8523791E-01
          2   -1    0    0  501    0  0.00000000000E+00  0.00000000000E+00  0.27953760100E+04  0.27953760100E+04  0.00000000000E+00 0.  1.
         -2   -1    0    0    0  501 -0.00000000000E+00 -0.00000000000E+00 -0.42782021859E+03  0.42782021859E+03  0.00000000000E+00 0. -1.
         23    2    1    2    0    0  0.10888246752E+04  0.15254927786E+02  0.10719872292E+04  0.15307808583E+04  0.91441403629E+02 0.  0.
         11    1    3    3    0    0  0.20733176615E+03  0.47575153399E+01  0.15613616113E+03  0.25959120944E+03  0.00000000000E+00 0. -1.
        -11    1    3    3    0    0  0.88149290909E+03  0.10497412446E+02  0.91585106810E+03  0.12711896489E+04  0.00000000000E+00 0.  1.
         22    1    1    2    0    0 -0.10888246752E+04 -0.15254927786E+02  0.12955685622E+04  0.16924153703E+04  0.00000000000E+00 0. -1.
<mgrwt>
<rscale>  0 0.21871611E+04</rscale>
<asrwt>0</asrwt>
<pdfrwt beam="1">  1        2 0.43005784E+00 0.21871611E+04</pdfrwt>
<pdfrwt beam="2">  1       -2 0.65818497E-01 0.21871611E+04</pdfrwt>
<totfact> 0.45285386E+00</totfact>
</mgrwt>
</event>
<event>
 6    1  0.1934315E-005  0.5539127E+04  0.7818608E-02  0.7750328E-01
         -2   -1    0    0    0  501 -0.00000000000E+00  0.00000000000E+00  0.21865242857E+04  0.21865242857E+04  0.00000000000E+00 0. -1.
          2   -1    0    0  501    0  0.00000000000E+00 -0.00000000000E+00 -0.35080713595E+04  0.35080713595E+04  0.00000000000E+00 0.  1.
         23    2    1    2    0    0  0.64907731639E+03 -0.26404021956E+04 -0.11982564832E+04  0.29727900520E+04  0.92935336703E+02 0.  0.
         13    1    3    3    0    0  0.12602404031E+03 -0.63205465825E+03 -0.25420702632E+03  0.69281769751E+03  0.00000000000E+00 0. -1.
        -13    1    3    3    0    0  0.52305327608E+03 -0.20083475373E+04 -0.94404945688E+03  0.22799723545E+04  0.00000000000E+00 0.  1.
         22    1    1    2    0    0 -0.64907731639E+03  0.26404021956E+04 -0.12329059053E+03  0.27218055931E+04  0.00000000000E+00 0. -1.
<mgrwt>
<rscale>  0 0.55391274E+04</rscale>
<asrwt>0</asrwt>
<pdfrwt beam="1">  1        2 0.53970328E+00 0.55391274E+04</pdfrwt>
<pdfrwt beam="2">  1       -2 0.33638836E+00 0.55391274E+04</pdfrwt>
<totfact> 0.10581625E-02</totfact>
</mgrwt>
</event>
<event>
 6    1  0.1934315E-005  0.1906377E+04  0.7818608E-02  0.8651688E-01
          2   -1    0    0  501    0  0.00000000000E+00  0.00000000000E+00  0.24442187084E+04  0.24442187084E+04  0.00000000000E+00 0.  1.
         -2   -1    0    0    0  501 -0.00000000000E+00 -0.00000000000E+00 -0.37172151870E+03  0.37172151870E+03  0.00000000000E+00 0. -1.
         23    2    1    2    0    0 -0.65887780529E+03 -0.24300261419E+03  0.91347067957E+02  0.71400634667E+03  0.91052421462E+02 0.  0.
         11    1    3    3    0    0 -0.36180325472E+03 -0.17637714796E+03  0.31587365915E+02  0.40374280815E+03  0.00000000000E+00 0.  1.
        -11    1    3    3    0    0 -0.29707455057E+03 -0.66625466234E+02  0.59759702042E+02  0.31026353852E+03  0.00000000000E+00 0. -1.
         22    1    1    2    0    0  0.65887780529E+03  0.24300261419E+03  0.19811501218E+04  0.21019338805E+04  0.00000000000E+00 0.  1.
<mgrwt>
<rscale>  0 0.19063774E+04</rscale>
<asrwt>0</asrwt>
<pdfrwt beam="1">  1        2 0.37603364E+00 0.19063774E+04</pdfrwt>
<pdfrwt beam="2">  1       -2 0.57187927E-01 0.19063774E+04</pdfrwt>
<totfact> 0.10064245E+01</totfact>
</mgrwt>
</event>
<event>
 6    1  0.1934315E-005  0.2461140E+04  0.7818608E-02  0.8416962E-01
         -2   -1    0    0    0  501 -0.00000000000E+00  0.00000000000E+00  0.20405425032E+04  0.20405425032E+04  0.00000000000E+00 0. -1.
          2   -1    0    0  501    0  0.00000000000E+00 -0.00000000000E+00 -0.74210792772E+03  0.74210792772E+03  0.00000000000E+00 0.  1.
         23    2    1    2    0    0 -0.10387985929E+04  0.63845732394E+03  0.82298986900E+03  0.14739190070E+04  0.91622287706E+02 0.  0.
         11    1    3    3    0    0 -0.48516703556E+03  0.24593132171E+03  0.37765458579E+03  0.66218747614E+03  0.00000000000E+00 0. -1.
        -11    1    3    3    0    0 -0.55363155734E+03  0.39252600224E+03  0.44533528321E+03  0.81173153086E+03  0.00000000000E+00 0.  1.
         22    1    1    2    0    0  0.10387985929E+04 -0.63845732394E+03  0.47544470652E+03  0.13087314240E+04  0.00000000000E+00 0.  1.
<mgrwt>
<rscale>  0 0.24611402E+04</rscale>
<asrwt>0</asrwt>
<pdfrwt beam="1">  1        2 0.11417045E+00 0.24611402E+04</pdfrwt>
<pdfrwt beam="2">  1       -2 0.31392961E+00 0.24611402E+04</pdfrwt>
<totfact> 0.88813371E-01</totfact>
</mgrwt>
</event>
<event>
 6    1  0.1934315E-005  0.1435269E+04  0.7818608E-02  0.8928678E-01
          2   -1    0    0  501    0  0.00000000000E+00  0.00000000000E+00  0.11887605166E+04  0.11887605166E+04  0.00000000000E+00 0.  1.
         -2   -1    0    0    0  501 -0.00000000000E+00 -0.00000000000E+00 -0.43322344395E+03  0.43322344395E+03  0.00000000000E+00 0. -1.
         23    2    1    2    0    0 -0.49315349559E+03 -0.79123342874E+02  0.95703180892E+03  0.10834108435E+04  0.91696777376E+02 0.  0.
         13    1    3    3    0    0 -0.12804874677E+03 -0.48649630125E+02  0.32812396700E+03  0.35556800444E+03  0.00000000000E+00 0. -1.
        -13    1    3    3    0    0 -0.36510474882E+03 -0.30473712749E+02  0.62890784192E+03  0.72784283908E+03  0.00000000000E+00 0.  1.
         22    1    1    2    0    0  0.49315349559E+03  0.79123342874E+02 -0.20149473631E+03  0.53857311700E+03  0.00000000000E+00 0.  1.
<mgrwt>
<rscale>  0 0.14352685E+04</rscale>
<asrwt>0</asrwt>
<pdfrwt beam="1">  1        2 0.18288623E+00 0.14352685E+04</pdfrwt>
<pdfrwt beam="2">  1       -2 0.66649761E-01 0.14352685E+04</pdfrwt>
<totfact> 0.38627748E+01</totfact>
</mgrwt>
</event>
<event>
 6    1  0.2925006E-005  0.2154245E+04  0.7818608E-02  0.8537717E-01
         -1   -1    0    0    0  501 -0.00000000000E+00  0.00000000000E+00  0.12494973256E+04  0.12494973256E+04  0.00000000000E+00 0.  1.
          1   -1    0    0  501    0  0.00000000000E+00 -0.00000000000E+00 -0.92852811790E+03  0.92852811790E+03  0.00000000000E+00 0. -1.
         23    2    1    2    0    0  0.86373422955E+03 -0.32702028833E+03 -0.39597351248E+03  0.10088436987E+04  0.89395176789E+02 0.  0.
         13    1    3    3    0    0  0.48539463181E+03 -0.13789763246E+03 -0.20247302498E+03  0.54370859058E+03  0.00000000000E+00 0.  1.
        -13    1    3    3    0    0  0.37833959774E+03 -0.18912265587E+03 -0.19350048750E+03  0.46513510816E+03  0.00000000000E+00 0. -1.
         22    1    1    2    0    0 -0.86373422955E+03  0.32702028833E+03  0.71694272017E+03  0.11691817448E+04  0.00000000000E+00 0.  1.
<mgrwt>
<rscale>  0 0.21542455E+04</rscale>
<asrwt>0</asrwt>
<pdfrwt beam="1">  1        1 0.14285048E+00 0.21542455E+04</pdfrwt>
<pdfrwt beam="2">  1       -1 0.19223036E+00 0.21542455E+04</pdfrwt>
<totfact> 0.26909195E+00</totfact>
</mgrwt>
</event>
<event>
 6    1  0.1934315E-005  0.2369248E+04  0.7818608E-02  0.8451107E-01
         -2   -1    0    0    0  501 -0.00000000000E+00  0.00000000000E+00  0.96711582581E+03  0.96711582581E+03  0.00000000000E+00 0. -1.
          2   -1    0    0  501    0  0.00000000000E+00 -0.00000000000E+00 -0.14510503806E+04  0.14510503806E+04  0.00000000000E+00 0.  1.
         23    2    1    2    0    0 -0.37806898301E+03  0.10671433532E+04 -0.59204730409E+03  0.12808802007E+04  0.91667803990E+02 0.  0.
         13    1    3    3    0    0 -0.27295879714E+03  0.71981631705E+03 -0.44611428871E+03  0.88975277118E+03  0.00000000000E+00 0.  1.
        -13    1    3    3    0    0 -0.10511018587E+03  0.34732703611E+03 -0.14593301538E+03  0.39112742957E+03  0.00000000000E+00 0. -1.
         22    1    1    2    0    0  0.37806898301E+03 -0.10671433532E+04  0.10811274930E+03  0.11372860057E+04  0.00000000000E+00 0. -1.
<mgrwt>
<rscale>  0 0.23692478E+04</rscale>
<asrwt>0</asrwt>
<pdfrwt beam="1">  1        2 0.22323852E+00 0.23692478E+04</pdfrwt>
<pdfrwt beam="2">  1       -2 0.14878705E+00 0.23692478E+04</pdfrwt>
<totfact> 0.37350562E+00</totfact>
</mgrwt>
</event>
<event>
 6    1  0.1934315E-005  0.2510794E+04  0.7818608E-02  0.8399150E-01
          2   -1    0    0  501    0  0.00000000000E+00  0.00000000000E+00  0.19516622349E+04  0.19516622349E+04  0.00000000000E+00 0.  1.
         -2   -1    0    0    0  501 -0.00000000000E+00 -0.00000000000E+00 -0.80752775604E+03  0.80752775604E+03  0.00000000000E+00 0. -1.
         23    2    1    2    0    0 -0.33842246156E+03  0.11442136129E+04  0.99574238744E+03  0.15567862454E+04  0.91246684556E+02 0.  0.
         13    1    3    3    0    0 -0.22303851693E+03  0.85594994399E+03  0.77237741162E+03  0.11742927031E+04  0.00000000000E+00 0. -1.
        -13    1    3    3    0    0 -0.11538394462E+03  0.28826366889E+03  0.22336497582E+03  0.38249354230E+03  0.00000000000E+00 0.  1.
         22    1    1    2    0    0  0.33842246156E+03 -0.11442136129E+04  0.14839209140E+03  0.12024037455E+04  0.00000000000E+00 0. -1.
<mgrwt>
<rscale>  0 0.25107938E+04</rscale>
<asrwt>0</asrwt>
<pdfrwt beam="1">  1        2 0.30025573E+00 0.25107938E+04</pdfrwt>
<pdfrwt beam="2">  1       -2 0.12423504E+00 0.25107938E+04</pdfrwt>
<totfact> 0.30841795E+00</totfact>
</mgrwt>
</event>
<event>
 6    1  0.3041622E-005  0.2695512E+04  0.7818608E-02  0.8336463E-01
         -2   -1    0    0    0  501 -0.00000000000E+00  0.00000000000E+00  0.99225610321E+03  0.99225610321E+03  0.00000000000E+00 0. -1.
          2   -1    0    0  501    0  0.00000000000E+00 -0.00000000000E+00 -0.18306223577E+04  0.18306223577E+04  0.00000000000E+00 0.  1.
         23    2    1    2    0    0 -0.11305544039E+04 -0.60978647332E+02  0.34303327628E+03  0.11865482660E+04  0.91396407612E+02 0.  0.
         11    1    3    3    0    0 -0.42050890798E+03 -0.66663917999E+02  0.12308408916E+03  0.44319466678E+03  0.00000000000E+00 0. -1.
        -11    1    3    3    0    0 -0.71004549588E+03  0.56852706670E+01  0.21994918712E+03  0.74335359919E+03  0.00000000000E+00 0.  1.
         22    1    1    2    0    0  0.11305544039E+04  0.60978647332E+02 -0.11813995307E+04  0.16363301949E+04  0.00000000000E+00 0.  1.
<mgrwt>
<rscale>  0 0.26955120E+04</rscale>
<asrwt>0</asrwt>
<pdfrwt beam="1">  1        2 0.28163421E+00 0.26955120E+04</pdfrwt>
<pdfrwt beam="2">  1       -2 0.15265479E+00 0.26955120E+04</pdfrwt>
<totfact> 0.20826096E+00</totfact>
</mgrwt>
</event>
<event>
 6    1  0.1934315E-005  0.1545771E+04  0.7818608E-02  0.8854573E-01
         -2   -1    0    0    0  501 -0.00000000000E+00  0.00000000000E+00  0.29521993725E+03  0.29521993725E+03  0.00000000000E+00 0. -1.
          2   -1    0    0  501    0  0.00000000000E+00 -0.00000000000E+00 -0.20234143155E+04  0.20234143155E+04  0.00000000000E+00 0.  1.
         23    2    1    2    0    0  0.41727780856E+03  0.95735675574E+02 -0.18273476293E+04  0.18791829399E+04  0.94037620976E+02 0.  0.
         11    1    3    3    0    0  0.25759116487E+03  0.47196450475E+02 -0.91695648005E+03  0.95361936823E+03  0.00000000000E+00 0. -1.
        -11    1    3    3    0    0  0.15968664369E+03  0.48539225099E+02 -0.91039114929E+03  0.92556357169E+03  0.00000000000E+00 0.  1.
         22    1    1    2    0    0 -0.41727780856E+03 -0.95735675574E+02  0.99153251131E+02  0.43945131278E+03  0.00000000000E+00 0. -1.
<mgrwt>
<rscale>  0 0.15457713E+04</rscale>
<asrwt>0</asrwt>
<pdfrwt beam="1">  1        2 0.31129452E+00 0.15457713E+04</pdfrwt>
<pdfrwt beam="2">  1       -2 0.45418451E-01 0.15457713E+04</pdfrwt>
<totfact> 0.28709534E+01</totfact>
</mgrwt>
</event>
<event>
 6    1  0.1934315E-005  0.3363460E+04  0.7818608E-02  0.8146933E-01
         -2   -1    0    0    0  501 -0.00000000000E+00  0.00000000000E+00  0.10439214099E+04  0.10439214099E+04  0.00000000000E+00 0. -1.
          2   -1    0    0  501    0  0.00000000000E+00 -0.00000000000E+00 -0.27092222053E+04  0.27092222053E+04  0.00000000000E+00 0.  1.
         23    2    1    2    0    0 -0.30186958646E+03  0.16249297656E+04 -0.11727101896E+04  0.20285661321E+04  0.91155763377E+02 0.  0.
         13    1    3    3    0    0 -0.11356763204E+03  0.43185674483E+03 -0.28774363194E+03  0.53121959002E+03  0.00000000000E+00 0.  1.
        -13    1    3    3    0    0 -0.18830195443E+03  0.11930730208E+04 -0.88496655770E+03  0.14973465421E+04  0.00000000000E+00 0. -1.
         22    1    1    2    0    0  0.30186958646E+03 -0.16249297656E+04 -0.49259060581E+03  0.17245774831E+04  0.00000000000E+00 0.  1.
<mgrwt>
<rscale>  0 0.33634596E+04</rscale>
<asrwt>0</asrwt>
<pdfrwt beam="1">  1        2 0.41680342E+00 0.33634596E+04</pdfrwt>
<pdfrwt beam="2">  1       -2 0.16060329E+00 0.33634596E+04</pdfrwt>
<totfact> 0.54299956E-01</totfact>
</mgrwt>
</event>
<event>
 6    1  0.1934315E-005  0.3402282E+04  0.7818608E-02  0.8137347E-01
         -2   -1    0    0    0  501 -0.00000000000E+00  0.00000000000E+00  0.80133917833E+03  0.80133917833E+03  0.00000000000E+00 0. -1.
          2   -1    0    0  501    0  0.00000000000E+00 -0.00000000000E+00 -0.36113046495E+04  0.36113046495E+04  0.00000000000E+00 0.  1.
         23    2    1    2    0    0  0.58908327655E+03  0.57835856044E+03 -0.33333010072E+04  0.34351992952E+04  0.90448118728E+02 0.  0.
         11    1    3    3    0    0  0.24400577978E+03  0.25863628824E+03 -0.12608949572E+04  0.13100716176E+04  0.00000000000E+00 0. -1.
        -11    1    3    3    0    0  0.34507749677E+03  0.31972227220E+03 -0.20724060500E+04  0.21251276776E+04  0.00000000000E+00 0.  1.
         22    1    1    2    0    0 -0.58908327655E+03 -0.57835856044E+03  0.52333553600E+03  0.97744453264E+03  0.00000000000E+00 0. -1.
<mgrwt>
<rscale>  0 0.34022815E+04</rscale>
<asrwt>0</asrwt>
<pdfrwt beam="1">  1        2 0.55558532E+00 0.34022815E+04</pdfrwt>
<pdfrwt beam="2">  1       -2 0.12328295E+00 0.34022815E+04</pdfrwt>
<totfact> 0.27811680E-01</totfact>
</mgrwt>
</event>
<event>
 6    1  0.1934315E-005  0.2262203E+04  0.7818608E-02  0.8492975E-01
         -2   -1    0    0    0  501 -0.00000000000E+00  0.00000000000E+00  0.87302805390E+03  0.87302805390E+03  0.00000000000E+00 0. -1.
          2   -1    0    0  501    0  0.00000000000E+00 -0.00000000000E+00 -0.14654637591E+04  0.14654637591E+04  0.00000000000E+00 0.  1.
         23    2    1    2    0    0 -0.69437645199E+03  0.27297298354E+03 -0.11729408651E+04  0.13931563448E+04  0.91768301404E+02 0.  0.
         11    1    3    3    0    0 -0.15590947871E+03  0.77093243223E+02 -0.21045249551E+03  0.27302268508E+03  0.00000000000E+00 0. -1.
        -11    1    3    3    0    0 -0.53846697328E+03  0.19587974031E+03 -0.96248836963E+03  0.11201336597E+04  0.00000000000E+00 0.  1.
         22    1    1    2    0    0  0.69437645199E+03 -0.27297298354E+03  0.58050515990E+03  0.94533546823E+03  0.00000000000E+00 0. -1.
<mgrwt>
<rscale>  0 0.22622033E+04</rscale>
<asrwt>0</asrwt>
<pdfrwt beam="1">  1        2 0.22545596E+00 0.22622033E+04</pdfrwt>
<pdfrwt beam="2">  1       -2 0.13431201E+00 0.22622033E+04</pdfrwt>
<totfact> 0.48275603E+00</totfact>
</mgrwt>
</event>
<event>
 6    1  0.1934315E-005  0.2730151E+04  0.7818608E-02  0.8325288E-01
         -2   -1    0    0    0  501 -0.00000000000E+00  0.00000000000E+00  0.78060251866E+03  0.78060251866E+03  0.00000000000E+00 0. -1.
          2   -1    0    0  501    0  0.00000000000E+00 -0.00000000000E+00 -0.23871710024E+04  0.23871710024E+04  0.00000000000E+00 0.  1.
         23    2    1    2    0    0 -0.22626756307E+03  0.75356704945E+03 -0.20962835901E+04  0.22410150879E+04  0.93184902383E+02 0.  0.
         13    1    3    3    0    0 -0.17915738239E+03  0.53642004034E+03 -0.13915977224E+04  0.15021278402E+04  0.00000000000E+00 0.  1.
        -13    1    3    3    0    0 -0.47110180682E+02  0.21714700911E+03 -0.70468586767E+03  0.73888724768E+03  0.00000000000E+00 0. -1.
         22    1    1    2    0    0  0.22626756307E+03 -0.75356704945E+03  0.48971510632E+03  0.92675843318E+03  0.00000000000E+00 0. -1.
<mgrwt>
<rscale>  0 0.27301514E+04</rscale>
<asrwt>0</asrwt>
<pdfrwt beam="1">  1        2 0.36725707E+00 0.27301514E+04</pdfrwt>
<pdfrwt beam="2">  1       -2 0.12009270E+00 0.27301514E+04</pdfrwt>
<totfact> 0.18750221E+00</totfact>
</mgrwt>
</event>
<event>
 6    1  0.1934315E-005  0.4257847E+04  0.7818608E-02  0.7954459E-01
         -2   -1    0    0    0  501 -0.00000000000E+00  0.00000000000E+00  0.25122973618E+04  0.25122973618E+04  0.00000000000E+00 0. -1.
          2   -1    0    0  501    0  0.00000000000E+00 -0.00000000000E+00 -0.18040521572E+04  0.18040521572E+04  0.00000000000E+00 0.  1.
         23    2    1    2    0    0  0.20125159177E+04  0.66500156883E+02 -0.34328407190E+03  0.20447077317E+04  0.91340922793E+02 0.  0.
         13    1    3    3    0    0  0.12335071036E+04  0.57350715821E+02 -0.25229418002E+03  0.12603496469E+04  0.00000000000E+00 0. -1.
        -13    1    3    3    0    0  0.77900881417E+03  0.91494410619E+01 -0.90989891877E+02  0.78435808484E+03  0.00000000000E+00 0.  1.
         22    1    1    2    0    0 -0.20125159177E+04 -0.66500156883E+02  0.10515292765E+04  0.22716417872E+04  0.00000000000E+00 0. -1.
<mgrwt>
<rscale>  0 0.42578471E+04</rscale>
<asrwt>0</asrwt>
<pdfrwt beam="1">  1        2 0.27754649E+00 0.42578471E+04</pdfrwt>
<pdfrwt beam="2">  1       -2 0.38650729E+00 0.42578471E+04</pdfrwt>
<totfact> 0.60259096E-02</totfact>
</mgrwt>
</event>
<event>
 6    1  0.1934315E-005  0.1000603E+04  0.7818608E-02  0.9307884E-01
         -2   -1    0    0    0  501 -0.00000000000E+00  0.00000000000E+00  0.25007134885E+03  0.25007134885E+03  0.00000000000E+00 0. -1.
          2   -1    0    0  501    0  0.00000000000E+00 -0.00000000000E+00 -0.10009210362E+04  0.10009210362E+04  0.00000000000E+00 0.  1.
         23    2    1    2    0    0 -0.40578496787E+03 -0.17491412177E+03 -0.96692537561E+02  0.46157616609E+03  0.91906039726E+02 0.  0.
         11    1    3    3    0    0 -0.21962490157E+02  0.87378223332E+01  0.48530202509E+01  0.24129905068E+02  0.00000000000E+00 0.  1.
        -11    1    3    3    0    0 -0.38382247771E+03 -0.18365194410E+03 -0.10154555781E+03  0.43744626102E+03  0.00000000000E+00 0. -1.
         22    1    1    2    0    0  0.40578496787E+03  0.17491412177E+03 -0.65415714982E+03  0.78941621899E+03  0.00000000000E+00 0.  1.
<mgrwt>
<rscale>  0 0.10006032E+04</rscale>
<asrwt>0</asrwt>
<pdfrwt beam="1">  1        2 0.15398785E+00 0.10006032E+04</pdfrwt>
<pdfrwt beam="2">  1       -2 0.38472516E-01 0.10006032E+04</pdfrwt>
<totfact> 0.16010180E+02</totfact>
</mgrwt>
</event>
<event>
 6    1  0.1934315E-005  0.1162260E+04  0.7818608E-02  0.9146547E-01
         -2   -1    0    0    0  501 -0.00000000000E+00  0.00000000000E+00  0.10061633541E+04  0.10061633541E+04  0.00000000000E+00 0. -1.
          2   -1    0    0  501    0  0.00000000000E+00 -0.00000000000E+00 -0.33564329049E+03  0.33564329049E+03  0.00000000000E+00 0.  1.
         23    2    1    2    0    0  0.42377730639E+03 -0.61847911942E+02  0.78474339909E+03  0.89856930417E+03  0.90510896417E+02 0.  0.
         13    1    3    3    0    0  0.11110555367E+03 -0.38346312287E+02  0.28901406950E+03  0.31200002579E+03  0.00000000000E+00 0. -1.
        -13    1    3    3    0    0  0.31267175271E+03 -0.23501599655E+02  0.49572932959E+03  0.58656927838E+03  0.00000000000E+00 0.  1.
         22    1    1    2    0    0 -0.42377730639E+03  0.61847911942E+02 -0.11422333543E+03  0.44323734046E+03  0.00000000000E+00 0.  1.
<mgrwt>
<rscale>  0 0.11622598E+04</rscale>
<asrwt>0</asrwt>
<pdfrwt beam="1">  1        2 0.51637430E-01 0.11622598E+04</pdfrwt>
<pdfrwt beam="2">  1       -2 0.15479436E+00 0.11622598E+04</pdfrwt>
<totfact> 0.26361254E+01</totfact>
</mgrwt>
</event>
<event>
 6    1  0.1934315E-005  0.6147481E+03  0.7818608E-02  0.9875272E-01
         -2   -1    0    0    0  501 -0.00000000000E+00  0.00000000000E+00  0.62626571923E+02  0.62626571923E+02  0.00000000000E+00 0. -1.
          2   -1    0    0  501    0  0.00000000000E+00 -0.00000000000E+00 -0.15086055871E+04  0.15086055871E+04  0.00000000000E+00 0.  1.
         23    2    1    2    0    0  0.10853518466E+03 -0.25692067300E+02 -0.14523682883E+04  0.14595146965E+04  0.91485166467E+02 0.  0.
         11    1    3    3    0    0  0.74488430257E+02 -0.53720888787E+02 -0.72222066621E+03  0.72803650378E+03  0.00000000000E+00 0.  1.
        -11    1    3    3    0    0  0.34046754398E+02  0.28028821487E+02 -0.73014762211E+03  0.73147819270E+03  0.00000000000E+00 0. -1.
         22    1    1    2    0    0 -0.10853518466E+03  0.25692067300E+02  0.63892731274E+01  0.11171746256E+03  0.00000000000E+00 0. -1.
<mgrwt>
<rscale>  0 0.61474807E+03</rscale>
<asrwt>0</asrwt>
<pdfrwt beam="1">  1        2 0.23209317E+00 0.61474807E+03</pdfrwt>
<pdfrwt beam="2">  1       -2 0.96348571E-02 0.61474807E+03</pdfrwt>
<totfact> 0.93224925E+02</totfact>
</mgrwt>
</event>
<event>
 6    1  0.1934315E-005  0.1662251E+04  0.7818608E-02  0.8783192E-01
          2   -1    0    0  501    0  0.00000000000E+00  0.00000000000E+00  0.99115575013E+03  0.99115575013E+03  0.00000000000E+00 0.  1.
         -2   -1    0    0    0  501 -0.00000000000E+00 -0.00000000000E+00 -0.69693358296E+03  0.69693358296E+03  0.00000000000E+00 0. -1.
         23    2    1    2    0    0  0.16027870363E+03 -0.72874930122E+03  0.51333203983E+03  0.91041720220E+03  0.92654692768E+02 0.  0.
         13    1    3    3    0    0  0.50860839352E+01 -0.21027699373E+03  0.13116264475E+03  0.24788287903E+03  0.00000000000E+00 0.  1.
        -13    1    3    3    0    0  0.15519261970E+03 -0.51847230749E+03  0.38216939508E+03  0.66253432317E+03  0.00000000000E+00 0. -1.
         22    1    1    2    0    0 -0.16027870363E+03  0.72874930122E+03 -0.21910987267E+03  0.77767213089E+03  0.00000000000E+00 0. -1.
<mgrwt>
<rscale>  0 0.16622512E+04</rscale>
<asrwt>0</asrwt>
<pdfrwt beam="1">  1        2 0.15248550E+00 0.16622512E+04</pdfrwt>
<pdfrwt beam="2">  1       -2 0.10722055E+00 0.16622512E+04</pdfrwt>
<totfact> 0.17026807E+01</totfact>
</mgrwt>
</event>
<event>
 6    1  0.1934315E-005  0.3661385E+04  0.7818608E-02  0.8076574E-01
          2   -1    0    0  501    0  0.00000000000E+00  0.00000000000E+00  0.25035430783E+04  0.25035430783E+04  0.00000000000E+00 0.  1.
         -2   -1    0    0    0  501 -0.00000000000E+00 -0.00000000000E+00 -0.13386765301E+04  0.13386765301E+04  0.00000000000E+00 0. -1.
         23    2    1    2    0    0 -0.57702037483E+03 -0.87663587966E+03 -0.99008038170E+03  0.14452967375E+04  0.84737941909E+02 0.  0.
         11    1    3    3    0    0 -0.24825614257E+03 -0.44099000428E+03 -0.44387485495E+03  0.67314796520E+03  0.00000000000E+00 0. -1.
        -11    1    3    3    0    0 -0.32876423226E+03 -0.43564587538E+03 -0.54620552674E+03  0.77214877232E+03  0.00000000000E+00 0.  1.
         22    1    1    2    0    0  0.57702037483E+03  0.87663587966E+03  0.21549469299E+04  0.23969228709E+04  0.00000000000E+00 0.  1.
<mgrwt>
<rscale>  0 0.36613846E+04</rscale>
<asrwt>0</asrwt>
<pdfrwt beam="1">  1        2 0.38516047E+00 0.36613846E+04</pdfrwt>
<pdfrwt beam="2">  1       -2 0.20595024E+00 0.36613846E+04</pdfrwt>
<totfact> 0.34168937E-01</totfact>
</mgrwt>
</event>
<event>
 6    1  0.1934315E-005  0.1665068E+04  0.7818608E-02  0.8781542E-01
          2   -1    0    0  501    0  0.00000000000E+00  0.00000000000E+00  0.13071331189E+04  0.13071331189E+04  0.00000000000E+00 0.  1.
         -2   -1    0    0    0  501 -0.00000000000E+00 -0.00000000000E+00 -0.53025408613E+03  0.53025408613E+03  0.00000000000E+00 0. -1.
         23    2    1    2    0    0 -0.71500356247E+03 -0.33961819122E+03  0.66527292802E+03  0.10379958536E+04  0.90976442621E+02 0.  0.
         13    1    3    3    0    0 -0.21365583657E+03 -0.58063304885E+02  0.19926119353E+03  0.29786773428E+03  0.00000000000E+00 0. -1.
        -13    1    3    3    0    0 -0.50134772590E+03 -0.28155488634E+03  0.46601173449E+03  0.74012811929E+03  0.00000000000E+00 0.  1.
         22    1    1    2    0    0  0.71500356247E+03  0.33961819122E+03  0.11160610474E+03  0.79939135145E+03  0.00000000000E+00 0.  1.
<mgrwt>
<rscale>  0 0.16650678E+04</rscale>
<asrwt>0</asrwt>
<pdfrwt beam="1">  1        2 0.20109740E+00 0.16650678E+04</pdfrwt>
<pdfrwt beam="2">  1       -2 0.81577552E-01 0.16650678E+04</pdfrwt>
<totfact> 0.20666454E+01</totfact>
</mgrwt>
</event>
<event>
 6    1  0.1934315E-005  0.1123349E+04  0.7818608E-02  0.9182728E-01
         -2   -1    0    0    0  501 -0.00000000000E+00  0.00000000000E+00  0.82844142511E+02  0.82844142511E+02  0.00000000000E+00 0. -1.
          2   -1    0    0  501    0  0.00000000000E+00 -0.00000000000E+00 -0.38080948455E+04  0.38080948455E+04  0.00000000000E+00 0.  1.
         23    2    1    2    0    0  0.97274354236E+01 -0.45534466181E+03 -0.29911156166E+04  0.30270016586E+04  0.92374376260E+02 0.  0.
         13    1    3    3    0    0  0.48072483555E+02 -0.28843401980E+03 -0.19827686339E+04  0.20042147098E+04  0.00000000000E+00 0.  1.
        -13    1    3    3    0    0 -0.38345048131E+02 -0.16691064201E+03 -0.10083469827E+04  0.10227869488E+04  0.00000000000E+00 0. -1.
         22    1    1    2    0    0 -0.97274354236E+01  0.45534466181E+03 -0.73413508635E+03  0.86393732935E+03  0.00000000000E+00 0. -1.
<mgrwt>
<rscale>  0 0.11233492E+04</rscale>
<asrwt>0</asrwt>
<pdfrwt beam="1">  1        2 0.58586063E+00 0.11233492E+04</pdfrwt>
<pdfrwt beam="2">  1       -2 0.12745255E-01 0.11233492E+04</pdfrwt>
<totfact> 0.23058510E+01</totfact>
</mgrwt>
</event>
<event>
 6    1  0.1934315E-005  0.2252264E+04  0.7818608E-02  0.8496984E-01
          2   -1    0    0  501    0  0.00000000000E+00  0.00000000000E+00  0.19502313914E+04  0.19502313914E+04  0.00000000000E+00 0.  1.
         -2   -1    0    0    0  501 -0.00000000000E+00 -0.00000000000E+00 -0.65026829244E+03  0.65026829244E+03  0.00000000000E+00 0. -1.
         23    2    1    2    0    0  0.18701583566E+03  0.41414477476E+03 -0.53617972410E+03  0.70896293191E+03  0.92999596979E+02 0.  0.
         11    1    3    3    0    0  0.39522745341E+02  0.11398633236E+03 -0.20766099144E+03  0.24016248402E+03  0.00000000000E+00 0. -1.
        -11    1    3    3    0    0  0.14749309031E+03  0.30015844240E+03 -0.32851873266E+03  0.46880044789E+03  0.00000000000E+00 0.  1.
         22    1    1    2    0    0 -0.18701583566E+03 -0.41414477476E+03  0.18361428230E+04  0.18915367519E+04  0.00000000000E+00 0.  1.
<mgrwt>
<rscale>  0 0.22522643E+04</rscale>
<asrwt>0</asrwt>
<pdfrwt beam="1">  1        2 0.30003560E+00 0.22522643E+04</pdfrwt>
<pdfrwt beam="2">  1       -2 0.10004128E+00 0.22522643E+04</pdfrwt>
<totfact> 0.53479792E+00</totfact>
</mgrwt>
</event>
<event>
 6    1  0.1934315E-005  0.2859078E+04  0.7818608E-02  0.8285158E-01
         -2   -1    0    0    0  501 -0.00000000000E+00  0.00000000000E+00  0.10615905371E+04  0.10615905371E+04  0.00000000000E+00 0. -1.
          2   -1    0    0  501    0  0.00000000000E+00 -0.00000000000E+00 -0.19250185351E+04  0.19250185351E+04  0.00000000000E+00 0.  1.
         23    2    1    2    0    0  0.78979146636E+03  0.22883227190E+03 -0.16518715031E+04  0.18474085062E+04  0.90021980196E+02 0.  0.
         11    1    3    3    0    0  0.50669695634E+03  0.12232841325E+03 -0.11249528121E+04  0.12398487309E+04  0.00000000000E+00 0. -1.
        -11    1    3    3    0    0  0.28309451002E+03  0.10650385865E+03 -0.52691869106E+03  0.60755977525E+03  0.00000000000E+00 0.  1.
         22    1    1    2    0    0 -0.78979146636E+03 -0.22883227190E+03  0.78844350510E+03  0.11392005661E+04  0.00000000000E+00 0. -1.
<mgrwt>
<rscale>  0 0.28590778E+04</rscale>
<asrwt>0</asrwt>
<pdfrwt beam="1">  1        2 0.29615670E+00 0.28590778E+04</pdfrwt>
<pdfrwt beam="2">  1       -2 0.16332162E+00 0.28590778E+04</pdfrwt>
<totfact> 0.15166662E+00</totfact>
</mgrwt>
</event>
<event>
 6    1  0.1934315E-005  0.2074112E+04  0.7818608E-02  0.8572734E-01
          4   -1    0    0  501    0  0.00000000000E+00  0.00000000000E+00  0.45493122657E+03  0.45493122657E+03  0.00000000000E+00 0.  1.
         -4   -1    0    0    0  501 -0.00000000000E+00 -0.00000000000E+00 -0.23640619412E+04  0.23640619412E+04  0.00000000000E+00 0. -1.
         23    2    1    2    0    0 -0.64263732112E+03  0.79341671755E+03 -0.72531084095E+03  0.12556882367E+04  0.90467218319E+02 0.  0.
         13    1    3    3    0    0 -0.25840305322E+03  0.33398367171E+03 -0.24703706445E+03  0.48922851726E+03  0.00000000000E+00 0.  1.
        -13    1    3    3    0    0 -0.38423426790E+03  0.45943304584E+03 -0.47827377650E+03  0.76645971944E+03  0.00000000000E+00 0. -1.
         22    1    1    2    0    0  0.64263732112E+03 -0.79341671755E+03 -0.11838198736E+04  0.15633049310E+04  0.00000000000E+00 0.  1.
<mgrwt>
<rscale>  0 0.20741124E+04</rscale>
<asrwt>0</asrwt>
<pdfrwt beam="1">  1        4 0.69989418E-01 0.20741124E+04</pdfrwt>
<pdfrwt beam="2">  1       -4 0.36370184E+00 0.20741124E+04</pdfrwt>
<totfact> 0.41793479E-02</totfact>
</mgrwt>
</event>
<event>
 6    1  0.1934315E-005  0.3713704E+04  0.7818608E-02  0.8064932E-01
          1   -1    0    0  501    0  0.00000000000E+00  0.00000000000E+00  0.23869635704E+04  0.23869635704E+04  0.00000000000E+00 0.  1.
         -1   -1    0    0    0  501 -0.00000000000E+00 -0.00000000000E+00 -0.14444708549E+04  0.14444708549E+04  0.00000000000E+00 0. -1.
         23    2    1    2    0    0  0.82283758284E+03 -0.16380080131E+04  0.17331860904E+03  0.18435308198E+04  0.91840104404E+02 0.  0.
         13    1    3    3    0    0  0.23149132428E+03 -0.55197927566E+03  0.69975956999E+02  0.60263254852E+03  0.00000000000E+00 0. -1.
        -13    1    3    3    0    0  0.59134625856E+03 -0.10860287374E+04  0.10334265204E+03  0.12408982713E+04  0.00000000000E+00 0.  1.
         22    1    1    2    0    0 -0.82283758284E+03  0.16380080131E+04  0.76917410655E+03  0.19879036055E+04  0.00000000000E+00 0.  1.
<mgrwt>
<rscale>  0 0.37137040E+04</rscale>
<asrwt>0</asrwt>
<pdfrwt beam="1">  1        1 0.36722517E+00 0.37137040E+04</pdfrwt>
<pdfrwt beam="2">  1       -1 0.22222628E+00 0.37137040E+04</pdfrwt>
<totfact> 0.13822006E-01</totfact>
</mgrwt>
</event>
<event>
 6    1  0.1934315E-005  0.2696250E+04  0.7818608E-02  0.8336223E-01
         -2   -1    0    0    0  501 -0.00000000000E+00  0.00000000000E+00  0.15817869133E+04  0.15817869133E+04  0.00000000000E+00 0. -1.
          2   -1    0    0  501    0  0.00000000000E+00 -0.00000000000E+00 -0.11489794131E+04  0.11489794131E+04  0.00000000000E+00 0.  1.
         23    2    1    2    0    0  0.49365734230E+03  0.81018414011E+02  0.14827730842E+04  0.15677146154E+04  0.94082630028E+02 0.  0.
         11    1    3    3    0    0  0.17615210704E+03  0.56861645692E+02  0.43833944800E+03  0.47581959106E+03  0.00000000000E+00 0.  1.
        -11    1    3    3    0    0  0.31750523527E+03  0.24156768320E+02  0.10444336362E+04  0.10918950244E+04  0.00000000000E+00 0. -1.
         22    1    1    2    0    0 -0.49365734230E+03 -0.81018414011E+02 -0.10499655839E+04  0.11630517110E+04  0.00000000000E+00 0.  1.
<mgrwt>
<rscale>  0 0.26962497E+04</rscale>
<asrwt>0</asrwt>
<pdfrwt beam="1">  1        2 0.17676606E+00 0.26962497E+04</pdfrwt>
<pdfrwt beam="2">  1       -2 0.24335183E+00 0.26962497E+04</pdfrwt>
<totfact> 0.12599925E+00</totfact>
</mgrwt>
</event>
<event>
 6    1  0.1934315E-005  0.4133662E+04  0.7818608E-02  0.7978112E-01
          2   -1    0    0  501    0  0.00000000000E+00  0.00000000000E+00  0.16805260810E+04  0.16805260810E+04  0.00000000000E+00 0.  1.
         -2   -1    0    0    0  501 -0.00000000000E+00 -0.00000000000E+00 -0.25419368565E+04  0.25419368565E+04  0.00000000000E+00 0. -1.
         23    2    1    2    0    0 -0.18023888926E+03 -0.10703622098E+04 -0.22263236877E+04  0.24785740147E+04  0.93008959860E+02 0.  0.
         13    1    3    3    0    0 -0.72640252010E+02 -0.51494724816E+03 -0.96573780579E+03  0.10968576864E+04  0.00000000000E+00 0.  1.
        -13    1    3    3    0    0 -0.10759863725E+03 -0.55541496159E+03 -0.12605858819E+04  0.13817163283E+04  0.00000000000E+00 0. -1.
         22    1    1    2    0    0  0.18023888926E+03  0.10703622098E+04  0.13649129121E+04  0.17438889228E+04  0.00000000000E+00 0.  1.
<mgrwt>
<rscale>  0 0.41336624E+04</rscale>
<asrwt>0</asrwt>
<pdfrwt beam="1">  1        2 0.25854247E+00 0.41336624E+04</pdfrwt>
<pdfrwt beam="2">  1       -2 0.39106721E+00 0.41336624E+04</pdfrwt>
<totfact> 0.66586324E-02</totfact>
</mgrwt>
</event>
<event>
 6    1  0.1934315E-005  0.2964047E+04  0.7818608E-02  0.8254073E-01
         -2   -1    0    0    0  501 -0.00000000000E+00  0.00000000000E+00  0.12899785926E+04  0.12899785926E+04  0.00000000000E+00 0. -1.
          2   -1    0    0  501    0  0.00000000000E+00 -0.00000000000E+00 -0.17026588455E+04  0.17026588455E+04  0.00000000000E+00 0.  1.
         23    2    1    2    0    0  0.36437311029E+03  0.99192172904E+03 -0.12535397662E+04  0.16421852171E+04  0.93455132890E+02 0.  0.
         11    1    3    3    0    0  0.27400699720E+03  0.62559222902E+03 -0.78137993188E+03  0.10377861386E+04  0.00000000000E+00 0.  1.
        -11    1    3    3    0    0  0.90366113084E+02  0.36632950003E+03 -0.47215983430E+03  0.60439907852E+03  0.00000000000E+00 0. -1.
         22    1    1    2    0    0 -0.36437311029E+03 -0.99192172904E+03  0.84085951325E+03  0.13504522210E+04  0.00000000000E+00 0. -1.
<mgrwt>
<rscale>  0 0.29640469E+04</rscale>
<asrwt>0</asrwt>
<pdfrwt beam="1">  1        2 0.26194751E+00 0.29640469E+04</pdfrwt>
<pdfrwt beam="2">  1       -2 0.19845825E+00 0.29640469E+04</pdfrwt>
<totfact> 0.11425328E+00</totfact>
</mgrwt>
</event>
<event>
 6    1  0.1934315E-005  0.1330530E+04  0.7818608E-02  0.9005699E-01
         -2   -1    0    0    0  501 -0.00000000000E+00  0.00000000000E+00  0.29499511162E+03  0.29499511162E+03  0.00000000000E+00 0. -1.
          2   -1    0    0  501    0  0.00000000000E+00 -0.00000000000E+00 -0.15002878698E+04  0.15002878698E+04  0.00000000000E+00 0.  1.
         23    2    1    2    0    0  0.11031730280E+03  0.46950303546E+03 -0.12176547019E+04  0.13128352379E+04  0.90831608416E+02 0.  0.
         11    1    3    3    0    0  0.76310720950E+02  0.21851249288E+03 -0.68456236639E+03  0.72263176595E+03  0.00000000000E+00 0. -1.
        -11    1    3    3    0    0  0.34006581847E+02  0.25099054257E+03 -0.53309233553E+03  0.59020347192E+03  0.00000000000E+00 0.  1.
         22    1    1    2    0    0 -0.11031730280E+03 -0.46950303546E+03  0.12361943753E+02  0.48244774354E+03  0.00000000000E+00 0. -1.
<mgrwt>
<rscale>  0 0.13305301E+04</rscale>
<asrwt>0</asrwt>
<pdfrwt beam="1">  1        2 0.23081351E+00 0.13305301E+04</pdfrwt>
<pdfrwt beam="2">  1       -2 0.45383864E-01 0.13305301E+04</pdfrwt>
<totfact> 0.57124670E+01</totfact>
</mgrwt>
</event>
<event>
 6    1  0.1934315E-005  0.3516992E+04  0.7818608E-02  0.8109775E-01
          2   -1    0    0  501    0  0.00000000000E+00  0.00000000000E+00  0.12707618317E+04  0.12707618317E+04  0.00000000000E+00 0.  1.
         -2   -1    0    0    0  501 -0.00000000000E+00 -0.00000000000E+00 -0.24334284561E+04  0.24334284561E+04  0.00000000000E+00 0. -1.
         23    2    1    2    0    0  0.16476441596E+04 -0.38319275742E+03 -0.10830294981E+04  0.20106997984E+04  0.91612332194E+02 0.  0.
         11    1    3    3    0    0  0.16166330025E+03 -0.36091372013E+02 -0.13967471568E+03  0.21667172400E+03  0.00000000000E+00 0. -1.
        -11    1    3    3    0    0  0.14859808594E+04 -0.34710138541E+03 -0.94335478238E+03  0.17940280744E+04  0.00000000000E+00 0.  1.
         22    1    1    2    0    0 -0.16476441596E+04  0.38319275742E+03 -0.79637126311E+02  0.16934904895E+04  0.00000000000E+00 0.  1.
<mgrwt>
<rscale>  0 0.35169919E+04</rscale>
<asrwt>0</asrwt>
<pdfrwt beam="1">  1        2 0.19550182E+00 0.35169919E+04</pdfrwt>
<pdfrwt beam="2">  1       -2 0.37437360E+00 0.35169919E+04</pdfrwt>
<totfact> 0.15347965E-01</totfact>
</mgrwt>
</event>
<event>
 6    1  0.1934315E-005  0.2337304E+04  0.7818608E-02  0.8463356E-01
          2   -1    0    0  501    0  0.00000000000E+00  0.00000000000E+00  0.31065703345E+04  0.31065703345E+04  0.00000000000E+00 0.  1.
         -2   -1    0    0    0  501 -0.00000000000E+00 -0.00000000000E+00 -0.43963209274E+03  0.43963209274E+03  0.00000000000E+00 0. -1.
         23    2    1    2    0    0  0.10238137529E+04 -0.41628890189E+03  0.76778405565E+03  0.13488682075E+04  0.91989317658E+02 0.  0.
         13    1    3    3    0    0  0.74874153820E+03 -0.27621019212E+03  0.51412741227E+03  0.94933290120E+03  0.00000000000E+00 0. -1.
        -13    1    3    3    0    0  0.27507221474E+03 -0.14007870977E+03  0.25365664338E+03  0.39953530630E+03  0.00000000000E+00 0.  1.
         22    1    1    2    0    0 -0.10238137529E+04  0.41628890189E+03  0.18991541861E+04  0.21973342197E+04  0.00000000000E+00 0.  1.
<mgrwt>
<rscale>  0 0.23373044E+04</rscale>
<asrwt>0</asrwt>
<pdfrwt beam="1">  1        2 0.47793388E+00 0.23373044E+04</pdfrwt>
<pdfrwt beam="2">  1       -2 0.67635708E-01 0.23373044E+04</pdfrwt>
<totfact> 0.27012914E+00</totfact>
</mgrwt>
</event>
<event>
 6    1  0.1934315E-005  0.2253942E+04  0.7818608E-02  0.8496306E-01
         -2   -1    0    0    0  501 -0.00000000000E+00  0.00000000000E+00  0.65621632690E+03  0.65621632690E+03  0.00000000000E+00 0. -1.
          2   -1    0    0  501    0  0.00000000000E+00 -0.00000000000E+00 -0.19354345842E+04  0.19354345842E+04  0.00000000000E+00 0.  1.
         23    2    1    2    0    0  0.59821208085E+03  0.95247207899E+03 -0.61035856542E+03  0.12830508796E+04  0.92850559710E+02 0.  0.
         13    1    3    3    0    0  0.23026007225E+03  0.33507892607E+03 -0.26801115098E+03  0.48695745668E+03  0.00000000000E+00 0.  1.
        -13    1    3    3    0    0  0.36795200860E+03  0.61739315293E+03 -0.34234741444E+03  0.79609342296E+03  0.00000000000E+00 0. -1.
         22    1    1    2    0    0 -0.59821208085E+03 -0.95247207899E+03 -0.66885969192E+03  0.13086000315E+04  0.00000000000E+00 0. -1.
<mgrwt>
<rscale>  0 0.22539421E+04</rscale>
<asrwt>0</asrwt>
<pdfrwt beam="1">  1        2 0.29775916E+00 0.22539421E+04</pdfrwt>
<pdfrwt beam="2">  1       -2 0.10095636E+00 0.22539421E+04</pdfrwt>
<totfact> 0.53326504E+00</totfact>
</mgrwt>
</event>
<event>
 6    1  0.1934315E-005  0.4187159E+04  0.7818608E-02  0.7967819E-01
          2   -1    0    0  501    0  0.00000000000E+00  0.00000000000E+00  0.26927254912E+04  0.26927254912E+04  0.00000000000E+00 0.  1.
         -2   -1    0    0    0  501 -0.00000000000E+00 -0.00000000000E+00 -0.16277469137E+04  0.16277469137E+04  0.00000000000E+00 0. -1.
         23    2    1    2    0    0  0.44241043685E+03 -0.16048405364E+04 -0.77558393849E+03  0.18387571680E+04  0.90869882108E+02 0.  0.
         11    1    3    3    0    0  0.39478013347E+03 -0.14696679186E+04 -0.68209393116E+03  0.16676412311E+04  0.00000000000E+00 0. -1.
        -11    1    3    3    0    0  0.47630303388E+02 -0.13517261776E+03 -0.93490007333E+02  0.17111593691E+03  0.00000000000E+00 0.  1.
         22    1    1    2    0    0 -0.44241043685E+03  0.16048405364E+04  0.18405625160E+04  0.24817152369E+04  0.00000000000E+00 0. -1.
<mgrwt>
<rscale>  0 0.41871592E+04</rscale>
<asrwt>0</asrwt>
<pdfrwt beam="1">  1        2 0.41426546E+00 0.41871592E+04</pdfrwt>
<pdfrwt beam="2">  1       -2 0.25042260E+00 0.41871592E+04</pdfrwt>
<totfact> 0.13311828E-01</totfact>
</mgrwt>
</event>
<event>
 6    1  0.1934315E-005  0.3018613E+04  0.7818608E-02  0.8238436E-01
          2   -1    0    0  501    0  0.00000000000E+00  0.00000000000E+00  0.20044797380E+04  0.20044797380E+04  0.00000000000E+00 0.  1.
         -2   -1    0    0    0  501 -0.00000000000E+00 -0.00000000000E+00 -0.11364578130E+04  0.11364578130E+04  0.00000000000E+00 0. -1.
         23    2    1    2    0    0 -0.83011520901E+03 -0.11276323118E+04  0.10163103648E+04  0.17328767028E+04  0.96586844172E+02 0.  0.
         13    1    3    3    0    0 -0.28834893722E+03 -0.36026763298E+03  0.28435547286E+03  0.54202943823E+03  0.00000000000E+00 0. -1.
        -13    1    3    3    0    0 -0.54176627179E+03 -0.76736467882E+03  0.73195489196E+03  0.11908472645E+04  0.00000000000E+00 0.  1.
         22    1    1    2    0    0  0.83011520901E+03  0.11276323118E+04 -0.14828843985E+03  0.14080608482E+04  0.00000000000E+00 0. -1.
<mgrwt>
<rscale>  0 0.30186134E+04</rscale>
<asrwt>0</asrwt>
<pdfrwt beam="1">  1        2 0.30838150E+00 0.30186134E+04</pdfrwt>
<pdfrwt beam="2">  1       -2 0.17483966E+00 0.30186134E+04</pdfrwt>
<totfact> 0.11185599E+00</totfact>
</mgrwt>
</event>
<event>
 6    1  0.1934315E-005  0.5565905E+04  0.7818608E-02  0.7746685E-01
          2   -1    0    0  501    0  0.00000000000E+00  0.00000000000E+00  0.31022118229E+04  0.31022118229E+04  0.00000000000E+00 0.  1.
         -2   -1    0    0    0  501 -0.00000000000E+00 -0.00000000000E+00 -0.24965490986E+04  0.24965490986E+04  0.00000000000E+00 0. -1.
         23    2    1    2    0    0 -0.23527091197E+04  0.13912828622E+04 -0.21998650851E+03  0.27434842518E+04  0.86044009051E+02 0.  0.
         11    1    3    3    0    0 -0.45135700147E+03  0.24511083603E+03 -0.13399307643E+02  0.51379179262E+03  0.00000000000E+00 0. -1.
        -11    1    3    3    0    0 -0.19013521183E+04  0.11461720261E+04 -0.20658720087E+03  0.22296924592E+04  0.00000000000E+00 0.  1.
         22    1    1    2    0    0  0.23527091197E+04 -0.13912828622E+04  0.82564923288E+03  0.28552766697E+04  0.00000000000E+00 0.  1.
<mgrwt>
<rscale>  0 0.55659048E+04</rscale>
<asrwt>0</asrwt>
<pdfrwt beam="1">  1        2 0.47726336E+00 0.55659048E+04</pdfrwt>
<pdfrwt beam="2">  1       -2 0.38408448E+00 0.55659048E+04</pdfrwt>
<totfact> 0.98378508E-03</totfact>
</mgrwt>
</event>
<event>
 6    1  0.1934315E-005  0.2593496E+04  0.7818608E-02  0.8370414E-01
          2   -1    0    0  501    0  0.00000000000E+00  0.00000000000E+00  0.11660558278E+04  0.11660558278E+04  0.00000000000E+00 0.  1.
         -2   -1    0    0    0  501 -0.00000000000E+00 -0.00000000000E+00 -0.14420879413E+04  0.14420879413E+04  0.00000000000E+00 0. -1.
         23    2    1    2    0    0 -0.53428855750E+03 -0.11788632916E+04 -0.91178655500E+02  0.13007212192E+04  0.91538078670E+02 0.  0.
         11    1    3    3    0    0 -0.31888068048E+03 -0.62308893606E+03 -0.17897971023E+02  0.70017501240E+03  0.00000000000E+00 0.  1.
        -11    1    3    3    0    0 -0.21540787703E+03 -0.55577435558E+03 -0.73280684477E+02  0.60054620682E+03  0.00000000000E+00 0. -1.
         22    1    1    2    0    0  0.53428855750E+03  0.11788632916E+04 -0.18485345807E+03  0.13074225499E+04  0.00000000000E+00 0.  1.
<mgrwt>
<rscale>  0 0.25934957E+04</rscale>
<asrwt>0</asrwt>
<pdfrwt beam="1">  1        2 0.17939320E+00 0.25934957E+04</pdfrwt>
<pdfrwt beam="2">  1       -2 0.22185968E+00 0.25934957E+04</pdfrwt>
<totfact> 0.16900248E+00</totfact>
</mgrwt>
</event>
<event>
 6    1  0.1934315E-005  0.2109675E+04  0.7818608E-02  0.8556993E-01
          2   -1    0    0  501    0  0.00000000000E+00  0.00000000000E+00  0.16506924578E+04  0.16506924578E+04  0.00000000000E+00 0.  1.
         -2   -1    0    0    0  501 -0.00000000000E+00 -0.00000000000E+00 -0.67407017741E+03  0.67407017741E+03  0.00000000000E+00 0. -1.
         23    2    1    2    0    0 -0.65166343606E+03  0.66775676572E+02 -0.41900753537E+03  0.78304060853E+03  0.91983993353E+02 0.  0.
         13    1    3    3    0    0 -0.46160160309E+03  0.75856563564E+01 -0.27520511327E+03  0.53746761440E+03  0.00000000000E+00 0.  1.
        -13    1    3    3    0    0 -0.19006183296E+03  0.59190020216E+02 -0.14380242210E+03  0.24557299413E+03  0.00000000000E+00 0. -1.
         22    1    1    2    0    0  0.65166343606E+03 -0.66775676572E+02  0.13956298158E+04  0.15417220267E+04  0.00000000000E+00 0.  1.
<mgrwt>
<rscale>  0 0.21096754E+04</rscale>
<asrwt>0</asrwt>
<pdfrwt beam="1">  1        2 0.25395268E+00 0.21096754E+04</pdfrwt>
<pdfrwt beam="2">  1       -2 0.10370310E+00 0.21096754E+04</pdfrwt>
<totfact> 0.72863766E+00</totfact>
</mgrwt>
</event>
<event>
 6    1  0.1934315E-005  0.2620208E+04  0.7818608E-02  0.8361369E-01
          2   -1    0    0  501    0  0.00000000000E+00  0.00000000000E+00  0.17631359988E+04  0.17631359988E+04  0.00000000000E+00 0.  1.
         -2   -1    0    0    0  501 -0.00000000000E+00 -0.00000000000E+00 -0.97347736031E+03  0.97347736031E+03  0.00000000000E+00 0. -1.
         23    2    1    2    0    0 -0.30092448142E+03 -0.94182183142E+02  0.17217619131E+04  0.17526202993E+04  0.88249652163E+02 0.  0.
         11    1    3    3    0    0 -0.11119469688E+03 -0.63529495308E+02  0.87497417648E+03  0.88429636825E+03  0.00000000000E+00 0. -1.
        -11    1    3    3    0    0 -0.18972978454E+03 -0.30652687835E+02  0.84678773663E+03  0.86832393110E+03  0.00000000000E+00 0.  1.
         22    1    1    2    0    0  0.30092448142E+03  0.94182183142E+02 -0.93210327461E+03  0.98399305977E+03  0.00000000000E+00 0. -1.
<mgrwt>
<rscale>  0 0.26202084E+04</rscale>
<asrwt>0</asrwt>
<pdfrwt beam="1">  1        2 0.27125169E+00 0.26202084E+04</pdfrwt>
<pdfrwt beam="2">  1       -2 0.14976575E+00 0.26202084E+04</pdfrwt>
<totfact> 0.24035865E+00</totfact>
</mgrwt>
</event>
<event>
 6    1  0.1934315E-005  0.3161960E+04  0.7818608E-02  0.8198936E-01
          2   -1    0    0  501    0  0.00000000000E+00  0.00000000000E+00  0.22737818583E+04  0.22737818583E+04  0.00000000000E+00 0.  1.
         -2   -1    0    0    0  501 -0.00000000000E+00 -0.00000000000E+00 -0.10992690984E+04  0.10992690984E+04  0.00000000000E+00 0. -1.
         23    2    1    2    0    0 -0.10525590033E+04  0.11673610299E+04  0.75533305485E+03  0.17462984080E+04  0.91748984637E+02 0.  0.
         13    1    3    3    0    0 -0.47308607784E+03  0.59308626881E+03  0.36607169273E+03  0.84235992516E+03  0.00000000000E+00 0.  1.
        -13    1    3    3    0    0 -0.57947292549E+03  0.57427476112E+03  0.38926136211E+03  0.90393848279E+03  0.00000000000E+00 0. -1.
         22    1    1    2    0    0  0.10525590033E+04 -0.11673610299E+04  0.41917970498E+03  0.16267525487E+04  0.00000000000E+00 0.  1.
<mgrwt>
<rscale>  0 0.31619602E+04</rscale>
<asrwt>0</asrwt>
<pdfrwt beam="1">  1        2 0.34981259E+00 0.31619602E+04</pdfrwt>
<pdfrwt beam="2">  1       -2 0.16911832E+00 0.31619602E+04</pdfrwt>
<totfact> 0.85691220E-01</totfact>
</mgrwt>
</event>
<event>
 6    1  0.1934315E-005  0.5891944E+04  0.7818608E-02  0.7703946E-01
          2   -1    0    0  501    0  0.00000000000E+00  0.00000000000E+00  0.50279494414E+04  0.50279494414E+04  0.00000000000E+00 0.  1.
         -2   -1    0    0    0  501 -0.00000000000E+00 -0.00000000000E+00 -0.17261015869E+04  0.17261015869E+04  0.00000000000E+00 0. -1.
         23    2    1    2    0    0 -0.14094213089E+04 -0.21082526195E+04  0.33682601106E+04  0.42172009891E+04  0.91708649651E+02 0.  0.
         11    1    3    3    0    0 -0.27913403915E+03 -0.47576708663E+03  0.70008755488E+03  0.89128711256E+03  0.00000000000E+00 0.  1.
        -11    1    3    3    0    0 -0.11302872697E+04 -0.16324855329E+04  0.26681725557E+04  0.33259138765E+04  0.00000000000E+00 0. -1.
         22    1    1    2    0    0  0.14094213089E+04  0.21082526195E+04 -0.66412256084E+02  0.25368500392E+04  0.00000000000E+00 0. -1.
<mgrwt>
<rscale>  0 0.58919442E+04</rscale>
<asrwt>0</asrwt>
<pdfrwt beam="1">  1        2 0.77353067E+00 0.58919442E+04</pdfrwt>
<pdfrwt beam="2">  1       -2 0.26555409E+00 0.58919442E+04</pdfrwt>
<totfact> 0.10837107E-03</totfact>
</mgrwt>
</event>
<event>
 6    1  0.1934315E-005  0.3080590E+04  0.7818608E-02  0.8221085E-01
          2   -1    0    0  501    0  0.00000000000E+00  0.00000000000E+00  0.16170870139E+04  0.16170870139E+04  0.00000000000E+00 0.  1.
         -2   -1    0    0    0  501 -0.00000000000E+00 -0.00000000000E+00 -0.14671494057E+04  0.14671494057E+04  0.00000000000E+00 0. -1.
         23    2    1    2    0    0 -0.26996415861E+03  0.10729828158E+04  0.11463328408E+04  0.15952850338E+04  0.81747092441E+02 0.  0.
         11    1    3    3    0    0 -0.23195882075E+03  0.77283559023E+03  0.83421717732E+03  0.11606024483E+04  0.00000000000E+00 0.  1.
        -11    1    3    3    0    0 -0.38005337863E+02  0.30014722554E+03  0.31211566350E+03  0.43468258547E+03  0.00000000000E+00 0. -1.
         22    1    1    2    0    0  0.26996415861E+03 -0.10729828158E+04 -0.99639523255E+03  0.14889513858E+04  0.00000000000E+00 0. -1.
<mgrwt>
<rscale>  0 0.30805897E+04</rscale>
<asrwt>0</asrwt>
<pdfrwt beam="1">  1        2 0.24878262E+00 0.30805897E+04</pdfrwt>
<pdfrwt beam="2">  1       -2 0.22571529E+00 0.30805897E+04</pdfrwt>
<totfact> 0.84384638E-01</totfact>
</mgrwt>
</event>
<event>
 6    1  0.1934315E-005  0.7592974E+03  0.7818608E-02  0.9620876E-01
         -2   -1    0    0    0  501 -0.00000000000E+00  0.00000000000E+00  0.18106535681E+03  0.18106535681E+03  0.00000000000E+00 0. -1.
          2   -1    0    0  501    0  0.00000000000E+00 -0.00000000000E+00 -0.79602825480E+03  0.79602825480E+03  0.00000000000E+00 0.  1.
         23    2    1    2    0    0 -0.12805513985E+03  0.28968349382E+03 -0.56964509892E+03  0.65714307114E+03  0.83826199953E+02 0.  0.
         11    1    3    3    0    0 -0.57362363969E+02  0.11281155564E+03 -0.31234718052E+03  0.33701283220E+03  0.00000000000E+00 0. -1.
        -11    1    3    3    0    0 -0.70692775877E+02  0.17687193818E+03 -0.25729791840E+03  0.32013023895E+03  0.00000000000E+00 0.  1.
         22    1    1    2    0    0  0.12805513985E+03 -0.28968349382E+03 -0.45317799072E+02  0.31995054047E+03  0.00000000000E+00 0. -1.
<mgrwt>
<rscale>  0 0.75929741E+03</rscale>
<asrwt>0</asrwt>
<pdfrwt beam="1">  1        2 0.12246588E+00 0.75929741E+03</pdfrwt>
<pdfrwt beam="2">  1       -2 0.27856209E-01 0.75929741E+03</pdfrwt>
<totfact> 0.41004547E+02</totfact>
</mgrwt>
</event>
<event>
 6    1  0.1934315E-005  0.7979296E+03  0.7818608E-02  0.9563019E-01
          2   -1    0    0  501    0  0.00000000000E+00  0.00000000000E+00  0.16496171583E+04  0.16496171583E+04  0.00000000000E+00 0.  1.
         -2   -1    0    0    0  501 -0.00000000000E+00 -0.00000000000E+00 -0.96490820550E+02  0.96490820550E+02  0.00000000000E+00 0. -1.
         23    2    1    2    0    0 -0.24418027745E+03  0.23689700673E+03  0.12246303678E+04  0.12731874761E+04  0.74448718438E+02 0.  0.
         11    1    3    3    0    0 -0.63748744839E+02  0.11088379834E+03  0.47501759857E+03  0.49193580695E+03  0.00000000000E+00 0.  1.
        -11    1    3    3    0    0 -0.18043153261E+03  0.12601320839E+03  0.74961276927E+03  0.78125166912E+03  0.00000000000E+00 0. -1.
         22    1    1    2    0    0  0.24418027745E+03 -0.23689700673E+03  0.32849596987E+03  0.47292050275E+03  0.00000000000E+00 0. -1.
<mgrwt>
<rscale>  0 0.79792960E+03</rscale>
<asrwt>0</asrwt>
<pdfrwt beam="1">  1        2 0.25378723E+00 0.79792960E+03</pdfrwt>
<pdfrwt beam="2">  1       -2 0.14844743E-01 0.79792960E+03</pdfrwt>
<totfact> 0.37769403E+02</totfact>
</mgrwt>
</event>
<event>
 6    1  0.1934315E-005  0.1284195E+04  0.7818608E-02  0.9042193E-01
          2   -1    0    0  501    0  0.00000000000E+00  0.00000000000E+00  0.54328552153E+03  0.54328552153E+03  0.00000000000E+00 0.  1.
         -2   -1    0    0    0  501 -0.00000000000E+00 -0.00000000000E+00 -0.75888143906E+03  0.75888143906E+03  0.00000000000E+00 0. -1.
         23    2    1    2    0    0 -0.37442191503E+03 -0.40144522257E+03  0.22303339309E+03  0.59949654759E+03  0.91116293587E+02 0.  0.
         11    1    3    3    0    0 -0.23186426851E+03 -0.26069296427E+03  0.18735525169E+03  0.39600991271E+03  0.00000000000E+00 0. -1.
        -11    1    3    3    0    0 -0.14255764652E+03 -0.14075225830E+03  0.35678141395E+02  0.20348663488E+03  0.00000000000E+00 0.  1.
         22    1    1    2    0    0  0.37442191503E+03  0.40144522257E+03 -0.43862931061E+03  0.70267041300E+03  0.00000000000E+00 0. -1.
<mgrwt>
<rscale>  0 0.12841952E+04</rscale>
<asrwt>0</asrwt>
<pdfrwt beam="1">  1        2 0.83582389E-01 0.12841952E+04</pdfrwt>
<pdfrwt beam="2">  1       -2 0.11675099E+00 0.12841952E+04</pdfrwt>
<totfact> 0.31140239E+01</totfact>
</mgrwt>
</event>
<event>
 6    1  0.1934315E-005  0.1295150E+04  0.7818608E-02  0.9033420E-01
         -2   -1    0    0    0  501 -0.00000000000E+00  0.00000000000E+00  0.88213494993E+03  0.88213494993E+03  0.00000000000E+00 0. -1.
          2   -1    0    0  501    0  0.00000000000E+00 -0.00000000000E+00 -0.47538432715E+03  0.47538432715E+03  0.00000000000E+00 0.  1.
         23    2    1    2    0    0  0.31459534416E+03  0.49022892953E+01  0.79414503905E+03  0.85845144925E+03  0.85312863422E+02 0.  0.
         11    1    3    3    0    0  0.24182357147E+03  0.38423318640E+02  0.56787354504E+03  0.61841357868E+03  0.00000000000E+00 0. -1.
        -11    1    3    3    0    0  0.72771772691E+02 -0.33521029345E+02  0.22627149401E+03  0.24003787058E+03  0.00000000000E+00 0.  1.
         22    1    1    2    0    0 -0.31459534416E+03 -0.49022892953E+01 -0.38739441628E+03  0.49906782783E+03  0.00000000000E+00 0.  1.
<mgrwt>
<rscale>  0 0.12951496E+04</rscale>
<asrwt>0</asrwt>
<pdfrwt beam="1">  1        2 0.73136050E-01 0.12951496E+04</pdfrwt>
<pdfrwt beam="2">  1       -2 0.13571307E+00 0.12951496E+04</pdfrwt>
<totfact> 0.24901473E+01</totfact>
</mgrwt>
</event>
<event>
 6    1  0.1934315E-005  0.3110899E+04  0.7818608E-02  0.8212753E-01
          2   -1    0    0  501    0  0.00000000000E+00  0.00000000000E+00  0.21903842439E+04  0.21903842439E+04  0.00000000000E+00 0.  1.
         -2   -1    0    0    0  501 -0.00000000000E+00 -0.00000000000E+00 -0.11045653935E+04  0.11045653935E+04  0.00000000000E+00 0. -1.
         23    2    1    2    0    0  0.15048020690E+04  0.32302168838E+03  0.77187015254E+03  0.17241740129E+04  0.90665409866E+02 0.  0.
         11    1    3    3    0    0  0.99806173274E+03  0.19021484285E+03  0.54920701665E+03  0.11549620149E+04  0.00000000000E+00 0.  1.
        -11    1    3    3    0    0  0.50674033621E+03  0.13280684553E+03  0.22266313589E+03  0.56921199798E+03  0.00000000000E+00 0. -1.
         22    1    1    2    0    0 -0.15048020690E+04 -0.32302168838E+03  0.31394869786E+03  0.15707756246E+04  0.00000000000E+00 0.  1.
<mgrwt>
<rscale>  0 0.31108987E+04</rscale>
<asrwt>0</asrwt>
<pdfrwt beam="1">  1        2 0.33698219E+00 0.31108987E+04</pdfrwt>
<pdfrwt beam="2">  1       -2 0.16993314E+00 0.31108987E+04</pdfrwt>
<totfact> 0.94631727E-01</totfact>
</mgrwt>
</event>
<event>
 6    1  0.1934315E-005  0.3631239E+04  0.7818608E-02  0.8083373E-01
         -2   -1    0    0    0  501 -0.00000000000E+00  0.00000000000E+00  0.12712476454E+04  0.12712476454E+04  0.00000000000E+00 0.  1.
          2   -1    0    0  501    0  0.00000000000E+00 -0.00000000000E+00 -0.25931018248E+04  0.25931018248E+04  0.00000000000E+00 0. -1.
         23    2    1    2    0    0 -0.15072535085E+04  0.96546323551E+03 -0.97784549954E+03  0.20416387499E+04  0.90413308181E+02 0.  0.
         11    1    3    3    0    0 -0.49970589376E+03  0.35768585391E+03 -0.30264879025E+03  0.68501200033E+03  0.00000000000E+00 0.  1.
        -11    1    3    3    0    0 -0.10075476147E+04  0.60777738159E+03 -0.67519670929E+03  0.13566267496E+04  0.00000000000E+00 0. -1.
         22    1    1    2    0    0  0.15072535085E+04 -0.96546323551E+03 -0.34400867980E+03  0.18227107203E+04  0.00000000000E+00 0. -1.
<mgrwt>
<rscale>  0 0.36312392E+04</rscale>
<asrwt>0</asrwt>
<pdfrwt beam="1">  1        2 0.39893874E+00 0.36312392E+04</pdfrwt>
<pdfrwt beam="2">  1       -2 0.19557656E+00 0.36312392E+04</pdfrwt>
<totfact> 0.35519068E-01</totfact>
</mgrwt>
</event>
<event>
 6    1  0.1934315E-005  0.1004032E+04  0.7818608E-02  0.9304134E-01
          2   -1    0    0  501    0  0.00000000000E+00  0.00000000000E+00  0.13613424628E+04  0.13613424628E+04  0.00000000000E+00 0.  1.
         -2   -1    0    0    0  501 -0.00000000000E+00 -0.00000000000E+00 -0.18512598273E+03  0.18512598273E+03  0.00000000000E+00 0. -1.
         23    2    1    2    0    0 -0.28597402168E+03 -0.39313095559E+03  0.75784775395E+03  0.90509064710E+03  0.92318860327E+02 0.  0.
         13    1    3    3    0    0 -0.17002298361E+03 -0.25718097465E+03  0.39914252569E+03  0.50434573904E+03  0.00000000000E+00 0. -1.
        -13    1    3    3    0    0 -0.11595103807E+03 -0.13594998094E+03  0.35870522826E+03  0.40074490805E+03  0.00000000000E+00 0.  1.
         22    1    1    2    0    0  0.28597402168E+03  0.39313095559E+03  0.41836872612E+03  0.64137779843E+03  0.00000000000E+00 0. -1.
<mgrwt>
<rscale>  0 0.10040316E+04</rscale>
<asrwt>0</asrwt>
<pdfrwt beam="1">  1        2 0.20943730E+00 0.10040316E+04</pdfrwt>
<pdfrwt beam="2">  1       -2 0.28480921E-01 0.10040316E+04</pdfrwt>
<totfact> 0.17149931E+02</totfact>
</mgrwt>
</event>
<event>
 6    1  0.1934315E-005  0.5959701E+03  0.7818608E-02  0.9913802E-01
          2   -1    0    0  501    0  0.00000000000E+00  0.00000000000E+00  0.17586981401E+04  0.17586981401E+04  0.00000000000E+00 0.  1.
         -2   -1    0    0    0  501 -0.00000000000E+00 -0.00000000000E+00 -0.50489110479E+02  0.50489110479E+02  0.00000000000E+00 0. -1.
         23    2    1    2    0    0  0.81270488818E+02  0.25250570757E+03  0.51313693395E+03  0.58502985115E+03  0.92662770595E+02 0.  0.
         13    1    3    3    0    0 -0.42333588452E+01  0.13803130556E+03  0.25351505148E+03  0.28868745032E+03  0.00000000000E+00 0.  1.
        -13    1    3    3    0    0  0.85503847663E+02  0.11447440200E+03  0.25962188246E+03  0.29634240084E+03  0.00000000000E+00 0. -1.
         22    1    1    2    0    0 -0.81270488818E+02 -0.25250570757E+03  0.11950720956E+04  0.12241573994E+04  0.00000000000E+00 0.  1.
<mgrwt>
<rscale>  0 0.59597015E+03</rscale>
<asrwt>0</asrwt>
<pdfrwt beam="1">  1        2 0.27056890E+00 0.59597015E+03</pdfrwt>
<pdfrwt beam="2">  1       -2 0.77675568E-02 0.59597015E+03</pdfrwt>
<totfact> 0.96261244E+02</totfact>
</mgrwt>
</event>
<event>
 6    1  0.1934315E-005  0.2938074E+04  0.7818608E-02  0.8261639E-01
         -2   -1    0    0    0  501 -0.00000000000E+00  0.00000000000E+00  0.91168060669E+03  0.91168060669E+03  0.00000000000E+00 0. -1.
          2   -1    0    0  501    0  0.00000000000E+00 -0.00000000000E+00 -0.23671330222E+04  0.23671330222E+04  0.00000000000E+00 0.  1.
         23    2    1    2    0    0 -0.11472669937E+03 -0.45878471931E+03  0.82190389433E+03  0.95287351870E+03  0.93788575533E+02 0.  0.
         13    1    3    3    0    0 -0.92522191596E+02 -0.22705081809E+03  0.48376342881E+03  0.54234627775E+03  0.00000000000E+00 0. -1.
        -13    1    3    3    0    0 -0.22204507776E+02 -0.23173390122E+03  0.33814046551E+03  0.41052724094E+03  0.00000000000E+00 0.  1.
         22    1    1    2    0    0  0.11472669937E+03  0.45878471931E+03 -0.22773563098E+04  0.23259401102E+04  0.00000000000E+00 0.  1.
<mgrwt>
<rscale>  0 0.29380737E+04</rscale>
<asrwt>0</asrwt>
<pdfrwt beam="1">  1        2 0.36417432E+00 0.29380737E+04</pdfrwt>
<pdfrwt beam="2">  1       -2 0.14025855E+00 0.29380737E+04</pdfrwt>
<totfact> 0.12765632E+00</totfact>
</mgrwt>
</event>
<event>
 6    1  0.1934315E-005  0.1766265E+04  0.7818608E-02  0.8724448E-01
          2   -1    0    0  501    0  0.00000000000E+00  0.00000000000E+00  0.14436377981E+04  0.14436377981E+04  0.00000000000E+00 0.  1.
         -2   -1    0    0    0  501 -0.00000000000E+00 -0.00000000000E+00 -0.54024837417E+03  0.54024837417E+03  0.00000000000E+00 0. -1.
         23    2    1    2    0    0 -0.12729221868E+03 -0.85344418583E+03  0.25448511417E+03  0.90423479774E+03  0.91146085217E+02 0.  0.
         11    1    3    3    0    0 -0.41397039285E+02 -0.56929872862E+03  0.17148649540E+03  0.59600534845E+03  0.00000000000E+00 0.  1.
        -11    1    3    3    0    0 -0.85895179398E+02 -0.28414545721E+03  0.82998618774E+02  0.30822944930E+03  0.00000000000E+00 0. -1.
         22    1    1    2    0    0  0.12729221868E+03  0.85344418583E+03  0.64890430972E+03  0.10796513745E+04  0.00000000000E+00 0. -1.
<mgrwt>
<rscale>  0 0.17662650E+04</rscale>
<asrwt>0</asrwt>
<pdfrwt beam="1">  1        2 0.22209812E+00 0.17662650E+04</pdfrwt>
<pdfrwt beam="2">  1       -2 0.83115135E-01 0.17662650E+04</pdfrwt>
<totfact> 0.16399921E+01</totfact>
</mgrwt>
</event>
<event>
 6    1  0.1934315E-005  0.1055442E+04  0.7818608E-02  0.9249744E-01
          2   -1    0    0  501    0  0.00000000000E+00  0.00000000000E+00  0.64168749799E+03  0.64168749799E+03  0.00000000000E+00 0.  1.
         -2   -1    0    0    0  501 -0.00000000000E+00 -0.00000000000E+00 -0.43399540483E+03  0.43399540483E+03  0.00000000000E+00 0. -1.
         23    2    1    2    0    0 -0.22097294587E+03  0.44986523904E+03 -0.50966651773E+02  0.51166861006E+03  0.89439313629E+02 0.  0.
         11    1    3    3    0    0 -0.10835601147E+03  0.30569134161E+03 -0.11589680424E+02  0.32453434679E+03  0.00000000000E+00 0. -1.
        -11    1    3    3    0    0 -0.11261693441E+03  0.14417389743E+03 -0.39376971349E+02  0.18713426326E+03  0.00000000000E+00 0.  1.
         22    1    1    2    0    0  0.22097294587E+03 -0.44986523904E+03  0.25865874494E+03  0.56401429276E+03  0.00000000000E+00 0.  1.
<mgrwt>
<rscale>  0 0.10554419E+04</rscale>
<asrwt>0</asrwt>
<pdfrwt beam="1">  1        2 0.98721154E-01 0.10554419E+04</pdfrwt>
<pdfrwt beam="2">  1       -2 0.66768524E-01 0.10554419E+04</pdfrwt>
<totfact> 0.93749248E+01</totfact>
</mgrwt>
</event>
<event>
 6    1  0.1934315E-005  0.3895506E+04  0.7818608E-02  0.8025965E-01
          2   -1    0    0  501    0  0.00000000000E+00  0.00000000000E+00  0.16351526276E+04  0.16351526276E+04  0.00000000000E+00 0.  1.
         -2   -1    0    0    0  501 -0.00000000000E+00 -0.00000000000E+00 -0.23201148137E+04  0.23201148137E+04  0.00000000000E+00 0. -1.
         23    2    1    2    0    0  0.75600336490E+03  0.12935530594E+04  0.91916087200E+03  0.17602659856E+04  0.94122399768E+02 0.  0.
         13    1    3    3    0    0  0.26366302935E+03  0.41569586614E+03  0.25500284210E+03  0.55438948010E+03  0.00000000000E+00 0. -1.
        -13    1    3    3    0    0  0.49234033555E+03  0.87785719330E+03  0.66415802990E+03  0.12058765055E+04  0.00000000000E+00 0.  1.
         22    1    1    2    0    0 -0.75600336490E+03 -0.12935530594E+04 -0.16041230580E+04  0.21950014557E+04  0.00000000000E+00 0. -1.
<mgrwt>
<rscale>  0 0.38955060E+04</rscale>
<asrwt>0</asrwt>
<pdfrwt beam="1">  1        2 0.25156194E+00 0.38955060E+04</pdfrwt>
<pdfrwt beam="2">  1       -2 0.35694074E+00 0.38955060E+04</pdfrwt>
<totfact> 0.11920185E-01</totfact>
</mgrwt>
</event>
<event>
 6    1  0.1934315E-005  0.3819665E+04  0.7818608E-02  0.8041948E-01
         -2   -1    0    0    0  501 -0.00000000000E+00  0.00000000000E+00  0.86353412713E+03  0.86353412713E+03  0.00000000000E+00 0. -1.
          2   -1    0    0  501    0  0.00000000000E+00 -0.00000000000E+00 -0.42238742491E+04  0.42238742491E+04  0.00000000000E+00 0.  1.
         23    2    1    2    0    0 -0.16469765202E+03  0.55443985787E+03 -0.41038522085E+04  0.41454215954E+04  0.91588106701E+02 0.  0.
         11    1    3    3    0    0 -0.44279945722E+02  0.62915381253E+02 -0.68758008608E+03  0.69187096598E+03  0.00000000000E+00 0.  1.
        -11    1    3    3    0    0 -0.12041770630E+03  0.49152447662E+03 -0.34162721225E+04  0.34535506294E+04  0.00000000000E+00 0. -1.
         22    1    1    2    0    0  0.16469765202E+03 -0.55443985787E+03  0.74351208652E+03  0.94198678090E+03  0.00000000000E+00 0. -1.
<mgrwt>
<rscale>  0 0.38196647E+04</rscale>
<asrwt>0</asrwt>
<pdfrwt beam="1">  1        2 0.64982681E+00 0.38196647E+04</pdfrwt>
<pdfrwt beam="2">  1       -2 0.13285140E+00 0.38196647E+04</pdfrwt>
<totfact> 0.72595092E-02</totfact>
</mgrwt>
</event>
<event>
 6    1  0.1934315E-005  0.1810076E+04  0.7818608E-02  0.8700959E-01
         -2   -1    0    0    0  501 -0.00000000000E+00  0.00000000000E+00  0.31374862858E+03  0.31374862858E+03  0.00000000000E+00 0. -1.
          2   -1    0    0  501    0  0.00000000000E+00 -0.00000000000E+00 -0.26106697707E+04  0.26106697707E+04  0.00000000000E+00 0.  1.
         23    2    1    2    0    0 -0.90033213996E+03 -0.22750211943E+02 -0.10530890993E+04  0.13887642439E+04  0.92487510070E+02 0.  0.
         13    1    3    3    0    0 -0.93572006521E+02  0.20845275128E+02 -0.88015093196E+02  0.13014185541E+03  0.00000000000E+00 0. -1.
        -13    1    3    3    0    0 -0.80676013343E+03 -0.43595487071E+02 -0.96507400612E+03  0.12586223884E+04  0.00000000000E+00 0.  1.
         22    1    1    2    0    0  0.90033213996E+03  0.22750211943E+02 -0.12438320428E+04  0.15356541554E+04  0.00000000000E+00 0.  1.
<mgrwt>
<rscale>  0 0.18100763E+04</rscale>
<asrwt>0</asrwt>
<pdfrwt beam="1">  1        2 0.40164150E+00 0.18100763E+04</pdfrwt>
<pdfrwt beam="2">  1       -2 0.48269021E-01 0.18100763E+04</pdfrwt>
<totfact> 0.11522412E+01</totfact>
</mgrwt>
</event>
<event>
 6    1  0.1934315E-005  0.1588738E+04  0.7818608E-02  0.8827497E-01
         -2   -1    0    0    0  501 -0.00000000000E+00  0.00000000000E+00  0.66854589362E+03  0.66854589362E+03  0.00000000000E+00 0. -1.
          2   -1    0    0  501    0  0.00000000000E+00 -0.00000000000E+00 -0.94387207852E+03  0.94387207852E+03  0.00000000000E+00 0.  1.
         23    2    1    2    0    0 -0.45511678116E+03 -0.57363799140E+03 -0.44357605202E+03  0.86108592341E+03  0.92289890557E+02 0.  0.
         11    1    3    3    0    0 -0.15401191481E+03 -0.17088035784E+03 -0.93278693586E+02  0.24823513304E+03  0.00000000000E+00 0. -1.
        -11    1    3    3    0    0 -0.30110486636E+03 -0.40275763355E+03 -0.35029735843E+03  0.61285079037E+03  0.00000000000E+00 0.  1.
         22    1    1    2    0    0  0.45511678116E+03  0.57363799140E+03  0.16824986712E+03  0.75133204873E+03  0.00000000000E+00 0. -1.
<mgrwt>
<rscale>  0 0.15887376E+04</rscale>
<asrwt>0</asrwt>
<pdfrwt beam="1">  1        2 0.14521109E+00 0.15887376E+04</pdfrwt>
<pdfrwt beam="2">  1       -2 0.10285322E+00 0.15887376E+04</pdfrwt>
<totfact> 0.20318957E+01</totfact>
</mgrwt>
</event>
<event>
 6    1  0.2618551E-005  0.4314615E+04  0.7818608E-02  0.7943921E-01
         -2   -1    0    0    0  501 -0.00000000000E+00  0.00000000000E+00  0.19127430781E+04  0.19127430781E+04  0.00000000000E+00 0. -1.
          2   -1    0    0  501    0  0.00000000000E+00 -0.00000000000E+00 -0.24331425085E+04  0.24331425085E+04  0.00000000000E+00 0.  1.
         23    2    1    2    0    0 -0.49075361845E+03  0.51442453222E+03  0.17902523356E+04  0.19283282871E+04  0.89301984058E+02 0.  0.
         13    1    3    3    0    0 -0.25926844403E+03  0.31304390883E+03  0.11100371383E+04  0.11821163493E+04  0.00000000000E+00 0. -1.
        -13    1    3    3    0    0 -0.23148517442E+03  0.20138062339E+03  0.68021519726E+03  0.74621193775E+03  0.00000000000E+00 0.  1.
         22    1    1    2    0    0  0.49075361845E+03 -0.51442453222E+03 -0.23106517659E+04  0.24175572996E+04  0.00000000000E+00 0.  1.
<mgrwt>
<rscale>  0 0.43146154E+04</rscale>
<asrwt>0</asrwt>
<pdfrwt beam="1">  1        2 0.37432962E+00 0.43146154E+04</pdfrwt>
<pdfrwt beam="2">  1       -2 0.29426816E+00 0.43146154E+04</pdfrwt>
<totfact> 0.10083946E-01</totfact>
</mgrwt>
</event>
<event>
 6    1  0.1934315E-005  0.1082345E+04  0.7818608E-02  0.9222573E-01
         -3   -1    0    0    0  501 -0.00000000000E+00  0.00000000000E+00  0.65899876564E+03  0.65899876564E+03  0.00000000000E+00 0. -1.
          3   -1    0    0  501    0  0.00000000000E+00 -0.00000000000E+00 -0.44441305229E+03  0.44441305229E+03  0.00000000000E+00 0.  1.
         23    2    1    2    0    0  0.18393958343E+03  0.21338979415E+03 -0.35853424321E+03  0.46479185330E+03  0.90087117524E+02 0.  0.
         13    1    3    3    0    0  0.13711134804E+03  0.93017650192E+02 -0.21962909825E+03  0.27511587705E+03  0.00000000000E+00 0. -1.
        -13    1    3    3    0    0  0.46828235390E+02  0.12037214395E+03 -0.13890514497E+03  0.18967597625E+03  0.00000000000E+00 0.  1.
         22    1    1    2    0    0 -0.18393958343E+03 -0.21338979415E+03  0.57311995656E+03  0.63861996462E+03  0.00000000000E+00 0. -1.
<mgrwt>
<rscale>  0 0.10823450E+04</rscale>
<asrwt>0</asrwt>
<pdfrwt beam="1">  1        3 0.68371239E-01 0.10823450E+04</pdfrwt>
<pdfrwt beam="2">  1       -3 0.10138443E+00 0.10823450E+04</pdfrwt>
<totfact> 0.45276024E+00</totfact>
</mgrwt>
</event>
<event>
 6    1  0.1934315E-005  0.4155546E+04  0.7818608E-02  0.7973883E-01
          2   -1    0    0  501    0  0.00000000000E+00  0.00000000000E+00  0.12150194978E+04  0.12150194978E+04  0.00000000000E+00 0.  1.
         -2   -1    0    0    0  501 -0.00000000000E+00 -0.00000000000E+00 -0.35531452555E+04  0.35531452555E+04  0.00000000000E+00 0. -1.
         23    2    1    2    0    0  0.10876461672E+04  0.12229206377E+04 -0.26365517865E+04  0.31045640904E+04  0.91672227988E+02 0.  0.
         13    1    3    3    0    0  0.64297974808E+03  0.77300589881E+03 -0.15615997839E+04  0.18572977578E+04  0.00000000000E+00 0.  1.
        -13    1    3    3    0    0  0.44466641910E+03  0.44991473889E+03 -0.10749520025E+04  0.12472663326E+04  0.00000000000E+00 0. -1.
         22    1    1    2    0    0 -0.10876461672E+04 -0.12229206377E+04  0.29842602873E+03  0.16636006629E+04  0.00000000000E+00 0.  1.
<mgrwt>
<rscale>  0 0.41555461E+04</rscale>
<asrwt>0</asrwt>
<pdfrwt beam="1">  1        2 0.18692608E+00 0.41555461E+04</pdfrwt>
<pdfrwt beam="2">  1       -2 0.54663773E+00 0.41555461E+04</pdfrwt>
<totfact> 0.12875967E-02</totfact>
</mgrwt>
</event>
<event>
 6    1  0.1934315E-005  0.1360397E+04  0.7818608E-02  0.8982995E-01
         -2   -1    0    0    0  501 -0.00000000000E+00  0.00000000000E+00  0.49537743063E+03  0.49537743063E+03  0.00000000000E+00 0. -1.
          2   -1    0    0  501    0  0.00000000000E+00 -0.00000000000E+00 -0.93397496261E+03  0.93397496261E+03  0.00000000000E+00 0.  1.
         23    2    1    2    0    0  0.54863061430E+03 -0.32993348683E+03  0.10420694422E+02  0.64738754471E+03  0.95657647342E+02 0.  0.
         13    1    3    3    0    0  0.27026759544E+03 -0.11315709113E+03 -0.17119947975E+02  0.29349990296E+03  0.00000000000E+00 0. -1.
        -13    1    3    3    0    0  0.27836301886E+03 -0.21677639570E+03  0.27540642397E+02  0.35388764175E+03  0.00000000000E+00 0.  1.
         22    1    1    2    0    0 -0.54863061430E+03  0.32993348683E+03 -0.44901822640E+03  0.78196484852E+03  0.00000000000E+00 0.  1.
<mgrwt>
<rscale>  0 0.13603972E+04</rscale>
<asrwt>0</asrwt>
<pdfrwt beam="1">  1        2 0.14368846E+00 0.13603972E+04</pdfrwt>
<pdfrwt beam="2">  1       -2 0.76211913E-01 0.13603972E+04</pdfrwt>
<totfact> 0.41856882E+01</totfact>
</mgrwt>
</event>
<event>
 6    1  0.1934315E-005  0.2037103E+04  0.7818608E-02  0.8589468E-01
         -2   -1    0    0    0  501 -0.00000000000E+00  0.00000000000E+00  0.47068990750E+03  0.47068990750E+03  0.00000000000E+00 0. -1.
          2   -1    0    0  501    0  0.00000000000E+00 -0.00000000000E+00 -0.22040991394E+04  0.22040991394E+04  0.00000000000E+00 0.  1.
         23    2    1    2    0    0 -0.29524509399E+02  0.99988193013E+03 -0.11060310743E+04  0.14940100992E+04  0.90143597758E+02 0.  0.
         13    1    3    3    0    0  0.17677508831E+02  0.59851051319E+03 -0.62049636167E+03  0.86228943143E+03  0.00000000000E+00 0.  1.
        -13    1    3    3    0    0 -0.47202018230E+02  0.40137141694E+03 -0.48553471265E+03  0.63172066774E+03  0.00000000000E+00 0. -1.
         22    1    1    2    0    0  0.29524509399E+02 -0.99988193013E+03 -0.62737815762E+03  0.11807789478E+04  0.00000000000E+00 0. -1.
<mgrwt>
<rscale>  0 0.20371031E+04</rscale>
<asrwt>0</asrwt>
<pdfrwt beam="1">  1        2 0.33909218E+00 0.20371031E+04</pdfrwt>
<pdfrwt beam="2">  1       -2 0.72413831E-01 0.20371031E+04</pdfrwt>
<totfact> 0.82101109E+00</totfact>
</mgrwt>
</event>
<event>
 6    1  0.1934315E-005  0.4882601E+04  0.7818608E-02  0.7846877E-01
          2   -1    0    0  501    0  0.00000000000E+00  0.00000000000E+00  0.31050791293E+04  0.31050791293E+04  0.00000000000E+00 0.  1.
         -2   -1    0    0    0  501 -0.00000000000E+00 -0.00000000000E+00 -0.19194188770E+04  0.19194188770E+04  0.00000000000E+00 0. -1.
         23    2    1    2    0    0  0.21576970918E+04  0.84928818936E+03 -0.19016368898E+03  0.23282341679E+04  0.86976683610E+02 0.  0.
         13    1    3    3    0    0  0.13261480144E+04  0.47711121634E+03 -0.12330430004E+03  0.14147464859E+04  0.00000000000E+00 0. -1.
        -13    1    3    3    0    0  0.83154907743E+03  0.37217697302E+03 -0.66859388941E+02  0.91348768208E+03  0.00000000000E+00 0.  1.
         22    1    1    2    0    0 -0.21576970918E+04 -0.84928818936E+03  0.13758239413E+04  0.26962638384E+04  0.00000000000E+00 0.  1.
<mgrwt>
<rscale>  0 0.48826007E+04</rscale>
<asrwt>0</asrwt>
<pdfrwt beam="1">  1        2 0.47770448E+00 0.48826007E+04</pdfrwt>
<pdfrwt beam="2">  1       -2 0.29529521E+00 0.48826007E+04</pdfrwt>
<totfact> 0.37248434E-02</totfact>
</mgrwt>
</event>
<event>
 6    1  0.1934315E-005  0.2232299E+04  0.7818608E-02  0.8505103E-01
         -2   -1    0    0    0  501 -0.00000000000E+00  0.00000000000E+00  0.10536975201E+04  0.10536975201E+04  0.00000000000E+00 0. -1.
          2   -1    0    0  501    0  0.00000000000E+00 -0.00000000000E+00 -0.11823033067E+04  0.11823033067E+04  0.00000000000E+00 0.  1.
         23    2    1    2    0    0  0.53764185658E+03 -0.92716260879E+03 -0.36978198992E+03  0.11374311977E+04  0.91223573058E+02 0.  0.
         11    1    3    3    0    0  0.30815110609E+03 -0.51570147601E+03 -0.25424345770E+03  0.65233798933E+03  0.00000000000E+00 0. -1.
        -11    1    3    3    0    0  0.22949075050E+03 -0.41146113278E+03 -0.11553853222E+03  0.48509320834E+03  0.00000000000E+00 0.  1.
         22    1    1    2    0    0 -0.53764185658E+03  0.92716260879E+03  0.24117620329E+03  0.10985696292E+04  0.00000000000E+00 0. -1.
<mgrwt>
<rscale>  0 0.22322993E+04</rscale>
<asrwt>0</asrwt>
<pdfrwt beam="1">  1        2 0.18189282E+00 0.22322993E+04</pdfrwt>
<pdfrwt beam="2">  1       -2 0.16210731E+00 0.22322993E+04</pdfrwt>
<totfact> 0.43007028E+00</totfact>
</mgrwt>
</event>
<event>
 6    1  0.1934315E-005  0.2547188E+04  0.7818608E-02  0.8386365E-01
         -2   -1    0    0    0  501 -0.00000000000E+00  0.00000000000E+00  0.45139748700E+03  0.45139748700E+03  0.00000000000E+00 0. -1.
          2   -1    0    0  501    0  0.00000000000E+00 -0.00000000000E+00 -0.35933766026E+04  0.35933766026E+04  0.00000000000E+00 0.  1.
         23    2    1    2    0    0  0.12298365043E+04 -0.28992636259E+03 -0.13411021001E+04  0.18448392842E+04  0.91225097650E+02 0.  0.
         11    1    3    3    0    0  0.14927825089E+03 -0.34744328867E+02 -0.20882607263E+03  0.25903569867E+03  0.00000000000E+00 0. -1.
        -11    1    3    3    0    0  0.10805582535E+04 -0.25518203372E+03 -0.11322760275E+04  0.15858035855E+04  0.00000000000E+00 0.  1.
         22    1    1    2    0    0 -0.12298365043E+04  0.28992636259E+03 -0.18008770155E+04  0.21999348054E+04  0.00000000000E+00 0.  1.
<mgrwt>
<rscale>  0 0.25471876E+04</rscale>
<asrwt>0</asrwt>
<pdfrwt beam="1">  1        2 0.55282719E+00 0.25471876E+04</pdfrwt>
<pdfrwt beam="2">  1       -2 0.69445765E-01 0.25471876E+04</pdfrwt>
<totfact> 0.11744796E+00</totfact>
</mgrwt>
</event>
<event>
 6    1  0.1934315E-005  0.3146883E+04  0.7818608E-02  0.8202988E-01
         -2   -1    0    0    0  501 -0.00000000000E+00  0.00000000000E+00  0.10386616985E+04  0.10386616985E+04  0.00000000000E+00 0. -1.
          2   -1    0    0  501    0  0.00000000000E+00 -0.00000000000E+00 -0.23835655813E+04  0.23835655813E+04  0.00000000000E+00 0.  1.
         23    2    1    2    0    0  0.71658023004E+03  0.98803185000E+03 -0.17505713651E+04  0.21360467836E+04  0.92204092836E+02 0.  0.
         13    1    3    3    0    0  0.49906967285E+03  0.70747231673E+03 -0.13099595740E+04  0.15702170878E+04  0.00000000000E+00 0. -1.
        -13    1    3    3    0    0  0.21751055718E+03  0.28055953327E+03 -0.44061179107E+03  0.56582969578E+03  0.00000000000E+00 0.  1.
         22    1    1    2    0    0 -0.71658023004E+03 -0.98803185000E+03  0.40566748228E+03  0.12861804962E+04  0.00000000000E+00 0. -1.
<mgrwt>
<rscale>  0 0.31468831E+04</rscale>
<asrwt>0</asrwt>
<pdfrwt beam="1">  1        2 0.36670239E+00 0.31468831E+04</pdfrwt>
<pdfrwt beam="2">  1       -2 0.15979411E+00 0.31468831E+04</pdfrwt>
<totfact> 0.86843857E-01</totfact>
</mgrwt>
</event>
<event>
 6    1  0.1934315E-005  0.6349187E+04  0.7818608E-02  0.7648553E-01
          2   -1    0    0  501    0  0.00000000000E+00  0.00000000000E+00  0.32870643083E+04  0.32870643083E+04  0.00000000000E+00 0.  1.
         -2   -1    0    0    0  501 -0.00000000000E+00 -0.00000000000E+00 -0.30659711448E+04  0.30659711448E+04  0.00000000000E+00 0. -1.
         23    2    1    2    0    0 -0.84781877923E+02 -0.94197497092E+03  0.31421778055E+04  0.32826543208E+04  0.89628208403E+02 0.  0.
         13    1    3    3    0    0 -0.85306522747E+02 -0.74769143105E+03  0.23823978162E+04  0.24984273121E+04  0.00000000000E+00 0.  1.
        -13    1    3    3    0    0  0.52464482376E+00 -0.19428353987E+03  0.75977998924E+03  0.78422700869E+03  0.00000000000E+00 0. -1.
         22    1    1    2    0    0  0.84781877923E+02  0.94197497092E+03 -0.29210846420E+04  0.30703811324E+04  0.00000000000E+00 0. -1.
<mgrwt>
<rscale>  0 0.63491871E+04</rscale>
<asrwt>0</asrwt>
<pdfrwt beam="1">  1        2 0.50570220E+00 0.63491871E+04</pdfrwt>
<pdfrwt beam="2">  1       -2 0.47168787E+00 0.63491871E+04</pdfrwt>
<totfact> 0.18741534E-03</totfact>
</mgrwt>
</event>
<event>
 6    1  0.1934315E-005  0.4846280E+04  0.7818608E-02  0.7852667E-01
          2   -1    0    0  501    0  0.00000000000E+00  0.00000000000E+00  0.41478135561E+04  0.41478135561E+04  0.00000000000E+00 0.  1.
         -2   -1    0    0    0  501 -0.00000000000E+00 -0.00000000000E+00 -0.14155910278E+04  0.14155910278E+04  0.00000000000E+00 0. -1.
         23    2    1    2    0    0  0.17007426590E+03 -0.13727031448E+04  0.36493797150E+04  0.39037611027E+04  0.90217864430E+02 0.  0.
         13    1    3    3    0    0  0.93852684477E+02 -0.45552766750E+03  0.12845262180E+04  0.13661337368E+04  0.00000000000E+00 0.  1.
        -13    1    3    3    0    0  0.76221581420E+02 -0.91717547730E+03  0.23648534970E+04  0.25376273658E+04  0.00000000000E+00 0. -1.
         22    1    1    2    0    0 -0.17007426590E+03  0.13727031448E+04 -0.91715718672E+03  0.16596434812E+04  0.00000000000E+00 0. -1.
<mgrwt>
<rscale>  0 0.48462801E+04</rscale>
<asrwt>0</asrwt>
<pdfrwt beam="1">  1        2 0.63812516E+00 0.48462801E+04</pdfrwt>
<pdfrwt beam="2">  1       -2 0.21778324E+00 0.48462801E+04</pdfrwt>
<totfact> 0.19290146E-02</totfact>
</mgrwt>
</event>
<event>
 6    1  0.1934315E-005  0.3011988E+04  0.7818608E-02  0.8240316E-01
          2   -1    0    0  501    0  0.00000000000E+00  0.00000000000E+00  0.23890120940E+04  0.23890120940E+04  0.00000000000E+00 0.  1.
         -2   -1    0    0    0  501 -0.00000000000E+00 -0.00000000000E+00 -0.94935389699E+03  0.94935389699E+03  0.00000000000E+00 0. -1.
         23    2    1    2    0    0 -0.26330482105E+03 -0.13863989141E+04  0.12989694746E+04  0.19201894525E+04  0.91512075570E+02 0.  0.
         13    1    3    3    0    0 -0.19684264131E+03 -0.95921579944E+03  0.84634239954E+03  0.12942710043E+04  0.00000000000E+00 0. -1.
        -13    1    3    3    0    0 -0.66462179746E+02 -0.42718311464E+03  0.45262707503E+03  0.62591844822E+03  0.00000000000E+00 0.  1.
         22    1    1    2    0    0  0.26330482105E+03  0.13863989141E+04  0.14068872248E+03  0.14181765385E+04  0.00000000000E+00 0. -1.
<mgrwt>
<rscale>  0 0.30119880E+04</rscale>
<asrwt>0</asrwt>
<pdfrwt beam="1">  1        2 0.36754032E+00 0.30119880E+04</pdfrwt>
<pdfrwt beam="2">  1       -2 0.14605445E+00 0.30119880E+04</pdfrwt>
<totfact> 0.11088028E+00</totfact>
</mgrwt>
</event>
<event>
 6    1  0.1934315E-005  0.1465492E+04  0.7818608E-02  0.8907730E-01
         -2   -1    0    0    0  501 -0.00000000000E+00  0.00000000000E+00  0.47556222313E+03  0.47556222313E+03  0.00000000000E+00 0. -1.
          2   -1    0    0  501    0  0.00000000000E+00 -0.00000000000E+00 -0.11290151294E+04  0.11290151294E+04  0.00000000000E+00 0.  1.
         23    2    1    2    0    0  0.26857652101E+03 -0.59464981012E+03 -0.68625541874E+03  0.95126444957E+03  0.90641099733E+02 0.  0.
         13    1    3    3    0    0  0.28400423753E+02 -0.17334034401E+02 -0.39996039998E+02  0.52026301363E+02  0.00000000000E+00 0.  1.
        -13    1    3    3    0    0  0.24017609726E+03 -0.57731577572E+03 -0.64625937874E+03  0.89923814821E+03  0.00000000000E+00 0. -1.
         22    1    1    2    0    0 -0.26857652101E+03  0.59464981012E+03  0.32802512503E+02  0.65331290293E+03  0.00000000000E+00 0. -1.
<mgrwt>
<rscale>  0 0.14654923E+04</rscale>
<asrwt>0</asrwt>
<pdfrwt beam="1">  1        2 0.17369464E+00 0.14654923E+04</pdfrwt>
<pdfrwt beam="2">  1       -2 0.73163419E-01 0.14654923E+04</pdfrwt>
<totfact> 0.34171989E+01</totfact>
</mgrwt>
</event>
<event>
 6    1  0.1934315E-005  0.4571197E+04  0.7818608E-02  0.7898289E-01
         -2   -1    0    0    0  501 -0.00000000000E+00  0.00000000000E+00  0.15408363564E+04  0.15408363564E+04  0.00000000000E+00 0. -1.
          2   -1    0    0  501    0  0.00000000000E+00 -0.00000000000E+00 -0.33903409975E+04  0.33903409975E+04  0.00000000000E+00 0.  1.
         23    2    1    2    0    0 -0.61444637575E+03 -0.21393533009E+04 -0.36919091867E+03  0.22580320882E+04  0.89610725592E+02 0.  0.
         13    1    3    3    0    0 -0.36224177793E+03 -0.13462957216E+04 -0.26808194045E+03  0.14197180011E+04  0.00000000000E+00 0. -1.
        -13    1    3    3    0    0 -0.25220459782E+03 -0.79305757932E+03 -0.10110897822E+03  0.83831408718E+03  0.00000000000E+00 0.  1.
         22    1    1    2    0    0  0.61444637575E+03  0.21393533009E+04 -0.14803137224E+04  0.26731452657E+04  0.00000000000E+00 0.  1.
<mgrwt>
<rscale>  0 0.45711971E+04</rscale>
<asrwt>0</asrwt>
<pdfrwt beam="1">  1        2 0.52159092E+00 0.45711971E+04</pdfrwt>
<pdfrwt beam="2">  1       -2 0.23705175E+00 0.45711971E+04</pdfrwt>
<totfact> 0.56257070E-02</totfact>
</mgrwt>
</event>
<event>
 6    1  0.1934315E-005  0.2925686E+04  0.7818608E-02  0.8265276E-01
         -2   -1    0    0    0  501 -0.00000000000E+00  0.00000000000E+00  0.21042941558E+04  0.21042941558E+04  0.00000000000E+00 0. -1.
          2   -1    0    0  501    0  0.00000000000E+00 -0.00000000000E+00 -0.10169253111E+04  0.10169253111E+04  0.00000000000E+00 0.  1.
         23    2    1    2    0    0 -0.15443938265E+03  0.98681508201E+03 -0.59392478003E+03  0.11656111775E+04  0.90814336944E+02 0.  0.
         11    1    3    3    0    0 -0.64068174661E+02  0.23863550787E+03 -0.11369615300E+03  0.27198980096E+03  0.00000000000E+00 0.  1.
        -11    1    3    3    0    0 -0.90371207992E+02  0.74817957414E+03 -0.48022862703E+03  0.89362137654E+03  0.00000000000E+00 0. -1.
         22    1    1    2    0    0  0.15443938265E+03 -0.98681508201E+03  0.16812936247E+04  0.19556082894E+04  0.00000000000E+00 0. -1.
<mgrwt>
<rscale>  0 0.29256862E+04</rscale>
<asrwt>0</asrwt>
<pdfrwt beam="1">  1        2 0.15645005E+00 0.29256862E+04</pdfrwt>
<pdfrwt beam="2">  1       -2 0.32373756E+00 0.29256862E+04</pdfrwt>
<totfact> 0.48029307E-01</totfact>
</mgrwt>
</event>
<event>
 6    1  0.1934315E-005  0.1980422E+04  0.7818608E-02  0.8615829E-01
         -2   -1    0    0    0  501 -0.00000000000E+00  0.00000000000E+00  0.36618438427E+03  0.36618438427E+03  0.00000000000E+00 0.  1.
          2   -1    0    0  501    0  0.00000000000E+00 -0.00000000000E+00 -0.26776607210E+04  0.26776607210E+04  0.00000000000E+00 0. -1.
         23    2    1    2    0    0 -0.98218973342E+03 -0.50596595390E+02 -0.10156137380E+04  0.14170333268E+04  0.96205490679E+02 0.  0.
         11    1    3    3    0    0 -0.52663901183E+03 -0.23589177972E+02 -0.61263961416E+03  0.80822793502E+03  0.00000000000E+00 0. -1.
        -11    1    3    3    0    0 -0.45555072159E+03 -0.27007417418E+02 -0.40297412385E+03  0.60880539175E+03  0.00000000000E+00 0.  1.
         22    1    1    2    0    0  0.98218973342E+03  0.50596595390E+02 -0.12958625987E+04  0.16268117785E+04  0.00000000000E+00 0. -1.
<mgrwt>
<rscale>  0 0.19804217E+04</rscale>
<asrwt>0</asrwt>
<pdfrwt beam="1">  1        2 0.41194779E+00 0.19804217E+04</pdfrwt>
<pdfrwt beam="2">  1       -2 0.56336061E-01 0.19804217E+04</pdfrwt>
<totfact> 0.75428596E+00</totfact>
</mgrwt>
</event>
<event>
 6    1  0.1934315E-005  0.1428781E+04  0.7818608E-02  0.8933245E-01
          2   -1    0    0  501    0  0.00000000000E+00  0.00000000000E+00  0.34984688171E+04  0.34984688171E+04  0.00000000000E+00 0.  1.
         -2   -1    0    0    0  501 -0.00000000000E+00 -0.00000000000E+00 -0.14587921858E+03  0.14587921858E+03  0.00000000000E+00 0. -1.
         23    2    1    2    0    0  0.49644227933E+03 -0.12463822705E+03  0.42309229604E+03  0.67047109311E+03  0.92383826388E+02 0.  0.
         11    1    3    3    0    0  0.35383984404E+03 -0.68725182376E+02  0.24636065277E+03  0.43659976770E+03  0.00000000000E+00 0.  1.
        -11    1    3    3    0    0  0.14260243529E+03 -0.55913044678E+02  0.17673164327E+03  0.23387132541E+03  0.00000000000E+00 0. -1.
         22    1    1    2    0    0 -0.49644227933E+03  0.12463822705E+03  0.29294973025E+04  0.29738769426E+04  0.00000000000E+00 0.  1.
<mgrwt>
<rscale>  0 0.14287812E+04</rscale>
<asrwt>0</asrwt>
<pdfrwt beam="1">  1        2 0.53822591E+00 0.14287812E+04</pdfrwt>
<pdfrwt beam="2">  1       -2 0.22442959E-01 0.14287812E+04</pdfrwt>
<totfact> 0.14019105E+01</totfact>
</mgrwt>
</event>
<event>
 6    1  0.1934315E-005  0.4061770E+04  0.7818608E-02  0.7992200E-01
         -1   -1    0    0    0  501 -0.00000000000E+00  0.00000000000E+00  0.15209352013E+04  0.15209352013E+04  0.00000000000E+00 0. -1.
          1   -1    0    0  501    0  0.00000000000E+00 -0.00000000000E+00 -0.27118148829E+04  0.27118148829E+04  0.00000000000E+00 0.  1.
         23    2    1    2    0    0  0.13633134561E+04 -0.10997699154E+04  0.47312352373E+03  0.18167566832E+04  0.92959833866E+02 0.  0.
         11    1    3    3    0    0  0.11459497935E+04 -0.88822699209E+03  0.41288764285E+03  0.15075225784E+04  0.00000000000E+00 0. -1.
        -11    1    3    3    0    0  0.21736366265E+03 -0.21154292326E+03  0.60235880874E+02  0.30923410479E+03  0.00000000000E+00 0.  1.
         22    1    1    2    0    0 -0.13633134561E+04  0.10997699154E+04 -0.16640032054E+04  0.24159934011E+04  0.00000000000E+00 0.  1.
<mgrwt>
<rscale>  0 0.40617704E+04</rscale>
<asrwt>0</asrwt>
<pdfrwt beam="1">  1        1 0.41720228E+00 0.40617704E+04</pdfrwt>
<pdfrwt beam="2">  1       -1 0.23399003E+00 0.40617704E+04</pdfrwt>
<totfact> 0.66575959E-02</totfact>
</mgrwt>
</event>
<event>
 6    1  0.1934315E-005  0.4871822E+04  0.7818608E-02  0.7848590E-01
          2   -1    0    0  501    0  0.00000000000E+00  0.00000000000E+00  0.30405251524E+04  0.30405251524E+04  0.00000000000E+00 0.  1.
         -2   -1    0    0    0  501 -0.00000000000E+00 -0.00000000000E+00 -0.19515255606E+04  0.19515255606E+04  0.00000000000E+00 0. -1.
         23    2    1    2    0    0  0.51047769780E+03 -0.65848129988E+03  0.28891390079E+04  0.30084461607E+04  0.97154476661E+02 0.  0.
         13    1    3    3    0    0  0.41535438258E+03 -0.51638203514E+03  0.24206855718E+04  0.25097586153E+04  0.00000000000E+00 0. -1.
        -13    1    3    3    0    0  0.95123315221E+02 -0.14209926474E+03  0.46845343612E+03  0.49868754542E+03  0.00000000000E+00 0.  1.
         22    1    1    2    0    0 -0.51047769780E+03  0.65848129988E+03 -0.18001394161E+04  0.19836045522E+04  0.00000000000E+00 0. -1.
<mgrwt>
<rscale>  0 0.48718221E+04</rscale>
<asrwt>0</asrwt>
<pdfrwt beam="1">  1        2 0.46777310E+00 0.48718221E+04</pdfrwt>
<pdfrwt beam="2">  1       -2 0.30023470E+00 0.48718221E+04</pdfrwt>
<totfact> 0.38228621E-02</totfact>
</mgrwt>
</event>
<event>
 6    1  0.1934315E-005  0.9623995E+03  0.7818608E-02  0.9350774E-01
          2   -1    0    0  501    0  0.00000000000E+00  0.00000000000E+00  0.33576250887E+03  0.33576250887E+03  0.00000000000E+00 0.  1.
         -2   -1    0    0    0  501 -0.00000000000E+00 -0.00000000000E+00 -0.68963386568E+03  0.68963386568E+03  0.00000000000E+00 0. -1.
         23    2    1    2    0    0  0.17539071810E+02  0.39127494831E+03 -0.46860903903E+03  0.61726840449E+03  0.89566441873E+02 0.  0.
         13    1    3    3    0    0 -0.29936422119E+02  0.25296828210E+03 -0.27851383438E+03  0.37743754060E+03  0.00000000000E+00 0. -1.
        -13    1    3    3    0    0  0.47475493929E+02  0.13830666622E+03 -0.19009520465E+03  0.23983086389E+03  0.00000000000E+00 0.  1.
         22    1    1    2    0    0 -0.17539071810E+02 -0.39127494831E+03  0.11473768222E+03  0.40812797005E+03  0.00000000000E+00 0.  1.
<mgrwt>
<rscale>  0 0.96239949E+03</rscale>
<asrwt>0</asrwt>
<pdfrwt beam="1">  1        2 0.51655771E-01 0.96239949E+03</pdfrwt>
<pdfrwt beam="2">  1       -2 0.10609752E+00 0.96239949E+03</pdfrwt>
<totfact> 0.69428993E+01</totfact>
</mgrwt>
</event>
<event>
 6    1  0.1934315E-005  0.1518114E+04  0.7818608E-02  0.8872496E-01
          2   -1    0    0  501    0  0.00000000000E+00  0.00000000000E+00  0.17056045001E+04  0.17056045001E+04  0.00000000000E+00 0.  1.
         -2   -1    0    0    0  501 -0.00000000000E+00 -0.00000000000E+00 -0.33780830281E+03  0.33780830281E+03  0.00000000000E+00 0. -1.
         23    2    1    2    0    0  0.29761911291E+03  0.54370205295E+03  0.10224062277E+03  0.63422155579E+03  0.87148024237E+02 0.  0.
         13    1    3    3    0    0  0.19796815781E+03  0.29490908830E+03  0.87476910469E+02  0.36580728770E+03  0.00000000000E+00 0.  1.
        -13    1    3    3    0    0  0.99650955101E+02  0.24879296465E+03  0.14763712300E+02  0.26841426809E+03  0.00000000000E+00 0. -1.
         22    1    1    2    0    0 -0.29761911291E+03 -0.54370205295E+03  0.12655555745E+04  0.14091912471E+04  0.00000000000E+00 0.  1.
<mgrwt>
<rscale>  0 0.15181138E+04</rscale>
<asrwt>0</asrwt>
<pdfrwt beam="1">  1        2 0.26240069E+00 0.15181138E+04</pdfrwt>
<pdfrwt beam="2">  1       -2 0.51970509E-01 0.15181138E+04</pdfrwt>
<totfact> 0.32838633E+01</totfact>
</mgrwt>
</event>
<event>
 6    1  0.1934315E-005  0.2040021E+04  0.7818608E-02  0.8588135E-01
         -2   -1    0    0    0  501 -0.00000000000E+00  0.00000000000E+00  0.27036664477E+03  0.27036664477E+03  0.00000000000E+00 0.  1.
          2   -1    0    0  501    0  0.00000000000E+00 -0.00000000000E+00 -0.38481864053E+04  0.38481864053E+04  0.00000000000E+00 0. -1.
         23    2    1    2    0    0 -0.81193309752E+03  0.59534487908E+03 -0.20964853878E+04  0.23274577417E+04  0.90209079956E+02 0.  0.
         11    1    3    3    0    0 -0.62158084004E+03  0.46538692033E+03 -0.16978403631E+04  0.18669787425E+04  0.00000000000E+00 0.  1.
        -11    1    3    3    0    0 -0.19035225749E+03  0.12995795876E+03 -0.39864502466E+03  0.46047899915E+03  0.00000000000E+00 0. -1.
         22    1    1    2    0    0  0.81193309752E+03 -0.59534487908E+03 -0.14813343727E+04  0.17910953084E+04  0.00000000000E+00 0.  1.
<mgrwt>
<rscale>  0 0.20400208E+04</rscale>
<asrwt>0</asrwt>
<pdfrwt beam="1">  1        2 0.59202864E+00 0.20400208E+04</pdfrwt>
<pdfrwt beam="2">  1       -2 0.41594871E-01 0.20400208E+04</pdfrwt>
<totfact> 0.23065612E+00</totfact>
</mgrwt>
</event>
<event>
 6    1  0.1934315E-005  0.1760584E+04  0.7818608E-02  0.8727546E-01
          2   -1    0    0  501    0  0.00000000000E+00  0.00000000000E+00  0.79658664396E+03  0.79658664396E+03  0.00000000000E+00 0.  1.
         -2   -1    0    0    0  501 -0.00000000000E+00 -0.00000000000E+00 -0.97279363786E+03  0.97279363786E+03  0.00000000000E+00 0. -1.
         23    2    1    2    0    0 -0.55163347346E+03 -0.11432886250E+03  0.58842851956E+03  0.81962344647E+03  0.90354266766E+02 0.  0.
         11    1    3    3    0    0 -0.17861415889E+03 -0.65227758259E+02  0.15221984113E+03  0.24357454349E+03  0.00000000000E+00 0.  1.
        -11    1    3    3    0    0 -0.37301931457E+03 -0.49101104238E+02  0.43620867843E+03  0.57604890298E+03  0.00000000000E+00 0. -1.
         22    1    1    2    0    0  0.55163347346E+03  0.11432886250E+03 -0.76463551346E+03  0.94975683535E+03  0.00000000000E+00 0. -1.
<mgrwt>
<rscale>  0 0.17605845E+04</rscale>
<asrwt>0</asrwt>
<pdfrwt beam="1">  1        2 0.12255179E+00 0.17605845E+04</pdfrwt>
<pdfrwt beam="2">  1       -2 0.14966056E+00 0.17605845E+04</pdfrwt>
<totfact> 0.98851822E+00</totfact>
</mgrwt>
</event>
<event>
 6    1  0.1934315E-005  0.4207591E+04  0.7818608E-02  0.7963930E-01
          2   -1    0    0  501    0  0.00000000000E+00  0.00000000000E+00  0.34844579265E+04  0.34844579265E+04  0.00000000000E+00 0.  1.
         -2   -1    0    0    0  501 -0.00000000000E+00 -0.00000000000E+00 -0.12701990511E+04  0.12701990511E+04  0.00000000000E+00 0. -1.
         23    2    1    2    0    0 -0.17497117450E+04  0.75477585261E+03  0.10285009228E+03  0.19105007182E+04  0.90868446867E+02 0.  0.
         13    1    3    3    0    0 -0.15436441098E+04  0.65258194459E+03  0.11740026754E+03  0.16800247483E+04  0.00000000000E+00 0.  1.
        -13    1    3    3    0    0 -0.20606763519E+03  0.10219390802E+03 -0.14550175259E+02  0.23047596992E+03  0.00000000000E+00 0. -1.
         22    1    1    2    0    0  0.17497117450E+04 -0.75477585261E+03  0.21114087832E+04  0.28441562594E+04  0.00000000000E+00 0.  1.
<mgrwt>
<rscale>  0 0.42075908E+04</rscale>
<asrwt>0</asrwt>
<pdfrwt beam="1">  1        2 0.53607045E+00 0.42075908E+04</pdfrwt>
<pdfrwt beam="2">  1       -2 0.19541524E+00 0.42075908E+04</pdfrwt>
<totfact> 0.92056609E-02</totfact>
</mgrwt>
</event>
<event>
 6    1  0.1934315E-005  0.3338113E+04  0.7818608E-02  0.8153265E-01
         -2   -1    0    0    0  501 -0.00000000000E+00  0.00000000000E+00  0.12417610902E+04  0.12417610902E+04  0.00000000000E+00 0. -1.
          2   -1    0    0  501    0  0.00000000000E+00 -0.00000000000E+00 -0.22433859932E+04  0.22433859932E+04  0.00000000000E+00 0.  1.
         23    2    1    2    0    0  0.60355352240E+00 -0.12032117762E+04  0.70439570644E+03  0.13975107974E+04  0.95625179355E+02 0.  0.
         11    1    3    3    0    0  0.41243833148E+02 -0.54061266018E+03  0.28874756309E+03  0.61427864794E+03  0.00000000000E+00 0. -1.
        -11    1    3    3    0    0 -0.40640279625E+02 -0.66259911599E+03  0.41564814335E+03  0.78323214944E+03  0.00000000000E+00 0.  1.
         22    1    1    2    0    0 -0.60355352240E+00  0.12032117762E+04 -0.17060206095E+04  0.20876362860E+04  0.00000000000E+00 0.  1.
<mgrwt>
<rscale>  0 0.33381129E+04</rscale>
<asrwt>0</asrwt>
<pdfrwt beam="1">  1        2 0.34513631E+00 0.33381129E+04</pdfrwt>
<pdfrwt beam="2">  1       -2 0.19104017E+00 0.33381129E+04</pdfrwt>
<totfact> 0.61988218E-01</totfact>
</mgrwt>
</event>
<event>
 6    1  0.1934315E-005  0.1029700E+04  0.7818608E-02  0.9276557E-01
         -2   -1    0    0    0  501 -0.00000000000E+00  0.00000000000E+00  0.24355758966E+03  0.24355758966E+03  0.00000000000E+00 0. -1.
          2   -1    0    0  501    0  0.00000000000E+00 -0.00000000000E+00 -0.10883270699E+04  0.10883270699E+04  0.00000000000E+00 0.  1.
         23    2    1    2    0    0  0.17020864849E+02 -0.12192002783E+03 -0.10668933563E+04  0.10779295073E+04  0.92284267552E+02 0.  0.
         13    1    3    3    0    0 -0.31757418464E+02 -0.60032710289E+02 -0.33560495350E+03  0.34240786315E+03  0.00000000000E+00 0. -1.
        -13    1    3    3    0    0  0.48778283314E+02 -0.61887317540E+02 -0.73128840279E+03  0.73552164418E+03  0.00000000000E+00 0.  1.
         22    1    1    2    0    0 -0.17020864849E+02  0.12192002783E+03  0.22212387606E+03  0.25395515222E+03  0.00000000000E+00 0. -1.
<mgrwt>
<rscale>  0 0.10296996E+04</rscale>
<asrwt>0</asrwt>
<pdfrwt beam="1">  1        2 0.16743493E+00 0.10296996E+04</pdfrwt>
<pdfrwt beam="2">  1       -2 0.37470399E-01 0.10296996E+04</pdfrwt>
<totfact> 0.14817439E+02</totfact>
</mgrwt>
</event>
<event>
 6    1  0.1934315E-005  0.6283209E+04  0.7818608E-02  0.7656246E-01
          2   -1    0    0  501    0  0.00000000000E+00  0.00000000000E+00  0.46807905754E+04  0.46807905754E+04  0.00000000000E+00 0. -1.
         -2   -1    0    0    0  501 -0.00000000000E+00 -0.00000000000E+00 -0.21085498771E+04  0.21085498771E+04  0.00000000000E+00 0.  1.
         23    2    1    2    0    0  0.23707501860E+04 -0.17954023661E+04  0.23780440608E+04  0.38091326687E+04  0.10233294829E+03 0.  0.
         11    1    3    3    0    0  0.39973223164E+03 -0.33845064443E+03  0.45317962295E+03  0.69260845099E+03  0.00000000000E+00 0. -1.
        -11    1    3    3    0    0  0.19710179544E+04 -0.14569517216E+04  0.19248644378E+04  0.31165242177E+04  0.00000000000E+00 0.  1.
         22    1    1    2    0    0 -0.23707501860E+04  0.17954023661E+04  0.19419663751E+03  0.29802077838E+04  0.00000000000E+00 0.  1.
<mgrwt>
<rscale>  0 0.62832095E+04</rscale>
<asrwt>0</asrwt>
<pdfrwt beam="1">  1        2 0.72012163E+00 0.62832095E+04</pdfrwt>
<pdfrwt beam="2">  1       -2 0.32439229E+00 0.62832095E+04</pdfrwt>
<totfact> 0.11735367E-03</totfact>
</mgrwt>
</event>
<event>
 6    1  0.1934315E-005  0.1595733E+04  0.7818608E-02  0.8823174E-01
         -2   -1    0    0    0  501 -0.00000000000E+00  0.00000000000E+00  0.23547786897E+03  0.23547786897E+03  0.00000000000E+00 0. -1.
          2   -1    0    0  501    0  0.00000000000E+00 -0.00000000000E+00 -0.27034003512E+04  0.27034003512E+04  0.00000000000E+00 0.  1.
         23    2    1    2    0    0 -0.46179619223E+03 -0.64749595675E+03 -0.12501633599E+04  0.14844216147E+04  0.89957582293E+02 0.  0.
         13    1    3    3    0    0 -0.34376778846E+03 -0.43742628899E+03 -0.81071417625E+03  0.98324743898E+03  0.00000000000E+00 0. -1.
        -13    1    3    3    0    0 -0.11802840377E+03 -0.21006966776E+03 -0.43944918366E+03  0.50117417575E+03  0.00000000000E+00 0.  1.
         22    1    1    2    0    0  0.46179619223E+03  0.64749595675E+03 -0.12177591223E+04  0.14544566055E+04  0.00000000000E+00 0. -1.
<mgrwt>
<rscale>  0 0.15957330E+04</rscale>
<asrwt>0</asrwt>
<pdfrwt beam="1">  1        2 0.41590775E+00 0.15957330E+04</pdfrwt>
<pdfrwt beam="2">  1       -2 0.36227364E-01 0.15957330E+04</pdfrwt>
<totfact> 0.18242647E+01</totfact>
</mgrwt>
</event>
<event>
 6    1  0.1934315E-005  0.1110984E+04  0.7818608E-02  0.9194552E-01
          2   -1    0    0  501    0  0.00000000000E+00  0.00000000000E+00  0.34765961398E+03  0.34765961398E+03  0.00000000000E+00 0.  1.
         -2   -1    0    0    0  501 -0.00000000000E+00 -0.00000000000E+00 -0.88756764480E+03  0.88756764480E+03  0.00000000000E+00 0. -1.
         23    2    1    2    0    0 -0.85051403138E+02  0.40312750078E+02 -0.87628576946E+03  0.88592961772E+03  0.90197997736E+02 0.  0.
         13    1    3    3    0    0 -0.52703202044E+02  0.47599140727E+02 -0.28499432490E+03  0.29370916045E+03  0.00000000000E+00 0. -1.
        -13    1    3    3    0    0 -0.32348201094E+02 -0.72863906489E+01 -0.59129144456E+03  0.59222045727E+03  0.00000000000E+00 0.  1.
         22    1    1    2    0    0  0.85051403138E+02 -0.40312750078E+02  0.33637773864E+03  0.34929764106E+03  0.00000000000E+00 0.  1.
<mgrwt>
<rscale>  0 0.11109841E+04</rscale>
<asrwt>0</asrwt>
<pdfrwt beam="1">  1        2 0.53486095E-01 0.11109841E+04</pdfrwt>
<pdfrwt beam="2">  1       -2 0.13654887E+00 0.11109841E+04</pdfrwt>
<totfact> 0.35366201E+01</totfact>
</mgrwt>
</event>
<event>
 6    1  0.1934315E-005  0.2371756E+04  0.7818608E-02  0.8450154E-01
         -2   -1    0    0    0  501 -0.00000000000E+00  0.00000000000E+00  0.93424113005E+03  0.93424113005E+03  0.00000000000E+00 0. -1.
          2   -1    0    0  501    0  0.00000000000E+00 -0.00000000000E+00 -0.15052929071E+04  0.15052929071E+04  0.00000000000E+00 0.  1.
         23    2    1    2    0    0 -0.17926780085E+02  0.98999101702E+03  0.38140327279E+03  0.10656438650E+04  0.98614437349E+02 0.  0.
         13    1    3    3    0    0  0.13203863467E+02  0.36770105628E+02  0.29917769876E+02  0.49208288252E+02  0.00000000000E+00 0. -1.
        -13    1    3    3    0    0 -0.31130643552E+02  0.95322091139E+03  0.35148550291E+03  0.10164355767E+04  0.00000000000E+00 0.  1.
         22    1    1    2    0    0  0.17926780085E+02 -0.98999101702E+03 -0.95245504983E+03  0.13738901722E+04  0.00000000000E+00 0. -1.
<mgrwt>
<rscale>  0 0.23717559E+04</rscale>
<asrwt>0</asrwt>
<pdfrwt beam="1">  1        2 0.23158352E+00 0.23717559E+04</pdfrwt>
<pdfrwt beam="2">  1       -2 0.14372941E+00 0.23717559E+04</pdfrwt>
<totfact> 0.38109168E+00</totfact>
</mgrwt>
</event>
<event>
 6    1  0.1934315E-005  0.5864461E+03  0.7818608E-02  0.9933932E-01
          2   -1    0    0  501    0  0.00000000000E+00  0.00000000000E+00  0.35998554235E+03  0.35998554235E+03  0.00000000000E+00 0.  1.
         -2   -1    0    0    0  501 -0.00000000000E+00 -0.00000000000E+00 -0.23884224587E+03  0.23884224587E+03  0.00000000000E+00 0. -1.
         23    2    1    2    0    0 -0.25210949531E+02 -0.11581351382E+03 -0.20398071703E+03  0.25277289933E+03  0.90761466238E+02 0.  0.
         11    1    3    3    0    0  0.35271594487E+01  0.12834775454E+02 -0.41287708865E+02  0.43380263001E+02  0.00000000000E+00 0. -1.
        -11    1    3    3    0    0 -0.28738108980E+02 -0.12864828928E+03 -0.16269300817E+03  0.20939263633E+03  0.00000000000E+00 0.  1.
         22    1    1    2    0    0  0.25210949531E+02  0.11581351382E+03  0.32512401352E+03  0.34605488889E+03  0.00000000000E+00 0.  1.
<mgrwt>
<rscale>  0 0.58644609E+03</rscale>
<asrwt>0</asrwt>
<pdfrwt beam="1">  1        2 0.55382391E-01 0.58644609E+03</pdfrwt>
<pdfrwt beam="2">  1       -2 0.36744961E-01 0.58644609E+03</pdfrwt>
<totfact> 0.62877667E+02</totfact>
</mgrwt>
</event>
<event>
 6    1  0.1934315E-005  0.1678596E+04  0.7818608E-02  0.8773667E-01
         -2   -1    0    0    0  501 -0.00000000000E+00  0.00000000000E+00  0.33735546010E+03  0.33735546010E+03  0.00000000000E+00 0. -1.
          2   -1    0    0  501    0  0.00000000000E+00 -0.00000000000E+00 -0.20880688841E+04  0.20880688841E+04  0.00000000000E+00 0.  1.
         23    2    1    2    0    0  0.76101548738E+03 -0.42739096339E+02 -0.13755462328E+04  0.15758823360E+04  0.10152091407E+03 0.  0.
         13    1    3    3    0    0  0.48723588065E+03 -0.16249576414E+02 -0.97357304307E+03  0.10888100488E+04  0.00000000000E+00 0.  1.
        -13    1    3    3    0    0  0.27377960673E+03 -0.26489519925E+02 -0.40197318968E+03  0.48707228719E+03  0.00000000000E+00 0. -1.
         22    1    1    2    0    0 -0.76101548738E+03  0.42739096339E+02 -0.37516719129E+03  0.84954200827E+03  0.00000000000E+00 0.  1.
<mgrwt>
<rscale>  0 0.16785964E+04</rscale>
<asrwt>0</asrwt>
<pdfrwt beam="1">  1        2 0.32124137E+00 0.16785964E+04</pdfrwt>
<pdfrwt beam="2">  1       -2 0.51900840E-01 0.16785964E+04</pdfrwt>
<totfact> 0.19942352E+01</totfact>
</mgrwt>
</event>
<event>
 6    1  0.1934315E-005  0.2135981E+04  0.7818608E-02  0.8545557E-01
          2   -1    0    0  501    0  0.00000000000E+00  0.00000000000E+00  0.79297661849E+03  0.79297661849E+03  0.00000000000E+00 0.  1.
         -2   -1    0    0    0  501 -0.00000000000E+00 -0.00000000000E+00 -0.14383831660E+04  0.14383831660E+04  0.00000000000E+00 0. -1.
         23    2    1    2    0    0 -0.19679364406E+03  0.69766818275E+03  0.49327645282E+03  0.88151993963E+03  0.91033584419E+02 0.  0.
         11    1    3    3    0    0 -0.80268315525E+02  0.41128130533E+03  0.24861156489E+03  0.48724021262E+03  0.00000000000E+00 0. -1.
        -11    1    3    3    0    0 -0.11652532854E+03  0.28638687742E+03  0.24466488793E+03  0.39427972701E+03  0.00000000000E+00 0.  1.
         22    1    1    2    0    0  0.19679364406E+03 -0.69766818275E+03 -0.11386830004E+04  0.13498398449E+04  0.00000000000E+00 0. -1.
<mgrwt>
<rscale>  0 0.21359815E+04</rscale>
<asrwt>0</asrwt>
<pdfrwt beam="1">  1        2 0.12199640E+00 0.21359815E+04</pdfrwt>
<pdfrwt beam="2">  1       -2 0.22128972E+00 0.21359815E+04</pdfrwt>
<totfact> 0.31048775E+00</totfact>
</mgrwt>
</event>
<event>
 6    1  0.1934315E-005  0.2403342E+04  0.7818608E-02  0.8438253E-01
          2   -1    0    0  501    0  0.00000000000E+00  0.00000000000E+00  0.93680725643E+03  0.93680725643E+03  0.00000000000E+00 0.  1.
         -2   -1    0    0    0  501 -0.00000000000E+00 -0.00000000000E+00 -0.15414197059E+04  0.15414197059E+04  0.00000000000E+00 0. -1.
         23    2    1    2    0    0  0.24207222348E+03  0.61057182245E+03  0.73257159248E+03  0.98844238938E+03  0.94658899511E+02 0.  0.
         13    1    3    3    0    0  0.16189782129E+03  0.47423633052E+03  0.60256220554E+03  0.78370416182E+03  0.00000000000E+00 0.  1.
        -13    1    3    3    0    0  0.80174402197E+02  0.13633549193E+03  0.13000938695E+03  0.20473822755E+03  0.00000000000E+00 0. -1.
         22    1    1    2    0    0 -0.24207222348E+03 -0.61057182245E+03 -0.13371840420E+04  0.14897845730E+04  0.00000000000E+00 0. -1.
<mgrwt>
<rscale>  0 0.24033420E+04</rscale>
<asrwt>0</asrwt>
<pdfrwt beam="1">  1        2 0.14412420E+00 0.24033420E+04</pdfrwt>
<pdfrwt beam="2">  1       -2 0.23714149E+00 0.24033420E+04</pdfrwt>
<totfact> 0.19212198E+00</totfact>
</mgrwt>
</event>
<event>
 6    1  0.1934315E-005  0.2408025E+04  0.7818608E-02  0.8436505E-01
         -2   -1    0    0    0  501 -0.00000000000E+00  0.00000000000E+00  0.30501148858E+04  0.30501148858E+04  0.00000000000E+00 0. -1.
          2   -1    0    0  501    0  0.00000000000E+00 -0.00000000000E+00 -0.47527584950E+03  0.47527584950E+03  0.00000000000E+00 0.  1.
         23    2    1    2    0    0  0.11478419407E+04  0.26524942336E+03  0.16405433501E+04  0.20217927815E+04  0.91461413575E+02 0.  0.
         13    1    3    3    0    0  0.58459296836E+03  0.13606792171E+03  0.75752284944E+03  0.96649070631E+03  0.00000000000E+00 0.  1.
        -13    1    3    3    0    0  0.56324897238E+03  0.12918150165E+03  0.88302050067E+03  0.10553020752E+04  0.00000000000E+00 0. -1.
         22    1    1    2    0    0 -0.11478419407E+04 -0.26524942336E+03  0.93429568622E+03  0.15035979538E+04  0.00000000000E+00 0. -1.
<mgrwt>
<rscale>  0 0.24080249E+04</rscale>
<asrwt>0</asrwt>
<pdfrwt beam="1">  1        2 0.73119363E-01 0.24080249E+04</pdfrwt>
<pdfrwt beam="2">  1       -2 0.46924843E+00 0.24080249E+04</pdfrwt>
<totfact> 0.15195288E-01</totfact>
</mgrwt>
</event>
<event>
 6    1  0.2203504E-005  0.2006059E+04  0.7818608E-02  0.8603793E-01
          2   -1    0    0  501    0  0.00000000000E+00  0.00000000000E+00  0.92898698516E+03  0.92898698516E+03  0.00000000000E+00 0.  1.
         -2   -1    0    0    0  501 -0.00000000000E+00 -0.00000000000E+00 -0.10829731570E+04  0.10829731570E+04  0.00000000000E+00 0. -1.
         23    2    1    2    0    0 -0.53869740120E+03 -0.84214958770E+03 -0.28263433589E+02  0.10043803562E+04  0.92575699209E+02 0.  0.
         13    1    3    3    0    0 -0.31572832286E+03 -0.49453474772E+03 -0.62171515462E+02  0.59001210825E+03  0.00000000000E+00 0.  1.
        -13    1    3    3    0    0 -0.22296907835E+03 -0.34761483999E+03  0.33908081873E+02  0.41436824793E+03  0.00000000000E+00 0. -1.
         22    1    1    2    0    0  0.53869740120E+03  0.84214958770E+03 -0.12572273822E+03  0.10075797859E+04  0.00000000000E+00 0. -1.
<mgrwt>
<rscale>  0 0.20060588E+04</rscale>
<asrwt>0</asrwt>
<pdfrwt beam="1">  1        2 0.14292107E+00 0.20060588E+04</pdfrwt>
<pdfrwt beam="2">  1       -2 0.16661125E+00 0.20060588E+04</pdfrwt>
<totfact> 0.58660572E+00</totfact>
</mgrwt>
</event>
<event>
 6    1  0.1934315E-005  0.2671815E+04  0.7818608E-02  0.8344208E-01
         -2   -1    0    0    0  501 -0.00000000000E+00  0.00000000000E+00  0.13820410068E+04  0.13820410068E+04  0.00000000000E+00 0. -1.
          2   -1    0    0  501    0  0.00000000000E+00 -0.00000000000E+00 -0.12913143006E+04  0.12913143006E+04  0.00000000000E+00 0.  1.
         23    2    1    2    0    0  0.80214513677E+03  0.10153177319E+04  0.37169676999E+03  0.13492514241E+04  0.89520944883E+02 0.  0.
         11    1    3    3    0    0  0.66575109572E+03  0.80443426060E+03  0.32667407626E+03  0.10941000654E+04  0.00000000000E+00 0.  1.
        -11    1    3    3    0    0  0.13639404105E+03  0.21088347127E+03  0.45022693729E+02  0.25515135869E+03  0.00000000000E+00 0. -1.
         22    1    1    2    0    0 -0.80214513677E+03 -0.10153177319E+04 -0.28097006379E+03  0.13241038833E+04  0.00000000000E+00 0.  1.
<mgrwt>
<rscale>  0 0.26718154E+04</rscale>
<asrwt>0</asrwt>
<pdfrwt beam="1">  1        2 0.19866374E+00 0.26718154E+04</pdfrwt>
<pdfrwt beam="2">  1       -2 0.21262169E+00 0.26718154E+04</pdfrwt>
<totfact> 0.16200367E+00</totfact>
</mgrwt>
</event>
<event>
 6    1  0.1934315E-005  0.7501136E+03  0.7818608E-02  0.9635172E-01
          2   -1    0    0  501    0  0.00000000000E+00  0.00000000000E+00  0.26495450875E+04  0.26495450875E+04  0.00000000000E+00 0.  1.
         -2   -1    0    0    0  501 -0.00000000000E+00 -0.00000000000E+00 -0.53091232140E+02  0.53091232140E+02  0.00000000000E+00 0. -1.
         23    2    1    2    0    0 -0.85386520401E+02  0.14293997196E+02  0.26116798166E+04  0.26147329288E+04  0.91987220608E+02 0.  0.
         11    1    3    3    0    0 -0.84622881597E+01 -0.34296436547E+02  0.74510128662E+03  0.74593818993E+03  0.00000000000E+00 0. -1.
        -11    1    3    3    0    0 -0.76924232241E+02  0.48590433744E+02  0.18665785299E+04  0.18687947389E+04  0.00000000000E+00 0.  1.
         22    1    1    2    0    0  0.85386520401E+02 -0.14293997196E+02 -0.15225961181E+02  0.87903390810E+02  0.00000000000E+00 0. -1.
<mgrwt>
<rscale>  0 0.75011363E+03</rscale>
<asrwt>0</asrwt>
<pdfrwt beam="1">  1        2 0.40762222E+00 0.75011363E+03</pdfrwt>
<pdfrwt beam="2">  1       -2 0.81678839E-02 0.75011363E+03</pdfrwt>
<totfact> 0.28238725E+02</totfact>
</mgrwt>
</event>
<event>
 6    1  0.1934315E-005  0.1124918E+04  0.7818608E-02  0.9181239E-01
         -2   -1    0    0    0  501 -0.00000000000E+00  0.00000000000E+00  0.32605339445E+03  0.32605339445E+03  0.00000000000E+00 0. -1.
          2   -1    0    0  501    0  0.00000000000E+00 -0.00000000000E+00 -0.97027156724E+03  0.97027156724E+03  0.00000000000E+00 0.  1.
         23    2    1    2    0    0 -0.32785400943E+03  0.36990136405E+03 -0.62465062896E+03  0.80165521389E+03  0.90262966208E+02 0.  0.
         11    1    3    3    0    0 -0.49320962934E+02  0.55771471002E+02 -0.15342844721E+03  0.17053827364E+03  0.00000000000E+00 0. -1.
        -11    1    3    3    0    0 -0.27853304650E+03  0.31412989304E+03 -0.47122218175E+03  0.63111694025E+03  0.00000000000E+00 0.  1.
         22    1    1    2    0    0  0.32785400943E+03 -0.36990136405E+03 -0.19567543826E+02  0.49466974781E+03  0.00000000000E+00 0. -1.
<mgrwt>
<rscale>  0 0.11249184E+04</rscale>
<asrwt>0</asrwt>
<pdfrwt beam="1">  1        2 0.14927255E+00 0.11249184E+04</pdfrwt>
<pdfrwt beam="2">  1       -2 0.50162061E-01 0.11249184E+04</pdfrwt>
<totfact> 0.98118089E+01</totfact>
</mgrwt>
</event>
<event>
 6    1  0.1934315E-005  0.3251082E+04  0.7818608E-02  0.8175455E-01
         -1   -1    0    0    0  501 -0.00000000000E+00  0.00000000000E+00  0.15987654305E+04  0.15987654305E+04  0.00000000000E+00 0. -1.
          1   -1    0    0  501    0  0.00000000000E+00 -0.00000000000E+00 -0.16527649402E+04  0.16527649402E+04  0.00000000000E+00 0.  1.
         23    2    1    2    0    0 -0.16069054182E+04 -0.92033530379E+02  0.19589441129E+03  0.16227080460E+04  0.64742479813E+02 0.  0.
         11    1    3    3    0    0 -0.10573161981E+03  0.99080648917E+01  0.14619464743E+02  0.10719642684E+03  0.00000000000E+00 0. -1.
        -11    1    3    3    0    0 -0.15011737983E+04 -0.10194159527E+03  0.18127494655E+03  0.15155116192E+04  0.00000000000E+00 0.  1.
         22    1    1    2    0    0  0.16069054182E+04  0.92033530379E+02 -0.24989392097E+03  0.16288223247E+04  0.00000000000E+00 0. -1.
<mgrwt>
<rscale>  0 0.32510819E+04</rscale>
<asrwt>0</asrwt>
<pdfrwt beam="1">  1        1 0.25427153E+00 0.32510819E+04</pdfrwt>
<pdfrwt beam="2">  1       -1 0.24596391E+00 0.32510819E+04</pdfrwt>
<totfact> 0.31687136E-01</totfact>
</mgrwt>
</event>
<event>
 6    1  0.1934315E-005  0.4163923E+04  0.7818608E-02  0.7972270E-01
         -2   -1    0    0    0  501 -0.00000000000E+00  0.00000000000E+00  0.22466208415E+04  0.22466208415E+04  0.00000000000E+00 0. -1.
          2   -1    0    0  501    0  0.00000000000E+00 -0.00000000000E+00 -0.19293705657E+04  0.19293705657E+04  0.00000000000E+00 0.  1.
         23    2    1    2    0    0  0.48339009341E+03 -0.17453816257E+04 -0.86934426289E+03  0.20108055951E+04  0.86929236319E+02 0.  0.
         13    1    3    3    0    0  0.32617253494E+03 -0.13187705650E+04 -0.65257410408E+03  0.15071155520E+04  0.00000000000E+00 0. -1.
        -13    1    3    3    0    0  0.15721755847E+03 -0.42661106070E+03 -0.21677015880E+03  0.50369004313E+03  0.00000000000E+00 0.  1.
         22    1    1    2    0    0 -0.48339009341E+03  0.17453816257E+04  0.11865945387E+04  0.21651858121E+04  0.00000000000E+00 0. -1.
<mgrwt>
<rscale>  0 0.41639232E+04</rscale>
<asrwt>0</asrwt>
<pdfrwt beam="1">  1        2 0.29682624E+00 0.41639232E+04</pdfrwt>
<pdfrwt beam="2">  1       -2 0.34563398E+00 0.41639232E+04</pdfrwt>
<totfact> 0.94360664E-02</totfact>
</mgrwt>
</event>
<event>
 6    1  0.1934315E-005  0.2029914E+04  0.7818608E-02  0.8592761E-01
         -2   -1    0    0    0  501 -0.00000000000E+00  0.00000000000E+00  0.59564289888E+03  0.59564289888E+03  0.00000000000E+00 0. -1.
          2   -1    0    0  501    0  0.00000000000E+00 -0.00000000000E+00 -0.17294551050E+04  0.17294551050E+04  0.00000000000E+00 0.  1.
         23    2    1    2    0    0 -0.13350612863E+03  0.85998667454E+03  0.25512764665E+02  0.87546516944E+03  0.91582722022E+02 0.  0.
         13    1    3    3    0    0 -0.78796774178E+02  0.23806479420E+03  0.84109719797E+01  0.25090739788E+03  0.00000000000E+00 0.  1.
        -13    1    3    3    0    0 -0.54709354456E+02  0.62192188034E+03  0.17101792685E+02  0.62455777156E+03  0.00000000000E+00 0. -1.
         22    1    1    2    0    0  0.13350612863E+03 -0.85998667454E+03 -0.11593249708E+04  0.14496328344E+04  0.00000000000E+00 0.  1.
<mgrwt>
<rscale>  0 0.20299139E+04</rscale>
<asrwt>0</asrwt>
<pdfrwt beam="1">  1        2 0.26607001E+00 0.20299139E+04</pdfrwt>
<pdfrwt beam="2">  1       -2 0.91637371E-01 0.20299139E+04</pdfrwt>
<totfact> 0.88717036E+00</totfact>
</mgrwt>
</event>
<event>
 6    1  0.1934315E-005  0.2252897E+04  0.7818608E-02  0.8496728E-01
         -2   -1    0    0    0  501 -0.00000000000E+00  0.00000000000E+00  0.56274447398E+03  0.56274447398E+03  0.00000000000E+00 0. -1.
          2   -1    0    0  501    0  0.00000000000E+00 -0.00000000000E+00 -0.22548175287E+04  0.22548175287E+04  0.00000000000E+00 0.  1.
         23    2    1    2    0    0  0.23913509431E+03 -0.35758605679E+03 -0.21469082633E+04  0.21915201125E+04  0.92151676259E+02 0.  0.
         11    1    3    3    0    0  0.23583595236E+03 -0.30431169794E+03 -0.19403744640E+04  0.19782005122E+04  0.00000000000E+00 0.  1.
        -11    1    3    3    0    0  0.32991419475E+01 -0.53274358851E+02 -0.20653379925E+03  0.21331960032E+03  0.00000000000E+00 0. -1.
         22    1    1    2    0    0 -0.23913509431E+03  0.35758605679E+03  0.45483520852E+03  0.62604189017E+03  0.00000000000E+00 0. -1.
<mgrwt>
<rscale>  0 0.22528969E+04</rscale>
<asrwt>0</asrwt>
<pdfrwt beam="1">  1        2 0.34689501E+00 0.22528969E+04</pdfrwt>
<pdfrwt beam="2">  1       -2 0.86576072E-01 0.22528969E+04</pdfrwt>
<totfact> 0.50559995E+00</totfact>
</mgrwt>
</event>
<event>
 6    1  0.1934315E-005  0.2335626E+04  0.7818608E-02  0.8464005E-01
         -1   -1    0    0    0  501 -0.00000000000E+00  0.00000000000E+00  0.81474633894E+03  0.81474633894E+03  0.00000000000E+00 0. -1.
          1   -1    0    0  501    0  0.00000000000E+00 -0.00000000000E+00 -0.16738794081E+04  0.16738794081E+04  0.00000000000E+00 0.  1.
         23    2    1    2    0    0 -0.82618419025E+03 -0.73395705980E+03 -0.33530049072E+02  0.11091716418E+04  0.88680239338E+02 0.  0.
         11    1    3    3    0    0 -0.78362749018E+03 -0.66632494936E+03 -0.35612697237E+02  0.10292372155E+04  0.00000000000E+00 0. -1.
        -11    1    3    3    0    0 -0.42556700070E+02 -0.67632110431E+02  0.20826481659E+01  0.79934426285E+02  0.00000000000E+00 0.  1.
         22    1    1    2    0    0  0.82618419025E+03  0.73395705980E+03 -0.82560302012E+03  0.13794541053E+04  0.00000000000E+00 0. -1.
<mgrwt>
<rscale>  0 0.23356259E+04</rscale>
<asrwt>0</asrwt>
<pdfrwt beam="1">  1        1 0.25751991E+00 0.23356259E+04</pdfrwt>
<pdfrwt beam="2">  1       -1 0.12534559E+00 0.23356259E+04</pdfrwt>
<totfact> 0.24869635E+00</totfact>
</mgrwt>
</event>
<event>
 6    1  0.1934315E-005  0.2955546E+04  0.7818608E-02  0.8256540E-01
          2   -1    0    0  501    0  0.00000000000E+00  0.00000000000E+00  0.41734664691E+04  0.41734664691E+04  0.00000000000E+00 0.  1.
         -2   -1    0    0    0  501 -0.00000000000E+00 -0.00000000000E+00 -0.52326108923E+03  0.52326108923E+03  0.00000000000E+00 0. -1.
         23    2    1    2    0    0 -0.75737591874E+03 -0.86461619923E+03  0.32987622643E+04  0.34947742657E+04  0.10215300956E+03 0.  0.
         11    1    3    3    0    0 -0.12793957696E+03 -0.20852252726E+03  0.71938903612E+03  0.75984917255E+03  0.00000000000E+00 0.  1.
        -11    1    3    3    0    0 -0.62943634178E+03 -0.65609367197E+03  0.25793732282E+04  0.27349250931E+04  0.00000000000E+00 0. -1.
         22    1    1    2    0    0  0.75737591874E+03  0.86461619923E+03  0.35144311556E+03  0.12019532927E+04  0.00000000000E+00 0. -1.
<mgrwt>
<rscale>  0 0.29555457E+04</rscale>
<asrwt>0</asrwt>
<pdfrwt beam="1">  1        2 0.64207175E+00 0.29555457E+04</pdfrwt>
<pdfrwt beam="2">  1       -2 0.80501708E-01 0.29555457E+04</pdfrwt>
<totfact> 0.28698183E-01</totfact>
</mgrwt>
</event>
<event>
 6    1  0.1934315E-005  0.6266509E+03  0.7818608E-02  0.9851606E-01
          2   -1    0    0  501    0  0.00000000000E+00  0.00000000000E+00  0.18359264648E+04  0.18359264648E+04  0.00000000000E+00 0.  1.
         -2   -1    0    0    0  501 -0.00000000000E+00 -0.00000000000E+00 -0.53473182090E+02  0.53473182090E+02  0.00000000000E+00 0. -1.
         23    2    1    2    0    0 -0.24449756828E+03 -0.14545037736E+03  0.12565776575E+04  0.12915032961E+04  0.89769043466E+02 0.  0.
         13    1    3    3    0    0 -0.18500886231E+03 -0.10933856069E+03  0.75046414393E+03  0.78062771621E+03  0.00000000000E+00 0.  1.
        -13    1    3    3    0    0 -0.59488705968E+02 -0.36111816663E+02  0.50611351362E+03  0.51087557987E+03  0.00000000000E+00 0. -1.
         22    1    1    2    0    0  0.24449756828E+03  0.14545037736E+03  0.52587562512E+03  0.59789635077E+03  0.00000000000E+00 0.  1.
<mgrwt>
<rscale>  0 0.62665088E+03</rscale>
<asrwt>0</asrwt>
<pdfrwt beam="1">  1        2 0.28245018E+00 0.62665088E+03</pdfrwt>
<pdfrwt beam="2">  1       -2 0.82266448E-02 0.62665088E+03</pdfrwt>
<totfact> 0.79627563E+02</totfact>
</mgrwt>
</event>
<event>
 6    1  0.1934315E-005  0.1358767E+04  0.7818608E-02  0.8984218E-01
          2   -1    0    0  501    0  0.00000000000E+00  0.00000000000E+00  0.24360319295E+04  0.24360319295E+04  0.00000000000E+00 0.  1.
         -2   -1    0    0    0  501 -0.00000000000E+00 -0.00000000000E+00 -0.18947288837E+03  0.18947288837E+03  0.00000000000E+00 0. -1.
         23    2    1    2    0    0 -0.29996720762E+03  0.60576387934E+03  0.11725935736E+04  0.13565162330E+04  0.90721542678E+02 0.  0.
         13    1    3    3    0    0 -0.20404676562E+03  0.36947140622E+03  0.80783555062E+03  0.91145075534E+03  0.00000000000E+00 0.  1.
        -13    1    3    3    0    0 -0.95920442003E+02  0.23629247313E+03  0.36475802301E+03  0.44506547766E+03  0.00000000000E+00 0. -1.
         22    1    1    2    0    0  0.29996720762E+03 -0.60576387934E+03  0.10739654675E+04  0.12689885849E+04  0.00000000000E+00 0. -1.
<mgrwt>
<rscale>  0 0.13587671E+04</rscale>
<asrwt>0</asrwt>
<pdfrwt beam="1">  1        2 0.37477412E+00 0.13587671E+04</pdfrwt>
<pdfrwt beam="2">  1       -2 0.29149677E-01 0.13587671E+04</pdfrwt>
<totfact> 0.40172843E+01</totfact>
</mgrwt>
</event>
<event>
 6    1  0.1934315E-005  0.6090261E+03  0.7818608E-02  0.9886855E-01
          2   -1    0    0  501    0  0.00000000000E+00  0.00000000000E+00  0.61116737980E+03  0.61116737980E+03  0.00000000000E+00 0.  1.
         -2   -1    0    0    0  501 -0.00000000000E+00 -0.00000000000E+00 -0.15172306602E+03  0.15172306602E+03  0.00000000000E+00 0. -1.
         23    2    1    2    0    0 -0.81265185698E+02  0.10091485636E+03 -0.10094747393E+03  0.18771499923E+03  0.90877333819E+02 0.  0.
         13    1    3    3    0    0 -0.48320084757E+02  0.24870765072E+02 -0.88581801674E+02  0.10392363126E+03  0.00000000000E+00 0. -1.
        -13    1    3    3    0    0 -0.32945100941E+02  0.76044091286E+02 -0.12365672252E+02  0.83791367967E+02  0.00000000000E+00 0.  1.
         22    1    1    2    0    0  0.81265185698E+02 -0.10091485636E+03  0.56039178770E+03  0.57517544659E+03  0.00000000000E+00 0.  1.
<mgrwt>
<rscale>  0 0.60902607E+03</rscale>
<asrwt>0</asrwt>
<pdfrwt beam="1">  1        2 0.94025749E-01 0.60902607E+03</pdfrwt>
<pdfrwt beam="2">  1       -2 0.23342011E-01 0.60902607E+03</pdfrwt>
<totfact> 0.79057623E+02</totfact>
</mgrwt>
</event>
<event>
 6    1  0.1934315E-005  0.2150869E+04  0.7818608E-02  0.8539160E-01
          2   -1    0    0  501    0  0.00000000000E+00  0.00000000000E+00  0.13838014556E+04  0.13838014556E+04  0.00000000000E+00 0.  1.
         -2   -1    0    0    0  501 -0.00000000000E+00 -0.00000000000E+00 -0.83578440135E+03  0.83578440135E+03  0.00000000000E+00 0. -1.
         23    2    1    2    0    0  0.40209044033E+03  0.10880529520E+03  0.12954972864E+04  0.13638744500E+04  0.91241339134E+02 0.  0.
         11    1    3    3    0    0  0.30140001792E+03  0.50982454087E+02  0.84277204262E+03  0.89649645691E+03  0.00000000000E+00 0. -1.
        -11    1    3    3    0    0  0.10069042241E+03  0.57822841113E+02  0.45272524377E+03  0.46737799314E+03  0.00000000000E+00 0.  1.
         22    1    1    2    0    0 -0.40209044033E+03 -0.10880529520E+03 -0.74748023214E+03  0.85571140691E+03  0.00000000000E+00 0. -1.
<mgrwt>
<rscale>  0 0.21508693E+04</rscale>
<asrwt>0</asrwt>
<pdfrwt beam="1">  1        2 0.21289253E+00 0.21508693E+04</pdfrwt>
<pdfrwt beam="2">  1       -2 0.12858222E+00 0.21508693E+04</pdfrwt>
<totfact> 0.60593049E+00</totfact>
</mgrwt>
</event>
<event>
 6    1  0.1934315E-005  0.3805609E+04  0.7818608E-02  0.8044952E-01
         -1   -1    0    0    0  501 -0.00000000000E+00  0.00000000000E+00  0.13662293055E+04  0.13662293055E+04  0.00000000000E+00 0. -1.
          1   -1    0    0  501    0  0.00000000000E+00 -0.00000000000E+00 -0.26501153469E+04  0.26501153469E+04  0.00000000000E+00 0.  1.
         23    2    1    2    0    0  0.86878697386E+03  0.59814620755E+03  0.10276089057E+04  0.14755615877E+04  0.93446479755E+02 0.  0.
         11    1    3    3    0    0  0.34754382942E+03  0.18461695701E+03  0.37728325359E+03  0.54517225500E+03  0.00000000000E+00 0.  1.
        -11    1    3    3    0    0  0.52124314444E+03  0.41352925054E+03  0.65032565209E+03  0.93038933272E+03  0.00000000000E+00 0. -1.
         22    1    1    2    0    0 -0.86878697386E+03 -0.59814620755E+03 -0.23114949470E+04  0.25407830647E+04  0.00000000000E+00 0.  1.
<mgrwt>
<rscale>  0 0.38056091E+04</rscale>
<asrwt>0</asrwt>
<pdfrwt beam="1">  1        1 0.40771005E+00 0.38056091E+04</pdfrwt>
<pdfrwt beam="2">  1       -1 0.21018912E+00 0.38056091E+04</pdfrwt>
<totfact> 0.10846126E-01</totfact>
</mgrwt>
</event>
<event>
 6    1  0.1934315E-005  0.3335447E+04  0.7818608E-02  0.8153934E-01
         -2   -1    0    0    0  501 -0.00000000000E+00  0.00000000000E+00  0.70204984884E+03  0.70204984884E+03  0.00000000000E+00 0. -1.
          2   -1    0    0  501    0  0.00000000000E+00 -0.00000000000E+00 -0.39616879020E+04  0.39616879020E+04  0.00000000000E+00 0.  1.
         23    2    1    2    0    0  0.91255557598E+03  0.33404132408E+03 -0.35239851587E+04  0.36566525124E+04  0.91076407437E+02 0.  0.
         13    1    3    3    0    0  0.60249671056E+03  0.17858411764E+03 -0.23396955925E+04  0.24226163623E+04  0.00000000000E+00 0. -1.
        -13    1    3    3    0    0  0.31005886542E+03  0.15545720644E+03 -0.11842895662E+04  0.12340361501E+04  0.00000000000E+00 0.  1.
         22    1    1    2    0    0 -0.91255557598E+03 -0.33404132408E+03  0.26434710550E+03  0.10070852385E+04  0.00000000000E+00 0. -1.
<mgrwt>
<rscale>  0 0.33354474E+04</rscale>
<asrwt>0</asrwt>
<pdfrwt beam="1">  1        2 0.60949044E+00 0.33354474E+04</pdfrwt>
<pdfrwt beam="2">  1       -2 0.10800767E+00 0.33354474E+04</pdfrwt>
<totfact> 0.20961914E-01</totfact>
</mgrwt>
</event>
<event>
 6    1  0.1934315E-005  0.3900514E+04  0.7818608E-02  0.8024922E-01
         -2   -1    0    0    0  501 -0.00000000000E+00  0.00000000000E+00  0.11162251995E+04  0.11162251995E+04  0.00000000000E+00 0. -1.
          2   -1    0    0  501    0  0.00000000000E+00 -0.00000000000E+00 -0.34074694207E+04  0.34074694207E+04  0.00000000000E+00 0.  1.
         23    2    1    2    0    0  0.17820020781E+03 -0.12863781862E+04  0.53951979281E+03  0.14092526068E+04  0.91581389123E+02 0.  0.
         11    1    3    3    0    0  0.13296280306E+03 -0.78753785822E+03  0.29044939603E+03  0.84985636244E+03  0.00000000000E+00 0. -1.
        -11    1    3    3    0    0  0.45237404743E+02 -0.49884032802E+03  0.24907039678E+03  0.55939624435E+03  0.00000000000E+00 0.  1.
         22    1    1    2    0    0 -0.17820020781E+03  0.12863781862E+04 -0.28307640140E+04  0.31144420134E+04  0.00000000000E+00 0.  1.
<mgrwt>
<rscale>  0 0.39005144E+04</rscale>
<asrwt>0</asrwt>
<pdfrwt beam="1">  1        2 0.52422607E+00 0.39005144E+04</pdfrwt>
<pdfrwt beam="2">  1       -2 0.17172695E+00 0.39005144E+04</pdfrwt>
<totfact> 0.15501852E-01</totfact>
</mgrwt>
</event>
<event>
 6    1  0.1934315E-005  0.8377151E+03  0.7818608E-02  0.9506975E-01
         -2   -1    0    0    0  501 -0.00000000000E+00  0.00000000000E+00  0.13754392897E+03  0.13754392897E+03  0.00000000000E+00 0. -1.
          2   -1    0    0  501    0  0.00000000000E+00 -0.00000000000E+00 -0.12755317627E+04  0.12755317627E+04  0.00000000000E+00 0.  1.
         23    2    1    2    0    0  0.11293083555E+03 -0.35552452568E+03 -0.27481503511E+03  0.47274684374E+03  0.93889364489E+02 0.  0.
         13    1    3    3    0    0  0.71026943137E+02 -0.17249043721E+03 -0.19145031876E+03  0.26730320262E+03  0.00000000000E+00 0.  1.
        -13    1    3    3    0    0  0.41903892416E+02 -0.18303408847E+03 -0.83364716347E+02  0.20544364111E+03  0.00000000000E+00 0. -1.
         22    1    1    2    0    0 -0.11293083555E+03  0.35552452568E+03 -0.86317279858E+03  0.94032884789E+03  0.00000000000E+00 0.  1.
<mgrwt>
<rscale>  0 0.83771511E+03</rscale>
<asrwt>0</asrwt>
<pdfrwt beam="1">  1        2 0.19623565E+00 0.83771511E+03</pdfrwt>
<pdfrwt beam="2">  1       -2 0.21160605E-01 0.83771511E+03</pdfrwt>
<totfact> 0.33178185E+02</totfact>
</mgrwt>
</event>
<event>
 6    1  0.1934315E-005  0.1983023E+04  0.7818608E-02  0.8614599E-01
          2   -1    0    0  501    0  0.00000000000E+00  0.00000000000E+00  0.22785293790E+04  0.22785293790E+04  0.00000000000E+00 0.  1.
         -2   -1    0    0    0  501 -0.00000000000E+00 -0.00000000000E+00 -0.43146054007E+03  0.43146054007E+03  0.00000000000E+00 0. -1.
         23    2    1    2    0    0 -0.38968239731E+03  0.36887224944E+03  0.20615056662E+04  0.21321471550E+04  0.91251145643E+02 0.  0.
         13    1    3    3    0    0 -0.35459701066E+03  0.36515948027E+03  0.19298648836E+04  0.19958604548E+04  0.00000000000E+00 0.  1.
        -13    1    3    3    0    0 -0.35085386650E+02  0.37127691778E+01  0.13164078255E+03  0.13628670016E+03  0.00000000000E+00 0. -1.
         22    1    1    2    0    0  0.38968239731E+03 -0.36887224944E+03 -0.21443682722E+03  0.57784276413E+03  0.00000000000E+00 0. -1.
<mgrwt>
<rscale>  0 0.19830235E+04</rscale>
<asrwt>0</asrwt>
<pdfrwt beam="1">  1        2 0.35054298E+00 0.19830235E+04</pdfrwt>
<pdfrwt beam="2">  1       -2 0.66378546E-01 0.19830235E+04</pdfrwt>
<totfact> 0.90520302E+00</totfact>
</mgrwt>
</event>
<event>
 6    1  0.1934315E-005  0.1735537E+04  0.7818608E-02  0.8741352E-01
         -2   -1    0    0    0  501 -0.00000000000E+00  0.00000000000E+00  0.19904178667E+04  0.19904178667E+04  0.00000000000E+00 0.  1.
          2   -1    0    0  501    0  0.00000000000E+00 -0.00000000000E+00 -0.37832382477E+03  0.37832382477E+03  0.00000000000E+00 0. -1.
         23    2    1    2    0    0  0.56677208113E+02 -0.79490272070E+03  0.12691971032E+04  0.15011813467E+04  0.87186624891E+02 0.  0.
         13    1    3    3    0    0 -0.18409400250E+02 -0.31706886802E+03  0.52565560811E+03  0.61415420818E+03  0.00000000000E+00 0.  1.
        -13    1    3    3    0    0  0.75086608362E+02 -0.47783385268E+03  0.74354149507E+03  0.88702713848E+03  0.00000000000E+00 0. -1.
         22    1    1    2    0    0 -0.56677208113E+02  0.79490272070E+03  0.34289693876E+03  0.86756034482E+03  0.00000000000E+00 0. -1.
<mgrwt>
<rscale>  0 0.17355374E+04</rscale>
<asrwt>0</asrwt>
<pdfrwt beam="1">  1        2 0.58203666E-01 0.17355374E+04</pdfrwt>
<pdfrwt beam="2">  1       -2 0.30621813E+00 0.17355374E+04</pdfrwt>
<totfact> 0.23445696E+00</totfact>
</mgrwt>
</event>
<event>
 6    1  0.1934315E-005  0.1963698E+04  0.7818608E-02  0.8623784E-01
          1   -1    0    0  501    0  0.00000000000E+00  0.00000000000E+00  0.49513589313E+03  0.49513589313E+03  0.00000000000E+00 0.  1.
         -1   -1    0    0    0  501 -0.00000000000E+00 -0.00000000000E+00 -0.19469952920E+04  0.19469952920E+04  0.00000000000E+00 0. -1.
         23    2    1    2    0    0  0.70431527942E+03 -0.60234713751E+03 -0.11225969314E+04  0.14586191825E+04  0.91999795115E+02 0.  0.
         11    1    3    3    0    0  0.28220067539E+03 -0.26073522346E+03 -0.53313210128E+03  0.65715288583E+03  0.00000000000E+00 0. -1.
        -11    1    3    3    0    0  0.42211460403E+03 -0.34161191405E+03 -0.58946483010E+03  0.80146629666E+03  0.00000000000E+00 0.  1.
         22    1    1    2    0    0 -0.70431527942E+03  0.60234713751E+03 -0.32926246753E+03  0.98351200268E+03  0.00000000000E+00 0.  1.
<mgrwt>
<rscale>  0 0.19636978E+04</rscale>
<asrwt>0</asrwt>
<pdfrwt beam="1">  1        1 0.76174754E-01 0.19636978E+04</pdfrwt>
<pdfrwt beam="2">  1       -1 0.29953773E+00 0.19636978E+04</pdfrwt>
<totfact> 0.13912100E+00</totfact>
</mgrwt>
</event>
<event>
 6    1  0.1934315E-005  0.4823463E+04  0.7818608E-02  0.7856332E-01
          2   -1    0    0  501    0  0.00000000000E+00  0.00000000000E+00  0.35013385844E+04  0.35013385844E+04  0.00000000000E+00 0. -1.
         -2   -1    0    0    0  501 -0.00000000000E+00 -0.00000000000E+00 -0.16612071428E+04  0.16612071428E+04  0.00000000000E+00 0.  1.
         23    2    1    2    0    0  0.22354047119E+04  0.59094059072E+03  0.16510276997E+04  0.28426308079E+04  0.91719339274E+02 0.  0.
         11    1    3    3    0    0  0.37390370257E+03  0.98431307338E+02  0.23487689309E+03  0.45239347471E+03  0.00000000000E+00 0. -1.
        -11    1    3    3    0    0  0.18615010093E+04  0.49250928338E+03  0.14161508066E+04  0.23902373332E+04  0.00000000000E+00 0.  1.
         22    1    1    2    0    0 -0.22354047119E+04 -0.59094059072E+03  0.18910374194E+03  0.23199149193E+04  0.00000000000E+00 0.  1.
<mgrwt>
<rscale>  0 0.48234629E+04</rscale>
<asrwt>0</asrwt>
<pdfrwt beam="1">  1        2 0.53866747E+00 0.48234629E+04</pdfrwt>
<pdfrwt beam="2">  1       -2 0.25557033E+00 0.48234629E+04</pdfrwt>
<totfact> 0.35500529E-02</totfact>
</mgrwt>
</event>
<event>
 6    1  0.2430014E-005  0.3488038E+04  0.7818608E-02  0.8116631E-01
         -2   -1    0    0    0  501 -0.00000000000E+00  0.00000000000E+00  0.12120229429E+04  0.12120229429E+04  0.00000000000E+00 0. -1.
          2   -1    0    0  501    0  0.00000000000E+00 -0.00000000000E+00 -0.25095250777E+04  0.25095250777E+04  0.00000000000E+00 0.  1.
         23    2    1    2    0    0 -0.14197196818E+04 -0.77813518136E+03 -0.13375429261E+04  0.21020723029E+04  0.92674442000E+02 0.  0.
         13    1    3    3    0    0 -0.21659569268E+03 -0.81815416531E+02 -0.18997327776E+03  0.29949507964E+03  0.00000000000E+00 0. -1.
        -13    1    3    3    0    0 -0.12031239891E+04 -0.69631976483E+03 -0.11475696483E+04  0.18025772232E+04  0.00000000000E+00 0.  1.
         22    1    1    2    0    0  0.14197196818E+04  0.77813518136E+03  0.40040791348E+02  0.16194757177E+04  0.00000000000E+00 0. -1.
<mgrwt>
<rscale>  0 0.34880378E+04</rscale>
<asrwt>0</asrwt>
<pdfrwt beam="1">  1        2 0.38608077E+00 0.34880378E+04</pdfrwt>
<pdfrwt beam="2">  1       -2 0.18646507E+00 0.34880378E+04</pdfrwt>
<totfact> 0.46288118E-01</totfact>
</mgrwt>
</event>
<event>
 6    1  0.1934315E-005  0.2895663E+04  0.7818608E-02  0.8274169E-01
          2   -1    0    0  501    0  0.00000000000E+00  0.00000000000E+00  0.18177181142E+04  0.18177181142E+04  0.00000000000E+00 0.  1.
         -2   -1    0    0    0  501 -0.00000000000E+00 -0.00000000000E+00 -0.11532128222E+04  0.11532128222E+04  0.00000000000E+00 0. -1.
         23    2    1    2    0    0  0.79321208686E+03 -0.72397101537E+03  0.13266391982E+04  0.17092888494E+04  0.91527933826E+02 0.  0.
         11    1    3    3    0    0  0.32414139133E+03 -0.24113480124E+03  0.46895823786E+03  0.61897937186E+03  0.00000000000E+00 0.  1.
        -11    1    3    3    0    0  0.46907069553E+03 -0.48283621414E+03  0.85768096034E+03  0.10903094775E+04  0.00000000000E+00 0. -1.
         22    1    1    2    0    0 -0.79321208686E+03  0.72397101537E+03 -0.66213390617E+03  0.12616420869E+04  0.00000000000E+00 0. -1.
<mgrwt>
<rscale>  0 0.28956629E+04</rscale>
<asrwt>0</asrwt>
<pdfrwt beam="1">  1        2 0.27964894E+00 0.28956629E+04</pdfrwt>
<pdfrwt beam="2">  1       -2 0.17741736E+00 0.28956629E+04</pdfrwt>
<totfact> 0.13764644E+00</totfact>
</mgrwt>
</event>
<event>
 6    1  0.1934315E-005  0.1924566E+04  0.7818608E-02  0.8642724E-01
         -2   -1    0    0    0  501 -0.00000000000E+00  0.00000000000E+00  0.13936864056E+04  0.13936864056E+04  0.00000000000E+00 0. -1.
          2   -1    0    0  501    0  0.00000000000E+00 -0.00000000000E+00 -0.66441680510E+03  0.66441680510E+03  0.00000000000E+00 0.  1.
         23    2    1    2    0    0 -0.84490909299E+03 -0.44448045324E+03  0.47544959754E+03  0.10702475317E+04  0.89124690917E+02 0.  0.
         11    1    3    3    0    0 -0.15181693788E+03 -0.11621435708E+03  0.11202921080E+03  0.22159581109E+03  0.00000000000E+00 0.  1.
        -11    1    3    3    0    0 -0.69309215511E+03 -0.32826609616E+03  0.36342038674E+03  0.84865172059E+03  0.00000000000E+00 0. -1.
         22    1    1    2    0    0  0.84490909299E+03  0.44448045324E+03  0.25382000299E+03  0.98785567906E+03  0.00000000000E+00 0.  1.
<mgrwt>
<rscale>  0 0.19245661E+04</rscale>
<asrwt>0</asrwt>
<pdfrwt beam="1">  1        2 0.10221797E+00 0.19245661E+04</pdfrwt>
<pdfrwt beam="2">  1       -2 0.21441329E+00 0.19245661E+04</pdfrwt>
<totfact> 0.43843169E+00</totfact>
</mgrwt>
</event>
<event>
 6    1  0.1934315E-005  0.3012181E+04  0.7818608E-02  0.8240261E-01
          2   -1    0    0  501    0  0.00000000000E+00  0.00000000000E+00  0.29701595551E+04  0.29701595551E+04  0.00000000000E+00 0.  1.
         -2   -1    0    0    0  501 -0.00000000000E+00 -0.00000000000E+00 -0.76369928362E+03  0.76369928362E+03  0.00000000000E+00 0. -1.
         23    2    1    2    0    0 -0.72293364015E+03  0.12741309038E+04  0.67814596625E+03  0.16168356400E+04  0.90735479314E+02 0.  0.
         11    1    3    3    0    0 -0.87129209783E+02  0.21565463427E+03  0.12140185877E+03  0.26236774152E+03  0.00000000000E+00 0. -1.
        -11    1    3    3    0    0 -0.63580443037E+03  0.10584762696E+04  0.55674410747E+03  0.13544678985E+04  0.00000000000E+00 0.  1.
         22    1    1    2    0    0  0.72293364015E+03 -0.12741309038E+04  0.15283143053E+04  0.21170231987E+04  0.00000000000E+00 0.  1.
<mgrwt>
<rscale>  0 0.30121811E+04</rscale>
<asrwt>0</asrwt>
<pdfrwt beam="1">  1        2 0.45694762E+00 0.30121811E+04</pdfrwt>
<pdfrwt beam="2">  1       -2 0.11749220E+00 0.30121811E+04</pdfrwt>
<totfact> 0.86913999E-01</totfact>
</mgrwt>
</event>
<event>
 6    1  0.1934315E-005  0.2235235E+04  0.7818608E-02  0.8503904E-01
          2   -1    0    0  501    0  0.00000000000E+00  0.00000000000E+00  0.36717509871E+04  0.36717509871E+04  0.00000000000E+00 0.  1.
         -2   -1    0    0    0  501 -0.00000000000E+00 -0.00000000000E+00 -0.34018331737E+03  0.34018331737E+03  0.00000000000E+00 0. -1.
         23    2    1    2    0    0  0.30270594666E+03 -0.82211283638E+02  0.35904296574E+04  0.36052414057E+04  0.90503500415E+02 0.  0.
         11    1    3    3    0    0  0.23517520494E+03 -0.42370986282E+02  0.22855287242E+04  0.22979869945E+04  0.00000000000E+00 0.  1.
        -11    1    3    3    0    0  0.67530741725E+02 -0.39840297356E+02  0.13049009331E+04  0.13072544112E+04  0.00000000000E+00 0. -1.
         22    1    1    2    0    0 -0.30270594666E+03  0.82211283638E+02 -0.25886198761E+03  0.40669289879E+03  0.00000000000E+00 0. -1.
<mgrwt>
<rscale>  0 0.22352346E+04</rscale>
<asrwt>0</asrwt>
<pdfrwt beam="1">  1        2 0.56488474E+00 0.22352346E+04</pdfrwt>
<pdfrwt beam="2">  1       -2 0.52335898E-01 0.22352346E+04</pdfrwt>
<totfact> 0.19311870E+00</totfact>
</mgrwt>
</event>
<event>
 6    1  0.1934315E-005  0.4489169E+04  0.7818608E-02  0.7912536E-01
         -2   -1    0    0    0  501 -0.00000000000E+00  0.00000000000E+00  0.15688989802E+04  0.15688989802E+04  0.00000000000E+00 0. -1.
          2   -1    0    0  501    0  0.00000000000E+00 -0.00000000000E+00 -0.32112708642E+04  0.32112708642E+04  0.00000000000E+00 0.  1.
         23    2    1    2    0    0  0.88601815974E+03 -0.19103112665E+04  0.30559979600E+01  0.21077645179E+04  0.91348835572E+02 0.  0.
         11    1    3    3    0    0  0.87542947106E+03 -0.18662944783E+04 -0.68248856066E+01  0.20614263066E+04  0.00000000000E+00 0. -1.
        -11    1    3    3    0    0  0.10588688687E+02 -0.44016788174E+02  0.98808835666E+01  0.46338211331E+02  0.00000000000E+00 0.  1.
         22    1    1    2    0    0 -0.88601815974E+03  0.19103112665E+04 -0.16454278820E+04  0.26724053265E+04  0.00000000000E+00 0.  1.
<mgrwt>
<rscale>  0 0.44891690E+04</rscale>
<asrwt>0</asrwt>
<pdfrwt beam="1">  1        2 0.49404166E+00 0.44891690E+04</pdfrwt>
<pdfrwt beam="2">  1       -2 0.24136908E+00 0.44891690E+04</pdfrwt>
<totfact> 0.70166663E-02</totfact>
</mgrwt>
</event>
<event>
 6    1  0.1934315E-005  0.2553006E+04  0.7818608E-02  0.8384341E-01
          2   -1    0    0  501    0  0.00000000000E+00  0.00000000000E+00  0.15616032073E+04  0.15616032073E+04  0.00000000000E+00 0.  1.
         -2   -1    0    0    0  501 -0.00000000000E+00 -0.00000000000E+00 -0.10434533736E+04  0.10434533736E+04  0.00000000000E+00 0. -1.
         23    2    1    2    0    0 -0.10630621186E+04  0.69882813403E+03  0.35196269084E+03  0.13220600901E+04  0.74184346928E+02 0.  0.
         11    1    3    3    0    0 -0.55799145912E+03  0.35246947708E+03  0.21893007010E+03  0.69535571927E+03  0.00000000000E+00 0. -1.
        -11    1    3    3    0    0 -0.50507065943E+03  0.34635865696E+03  0.13303262074E+03  0.62670437085E+03  0.00000000000E+00 0.  1.
         22    1    1    2    0    0  0.10630621186E+04 -0.69882813403E+03  0.16618714283E+03  0.12829964907E+04  0.00000000000E+00 0. -1.
<mgrwt>
<rscale>  0 0.25530062E+04</rscale>
<asrwt>0</asrwt>
<pdfrwt beam="1">  1        2 0.24024665E+00 0.25530062E+04</pdfrwt>
<pdfrwt beam="2">  1       -2 0.16053129E+00 0.25530062E+04</pdfrwt>
<totfact> 0.25980878E+00</totfact>
</mgrwt>
</event>
<event>
 6    1  0.1934315E-005  0.1568906E+04  0.7818608E-02  0.8839881E-01
         -2   -1    0    0    0  501 -0.00000000000E+00  0.00000000000E+00  0.47053033305E+03  0.47053033305E+03  0.00000000000E+00 0. -1.
          2   -1    0    0  501    0  0.00000000000E+00 -0.00000000000E+00 -0.13078149953E+04  0.13078149953E+04  0.00000000000E+00 0.  1.
         23    2    1    2    0    0  0.42975807796E+02  0.21066001086E+03 -0.12718893329E+04  0.12934682513E+04  0.95567158587E+02 0.  0.
         11    1    3    3    0    0  0.23604312885E+02  0.11949278150E+03 -0.44587352672E+03  0.46221087206E+03  0.00000000000E+00 0. -1.
        -11    1    3    3    0    0  0.19371494911E+02  0.91167229359E+02 -0.82601580614E+03  0.83125737922E+03  0.00000000000E+00 0.  1.
         22    1    1    2    0    0 -0.42975807796E+02 -0.21066001086E+03  0.43460467057E+03  0.48487707711E+03  0.00000000000E+00 0. -1.
<mgrwt>
<rscale>  0 0.15689061E+04</rscale>
<asrwt>0</asrwt>
<pdfrwt beam="1">  1        2 0.20120231E+00 0.15689061E+04</pdfrwt>
<pdfrwt beam="2">  1       -2 0.72389282E-01 0.15689061E+04</pdfrwt>
<totfact> 0.27155163E+01</totfact>
</mgrwt>
</event>
<event>
 6    1  0.1934315E-005  0.1301956E+04  0.7818608E-02  0.9028016E-01
         -2   -1    0    0    0  501 -0.00000000000E+00  0.00000000000E+00  0.45095059596E+03  0.45095059596E+03  0.00000000000E+00 0. -1.
          2   -1    0    0  501    0  0.00000000000E+00 -0.00000000000E+00 -0.93973082578E+03  0.93973082578E+03  0.00000000000E+00 0.  1.
         23    2    1    2    0    0  0.37990416274E+03 -0.15303214169E+03 -0.78158039195E+03  0.88721549021E+03  0.92398093803E+02 0.  0.
         11    1    3    3    0    0  0.13848670790E+03 -0.21162071083E+02 -0.20399508823E+03  0.24746797275E+03  0.00000000000E+00 0. -1.
        -11    1    3    3    0    0  0.24141745485E+03 -0.13187007061E+03 -0.57758530372E+03  0.63974751746E+03  0.00000000000E+00 0.  1.
         22    1    1    2    0    0 -0.37990416274E+03  0.15303214169E+03  0.29280016213E+03  0.50346593152E+03  0.00000000000E+00 0. -1.
<mgrwt>
<rscale>  0 0.13019557E+04</rscale>
<asrwt>0</asrwt>
<pdfrwt beam="1">  1        2 0.14457397E+00 0.13019557E+04</pdfrwt>
<pdfrwt beam="2">  1       -2 0.69377016E-01 0.13019557E+04</pdfrwt>
<totfact> 0.51247432E+01</totfact>
</mgrwt>
</event>
<event>
 6    1  0.1934315E-005  0.1834648E+04  0.7818608E-02  0.8688088E-01
          2   -1    0    0  501    0  0.00000000000E+00  0.00000000000E+00  0.14897419394E+04  0.14897419394E+04  0.00000000000E+00 0.  1.
         -2   -1    0    0    0  501 -0.00000000000E+00 -0.00000000000E+00 -0.56485143985E+03  0.56485143985E+03  0.00000000000E+00 0. -1.
         23    2    1    2    0    0 -0.60688172029E+02  0.53540407694E+03 -0.36570831816E+03  0.65602772542E+03  0.79304619820E+02 0.  0.
         11    1    3    3    0    0 -0.44195841398E+02  0.10514267558E+03 -0.77861644407E+02  0.13809667011E+03  0.00000000000E+00 0.  1.
        -11    1    3    3    0    0 -0.16492330631E+02  0.43026140136E+03 -0.28784667375E+03  0.51793105531E+03  0.00000000000E+00 0. -1.
         22    1    1    2    0    0  0.60688172029E+02 -0.53540407694E+03  0.12905988177E+04  0.13985656539E+04  0.00000000000E+00 0.  1.
<mgrwt>
<rscale>  0 0.18346475E+04</rscale>
<asrwt>0</asrwt>
<pdfrwt beam="1">  1        2 0.22919107E+00 0.18346475E+04</pdfrwt>
<pdfrwt beam="2">  1       -2 0.86900222E-01 0.18346475E+04</pdfrwt>
<totfact> 0.13874631E+01</totfact>
</mgrwt>
</event>
<event>
 6    1  0.1934315E-005  0.2355508E+04  0.7818608E-02  0.8456351E-01
         -1   -1    0    0    0  501 -0.00000000000E+00  0.00000000000E+00  0.12747510385E+04  0.12747510385E+04  0.00000000000E+00 0. -1.
          1   -1    0    0  501    0  0.00000000000E+00 -0.00000000000E+00 -0.10881376960E+04  0.10881376960E+04  0.00000000000E+00 0.  1.
         23    2    1    2    0    0  0.20407544552E+03 -0.11214319768E+04 -0.19466884328E+03  0.11609600465E+04  0.10332378726E+03 0.  0.
         13    1    3    3    0    0  0.15728744764E+03 -0.75887741665E+03 -0.17706308441E+03  0.79497522637E+03  0.00000000000E+00 0.  1.
        -13    1    3    3    0    0  0.46787997877E+02 -0.36255456013E+03 -0.17605758870E+02  0.36598482012E+03  0.00000000000E+00 0. -1.
         22    1    1    2    0    0 -0.20407544552E+03  0.11214319768E+04  0.38128218578E+03  0.12019286881E+04  0.00000000000E+00 0. -1.
<mgrwt>
<rscale>  0 0.23555081E+04</rscale>
<asrwt>0</asrwt>
<pdfrwt beam="1">  1        1 0.16740580E+00 0.23555081E+04</pdfrwt>
<pdfrwt beam="2">  1       -1 0.19611554E+00 0.23555081E+04</pdfrwt>
<totfact> 0.18644217E+00</totfact>
</mgrwt>
</event>
<event>
 6    1  0.1934315E-005  0.1108767E+04  0.7818608E-02  0.9196689E-01
          2   -1    0    0  501    0  0.00000000000E+00  0.00000000000E+00  0.55386338902E+03  0.55386338902E+03  0.00000000000E+00 0.  1.
         -2   -1    0    0    0  501 -0.00000000000E+00 -0.00000000000E+00 -0.55490401289E+03  0.55490401289E+03  0.00000000000E+00 0. -1.
         23    2    1    2    0    0  0.30672250419E+03 -0.45590039901E+03 -0.20997608624E+02  0.55892910784E+03  0.10018472752E+03 0.  0.
         13    1    3    3    0    0  0.25338857387E+03 -0.29671065703E+03 -0.25130608728E+02  0.39099172735E+03  0.00000000000E+00 0. -1.
        -13    1    3    3    0    0  0.53333930322E+02 -0.15918974198E+03  0.41330001039E+01  0.16793738048E+03  0.00000000000E+00 0.  1.
         22    1    1    2    0    0 -0.30672250419E+03  0.45590039901E+03  0.19956984758E+02  0.54983829408E+03  0.00000000000E+00 0.  1.
<mgrwt>
<rscale>  0 0.11087669E+04</rscale>
<asrwt>0</asrwt>
<pdfrwt beam="1">  1        2 0.85209752E-01 0.11087669E+04</pdfrwt>
<pdfrwt beam="2">  1       -2 0.85369849E-01 0.11087669E+04</pdfrwt>
<totfact> 0.64672497E+01</totfact>
</mgrwt>
</event>
<event>
 6    1  0.1934315E-005  0.1248456E+04  0.7818608E-02  0.9071469E-01
         -2   -1    0    0    0  501 -0.00000000000E+00  0.00000000000E+00  0.21660670441E+03  0.21660670441E+03  0.00000000000E+00 0. -1.
          2   -1    0    0  501    0  0.00000000000E+00 -0.00000000000E+00 -0.17989314537E+04  0.17989314537E+04  0.00000000000E+00 0.  1.
         23    2    1    2    0    0  0.57533613812E+03 -0.19973072018E+03 -0.60114273991E+03  0.86071255745E+03  0.92463400360E+02 0.  0.
         13    1    3    3    0    0  0.43221252878E+03 -0.11960619647E+03 -0.39783724341E+03  0.59948960334E+03  0.00000000000E+00 0. -1.
        -13    1    3    3    0    0  0.14312360934E+03 -0.80124523710E+02 -0.20330549650E+03  0.26122295411E+03  0.00000000000E+00 0.  1.
         22    1    1    2    0    0 -0.57533613812E+03  0.19973072018E+03 -0.98118200940E+03  0.11548256007E+04  0.00000000000E+00 0.  1.
<mgrwt>
<rscale>  0 0.12484560E+04</rscale>
<asrwt>0</asrwt>
<pdfrwt beam="1">  1        2 0.27675869E+00 0.12484560E+04</pdfrwt>
<pdfrwt beam="2">  1       -2 0.33324108E-01 0.12484560E+04</pdfrwt>
<totfact> 0.71507794E+01</totfact>
</mgrwt>
</event>
<event>
 6    1  0.1934315E-005  0.4416912E+04  0.7818608E-02  0.7925347E-01
         -2   -1    0    0    0  501 -0.00000000000E+00  0.00000000000E+00  0.16306343009E+04  0.16306343009E+04  0.00000000000E+00 0. -1.
          2   -1    0    0  501    0  0.00000000000E+00 -0.00000000000E+00 -0.29910316438E+04  0.29910316438E+04  0.00000000000E+00 0.  1.
         23    2    1    2    0    0 -0.54781576673E+03 -0.15335262970E+04 -0.22399837215E+04  0.27708614669E+04  0.91330049657E+02 0.  0.
         13    1    3    3    0    0 -0.56577222272E+02 -0.25553066401E+03 -0.34722470042E+03  0.43481248247E+03  0.00000000000E+00 0. -1.
        -13    1    3    3    0    0 -0.49123854446E+03 -0.12779956330E+04 -0.18927590211E+04  0.23360489844E+04  0.00000000000E+00 0.  1.
         22    1    1    2    0    0  0.54781576673E+03  0.15335262970E+04  0.87958637864E+03  0.18508044779E+04  0.00000000000E+00 0. -1.
<mgrwt>
<rscale>  0 0.44169124E+04</rscale>
<asrwt>0</asrwt>
<pdfrwt beam="1">  1        2 0.46015871E+00 0.44169124E+04</pdfrwt>
<pdfrwt beam="2">  1       -2 0.25086682E+00 0.44169124E+04</pdfrwt>
<totfact> 0.85361242E-02</totfact>
</mgrwt>
</event>
<event>
 6    1  0.1934315E-005  0.7204740E+03  0.7818608E-02  0.9682846E-01
          2   -1    0    0  501    0  0.00000000000E+00  0.00000000000E+00  0.61637517819E+02  0.61637517819E+02  0.00000000000E+00 0.  1.
         -2   -1    0    0    0  501 -0.00000000000E+00 -0.00000000000E+00 -0.21053850328E+04  0.21053850328E+04  0.00000000000E+00 0. -1.
         23    2    1    2    0    0  0.13428949066E+03 -0.57396106742E+02 -0.20094497003E+04  0.20170081498E+04  0.95424304266E+02 0.  0.
         13    1    3    3    0    0  0.56497555920E+02 -0.41374167585E+02 -0.14778218569E+04  0.14794800561E+04  0.00000000000E+00 0.  1.
        -13    1    3    3    0    0  0.77791934742E+02 -0.16021939158E+02 -0.53162784338E+03  0.53752809369E+03  0.00000000000E+00 0. -1.
         22    1    1    2    0    0 -0.13428949066E+03  0.57396106742E+02 -0.34297814690E+02  0.15001440086E+03  0.00000000000E+00 0.  1.
<mgrwt>
<rscale>  0 0.72047403E+03</rscale>
<asrwt>0</asrwt>
<pdfrwt beam="1">  1        2 0.94826954E-02 0.72047403E+03</pdfrwt>
<pdfrwt beam="2">  1       -2 0.32390538E+00 0.72047403E+03</pdfrwt>
<totfact> 0.16925096E+01</totfact>
</mgrwt>
</event>
<event>
 6    1  0.1934315E-005  0.2745414E+04  0.7818608E-02  0.8320418E-01
          2   -1    0    0  501    0  0.00000000000E+00  0.00000000000E+00  0.39718222707E+04  0.39718222707E+04  0.00000000000E+00 0.  1.
         -2   -1    0    0    0  501 -0.00000000000E+00 -0.00000000000E+00 -0.47442326426E+03  0.47442326426E+03  0.00000000000E+00 0. -1.
         23    2    1    2    0    0 -0.11460460113E+04 -0.58169943974E+03  0.97717870071E+03  0.16172340313E+04  0.93658959692E+02 0.  0.
         11    1    3    3    0    0 -0.69579290043E+03 -0.39756241581E+03  0.63581097664E+03  0.10229561246E+04  0.00000000000E+00 0. -1.
        -11    1    3    3    0    0 -0.45025311088E+03 -0.18413702393E+03  0.34136772407E+03  0.59427790677E+03  0.00000000000E+00 0.  1.
         22    1    1    2    0    0  0.11460460113E+04  0.58169943974E+03  0.25202203057E+04  0.28290115036E+04  0.00000000000E+00 0.  1.
<mgrwt>
<rscale>  0 0.27454143E+04</rscale>
<asrwt>0</asrwt>
<pdfrwt beam="1">  1        2 0.61104956E+00 0.27454143E+04</pdfrwt>
<pdfrwt beam="2">  1       -2 0.72988197E-01 0.27454143E+04</pdfrwt>
<totfact> 0.53490877E-01</totfact>
</mgrwt>
</event>
<event>
 6    1  0.1934315E-005  0.3647513E+04  0.7818608E-02  0.8079694E-01
          2   -1    0    0  501    0  0.00000000000E+00  0.00000000000E+00  0.18274089060E+04  0.18274089060E+04  0.00000000000E+00 0.  1.
         -2   -1    0    0    0  501 -0.00000000000E+00 -0.00000000000E+00 -0.18201113881E+04  0.18201113881E+04  0.00000000000E+00 0. -1.
         23    2    1    2    0    0  0.90123841411E+03  0.39262769475E+03 -0.15310899215E+04  0.18218633988E+04  0.92534915855E+02 0.  0.
         11    1    3    3    0    0  0.31278016271E+03  0.18453029301E+03 -0.55279406103E+03  0.66141071441E+03  0.00000000000E+00 0. -1.
        -11    1    3    3    0    0  0.58845825140E+03  0.20809740174E+03 -0.97829586045E+03  0.11604526844E+04  0.00000000000E+00 0.  1.
         22    1    1    2    0    0 -0.90123841411E+03 -0.39262769475E+03  0.15383874393E+04  0.18256568952E+04  0.00000000000E+00 0.  1.
<mgrwt>
<rscale>  0 0.36475130E+04</rscale>
<asrwt>0</asrwt>
<pdfrwt beam="1">  1        2 0.28113983E+00 0.36475130E+04</pdfrwt>
<pdfrwt beam="2">  1       -2 0.28001714E+00 0.36475130E+04</pdfrwt>
<totfact> 0.28479797E-01</totfact>
</mgrwt>
</event>
<event>
 6    1  0.1934315E-005  0.3552717E+04  0.7818608E-02  0.8101409E-01
          2   -1    0    0  501    0  0.00000000000E+00  0.00000000000E+00  0.26049680566E+04  0.26049680566E+04  0.00000000000E+00 0.  1.
         -2   -1    0    0    0  501 -0.00000000000E+00 -0.00000000000E+00 -0.12113197429E+04  0.12113197429E+04  0.00000000000E+00 0. -1.
         23    2    1    2    0    0 -0.10970384825E+04 -0.11446681882E+04  0.15556588003E+04  0.22225481435E+04  0.76728444567E+02 0.  0.
         13    1    3    3    0    0 -0.37387636770E+02 -0.27292207902E+02  0.32311208437E+02  0.56450989239E+02  0.00000000000E+00 0. -1.
        -13    1    3    3    0    0 -0.10596508457E+04 -0.11173759803E+04  0.15233475919E+04  0.21660971543E+04  0.00000000000E+00 0.  1.
         22    1    1    2    0    0  0.10970384825E+04  0.11446681882E+04 -0.16201048662E+03  0.15937396559E+04  0.00000000000E+00 0. -1.
<mgrwt>
<rscale>  0 0.35527168E+04</rscale>
<asrwt>0</asrwt>
<pdfrwt beam="1">  1        2 0.40076432E+00 0.35527168E+04</pdfrwt>
<pdfrwt beam="2">  1       -2 0.18635688E+00 0.35527168E+04</pdfrwt>
<totfact> 0.40561002E-01</totfact>
</mgrwt>
</event>
<event>
 6    1  0.1934315E-005  0.1858530E+04  0.7818608E-02  0.8675778E-01
         -2   -1    0    0    0  501 -0.00000000000E+00  0.00000000000E+00  0.64502728454E+03  0.64502728454E+03  0.00000000000E+00 0. -1.
          2   -1    0    0  501    0  0.00000000000E+00 -0.00000000000E+00 -0.13387554968E+04  0.13387554968E+04  0.00000000000E+00 0.  1.
         23    2    1    2    0    0 -0.50271690620E+03 -0.24541616858E+03 -0.11367638280E+04  0.12701764891E+04  0.90348930644E+02 0.  0.
         13    1    3    3    0    0 -0.26173442361E+03 -0.17733572489E+03 -0.64635432223E+03  0.71953233263E+03  0.00000000000E+00 0.  1.
        -13    1    3    3    0    0 -0.24098248259E+03 -0.68080443695E+02 -0.49040950578E+03  0.55064415650E+03  0.00000000000E+00 0. -1.
         22    1    1    2    0    0  0.50271690620E+03  0.24541616858E+03  0.44303561571E+03  0.71360629227E+03  0.00000000000E+00 0. -1.
<mgrwt>
<rscale>  0 0.18585304E+04</rscale>
<asrwt>0</asrwt>
<pdfrwt beam="1">  1        2 0.20596238E+00 0.18585304E+04</pdfrwt>
<pdfrwt beam="2">  1       -2 0.99234969E-01 0.18585304E+04</pdfrwt>
<totfact> 0.12407667E+01</totfact>
</mgrwt>
</event>
<event>
 6    1  0.1934315E-005  0.2327276E+04  0.7818608E-02  0.8467244E-01
          1   -1    0    0  501    0  0.00000000000E+00  0.00000000000E+00  0.25083767584E+04  0.25083767584E+04  0.00000000000E+00 0.  1.
         -1   -1    0    0    0  501 -0.00000000000E+00 -0.00000000000E+00 -0.53981239656E+03  0.53981239656E+03  0.00000000000E+00 0. -1.
         23    2    1    2    0    0  0.10247619677E+04  0.67728373716E+02  0.27551215520E+03  0.10679997707E+04  0.99961690582E+02 0.  0.
         13    1    3    3    0    0  0.95994334856E+03  0.38481632017E+02  0.25841417256E+03  0.99486177584E+03  0.00000000000E+00 0.  1.
        -13    1    3    3    0    0  0.64818619122E+02  0.29246741700E+02  0.17097982641E+02  0.73137994881E+02  0.00000000000E+00 0. -1.
         22    1    1    2    0    0 -0.10247619677E+04 -0.67728373716E+02  0.16930522066E+04  0.19801893842E+04  0.00000000000E+00 0.  1.
<mgrwt>
<rscale>  0 0.23272755E+04</rscale>
<asrwt>0</asrwt>
<pdfrwt beam="1">  1        1 0.38590411E+00 0.23272755E+04</pdfrwt>
<pdfrwt beam="2">  1       -1 0.83048062E-01 0.23272755E+04</pdfrwt>
<totfact> 0.17351558E+00</totfact>
</mgrwt>
</event>
<event>
 6    1  0.1934315E-005  0.1534800E+04  0.7818608E-02  0.8861635E-01
         -2   -1    0    0    0  501 -0.00000000000E+00  0.00000000000E+00  0.87803608273E+03  0.87803608273E+03  0.00000000000E+00 0. -1.
          2   -1    0    0  501    0  0.00000000000E+00 -0.00000000000E+00 -0.67070491370E+03  0.67070491370E+03  0.00000000000E+00 0.  1.
         23    2    1    2    0    0  0.30799118029E+03  0.20363574631E+03  0.77996092231E+03  0.86739606276E+03  0.87811189758E+02 0.  0.
         13    1    3    3    0    0  0.51591359737E+02  0.41870198387E+02  0.23006300769E+03  0.23946559130E+03  0.00000000000E+00 0.  1.
        -13    1    3    3    0    0  0.25639982055E+03  0.16176554793E+03  0.54989791462E+03  0.62793047145E+03  0.00000000000E+00 0. -1.
         22    1    1    2    0    0 -0.30799118029E+03 -0.20363574631E+03 -0.57262975327E+03  0.68134493367E+03  0.00000000000E+00 0.  1.
<mgrwt>
<rscale>  0 0.15348005E+04</rscale>
<asrwt>0</asrwt>
<pdfrwt beam="1">  1        2 0.10318537E+00 0.15348005E+04</pdfrwt>
<pdfrwt beam="2">  1       -2 0.13508247E+00 0.15348005E+04</pdfrwt>
<totfact> 0.16406874E+01</totfact>
</mgrwt>
</event>
<event>
 6    1  0.1934315E-005  0.1691404E+04  0.7818608E-02  0.8766282E-01
         -1   -1    0    0    0  501 -0.00000000000E+00  0.00000000000E+00  0.56199367666E+03  0.56199367666E+03  0.00000000000E+00 0. -1.
          1   -1    0    0  501    0  0.00000000000E+00 -0.00000000000E+00 -0.12726331042E+04  0.12726331042E+04  0.00000000000E+00 0.  1.
         23    2    1    2    0    0  0.41606072797E+03  0.39592096933E+03 -0.10260090644E+04  0.11794031922E+04  0.91855028864E+02 0.  0.
         13    1    3    3    0    0  0.14870915628E+03  0.84907667423E+02 -0.31854036056E+03  0.36165133271E+03  0.00000000000E+00 0. -1.
        -13    1    3    3    0    0  0.26735157169E+03  0.31101330191E+03 -0.70746870380E+03  0.81775185949E+03  0.00000000000E+00 0.  1.
         22    1    1    2    0    0 -0.41606072797E+03 -0.39592096933E+03  0.31536963681E+03  0.65522358866E+03  0.00000000000E+00 0. -1.
<mgrwt>
<rscale>  0 0.16914039E+04</rscale>
<asrwt>0</asrwt>
<pdfrwt beam="1">  1        1 0.19578971E+00 0.16914039E+04</pdfrwt>
<pdfrwt beam="2">  1       -1 0.86460567E-01 0.16914039E+04</pdfrwt>
<totfact> 0.11890533E+01</totfact>
</mgrwt>
</event>
<event>
 6    1  0.1934315E-005  0.1545163E+04  0.7818608E-02  0.8854963E-01
         -2   -1    0    0    0  501 -0.00000000000E+00  0.00000000000E+00  0.27437857251E+03  0.27437857251E+03  0.00000000000E+00 0. -1.
          2   -1    0    0  501    0  0.00000000000E+00 -0.00000000000E+00 -0.21753976039E+04  0.21753976039E+04  0.00000000000E+00 0.  1.
         23    2    1    2    0    0 -0.16103400183E+03 -0.50773903302E+03 -0.18345677032E+04  0.19129832420E+04  0.10067448090E+03 0.  0.
         13    1    3    3    0    0 -0.11062137760E+03 -0.35424192479E+03 -0.11019815640E+04  0.11627931019E+04  0.00000000000E+00 0. -1.
        -13    1    3    3    0    0 -0.50412624227E+02 -0.15349710823E+03 -0.73258613921E+03  0.75019014008E+03  0.00000000000E+00 0.  1.
         22    1    1    2    0    0  0.16103400183E+03  0.50773903302E+03 -0.66451328161E+02  0.53679293439E+03  0.00000000000E+00 0. -1.
<mgrwt>
<rscale>  0 0.15451634E+04</rscale>
<asrwt>0</asrwt>
<pdfrwt beam="1">  1        2 0.33467654E+00 0.15451634E+04</pdfrwt>
<pdfrwt beam="2">  1       -2 0.42212089E-01 0.15451634E+04</pdfrwt>
<totfact> 0.27328094E+01</totfact>
</mgrwt>
</event>
<event>
 6    1  0.1934315E-005  0.1874910E+04  0.7818608E-02  0.8667447E-01
         -2   -1    0    0    0  501 -0.00000000000E+00  0.00000000000E+00  0.23189973520E+03  0.23189973520E+03  0.00000000000E+00 0. -1.
          2   -1    0    0  501    0  0.00000000000E+00 -0.00000000000E+00 -0.37896641528E+04  0.37896641528E+04  0.00000000000E+00 0.  1.
         23    2    1    2    0    0  0.53520291499E+03 -0.35279031795E+03 -0.32255668705E+03  0.72346258141E+03  0.91935421294E+02 0.  0.
         13    1    3    3    0    0  0.40901631924E+02 -0.50255727720E+02 -0.55670922205E+02  0.85427356519E+02  0.00000000000E+00 0.  1.
        -13    1    3    3    0    0  0.49430128306E+03 -0.30253459024E+03 -0.26688576485E+03  0.63803522489E+03  0.00000000000E+00 0. -1.
         22    1    1    2    0    0 -0.53520291499E+03  0.35279031795E+03 -0.32352077306E+04  0.32981013066E+04  0.00000000000E+00 0.  1.
<mgrwt>
<rscale>  0 0.18749103E+04</rscale>
<asrwt>0</asrwt>
<pdfrwt beam="1">  1        2 0.58302526E+00 0.18749103E+04</pdfrwt>
<pdfrwt beam="2">  1       -2 0.35676882E-01 0.18749103E+04</pdfrwt>
<totfact> 0.35012868E+00</totfact>
</mgrwt>
</event>
<event>
 6    1  0.1934315E-005  0.2242960E+04  0.7818608E-02  0.8500757E-01
         -2   -1    0    0    0  501 -0.00000000000E+00  0.00000000000E+00  0.51447986348E+03  0.51447986348E+03  0.00000000000E+00 0. -1.
          2   -1    0    0  501    0  0.00000000000E+00 -0.00000000000E+00 -0.24446395360E+04  0.24446395360E+04  0.00000000000E+00 0.  1.
         23    2    1    2    0    0 -0.14597559354E+03  0.10914103368E+04 -0.69909824976E+03  0.13074542930E+04  0.90625429195E+02 0.  0.
         11    1    3    3    0    0 -0.10845908886E+03  0.53318230477E+03 -0.31343946841E+03  0.62792598643E+03  0.00000000000E+00 0. -1.
        -11    1    3    3    0    0 -0.37516504683E+02  0.55822803202E+03 -0.38565878135E+03  0.67952830662E+03  0.00000000000E+00 0.  1.
         22    1    1    2    0    0  0.14597559354E+03 -0.10914103368E+04 -0.12310614227E+04  0.16516651064E+04  0.00000000000E+00 0.  1.
<mgrwt>
<rscale>  0 0.22429604E+04</rscale>
<asrwt>0</asrwt>
<pdfrwt beam="1">  1        2 0.37609838E+00 0.22429604E+04</pdfrwt>
<pdfrwt beam="2">  1       -2 0.79150750E-01 0.22429604E+04</pdfrwt>
<totfact> 0.48326315E+00</totfact>
</mgrwt>
</event>
<event>
 6    1  0.1934315E-005  0.5181270E+04  0.7818608E-02  0.7801137E-01
         -2   -1    0    0    0  501 -0.00000000000E+00  0.00000000000E+00  0.42401547519E+04  0.42401547519E+04  0.00000000000E+00 0. -1.
          2   -1    0    0  501    0  0.00000000000E+00 -0.00000000000E+00 -0.15828173403E+04  0.15828173403E+04  0.00000000000E+00 0.  1.
         23    2    1    2    0    0 -0.10973918325E+03 -0.13981571805E+04 -0.11177993869E+04  0.17957467401E+04  0.91349304765E+02 0.  0.
         13    1    3    3    0    0 -0.12407572212E+03 -0.11709045619E+04 -0.92367809289E+03  0.14965271455E+04  0.00000000000E+00 0. -1.
        -13    1    3    3    0    0  0.14336538879E+02 -0.22725261860E+03 -0.19412129403E+03  0.29921959462E+03  0.00000000000E+00 0.  1.
         22    1    1    2    0    0  0.10973918325E+03  0.13981571805E+04  0.37751367985E+04  0.40272253521E+04  0.00000000000E+00 0. -1.
<mgrwt>
<rscale>  0 0.51812703E+04</rscale>
<asrwt>0</asrwt>
<pdfrwt beam="1">  1        2 0.24351036E+00 0.51812703E+04</pdfrwt>
<pdfrwt beam="2">  1       -2 0.65233149E+00 0.51812703E+04</pdfrwt>
<totfact> 0.27335664E-03</totfact>
</mgrwt>
</event>
<event>
 6    1  0.1934315E-005  0.4045053E+04  0.7818608E-02  0.7995519E-01
          2   -1    0    0  501    0  0.00000000000E+00  0.00000000000E+00  0.34655906337E+04  0.34655906337E+04  0.00000000000E+00 0.  1.
         -2   -1    0    0    0  501 -0.00000000000E+00 -0.00000000000E+00 -0.11803507821E+04  0.11803507821E+04  0.00000000000E+00 0. -1.
         23    2    1    2    0    0 -0.10715215224E+04 -0.17035818726E+04  0.13618643954E+04  0.24316758936E+04  0.89573715947E+02 0.  0.
         11    1    3    3    0    0 -0.91343838703E+03 -0.13884354351E+04  0.11216427525E+04  0.20050449143E+04  0.00000000000E+00 0. -1.
        -11    1    3    3    0    0 -0.15808313532E+03 -0.31514643752E+03  0.24022164287E+03  0.42663097925E+03  0.00000000000E+00 0.  1.
         22    1    1    2    0    0  0.10715215224E+04  0.17035818726E+04  0.92337545625E+03  0.22142655222E+04  0.00000000000E+00 0.  1.
<mgrwt>
<rscale>  0 0.40450526E+04</rscale>
<asrwt>0</asrwt>
<pdfrwt beam="1">  1        2 0.53316779E+00 0.40450526E+04</pdfrwt>
<pdfrwt beam="2">  1       -2 0.18159243E+00 0.40450526E+04</pdfrwt>
<totfact> 0.11919216E-01</totfact>
</mgrwt>
</event>
<event>
 6    1  0.1934315E-005  0.8607814E+03  0.7818608E-02  0.9475980E-01
          2   -1    0    0  501    0  0.00000000000E+00  0.00000000000E+00  0.90747336786E+03  0.90747336786E+03  0.00000000000E+00 0.  1.
         -2   -1    0    0    0  501 -0.00000000000E+00 -0.00000000000E+00 -0.20412298390E+03  0.20412298390E+03  0.00000000000E+00 0. -1.
         23    2    1    2    0    0 -0.21493422397E+03 -0.26477294516E+03  0.68444674344E+03  0.77004287022E+03  0.90538633997E+02 0.  0.
         11    1    3    3    0    0 -0.66625993590E+02 -0.95139126208E+02  0.33194588445E+03  0.35167960783E+03  0.00000000000E+00 0. -1.
        -11    1    3    3    0    0 -0.14830823038E+03 -0.16963381896E+03  0.35250085899E+03  0.41836326239E+03  0.00000000000E+00 0.  1.
         22    1    1    2    0    0  0.21493422397E+03  0.26477294516E+03  0.18903640518E+02  0.34155348153E+03  0.00000000000E+00 0. -1.
<mgrwt>
<rscale>  0 0.86078144E+03</rscale>
<asrwt>0</asrwt>
<pdfrwt beam="1">  1        2 0.13961129E+00 0.86078144E+03</pdfrwt>
<pdfrwt beam="2">  1       -2 0.31403536E-01 0.86078144E+03</pdfrwt>
<totfact> 0.27350653E+02</totfact>
</mgrwt>
</event>
<event>
 6    1  0.1934315E-005  0.2870492E+04  0.7818608E-02  0.8281712E-01
         -2   -1    0    0    0  501 -0.00000000000E+00  0.00000000000E+00  0.19312300203E+04  0.19312300203E+04  0.00000000000E+00 0. -1.
          2   -1    0    0  501    0  0.00000000000E+00 -0.00000000000E+00 -0.10666418336E+04  0.10666418336E+04  0.00000000000E+00 0.  1.
         23    2    1    2    0    0 -0.75803971177E+03 -0.68363345970E+02 -0.83634868582E+03  0.11344116327E+04  0.90071507866E+02 0.  0.
         13    1    3    3    0    0 -0.54784545244E+03 -0.56568541323E+02 -0.66135190627E+03  0.86065148786E+03  0.00000000000E+00 0. -1.
        -13    1    3    3    0    0 -0.21019425933E+03 -0.11794804647E+02 -0.17499677955E+03  0.27376014488E+03  0.00000000000E+00 0.  1.
         22    1    1    2    0    0  0.75803971177E+03  0.68363345970E+02  0.17009368725E+04  0.18634602212E+04  0.00000000000E+00 0. -1.
<mgrwt>
<rscale>  0 0.28704918E+04</rscale>
<asrwt>0</asrwt>
<pdfrwt beam="1">  1        2 0.16409874E+00 0.28704918E+04</pdfrwt>
<pdfrwt beam="2">  1       -2 0.29711231E+00 0.28704918E+04</pdfrwt>
<totfact> 0.65445079E-01</totfact>
</mgrwt>
</event>
<event>
 6    1  0.1934315E-005  0.1690069E+04  0.7818608E-02  0.8767049E-01
         -2   -1    0    0    0  501 -0.00000000000E+00  0.00000000000E+00  0.22610032053E+03  0.22610032053E+03  0.00000000000E+00 0. -1.
          2   -1    0    0  501    0  0.00000000000E+00 -0.00000000000E+00 -0.31582584085E+04  0.31582584085E+04  0.00000000000E+00 0.  1.
         23    2    1    2    0    0  0.64617063372E+02 -0.82684185315E+03 -0.17730547263E+04  0.19590996585E+04  0.80657266259E+02 0.  0.
         13    1    3    3    0    0  0.47370412024E+02 -0.17875586858E+03 -0.38615694284E+03  0.42815277763E+03  0.00000000000E+00 0.  1.
        -13    1    3    3    0    0  0.17246651348E+02 -0.64808598458E+03 -0.13868977834E+04  0.15309468809E+04  0.00000000000E+00 0. -1.
         22    1    1    2    0    0 -0.64617063372E+02  0.82684185315E+03 -0.11591033617E+04  0.14252590705E+04  0.00000000000E+00 0.  1.
<mgrwt>
<rscale>  0 0.16900689E+04</rscale>
<asrwt>0</asrwt>
<pdfrwt beam="1">  1        2 0.48588592E+00 0.16900689E+04</pdfrwt>
<pdfrwt beam="2">  1       -2 0.34784664E-01 0.16900689E+04</pdfrwt>
<totfact> 0.10255243E+01</totfact>
</mgrwt>
</event>
<event>
 6    1  0.1934315E-005  0.3045281E+04  0.7818608E-02  0.8230918E-01
          2   -1    0    0  501    0  0.00000000000E+00  0.00000000000E+00  0.97848412923E+03  0.97848412923E+03  0.00000000000E+00 0.  1.
         -2   -1    0    0    0  501 -0.00000000000E+00 -0.00000000000E+00 -0.23694140550E+04  0.23694140550E+04  0.00000000000E+00 0. -1.
         23    2    1    2    0    0  0.24123979360E+03  0.68613513158E+03 -0.21650121638E+04  0.22857393600E+04  0.91371196673E+02 0.  0.
         11    1    3    3    0    0  0.30595544781E+02  0.18696500891E+03 -0.63321890470E+03  0.66095248179E+03  0.00000000000E+00 0.  1.
        -11    1    3    3    0    0  0.21064424881E+03  0.49917012267E+03 -0.15317932591E+04  0.16247868782E+04  0.00000000000E+00 0. -1.
         22    1    1    2    0    0 -0.24123979360E+03 -0.68613513158E+03  0.77408223800E+03  0.10621588243E+04  0.00000000000E+00 0.  1.
<mgrwt>
<rscale>  0 0.30452810E+04</rscale>
<asrwt>0</asrwt>
<pdfrwt beam="1">  1        2 0.15053602E+00 0.30452810E+04</pdfrwt>
<pdfrwt beam="2">  1       -2 0.36452523E+00 0.30452810E+04</pdfrwt>
<totfact> 0.27902049E-01</totfact>
</mgrwt>
</event>
<event>
 6    1  0.1934315E-005  0.1980976E+04  0.7818608E-02  0.8615567E-01
          2   -1    0    0  501    0  0.00000000000E+00  0.00000000000E+00  0.15224656754E+04  0.15224656754E+04  0.00000000000E+00 0.  1.
         -2   -1    0    0    0  501 -0.00000000000E+00 -0.00000000000E+00 -0.64439323212E+03  0.64439323212E+03  0.00000000000E+00 0. -1.
         23    2    1    2    0    0  0.27523115972E+03 -0.91527196424E+03  0.71477586004E+03  0.11972503608E+04  0.95020715850E+02 0.  0.
         13    1    3    3    0    0  0.86517189093E+02 -0.43790353352E+03  0.30834260616E+03  0.54251257262E+03  0.00000000000E+00 0. -1.
        -13    1    3    3    0    0  0.18871397063E+03 -0.47736843071E+03  0.40643325389E+03  0.65473778814E+03  0.00000000000E+00 0.  1.
         22    1    1    2    0    0 -0.27523115972E+03  0.91527196424E+03  0.16329658321E+03  0.96960854673E+03  0.00000000000E+00 0. -1.
<mgrwt>
<rscale>  0 0.19809761E+04</rscale>
<asrwt>0</asrwt>
<pdfrwt beam="1">  1        2 0.23422549E+00 0.19809761E+04</pdfrwt>
<pdfrwt beam="2">  1       -2 0.99137420E-01 0.19809761E+04</pdfrwt>
<totfact> 0.96728227E+00</totfact>
</mgrwt>
</event>
<event>
 6    1  0.1934315E-005  0.3582962E+04  0.7818608E-02  0.8094406E-01
         -2   -1    0    0    0  501 -0.00000000000E+00  0.00000000000E+00  0.11292115388E+04  0.11292115388E+04  0.00000000000E+00 0.  1.
          2   -1    0    0  501    0  0.00000000000E+00 -0.00000000000E+00 -0.28421633831E+04  0.28421633831E+04  0.00000000000E+00 0. -1.
         23    2    1    2    0    0 -0.17071883619E+04  0.35505405582E+03 -0.40732300053E+03  0.17930218368E+04  0.91977143474E+02 0.  0.
         13    1    3    3    0    0 -0.15348383403E+04  0.29160081745E+03 -0.37256318818E+03  0.16061018326E+04  0.00000000000E+00 0.  1.
        -13    1    3    3    0    0 -0.17235002165E+03  0.63453238363E+02 -0.34759812343E+02  0.18692000421E+03  0.00000000000E+00 0. -1.
         22    1    1    2    0    0  0.17071883619E+04 -0.35505405582E+03 -0.13056288438E+04  0.21783530851E+04  0.00000000000E+00 0. -1.
<mgrwt>
<rscale>  0 0.35829617E+04</rscale>
<asrwt>0</asrwt>
<pdfrwt beam="1">  1        2 0.43725590E+00 0.35829617E+04</pdfrwt>
<pdfrwt beam="2">  1       -2 0.17372485E+00 0.35829617E+04</pdfrwt>
<totfact> 0.35671113E-01</totfact>
</mgrwt>
</event>
<event>
 6    1  0.1934315E-005  0.1128412E+04  0.7818608E-02  0.9177934E-01
         -2   -1    0    0    0  501 -0.00000000000E+00  0.00000000000E+00  0.23181188216E+03  0.23181188216E+03  0.00000000000E+00 0. -1.
          2   -1    0    0  501    0  0.00000000000E+00 -0.00000000000E+00 -0.13732186293E+04  0.13732186293E+04  0.00000000000E+00 0.  1.
         23    2    1    2    0    0 -0.23556145594E+03 -0.50794009636E+03 -0.56185664378E+03  0.79919512919E+03  0.97660766629E+02 0.  0.
         11    1    3    3    0    0 -0.15245370882E+03 -0.23240264068E+03 -0.31435974640E+03  0.41961312049E+03  0.00000000000E+00 0.  1.
        -11    1    3    3    0    0 -0.83107747128E+02 -0.27553745569E+03 -0.24749689737E+03  0.37958200870E+03  0.00000000000E+00 0. -1.
         22    1    1    2    0    0  0.23556145594E+03  0.50794009636E+03 -0.57955010335E+03  0.80583538227E+03  0.00000000000E+00 0. -1.
<mgrwt>
<rscale>  0 0.11284120E+04</rscale>
<asrwt>0</asrwt>
<pdfrwt beam="1">  1        2 0.21126440E+00 0.11284120E+04</pdfrwt>
<pdfrwt beam="2">  1       -2 0.35663367E-01 0.11284120E+04</pdfrwt>
<totfact> 0.10971988E+02</totfact>
</mgrwt>
</event>
<event>
 6    1  0.1934315E-005  0.2270165E+04  0.7818608E-02  0.8489778E-01
          2   -1    0    0  501    0  0.00000000000E+00  0.00000000000E+00  0.60806939280E+03  0.60806939280E+03  0.00000000000E+00 0.  1.
         -2   -1    0    0    0  501 -0.00000000000E+00 -0.00000000000E+00 -0.21188567510E+04  0.21188567510E+04  0.00000000000E+00 0. -1.
         23    2    1    2    0    0  0.22743388712E+03  0.27005278242E+03 -0.20500775541E+04  0.20823420968E+04  0.93144791049E+02 0.  0.
         13    1    3    3    0    0  0.39757021403E+02  0.11432026183E+03 -0.64539247351E+03  0.65664388208E+03  0.00000000000E+00 0. -1.
        -13    1    3    3    0    0  0.18767686572E+03  0.15573252059E+03 -0.14046850806E+04  0.14256982147E+04  0.00000000000E+00 0.  1.
         22    1    1    2    0    0 -0.22743388712E+03 -0.27005278242E+03  0.53929019586E+03  0.64458404701E+03  0.00000000000E+00 0.  1.
<mgrwt>
<rscale>  0 0.22701647E+04</rscale>
<asrwt>0</asrwt>
<pdfrwt beam="1">  1        2 0.93549137E-01 0.22701647E+04</pdfrwt>
<pdfrwt beam="2">  1       -2 0.32597796E+00 0.22701647E+04</pdfrwt>
<totfact> 0.97595040E-01</totfact>
</mgrwt>
</event>
<event>
 6    1  0.1934315E-005  0.1696555E+04  0.7818608E-02  0.8763331E-01
         -2   -1    0    0    0  501 -0.00000000000E+00  0.00000000000E+00  0.39400903549E+03  0.39400903549E+03  0.00000000000E+00 0. -1.
          2   -1    0    0  501    0  0.00000000000E+00 -0.00000000000E+00 -0.18262903928E+04  0.18262903928E+04  0.00000000000E+00 0.  1.
         23    2    1    2    0    0  0.38817399103E+03 -0.49853838018E+03 -0.14540448964E+04  0.15880864772E+04  0.92479914059E+02 0.  0.
         11    1    3    3    0    0  0.24377354343E+03 -0.25310631479E+03 -0.87103541605E+03  0.93925025583E+03  0.00000000000E+00 0.  1.
        -11    1    3    3    0    0  0.14440044760E+03 -0.24543206539E+03 -0.58300948038E+03  0.64883622141E+03  0.00000000000E+00 0. -1.
         22    1    1    2    0    0 -0.38817399103E+03  0.49853838018E+03  0.21763539137E+02  0.63221295104E+03  0.00000000000E+00 0. -1.
<mgrwt>
<rscale>  0 0.16965552E+04</rscale>
<asrwt>0</asrwt>
<pdfrwt beam="1">  1        2 0.28096776E+00 0.16965552E+04</pdfrwt>
<pdfrwt beam="2">  1       -2 0.60616774E-01 0.16965552E+04</pdfrwt>
<totfact> 0.20125611E+01</totfact>
</mgrwt>
</event>
<event>
 6    1  0.1934315E-005  0.1604145E+04  0.7818608E-02  0.8818005E-01
         -2   -1    0    0    0  501 -0.00000000000E+00  0.00000000000E+00  0.39848940287E+03  0.39848940287E+03  0.00000000000E+00 0. -1.
          2   -1    0    0  501    0  0.00000000000E+00 -0.00000000000E+00 -0.16143981302E+04  0.16143981302E+04  0.00000000000E+00 0.  1.
         23    2    1    2    0    0  0.66646108098E+03 -0.33885248864E+03 -0.96522093114E+03  0.12243219032E+04  0.91221133240E+02 0.  0.
         11    1    3    3    0    0  0.48979426308E+03 -0.24962859500E+03 -0.64082936697E+03  0.84431933127E+03  0.00000000000E+00 0. -1.
        -11    1    3    3    0    0  0.17666681789E+03 -0.89223893643E+02 -0.32439156417E+03  0.38000257189E+03  0.00000000000E+00 0.  1.
         22    1    1    2    0    0 -0.66646108098E+03  0.33885248864E+03 -0.25068779619E+03  0.78856562991E+03  0.00000000000E+00 0. -1.
<mgrwt>
<rscale>  0 0.16041453E+04</rscale>
<asrwt>0</asrwt>
<pdfrwt beam="1">  1        2 0.24836895E+00 0.16041453E+04</pdfrwt>
<pdfrwt beam="2">  1       -2 0.61306061E-01 0.16041453E+04</pdfrwt>
<totfact> 0.25961702E+01</totfact>
</mgrwt>
</event>
<event>
 6    1  0.1934315E-005  0.1077039E+04  0.7818608E-02  0.9227864E-01
          2   -1    0    0  501    0  0.00000000000E+00  0.00000000000E+00  0.24642198397E+04  0.24642198397E+04  0.00000000000E+00 0.  1.
         -2   -1    0    0    0  501 -0.00000000000E+00 -0.00000000000E+00 -0.11768571728E+03  0.11768571728E+03  0.00000000000E+00 0. -1.
         23    2    1    2    0    0  0.29039549444E+03 -0.43591871185E+03  0.14389092177E+04  0.15339849330E+04  0.91078929161E+02 0.  0.
         11    1    3    3    0    0  0.26130683500E+03 -0.42779591359E+03  0.13480992677E+04  0.14382844786E+04  0.00000000000E+00 0.  1.
        -11    1    3    3    0    0  0.29088659437E+02 -0.81227982635E+01  0.90809949914E+02  0.95700454351E+02  0.00000000000E+00 0. -1.
         22    1    1    2    0    0 -0.29039549444E+03  0.43591871185E+03  0.90762490477E+03  0.10479206240E+04  0.00000000000E+00 0.  1.
<mgrwt>
<rscale>  0 0.10770394E+04</rscale>
<asrwt>0</asrwt>
<pdfrwt beam="1">  1        2 0.37911071E+00 0.10770394E+04</pdfrwt>
<pdfrwt beam="2">  1       -2 0.18105497E-01 0.10770394E+04</pdfrwt>
<totfact> 0.93144594E+01</totfact>
</mgrwt>
</event>
<event>
 6    1  0.1934315E-005  0.1509396E+04  0.7818608E-02  0.8878229E-01
          2   -1    0    0  501    0  0.00000000000E+00  0.00000000000E+00  0.43861224281E+03  0.43861224281E+03  0.00000000000E+00 0.  1.
         -2   -1    0    0    0  501 -0.00000000000E+00 -0.00000000000E+00 -0.12985704829E+04  0.12985704829E+04  0.00000000000E+00 0. -1.
         23    2    1    2    0    0 -0.82196297232E+02 -0.74249401463E+03 -0.52975218643E+03  0.92042717420E+03  0.92169468510E+02 0.  0.
         11    1    3    3    0    0  0.37378620252E+01 -0.10169958279E+03 -0.40021804752E+02  0.10935502553E+03  0.00000000000E+00 0.  1.
        -11    1    3    3    0    0 -0.85934159257E+02 -0.64079443184E+03 -0.48973038168E+03  0.81107214867E+03  0.00000000000E+00 0. -1.
         22    1    1    2    0    0  0.82196297232E+02  0.74249401463E+03 -0.33020605363E+03  0.81675555149E+03  0.00000000000E+00 0. -1.
<mgrwt>
<rscale>  0 0.15093958E+04</rscale>
<asrwt>0</asrwt>
<pdfrwt beam="1">  1        2 0.67478807E-01 0.15093958E+04</pdfrwt>
<pdfrwt beam="2">  1       -2 0.19978007E+00 0.15093958E+04</pdfrwt>
<totfact> 0.92179131E+00</totfact>
</mgrwt>
</event>
<event>
 6    1  0.1934315E-005  0.1638125E+04  0.7818608E-02  0.8797463E-01
          2   -1    0    0  501    0  0.00000000000E+00  0.00000000000E+00  0.19844199913E+04  0.19844199913E+04  0.00000000000E+00 0.  1.
         -2   -1    0    0    0  501 -0.00000000000E+00 -0.00000000000E+00 -0.33806516303E+03  0.33806516303E+03  0.00000000000E+00 0. -1.
         23    2    1    2    0    0 -0.64109414415E+03  0.36007845212E+03  0.32248430898E+03  0.80812345871E+03  0.91701699212E+02 0.  0.
         13    1    3    3    0    0 -0.33410833398E+03  0.23780545670E+03  0.19260872914E+03  0.45307608259E+03  0.00000000000E+00 0.  1.
        -13    1    3    3    0    0 -0.30698581016E+03  0.12227299541E+03  0.12987557983E+03  0.35504737612E+03  0.00000000000E+00 0. -1.
         22    1    1    2    0    0  0.64109414415E+03 -0.36007845212E+03  0.13238705193E+04  0.15143616956E+04  0.00000000000E+00 0.  1.
<mgrwt>
<rscale>  0 0.16381249E+04</rscale>
<asrwt>0</asrwt>
<pdfrwt beam="1">  1        2 0.30529538E+00 0.16381249E+04</pdfrwt>
<pdfrwt beam="2">  1       -2 0.52010026E-01 0.16381249E+04</pdfrwt>
<totfact> 0.22749996E+01</totfact>
</mgrwt>
</event>
<event>
 6    1  0.1934315E-005  0.3902583E+04  0.7818608E-02  0.8024492E-01
         -2   -1    0    0    0  501 -0.00000000000E+00  0.00000000000E+00  0.12585365619E+04  0.12585365619E+04  0.00000000000E+00 0. -1.
          2   -1    0    0  501    0  0.00000000000E+00 -0.00000000000E+00 -0.30253702961E+04  0.30253702961E+04  0.00000000000E+00 0.  1.
         23    2    1    2    0    0 -0.52524580384E+03  0.18593641259E+03 -0.29354616752E+04  0.29892459880E+04  0.90558415077E+02 0.  0.
         13    1    3    3    0    0 -0.34252967997E+03  0.16056202443E+03 -0.20800343262E+04  0.21141545695E+04  0.00000000000E+00 0. -1.
        -13    1    3    3    0    0 -0.18271612387E+03  0.25374388156E+02 -0.85542734894E+03  0.87509141854E+03  0.00000000000E+00 0.  1.
         22    1    1    2    0    0  0.52524580384E+03 -0.18593641259E+03  0.11686279410E+04  0.12946608700E+04  0.00000000000E+00 0. -1.
<mgrwt>
<rscale>  0 0.39025833E+04</rscale>
<asrwt>0</asrwt>
<pdfrwt beam="1">  1        2 0.46544158E+00 0.39025833E+04</pdfrwt>
<pdfrwt beam="2">  1       -2 0.19362101E+00 0.39025833E+04</pdfrwt>
<totfact> 0.19548421E-01</totfact>
</mgrwt>
</event>
<event>
 6    1  0.1934315E-005  0.2240367E+04  0.7818608E-02  0.8501812E-01
          2   -1    0    0  501    0  0.00000000000E+00  0.00000000000E+00  0.18356315917E+04  0.18356315917E+04  0.00000000000E+00 0.  1.
         -2   -1    0    0    0  501 -0.00000000000E+00 -0.00000000000E+00 -0.68358567149E+03  0.68358567149E+03  0.00000000000E+00 0. -1.
         23    2    1    2    0    0  0.93813403862E+03  0.29601888126E+03  0.11750304332E+04  0.15352198342E+04  0.92091084130E+02 0.  0.
         11    1    3    3    0    0  0.73422182097E+03  0.21288427231E+03  0.96284013618E+03  0.12294155211E+04  0.00000000000E+00 0. -1.
        -11    1    3    3    0    0  0.20391221766E+03  0.83134608950E+02  0.21219029704E+03  0.30580431304E+03  0.00000000000E+00 0.  1.
         22    1    1    2    0    0 -0.93813403862E+03 -0.29601888126E+03 -0.22984513001E+02  0.98399742902E+03  0.00000000000E+00 0. -1.
<mgrwt>
<rscale>  0 0.22403673E+04</rscale>
<asrwt>0</asrwt>
<pdfrwt beam="1">  1        2 0.28240486E+00 0.22403673E+04</pdfrwt>
<pdfrwt beam="2">  1       -2 0.10516703E+00 0.22403673E+04</pdfrwt>
<totfact> 0.55002658E+00</totfact>
</mgrwt>
</event>
<event>
 6    1  0.1934315E-005  0.1490435E+04  0.7818608E-02  0.8890838E-01
         -2   -1    0    0    0  501 -0.00000000000E+00  0.00000000000E+00  0.31085990333E+03  0.31085990333E+03  0.00000000000E+00 0. -1.
          2   -1    0    0  501    0  0.00000000000E+00 -0.00000000000E+00 -0.17864937843E+04  0.17864937843E+04  0.00000000000E+00 0.  1.
         23    2    1    2    0    0  0.27368094019E+03  0.66396177890E+03 -0.10030961113E+04  0.12376802353E+04  0.99519120945E+02 0.  0.
         13    1    3    3    0    0  0.16409291638E+03  0.27156406740E+03 -0.42117458790E+03  0.52731542875E+03  0.00000000000E+00 0.  1.
        -13    1    3    3    0    0  0.10958802380E+03  0.39239771150E+03 -0.58192152344E+03  0.71036480655E+03  0.00000000000E+00 0. -1.
         22    1    1    2    0    0 -0.27368094019E+03 -0.66396177890E+03 -0.47253776961E+03  0.85967345229E+03  0.00000000000E+00 0. -1.
<mgrwt>
<rscale>  0 0.14904352E+04</rscale>
<asrwt>0</asrwt>
<pdfrwt beam="1">  1        2 0.27484519E+00 0.14904352E+04</pdfrwt>
<pdfrwt beam="2">  1       -2 0.47824601E-01 0.14904352E+04</pdfrwt>
<totfact> 0.35163424E+01</totfact>
</mgrwt>
</event>
<event>
 6    1  0.2554153E-005  0.3143018E+04  0.7818608E-02  0.8204030E-01
          2   -1    0    0  501    0  0.00000000000E+00  0.00000000000E+00  0.14636434900E+04  0.14636434900E+04  0.00000000000E+00 0.  1.
         -2   -1    0    0    0  501 -0.00000000000E+00 -0.00000000000E+00 -0.16873233311E+04  0.16873233311E+04  0.00000000000E+00 0. -1.
         23    2    1    2    0    0  0.74761005469E+03  0.97929134495E+03 -0.10878938863E+04  0.16460421559E+04  0.89494911035E+02 0.  0.
         11    1    3    3    0    0  0.41457636669E+03  0.54014413216E+03 -0.54168421025E+03  0.87008679507E+03  0.00000000000E+00 0.  1.
        -11    1    3    3    0    0  0.33303368799E+03  0.43914721278E+03 -0.54620967601E+03  0.77595536083E+03  0.00000000000E+00 0. -1.
         22    1    1    2    0    0 -0.74761005469E+03 -0.97929134495E+03  0.86421404511E+03  0.15049246652E+04  0.00000000000E+00 0.  1.
<mgrwt>
<rscale>  0 0.31430175E+04</rscale>
<asrwt>0</asrwt>
<pdfrwt beam="1">  1        2 0.22517592E+00 0.31430175E+04</pdfrwt>
<pdfrwt beam="2">  1       -2 0.25958820E+00 0.31430175E+04</pdfrwt>
<totfact> 0.63193263E-01</totfact>
</mgrwt>
</event>
<event>
 6    1  0.1934315E-005  0.1716721E+04  0.7818608E-02  0.8751885E-01
         -2   -1    0    0    0  501 -0.00000000000E+00  0.00000000000E+00  0.88187393430E+03  0.88187393430E+03  0.00000000000E+00 0. -1.
          2   -1    0    0  501    0  0.00000000000E+00 -0.00000000000E+00 -0.83547426711E+03  0.83547426711E+03  0.00000000000E+00 0.  1.
         23    2    1    2    0    0  0.45939006760E+02  0.14669733532E+03 -0.81907028959E+03  0.83833241849E+03  0.91074716961E+02 0.  0.
         13    1    3    3    0    0  0.44163816964E+02  0.84083876606E+02 -0.66908936707E+03  0.67579665741E+03  0.00000000000E+00 0.  1.
        -13    1    3    3    0    0  0.17751897954E+01  0.62613458718E+02 -0.14998092251E+03  0.16253576108E+03  0.00000000000E+00 0. -1.
         22    1    1    2    0    0 -0.45939006760E+02 -0.14669733532E+03  0.86546995678E+03  0.87901578292E+03  0.00000000000E+00 0. -1.
<mgrwt>
<rscale>  0 0.17167213E+04</rscale>
<asrwt>0</asrwt>
<pdfrwt beam="1">  1        2 0.12853450E+00 0.17167213E+04</pdfrwt>
<pdfrwt beam="2">  1       -2 0.13567291E+00 0.17167213E+04</pdfrwt>
<totfact> 0.12025336E+01</totfact>
</mgrwt>
</event>
<event>
 6    1  0.1934315E-005  0.1756716E+04  0.7818608E-02  0.8729662E-01
          2   -1    0    0  501    0  0.00000000000E+00  0.00000000000E+00  0.19680432096E+04  0.19680432096E+04  0.00000000000E+00 0.  1.
         -2   -1    0    0    0  501 -0.00000000000E+00 -0.00000000000E+00 -0.39202035412E+03  0.39202035412E+03  0.00000000000E+00 0. -1.
         23    2    1    2    0    0 -0.42966672188E+03  0.12336027027E+03 -0.22042842161E+03  0.50882926219E+03  0.10240742569E+03 0.  0.
         11    1    3    3    0    0 -0.12839111528E+03  0.57432002407E+02 -0.11880617620E+03  0.18411306550E+03  0.00000000000E+00 0.  1.
        -11    1    3    3    0    0 -0.30127560660E+03  0.65928267868E+02 -0.10162224541E+03  0.32471619670E+03  0.00000000000E+00 0. -1.
         22    1    1    2    0    0  0.42966672188E+03 -0.12336027027E+03  0.17964512771E+04  0.18512343015E+04  0.00000000000E+00 0.  1.
<mgrwt>
<rscale>  0 0.17567163E+04</rscale>
<asrwt>0</asrwt>
<pdfrwt beam="1">  1        2 0.30277587E+00 0.17567163E+04</pdfrwt>
<pdfrwt beam="2">  1       -2 0.60310825E-01 0.17567163E+04</pdfrwt>
<totfact> 0.16891496E+01</totfact>
</mgrwt>
</event>
<event>
 6    1  0.1934315E-005  0.2902492E+04  0.7818608E-02  0.8272137E-01
          2   -1    0    0  501    0  0.00000000000E+00  0.00000000000E+00  0.34226959733E+04  0.34226959733E+04  0.00000000000E+00 0.  1.
         -2   -1    0    0    0  501 -0.00000000000E+00 -0.00000000000E+00 -0.61533787917E+03  0.61533787917E+03  0.00000000000E+00 0. -1.
         23    2    1    2    0    0 -0.70098415577E+03  0.80835568488E+02  0.31670971028E+04  0.32459951349E+04  0.89817489821E+02 0.  0.
         11    1    3    3    0    0 -0.30581616165E+03  0.76946237630E+02  0.14818982375E+04  0.15150797453E+04  0.00000000000E+00 0. -1.
        -11    1    3    3    0    0 -0.39516799412E+03  0.38893308587E+01  0.16851988653E+04  0.17309153896E+04  0.00000000000E+00 0.  1.
         22    1    1    2    0    0  0.70098415577E+03 -0.80835568488E+02 -0.35973900868E+03  0.79203871757E+03  0.00000000000E+00 0. -1.
<mgrwt>
<rscale>  0 0.29024917E+04</rscale>
<asrwt>0</asrwt>
<pdfrwt beam="1">  1        2 0.52656860E+00 0.29024917E+04</pdfrwt>
<pdfrwt beam="2">  1       -2 0.94667368E-01 0.29024917E+04</pdfrwt>
<totfact> 0.74545457E-01</totfact>
</mgrwt>
</event>
<event>
 6    1  0.1934315E-005  0.2660358E+04  0.7818608E-02  0.8347983E-01
         -2   -1    0    0    0  501 -0.00000000000E+00  0.00000000000E+00  0.10387204318E+04  0.10387204318E+04  0.00000000000E+00 0. -1.
          2   -1    0    0  501    0  0.00000000000E+00 -0.00000000000E+00 -0.17034188905E+04  0.17034188905E+04  0.00000000000E+00 0.  1.
         23    2    1    2    0    0 -0.91871883413E+03  0.31220722362E+03  0.60172735385E+03  0.11467233937E+04  0.10668217594E+03 0.  0.
         13    1    3    3    0    0 -0.55324993993E+03  0.16028673666E+03  0.40946254017E+03  0.70670850129E+03  0.00000000000E+00 0. -1.
        -13    1    3    3    0    0 -0.36546889420E+03  0.15192048696E+03  0.19226481368E+03  0.44001489243E+03  0.00000000000E+00 0.  1.
         22    1    1    2    0    0  0.91871883413E+03 -0.31220722362E+03 -0.12664258125E+04  0.15954159286E+04  0.00000000000E+00 0.  1.
<mgrwt>
<rscale>  0 0.26603579E+04</rscale>
<asrwt>0</asrwt>
<pdfrwt beam="1">  1        2 0.26206444E+00 0.26603579E+04</pdfrwt>
<pdfrwt beam="2">  1       -2 0.15980314E+00 0.26603579E+04</pdfrwt>
<totfact> 0.21723698E+00</totfact>
</mgrwt>
</event>
<event>
 6    1  0.1934315E-005  0.1836729E+04  0.7818608E-02  0.8687007E-01
         -2   -1    0    0    0  501 -0.00000000000E+00  0.00000000000E+00  0.54923391298E+03  0.54923391298E+03  0.00000000000E+00 0. -1.
          2   -1    0    0  501    0  0.00000000000E+00 -0.00000000000E+00 -0.15355818420E+04  0.15355818420E+04  0.00000000000E+00 0.  1.
         23    2    1    2    0    0 -0.46498528173E+03 -0.14111576474E+03  0.38708144020E+03  0.62795845122E+03  0.91513954293E+02 0.  0.
         13    1    3    3    0    0 -0.38513414073E+03 -0.13062929617E+03  0.27906912462E+03  0.49322600873E+03  0.00000000000E+00 0. -1.
        -13    1    3    3    0    0 -0.79851141000E+02 -0.10486468567E+02  0.10801231558E+03  0.13473244249E+03  0.00000000000E+00 0.  1.
         22    1    1    2    0    0  0.46498528173E+03  0.14111576474E+03 -0.13734293692E+04  0.14568573038E+04  0.00000000000E+00 0.  1.
<mgrwt>
<rscale>  0 0.18367293E+04</rscale>
<asrwt>0</asrwt>
<pdfrwt beam="1">  1        2 0.23624336E+00 0.18367293E+04</pdfrwt>
<pdfrwt beam="2">  1       -2 0.84497526E-01 0.18367293E+04</pdfrwt>
<totfact> 0.13933763E+01</totfact>
</mgrwt>
</event>
<event>
 6    1  0.1934315E-005  0.6873528E+03  0.7818608E-02  0.9739108E-01
         -2   -1    0    0    0  501 -0.00000000000E+00  0.00000000000E+00  0.80363984429E+02  0.80363984429E+02  0.00000000000E+00 0. -1.
          2   -1    0    0  501    0  0.00000000000E+00 -0.00000000000E+00 -0.14697313217E+04  0.14697313217E+04  0.00000000000E+00 0.  1.
         23    2    1    2    0    0 -0.17928043911E+03 -0.73823687029E+02 -0.13301960584E+04  0.13473820780E+04  0.91790510804E+02 0.  0.
         11    1    3    3    0    0 -0.18736054355E+03 -0.68317722744E+02 -0.11689249881E+04  0.11858148727E+04  0.00000000000E+00 0. -1.
        -11    1    3    3    0    0  0.80801044378E+01 -0.55059642854E+01 -0.16127107027E+03  0.16156720532E+03  0.00000000000E+00 0.  1.
         22    1    1    2    0    0  0.17928043911E+03  0.73823687029E+02 -0.59171278947E+02  0.20271322815E+03  0.00000000000E+00 0. -1.
<mgrwt>
<rscale>  0 0.68735279E+03</rscale>
<asrwt>0</asrwt>
<pdfrwt beam="1">  1        2 0.22611251E+00 0.68735279E+03</pdfrwt>
<pdfrwt beam="2">  1       -2 0.12363690E-01 0.68735279E+03</pdfrwt>
<totfact> 0.64911905E+02</totfact>
</mgrwt>
</event>
<event>
 6    1  0.1934315E-005  0.8251911E+03  0.7818608E-02  0.9524253E-01
         -2   -1    0    0    0  501 -0.00000000000E+00  0.00000000000E+00  0.62386664975E+02  0.62386664975E+02  0.00000000000E+00 0.  1.
          2   -1    0    0  501    0  0.00000000000E+00 -0.00000000000E+00 -0.27287098001E+04  0.27287098001E+04  0.00000000000E+00 0. -1.
         23    2    1    2    0    0 -0.40140614991E+03 -0.57074048268E+02 -0.11759549974E+04  0.12465636781E+04  0.81648658356E+02 0.  0.
         11    1    3    3    0    0 -0.13624428240E+03 -0.56245772126E+02 -0.37898971775E+03  0.40664394442E+03  0.00000000000E+00 0.  1.
        -11    1    3    3    0    0 -0.26516186751E+03 -0.82827614283E+00 -0.79696527965E+03  0.83991973366E+03  0.00000000000E+00 0. -1.
         22    1    1    2    0    0  0.40140614991E+03  0.57074048268E+02 -0.14903681377E+04  0.15445327870E+04  0.00000000000E+00 0. -1.
<mgrwt>
<rscale>  0 0.82519114E+03</rscale>
<asrwt>0</asrwt>
<pdfrwt beam="1">  1        2 0.41980155E+00 0.82519114E+03</pdfrwt>
<pdfrwt beam="2">  1       -2 0.95979475E-02 0.82519114E+03</pdfrwt>
<totfact> 0.19430727E+02</totfact>
</mgrwt>
</event>
<event>
 6    1  0.1934315E-005  0.2016981E+04  0.7818608E-02  0.8598722E-01
         -2   -1    0    0    0  501 -0.00000000000E+00  0.00000000000E+00  0.62503648540E+03  0.62503648540E+03  0.00000000000E+00 0. -1.
          2   -1    0    0  501    0  0.00000000000E+00 -0.00000000000E+00 -0.16271903245E+04  0.16271903245E+04  0.00000000000E+00 0.  1.
         23    2    1    2    0    0  0.84661914187E+02 -0.50556231391E+03  0.46506499809E+03  0.69804148982E+03  0.90639815245E+02 0.  0.
         13    1    3    3    0    0  0.11267127663E+02 -0.20871656367E+03  0.24061171384E+03  0.31872174220E+03  0.00000000000E+00 0. -1.
        -13    1    3    3    0    0  0.73394786525E+02 -0.29684575024E+03  0.22445328425E+03  0.37931974762E+03  0.00000000000E+00 0.  1.
         22    1    1    2    0    0 -0.84661914187E+02  0.50556231391E+03 -0.14672188372E+04  0.15541853201E+04  0.00000000000E+00 0.  1.
<mgrwt>
<rscale>  0 0.20169812E+04</rscale>
<asrwt>0</asrwt>
<pdfrwt beam="1">  1        2 0.25033697E+00 0.20169812E+04</pdfrwt>
<pdfrwt beam="2">  1       -2 0.96159460E-01 0.20169812E+04</pdfrwt>
<totfact> 0.90507755E+00</totfact>
</mgrwt>
</event>
<event>
 6    1  0.1934315E-005  0.2966432E+04  0.7818608E-02  0.8253382E-01
         -2   -1    0    0    0  501 -0.00000000000E+00  0.00000000000E+00  0.90706578380E+03  0.90706578380E+03  0.00000000000E+00 0. -1.
          2   -1    0    0  501    0  0.00000000000E+00 -0.00000000000E+00 -0.24253253491E+04  0.24253253491E+04  0.00000000000E+00 0.  1.
         23    2    1    2    0    0  0.18038984365E+03 -0.50594774415E+03 -0.23112701903E+04  0.23745866294E+04  0.90377831490E+02 0.  0.
         13    1    3    3    0    0  0.60286003109E+02 -0.29156770332E+03 -0.11863969600E+04  0.12231859526E+04  0.00000000000E+00 0. -1.
        -13    1    3    3    0    0  0.12010384055E+03 -0.21438004084E+03 -0.11248732303E+04  0.11514006768E+04  0.00000000000E+00 0.  1.
         22    1    1    2    0    0 -0.18038984365E+03  0.50594774415E+03  0.79301062502E+03  0.95780450349E+03  0.00000000000E+00 0. -1.
<mgrwt>
<rscale>  0 0.29664320E+04</rscale>
<asrwt>0</asrwt>
<pdfrwt beam="1">  1        2 0.37312698E+00 0.29664320E+04</pdfrwt>
<pdfrwt beam="2">  1       -2 0.13954858E+00 0.29664320E+04</pdfrwt>
<totfact> 0.11950612E+00</totfact>
</mgrwt>
</event>
<event>
 6    1  0.1934315E-005  0.2723209E+04  0.7818608E-02  0.8327514E-01
         -2   -1    0    0    0  501 -0.00000000000E+00  0.00000000000E+00  0.25026410147E+04  0.25026410147E+04  0.00000000000E+00 0. -1.
          2   -1    0    0  501    0  0.00000000000E+00 -0.00000000000E+00 -0.74080407574E+03  0.74080407574E+03  0.00000000000E+00 0.  1.
         23    2    1    2    0    0  0.82803456037E+03  0.53260574320E+03 -0.23574767216E+03  0.10164169385E+04  0.90643902793E+02 0.  0.
         11    1    3    3    0    0  0.40063676579E+03  0.21948428255E+03 -0.14185936225E+03  0.47833800502E+03  0.00000000000E+00 0. -1.
        -11    1    3    3    0    0  0.42739779458E+03  0.31312146065E+03 -0.93888309906E+02  0.53807893349E+03  0.00000000000E+00 0.  1.
         22    1    1    2    0    0 -0.82803456037E+03 -0.53260574320E+03  0.19975846111E+04  0.22270281519E+04  0.00000000000E+00 0. -1.
<mgrwt>
<rscale>  0 0.27232089E+04</rscale>
<asrwt>0</asrwt>
<pdfrwt beam="1">  1        2 0.11396986E+00 0.27232089E+04</pdfrwt>
<pdfrwt beam="2">  1       -2 0.38502169E+00 0.27232089E+04</pdfrwt>
<totfact> 0.30995801E-01</totfact>
</mgrwt>
</event>
<event>
 6    1  0.1934315E-005  0.3745075E+04  0.7818608E-02  0.8058045E-01
          1   -1    0    0  501    0  0.00000000000E+00  0.00000000000E+00  0.18916098930E+04  0.18916098930E+04  0.00000000000E+00 0.  1.
         -1   -1    0    0    0  501 -0.00000000000E+00 -0.00000000000E+00 -0.18536575166E+04  0.18536575166E+04  0.00000000000E+00 0. -1.
         23    2    1    2    0    0 -0.99122186296E+02 -0.14069013155E+04 -0.12110963318E+04  0.18613037171E+04  0.92199148743E+02 0.  0.
         13    1    3    3    0    0 -0.91866506551E+02 -0.10690797823E+04 -0.96701395063E+03  0.14444677278E+04  0.00000000000E+00 0.  1.
        -13    1    3    3    0    0 -0.72556797447E+01 -0.33782153314E+03 -0.24408238118E+03  0.41683598926E+03  0.00000000000E+00 0. -1.
         22    1    1    2    0    0  0.99122186296E+02  0.14069013155E+04  0.12490487082E+04  0.18839636925E+04  0.00000000000E+00 0.  1.
<mgrwt>
<rscale>  0 0.37450751E+04</rscale>
<asrwt>0</asrwt>
<pdfrwt beam="1">  1        1 0.29101691E+00 0.37450751E+04</pdfrwt>
<pdfrwt beam="2">  1       -1 0.28517808E+00 0.37450751E+04</pdfrwt>
<totfact> 0.11625329E-01</totfact>
</mgrwt>
</event>
<event>
 6    1  0.1934315E-005  0.3018954E+04  0.7818608E-02  0.8238339E-01
         -2   -1    0    0    0  501 -0.00000000000E+00  0.00000000000E+00  0.13849103153E+04  0.13849103153E+04  0.00000000000E+00 0. -1.
          2   -1    0    0  501    0  0.00000000000E+00 -0.00000000000E+00 -0.16452473827E+04  0.16452473827E+04  0.00000000000E+00 0.  1.
         23    2    1    2    0    0  0.87005657818E+03  0.12210636479E+04  0.33294431271E+02  0.15023441170E+04  0.89075503424E+02 0.  0.
         11    1    3    3    0    0  0.79543924507E+03  0.10890222103E+04  0.51606198907E+02  0.13495762916E+04  0.00000000000E+00 0.  1.
        -11    1    3    3    0    0  0.74617333116E+02  0.13204143753E+03 -0.18311767636E+02  0.15276782534E+03  0.00000000000E+00 0. -1.
         22    1    1    2    0    0 -0.87005657818E+03 -0.12210636479E+04 -0.29363149869E+03  0.15278135810E+04  0.00000000000E+00 0. -1.
<mgrwt>
<rscale>  0 0.30189535E+04</rscale>
<asrwt>0</asrwt>
<pdfrwt beam="1">  1        2 0.25311498E+00 0.30189535E+04</pdfrwt>
<pdfrwt beam="2">  1       -2 0.21306313E+00 0.30189535E+04</pdfrwt>
<totfact> 0.98411241E-01</totfact>
</mgrwt>
</event>
<event>
 6    1  0.1934315E-005  0.1312091E+04  0.7818608E-02  0.9020032E-01
         -2   -1    0    0    0  501 -0.00000000000E+00  0.00000000000E+00  0.19152572117E+03  0.19152572117E+03  0.00000000000E+00 0. -1.
          2   -1    0    0  501    0  0.00000000000E+00 -0.00000000000E+00 -0.22471950581E+04  0.22471950581E+04  0.00000000000E+00 0.  1.
         23    2    1    2    0    0 -0.58951517514E+03  0.93366799147E+02 -0.54171417325E+03  0.81135919114E+03  0.92757698552E+02 0.  0.
         11    1    3    3    0    0 -0.49945418300E+03  0.79659949213E+02 -0.49988963113E+03  0.71111871846E+03  0.00000000000E+00 0. -1.
        -11    1    3    3    0    0 -0.90060992137E+02  0.13706849935E+02 -0.41824542119E+02  0.10024047268E+03  0.00000000000E+00 0.  1.
         22    1    1    2    0    0  0.58951517514E+03 -0.93366799147E+02 -0.15139551637E+04  0.16273615882E+04  0.00000000000E+00 0. -1.
<mgrwt>
<rscale>  0 0.13120909E+04</rscale>
<asrwt>0</asrwt>
<pdfrwt beam="1">  1        2 0.34572230E+00 0.13120909E+04</pdfrwt>
<pdfrwt beam="2">  1       -2 0.29465497E-01 0.13120909E+04</pdfrwt>
<totfact> 0.50559920E+01</totfact>
</mgrwt>
</event>
<event>
 6    1  0.1934315E-005  0.1465860E+04  0.7818608E-02  0.8907479E-01
          2   -1    0    0  501    0  0.00000000000E+00  0.00000000000E+00  0.97275866290E+03  0.97275866290E+03  0.00000000000E+00 0.  1.
         -2   -1    0    0    0  501 -0.00000000000E+00 -0.00000000000E+00 -0.55222981124E+03  0.55222981124E+03  0.00000000000E+00 0. -1.
         23    2    1    2    0    0  0.40184335277E+03  0.30088847269E+03  0.76248492730E+03  0.91757929506E+03  0.92501595690E+02 0.  0.
         11    1    3    3    0    0  0.40575029392E+03  0.29245970449E+03  0.75502426177E+03  0.90566418480E+03  0.00000000000E+00 0. -1.
        -11    1    3    3    0    0 -0.39069411436E+01  0.84287682009E+01  0.74606655225E+01  0.11915110261E+02  0.00000000000E+00 0.  1.
         22    1    1    2    0    0 -0.40184335277E+03 -0.30088847269E+03 -0.34195607564E+03  0.60740917908E+03  0.00000000000E+00 0. -1.
<mgrwt>
<rscale>  0 0.14658599E+04</rscale>
<asrwt>0</asrwt>
<pdfrwt beam="1">  1        2 0.14965518E+00 0.14658599E+04</pdfrwt>
<pdfrwt beam="2">  1       -2 0.84958433E-01 0.14658599E+04</pdfrwt>
<totfact> 0.30659526E+01</totfact>
</mgrwt>
</event>
<event>
 6    1  0.1934315E-005  0.3272885E+04  0.7818608E-02  0.8169829E-01
          2   -1    0    0  501    0  0.00000000000E+00  0.00000000000E+00  0.12259813683E+04  0.12259813683E+04  0.00000000000E+00 0.  1.
         -2   -1    0    0    0  501 -0.00000000000E+00 -0.00000000000E+00 -0.21843269529E+04  0.21843269529E+04  0.00000000000E+00 0. -1.
         23    2    1    2    0    0  0.25104776427E+03  0.10687769422E+04  0.78284468526E+03  0.13518980880E+04  0.97331942217E+02 0.  0.
         13    1    3    3    0    0  0.27228022949E+02  0.49435641340E+02  0.22917855072E+02  0.60913676211E+02  0.00000000000E+00 0.  1.
        -13    1    3    3    0    0  0.22381974132E+03  0.10193413009E+04  0.75992683019E+03  0.12909844118E+04  0.00000000000E+00 0. -1.
         22    1    1    2    0    0 -0.25104776427E+03 -0.10687769422E+04 -0.17411902698E+04  0.20584102331E+04  0.00000000000E+00 0. -1.
<mgrwt>
<rscale>  0 0.32728851E+04</rscale>
<asrwt>0</asrwt>
<pdfrwt beam="1">  1        2 0.18861252E+00 0.32728851E+04</pdfrwt>
<pdfrwt beam="2">  1       -2 0.33605030E+00 0.32728851E+04</pdfrwt>
<totfact> 0.29108638E-01</totfact>
</mgrwt>
</event>
<event>
 6    1  0.1934315E-005  0.4232823E+04  0.7818608E-02  0.7959158E-01
          2   -1    0    0  501    0  0.00000000000E+00  0.00000000000E+00  0.24955904682E+04  0.24955904682E+04  0.00000000000E+00 0.  1.
         -2   -1    0    0    0  501 -0.00000000000E+00 -0.00000000000E+00 -0.17948448072E+04  0.17948448072E+04  0.00000000000E+00 0. -1.
         23    2    1    2    0    0 -0.16226517119E+04 -0.10938450831E+04 -0.46377923116E+03  0.20132409779E+04  0.92479271896E+02 0.  0.
         11    1    3    3    0    0 -0.11130148249E+04 -0.70393765166E+03 -0.29108752097E+03  0.13487261260E+04  0.00000000000E+00 0. -1.
        -11    1    3    3    0    0 -0.50963688697E+03 -0.38990743140E+03 -0.17269171019E+03  0.66451485190E+03  0.00000000000E+00 0.  1.
         22    1    1    2    0    0  0.16226517119E+04  0.10938450831E+04  0.11645248922E+04  0.22771942975E+04  0.00000000000E+00 0.  1.
<mgrwt>
<rscale>  0 0.42328230E+04</rscale>
<asrwt>0</asrwt>
<pdfrwt beam="1">  1        2 0.38393699E+00 0.42328230E+04</pdfrwt>
<pdfrwt beam="2">  1       -2 0.27612997E+00 0.42328230E+04</pdfrwt>
<totfact> 0.12054931E-01</totfact>
</mgrwt>
</event>
<event>
 6    1  0.1934315E-005  0.2770036E+04  0.7818608E-02  0.8312632E-01
         -2   -1    0    0    0  501 -0.00000000000E+00  0.00000000000E+00  0.10007802092E+04  0.10007802092E+04  0.00000000000E+00 0. -1.
          2   -1    0    0  501    0  0.00000000000E+00 -0.00000000000E+00 -0.19167791149E+04  0.19167791149E+04  0.00000000000E+00 0.  1.
         23    2    1    2    0    0 -0.14611045261E+03 -0.13738712956E+04 -0.53477085254E+03  0.14843093704E+04  0.91235087421E+02 0.  0.
         13    1    3    3    0    0 -0.13145843882E+03 -0.12594735126E+04 -0.51622635653E+03  0.13674957043E+04  0.00000000000E+00 0. -1.
        -13    1    3    3    0    0 -0.14652013791E+02 -0.11439778305E+03 -0.18544496012E+02  0.11681366618E+03  0.00000000000E+00 0.  1.
         22    1    1    2    0    0  0.14611045261E+03  0.13738712956E+04 -0.38122805315E+03  0.14332499537E+04  0.00000000000E+00 0. -1.
<mgrwt>
<rscale>  0 0.27700358E+04</rscale>
<asrwt>0</asrwt>
<pdfrwt beam="1">  1        2 0.29488909E+00 0.27700358E+04</pdfrwt>
<pdfrwt beam="2">  1       -2 0.15396619E+00 0.27700358E+04</pdfrwt>
<totfact> 0.18121584E+00</totfact>
</mgrwt>
</event>
<event>
 6    1  0.1934315E-005  0.9317588E+03  0.7818608E-02  0.9386730E-01
         -1   -1    0    0    0  501 -0.00000000000E+00  0.00000000000E+00  0.40377465770E+03  0.40377465770E+03  0.00000000000E+00 0.  1.
          1   -1    0    0  501    0  0.00000000000E+00 -0.00000000000E+00 -0.53753647436E+03  0.53753647436E+03  0.00000000000E+00 0. -1.
         23    2    1    2    0    0 -0.14510486798E+03  0.10336964002E+03 -0.49750907894E+03  0.53627684216E+03  0.91306421578E+02 0.  0.
         13    1    3    3    0    0 -0.15386601634E+03  0.79071493770E+02 -0.45159657247E+03  0.48359747350E+03  0.00000000000E+00 0. -1.
        -13    1    3    3    0    0  0.87611483602E+01  0.24298146254E+02 -0.45912506462E+02  0.52679368652E+02  0.00000000000E+00 0.  1.
         22    1    1    2    0    0  0.14510486798E+03 -0.10336964002E+03  0.36374726227E+03  0.40503428990E+03  0.00000000000E+00 0.  1.
<mgrwt>
<rscale>  0 0.93175878E+03</rscale>
<asrwt>0</asrwt>
<pdfrwt beam="1">  1        1 0.82697919E-01 0.93175878E+03</pdfrwt>
<pdfrwt beam="2">  1       -1 0.62119178E-01 0.93175878E+03</pdfrwt>
<totfact> 0.10600732E+02</totfact>
</mgrwt>
</event>
<event>
 6    1  0.1934315E-005  0.4234012E+03  0.7818608E-02  0.1035965E+00
          1   -1    0    0  501    0  0.00000000000E+00  0.00000000000E+00  0.48752982471E+03  0.48752982471E+03  0.00000000000E+00 0.  1.
         -1   -1    0    0    0  501 -0.00000000000E+00 -0.00000000000E+00 -0.91926967829E+02  0.91926967829E+02  0.00000000000E+00 0. -1.
         23    2    1    2    0    0 -0.23235106786E+01 -0.19432247349E+02  0.48286512661E+03  0.49002684980E+03  0.81145376287E+02 0.  0.
         11    1    3    3    0    0  0.29714039533E+02 -0.29960735727E+02  0.36503706675E+03  0.36746786245E+03  0.00000000000E+00 0.  1.
        -11    1    3    3    0    0 -0.32037550211E+02  0.10528488378E+02  0.11782805986E+03  0.12255898735E+03  0.00000000000E+00 0. -1.
         22    1    1    2    0    0  0.23235106786E+01  0.19432247349E+02 -0.87262269731E+02  0.89429942735E+02  0.00000000000E+00 0. -1.
<mgrwt>
<rscale>  0 0.42340117E+03</rscale>
<asrwt>0</asrwt>
<pdfrwt beam="1">  1        1 0.75004587E-01 0.42340117E+03</pdfrwt>
<pdfrwt beam="2">  1       -1 0.14142611E-01 0.42340117E+03</pdfrwt>
<totfact> 0.16558926E+03</totfact>
</mgrwt>
</event>
<event>
 6    1  0.1934315E-005  0.4052065E+04  0.7818608E-02  0.7994125E-01
          2   -1    0    0  501    0  0.00000000000E+00  0.00000000000E+00  0.43661814576E+04  0.43661814576E+04  0.00000000000E+00 0.  1.
         -2   -1    0    0    0  501 -0.00000000000E+00 -0.00000000000E+00 -0.94013669723E+03  0.94013669723E+03  0.00000000000E+00 0. -1.
         23    2    1    2    0    0  0.15601459247E+03  0.17204293309E+04  0.30976520022E+04  0.35478928822E+04  0.88760021427E+02 0.  0.
         11    1    3    3    0    0  0.74689416821E+02  0.70298478832E+03  0.13549267751E+04  0.15282645999E+04  0.00000000000E+00 0.  1.
        -11    1    3    3    0    0  0.81325175644E+02  0.10174445426E+04  0.17427252271E+04  0.20196282823E+04  0.00000000000E+00 0. -1.
         22    1    1    2    0    0 -0.15601459247E+03 -0.17204293309E+04  0.32839275817E+03  0.17584252726E+04  0.00000000000E+00 0. -1.
<mgrwt>
<rscale>  0 0.40520649E+04</rscale>
<asrwt>0</asrwt>
<pdfrwt beam="1">  1        2 0.67172022E+00 0.40520649E+04</pdfrwt>
<pdfrwt beam="2">  1       -2 0.14463642E+00 0.40520649E+04</pdfrwt>
<totfact> 0.42499415E-02</totfact>
</mgrwt>
</event>
<event>
 6    1  0.1934315E-005  0.3963026E+04  0.7818608E-02  0.8012047E-01
          2   -1    0    0  501    0  0.00000000000E+00  0.00000000000E+00  0.20828772122E+04  0.20828772122E+04  0.00000000000E+00 0.  1.
         -2   -1    0    0    0  501 -0.00000000000E+00 -0.00000000000E+00 -0.18850818399E+04  0.18850818399E+04  0.00000000000E+00 0. -1.
         23    2    1    2    0    0  0.66756729204E+03 -0.59808074077E+03  0.18671534751E+04  0.20732023033E+04  0.92515020769E+02 0.  0.
         13    1    3    3    0    0  0.16244644479E+03 -0.14396455980E+03  0.36591914173E+03  0.42545441611E+03  0.00000000000E+00 0. -1.
        -13    1    3    3    0    0  0.50512084726E+03 -0.45411618097E+03  0.15012343334E+04  0.16477478872E+04  0.00000000000E+00 0.  1.
         22    1    1    2    0    0 -0.66756729204E+03  0.59808074077E+03 -0.16693581028E+04  0.18947567488E+04  0.00000000000E+00 0. -1.
<mgrwt>
<rscale>  0 0.39630261E+04</rscale>
<asrwt>0</asrwt>
<pdfrwt beam="1">  1        2 0.32044265E+00 0.39630261E+04</pdfrwt>
<pdfrwt beam="2">  1       -2 0.29001259E+00 0.39630261E+04</pdfrwt>
<totfact> 0.17388160E-01</totfact>
</mgrwt>
</event>
<event>
 6    1  0.1934315E-005  0.3073787E+04  0.7818608E-02  0.8222969E-01
         -2   -1    0    0    0  501 -0.00000000000E+00  0.00000000000E+00  0.84099269871E+03  0.84099269871E+03  0.00000000000E+00 0. -1.
          2   -1    0    0  501    0  0.00000000000E+00 -0.00000000000E+00 -0.28086359441E+04  0.28086359441E+04  0.00000000000E+00 0.  1.
         23    2    1    2    0    0  0.81173503889E+03  0.20491565412E+03  0.54370081210E+03  0.10024125251E+04  0.91192646444E+02 0.  0.
         11    1    3    3    0    0  0.38527779937E+03  0.65070614012E+02  0.29255223459E+03  0.48811881490E+03  0.00000000000E+00 0. -1.
        -11    1    3    3    0    0  0.42645723952E+03  0.13984504011E+03  0.25114857750E+03  0.51429371021E+03  0.00000000000E+00 0.  1.
         22    1    1    2    0    0 -0.81173503889E+03 -0.20491565412E+03 -0.25113440575E+04  0.26472161177E+04  0.00000000000E+00 0.  1.
<mgrwt>
<rscale>  0 0.30737875E+04</rscale>
<asrwt>0</asrwt>
<pdfrwt beam="1">  1        2 0.43209786E+00 0.30737875E+04</pdfrwt>
<pdfrwt beam="2">  1       -2 0.12938349E+00 0.30737875E+04</pdfrwt>
<totfact> 0.85407766E-01</totfact>
</mgrwt>
</event>
<event>
 6    1  0.1934315E-005  0.1339978E+04  0.7818608E-02  0.8998450E-01
          2   -1    0    0  501    0  0.00000000000E+00  0.00000000000E+00  0.14397412142E+04  0.14397412142E+04  0.00000000000E+00 0.  1.
         -2   -1    0    0    0  501 -0.00000000000E+00 -0.00000000000E+00 -0.31178180080E+03  0.31178180080E+03  0.00000000000E+00 0. -1.
         23    2    1    2    0    0 -0.27751480190E+03 -0.48613720068E+02  0.13566681793E+04  0.13886381040E+04  0.91594082571E+02 0.  0.
         11    1    3    3    0    0 -0.18073015031E+03 -0.12468951499E+02  0.66244180755E+03  0.68676634336E+03  0.00000000000E+00 0. -1.
        -11    1    3    3    0    0 -0.96784651592E+02 -0.36144768568E+02  0.69422637178E+03  0.70187176062E+03  0.00000000000E+00 0.  1.
         22    1    1    2    0    0  0.27751480190E+03  0.48613720068E+02 -0.22870876591E+03  0.36288491104E+03  0.00000000000E+00 0. -1.
<mgrwt>
<rscale>  0 0.13399778E+04</rscale>
<asrwt>0</asrwt>
<pdfrwt beam="1">  1        2 0.22149865E+00 0.13399778E+04</pdfrwt>
<pdfrwt beam="2">  1       -2 0.47966432E-01 0.13399778E+04</pdfrwt>
<totfact> 0.55262789E+01</totfact>
</mgrwt>
</event>
<event>
 6    1  0.1934315E-005  0.2744541E+04  0.7818608E-02  0.8320696E-01
         -2   -1    0    0    0  501 -0.00000000000E+00  0.00000000000E+00  0.84562808213E+03  0.84562808213E+03  0.00000000000E+00 0. -1.
          2   -1    0    0  501    0  0.00000000000E+00 -0.00000000000E+00 -0.22268969675E+04  0.22268969675E+04  0.00000000000E+00 0.  1.
         23    2    1    2    0    0 -0.17196598942E+03 -0.77689594142E+03  0.55819145463E+03  0.97618394768E+03  0.90652051149E+02 0.  0.
         13    1    3    3    0    0 -0.10820089377E+03 -0.46624262420E+03  0.38880860090E+03  0.61665366793E+03  0.00000000000E+00 0.  1.
        -13    1    3    3    0    0 -0.63765095644E+02 -0.31065331722E+03  0.16938285373E+03  0.35953027976E+03  0.00000000000E+00 0. -1.
         22    1    1    2    0    0  0.17196598942E+03  0.77689594142E+03 -0.19394603400E+04  0.20963411020E+04  0.00000000000E+00 0.  1.
<mgrwt>
<rscale>  0 0.27445412E+04</rscale>
<asrwt>0</asrwt>
<pdfrwt beam="1">  1        2 0.34259952E+00 0.27445412E+04</pdfrwt>
<pdfrwt beam="2">  1       -2 0.13009663E+00 0.27445412E+04</pdfrwt>
<totfact> 0.18893736E+00</totfact>
</mgrwt>
</event>
<event>
 6    1  0.1934315E-005  0.6191698E+03  0.7818608E-02  0.9866414E-01
          2   -1    0    0  501    0  0.00000000000E+00  0.00000000000E+00  0.95451671013E+02  0.95451671013E+02  0.00000000000E+00 0.  1.
         -2   -1    0    0    0  501 -0.00000000000E+00 -0.00000000000E+00 -0.10040976851E+04  0.10040976851E+04  0.00000000000E+00 0. -1.
         23    2    1    2    0    0  0.82006328279E+02  0.28847200446E+03 -0.53700954547E+03  0.62199852108E+03  0.92529849574E+02 0.  0.
         13    1    3    3    0    0 -0.78787751429E+01  0.11256723338E+03 -0.15244117943E+03  0.18966225326E+03  0.00000000000E+00 0. -1.
        -13    1    3    3    0    0  0.89885103422E+02  0.17590477109E+03 -0.38456836604E+03  0.43233626781E+03  0.00000000000E+00 0.  1.
         22    1    1    2    0    0 -0.82006328279E+02 -0.28847200446E+03 -0.37163646863E+03  0.47755083504E+03  0.00000000000E+00 0.  1.
<mgrwt>
<rscale>  0 0.61916977E+03</rscale>
<asrwt>0</asrwt>
<pdfrwt beam="1">  1        2 0.14684873E-01 0.61916977E+03</pdfrwt>
<pdfrwt beam="2">  1       -2 0.15447656E+00 0.61916977E+03</pdfrwt>
<totfact> 0.11590466E+02</totfact>
</mgrwt>
</event>
<event>
 6    1  0.1934315E-005  0.2887107E+04  0.7818608E-02  0.8276724E-01
          2   -1    0    0  501    0  0.00000000000E+00  0.00000000000E+00  0.15847476355E+04  0.15847476355E+04  0.00000000000E+00 0.  1.
         -2   -1    0    0    0  501 -0.00000000000E+00 -0.00000000000E+00 -0.13149395603E+04  0.13149395603E+04  0.00000000000E+00 0. -1.
         23    2    1    2    0    0 -0.98093409242E+03 -0.94932084340E+03  0.60205933752E+03  0.14947556463E+04  0.91527258159E+02 0.  0.
         11    1    3    3    0    0 -0.41151311481E+03 -0.43170894908E+03  0.30507304208E+03  0.66991433883E+03  0.00000000000E+00 0. -1.
        -11    1    3    3    0    0 -0.56942097761E+03 -0.51761189432E+03  0.29698629544E+03  0.82484130751E+03  0.00000000000E+00 0.  1.
         22    1    1    2    0    0  0.98093409242E+03  0.94932084340E+03 -0.33225126226E+03  0.14049315495E+04  0.00000000000E+00 0. -1.
<mgrwt>
<rscale>  0 0.28871075E+04</rscale>
<asrwt>0</asrwt>
<pdfrwt beam="1">  1        2 0.24380733E+00 0.28871075E+04</pdfrwt>
<pdfrwt beam="2">  1       -2 0.20229839E+00 0.28871075E+04</pdfrwt>
<totfact> 0.12624938E+00</totfact>
</mgrwt>
</event>
<event>
 6    1  0.1934315E-005  0.2081748E+04  0.7818608E-02  0.8569326E-01
         -2   -1    0    0    0  501 -0.00000000000E+00  0.00000000000E+00  0.75776159027E+03  0.75776159027E+03  0.00000000000E+00 0. -1.
          2   -1    0    0  501    0  0.00000000000E+00 -0.00000000000E+00 -0.14297619632E+04  0.14297619632E+04  0.00000000000E+00 0.  1.
         23    2    1    2    0    0 -0.73199025788E+03  0.57332181762E+03 -0.82347755820E+03  0.12454763244E+04  0.92673305384E+02 0.  0.
         13    1    3    3    0    0 -0.20059916569E+03  0.12997364014E+03 -0.25869583152E+03  0.35221684465E+03  0.00000000000E+00 0. -1.
        -13    1    3    3    0    0 -0.53139109219E+03  0.44334817748E+03 -0.56478172668E+03  0.89325947973E+03  0.00000000000E+00 0.  1.
         22    1    1    2    0    0  0.73199025788E+03 -0.57332181762E+03  0.15147718526E+03  0.94204722909E+03  0.00000000000E+00 0. -1.
<mgrwt>
<rscale>  0 0.20817480E+04</rscale>
<asrwt>0</asrwt>
<pdfrwt beam="1">  1        2 0.21996338E+00 0.20817480E+04</pdfrwt>
<pdfrwt beam="2">  1       -2 0.11657871E+00 0.20817480E+04</pdfrwt>
<totfact> 0.73250899E+00</totfact>
</mgrwt>
</event>
<event>
 6    1  0.1934315E-005  0.1100586E+04  0.7818608E-02  0.9204620E-01
          2   -1    0    0  501    0  0.00000000000E+00  0.00000000000E+00  0.81569514477E+03  0.81569514477E+03  0.00000000000E+00 0.  1.
         -2   -1    0    0    0  501 -0.00000000000E+00 -0.00000000000E+00 -0.37124484825E+03  0.37124484825E+03  0.00000000000E+00 0. -1.
         23    2    1    2    0    0  0.25121859695E+03  0.30096947317E+03  0.63431706847E+03  0.75134522914E+03  0.92022294971E+02 0.  0.
         13    1    3    3    0    0  0.10044685322E+03  0.10649985454E+03  0.32215722746E+03  0.35386023872E+03  0.00000000000E+00 0.  1.
        -13    1    3    3    0    0  0.15077174373E+03  0.19446961862E+03  0.31215984100E+03  0.39748499042E+03  0.00000000000E+00 0. -1.
         22    1    1    2    0    0 -0.25121859695E+03 -0.30096947317E+03 -0.18986677194E+03  0.43559476388E+03  0.00000000000E+00 0. -1.
<mgrwt>
<rscale>  0 0.11005864E+04</rscale>
<asrwt>0</asrwt>
<pdfrwt beam="1">  1        2 0.12549156E+00 0.11005864E+04</pdfrwt>
<pdfrwt beam="2">  1       -2 0.57114592E-01 0.11005864E+04</pdfrwt>
<totfact> 0.95766223E+01</totfact>
</mgrwt>
</event>
<event>
 6    1  0.1934315E-005  0.1383632E+04  0.7818608E-02  0.8965752E-01
          2   -1    0    0  501    0  0.00000000000E+00  0.00000000000E+00  0.73420852934E+03  0.73420852934E+03  0.00000000000E+00 0.  1.
         -2   -1    0    0    0  501 -0.00000000000E+00 -0.00000000000E+00 -0.65187140239E+03  0.65187140239E+03  0.00000000000E+00 0. -1.
         23    2    1    2    0    0 -0.39575010275E+03  0.28385134160E+03 -0.44668909532E+03  0.66701215202E+03  0.90467315137E+02 0.  0.
         13    1    3    3    0    0 -0.27043959475E+03  0.23679830800E+03 -0.35156397015E+03  0.50280039597E+03  0.00000000000E+00 0. -1.
        -13    1    3    3    0    0 -0.12531050800E+03  0.47053033604E+02 -0.95125125167E+02  0.16421175605E+03  0.00000000000E+00 0.  1.
         22    1    1    2    0    0  0.39575010275E+03 -0.28385134160E+03  0.52902622227E+03  0.71906777970E+03  0.00000000000E+00 0.  1.
<mgrwt>
<rscale>  0 0.13836322E+04</rscale>
<asrwt>0</asrwt>
<pdfrwt beam="1">  1        2 0.11295516E+00 0.13836322E+04</pdfrwt>
<pdfrwt beam="2">  1       -2 0.10028791E+00 0.13836322E+04</pdfrwt>
<totfact> 0.30822873E+01</totfact>
</mgrwt>
</event>
<event>
 6    1  0.1934315E-005  0.2053660E+04  0.7818608E-02  0.8581936E-01
         -2   -1    0    0    0  501 -0.00000000000E+00  0.00000000000E+00  0.80924465356E+03  0.80924465356E+03  0.00000000000E+00 0. -1.
          2   -1    0    0  501    0  0.00000000000E+00 -0.00000000000E+00 -0.13029187833E+04  0.13029187833E+04  0.00000000000E+00 0.  1.
         23    2    1    2    0    0  0.78419116666E+03 -0.28332220805E+03 -0.86010717000E+03  0.12013942935E+04  0.91305231126E+02 0.  0.
         11    1    3    3    0    0  0.43919275478E+03 -0.19190167214E+03 -0.53930651351E+03  0.72150401464E+03  0.00000000000E+00 0. -1.
        -11    1    3    3    0    0  0.34499841188E+03 -0.91420535911E+02 -0.32080065649E+03  0.47989027891E+03  0.00000000000E+00 0.  1.
         22    1    1    2    0    0 -0.78419116666E+03  0.28332220805E+03  0.36643304025E+03  0.91076914333E+03  0.00000000000E+00 0. -1.
<mgrwt>
<rscale>  0 0.20536602E+04</rscale>
<asrwt>0</asrwt>
<pdfrwt beam="1">  1        2 0.20044905E+00 0.20536602E+04</pdfrwt>
<pdfrwt beam="2">  1       -2 0.12449918E+00 0.20536602E+04</pdfrwt>
<totfact> 0.73788397E+00</totfact>
</mgrwt>
</event>
<event>
 6    1  0.1934315E-005  0.2634618E+04  0.7818608E-02  0.8356537E-01
         -2   -1    0    0    0  501 -0.00000000000E+00  0.00000000000E+00  0.92885548558E+03  0.92885548558E+03  0.00000000000E+00 0. -1.
          2   -1    0    0  501    0  0.00000000000E+00 -0.00000000000E+00 -0.18682161302E+04  0.18682161302E+04  0.00000000000E+00 0.  1.
         23    2    1    2    0    0  0.46301657315E+03 -0.30427398089E+03  0.79647258030E+03  0.97496185312E+03  0.95995007229E+02 0.  0.
         11    1    3    3    0    0  0.34228207306E+03 -0.17193341578E+03  0.55213158538E+03  0.67198765210E+03  0.00000000000E+00 0.  1.
        -11    1    3    3    0    0  0.12073450009E+03 -0.13234056511E+03  0.24434099492E+03  0.30297420102E+03  0.00000000000E+00 0. -1.
         22    1    1    2    0    0 -0.46301657315E+03  0.30427398089E+03 -0.17358332250E+04  0.18221097627E+04  0.00000000000E+00 0.  1.
<mgrwt>
<rscale>  0 0.26346178E+04</rscale>
<asrwt>0</asrwt>
<pdfrwt beam="1">  1        2 0.28741786E+00 0.26346178E+04</pdfrwt>
<pdfrwt beam="2">  1       -2 0.14290085E+00 0.26346178E+04</pdfrwt>
<totfact> 0.23750388E+00</totfact>
</mgrwt>
</event>
<event>
 6    1  0.1934315E-005  0.5564194E+03  0.7818608E-02  0.1000019E+00
          2   -1    0    0  501    0  0.00000000000E+00  0.00000000000E+00  0.97522901199E+03  0.97522901199E+03  0.00000000000E+00 0.  1.
         -2   -1    0    0    0  501 -0.00000000000E+00 -0.00000000000E+00 -0.79366623943E+02  0.79366623943E+02  0.00000000000E+00 0. -1.
         23    2    1    2    0    0 -0.17177479570E+03  0.18039891751E+03  0.66380415674E+03  0.71415272942E+03  0.85602643368E+02 0.  0.
         11    1    3    3    0    0 -0.13651856133E+03  0.10209206721E+03  0.35793142797E+03  0.39645304249E+03  0.00000000000E+00 0. -1.
        -11    1    3    3    0    0 -0.35256234378E+02  0.78306850307E+02  0.30587272877E+03  0.31769968693E+03  0.00000000000E+00 0.  1.
         22    1    1    2    0    0  0.17177479570E+03 -0.18039891751E+03  0.23205823131E+03  0.34044290651E+03  0.00000000000E+00 0. -1.
<mgrwt>
<rscale>  0 0.55641939E+03</rscale>
<asrwt>0</asrwt>
<pdfrwt beam="1">  1        2 0.15003522E+00 0.55641939E+03</pdfrwt>
<pdfrwt beam="2">  1       -2 0.12210251E-01 0.55641939E+03</pdfrwt>
<totfact> 0.13018453E+03</totfact>
</mgrwt>
</event>
<event>
 6    1  0.1934315E-005  0.1202232E+04  0.7818608E-02  0.9110906E-01
         -2   -1    0    0    0  501 -0.00000000000E+00  0.00000000000E+00  0.14910721581E+03  0.14910721581E+03  0.00000000000E+00 0. -1.
          2   -1    0    0  501    0  0.00000000000E+00 -0.00000000000E+00 -0.24233578873E+04  0.24233578873E+04  0.00000000000E+00 0.  1.
         23    2    1    2    0    0  0.66917281656E+02 -0.33012117681E+03 -0.22000275087E+04  0.22275491832E+04  0.91631927768E+02 0.  0.
         11    1    3    3    0    0  0.36458510360E+02 -0.18833622400E+03 -0.95284211211E+03  0.97196082579E+03  0.00000000000E+00 0. -1.
        -11    1    3    3    0    0  0.30458771296E+02 -0.14178495282E+03 -0.12471853966E+04  0.12555883574E+04  0.00000000000E+00 0.  1.
         22    1    1    2    0    0 -0.66917281656E+02  0.33012117681E+03 -0.74223162785E+02  0.34491591999E+03  0.00000000000E+00 0. -1.
<mgrwt>
<rscale>  0 0.12022315E+04</rscale>
<asrwt>0</asrwt>
<pdfrwt beam="1">  1        2 0.37282426E+00 0.12022315E+04</pdfrwt>
<pdfrwt beam="2">  1       -2 0.22939573E-01 0.12022315E+04</pdfrwt>
<totfact> 0.64061623E+01</totfact>
</mgrwt>
</event>
<event>
 6    1  0.1934315E-005  0.1980447E+04  0.7818608E-02  0.8615817E-01
         -2   -1    0    0    0  501 -0.00000000000E+00  0.00000000000E+00  0.38164937172E+03  0.38164937172E+03  0.00000000000E+00 0. -1.
          2   -1    0    0  501    0  0.00000000000E+00 -0.00000000000E+00 -0.25692232003E+04  0.25692232003E+04  0.00000000000E+00 0.  1.
         23    2    1    2    0    0 -0.57202929903E+03  0.80572226854E+03 -0.10793981504E+04  0.14661304306E+04  0.89622426459E+02 0.  0.
         11    1    3    3    0    0 -0.32594100682E+03  0.43839079300E+03 -0.65955269772E+03  0.85640748968E+03  0.00000000000E+00 0. -1.
        -11    1    3    3    0    0 -0.24608829221E+03  0.36733147554E+03 -0.41984545271E+03  0.60972294089E+03  0.00000000000E+00 0.  1.
         22    1    1    2    0    0  0.57202929903E+03 -0.80572226854E+03 -0.11081756782E+04  0.14847421415E+04  0.00000000000E+00 0.  1.
<mgrwt>
<rscale>  0 0.19804468E+04</rscale>
<asrwt>0</asrwt>
<pdfrwt beam="1">  1        2 0.39526510E+00 0.19804468E+04</pdfrwt>
<pdfrwt beam="2">  1       -2 0.58715289E-01 0.19804468E+04</pdfrwt>
<totfact> 0.80095326E+00</totfact>
</mgrwt>
</event>
<event>
 6    1  0.1934315E-005  0.2167582E+04  0.7818608E-02  0.8532044E-01
          2   -1    0    0  501    0  0.00000000000E+00  0.00000000000E+00  0.22434866527E+04  0.22434866527E+04  0.00000000000E+00 0.  1.
         -2   -1    0    0    0  501 -0.00000000000E+00 -0.00000000000E+00 -0.52356116203E+03  0.52356116203E+03  0.00000000000E+00 0. -1.
         23    2    1    2    0    0 -0.11916982375E+03 -0.66404954041E+03 -0.21822117492E+03  0.71483541433E+03  0.90586695402E+02 0.  0.
         11    1    3    3    0    0 -0.12380789743E+03 -0.47419344804E+03 -0.17182230929E+03  0.51933681518E+03  0.00000000000E+00 0. -1.
        -11    1    3    3    0    0  0.46380736835E+01 -0.18985609237E+03 -0.46398865629E+02  0.19549859915E+03  0.00000000000E+00 0.  1.
         22    1    1    2    0    0  0.11916982375E+03  0.66404954041E+03  0.19381466656E+04  0.20522124004E+04  0.00000000000E+00 0.  1.
<mgrwt>
<rscale>  0 0.21675816E+04</rscale>
<asrwt>0</asrwt>
<pdfrwt beam="1">  1        2 0.34515179E+00 0.21675816E+04</pdfrwt>
<pdfrwt beam="2">  1       -2 0.80547873E-01 0.21675816E+04</pdfrwt>
<totfact> 0.60877388E+00</totfact>
</mgrwt>
</event>
<event>
 6    1  0.1934315E-005  0.4345792E+04  0.7818608E-02  0.7938205E-01
         -2   -1    0    0    0  501 -0.00000000000E+00  0.00000000000E+00  0.18729847651E+04  0.18729847651E+04  0.00000000000E+00 0. -1.
          2   -1    0    0  501    0  0.00000000000E+00 -0.00000000000E+00 -0.25208303237E+04  0.25208303237E+04  0.00000000000E+00 0.  1.
         23    2    1    2    0    0  0.60811820195E+03 -0.17188686101E+04  0.86915211171E+03  0.20219805714E+04  0.93075192847E+02 0.  0.
         11    1    3    3    0    0  0.53063250752E+03 -0.14807761172E+04  0.78383486949E+03  0.17574600622E+04  0.00000000000E+00 0. -1.
        -11    1    3    3    0    0  0.77485694430E+02 -0.23809249283E+03  0.85317242218E+02  0.26452050923E+03  0.00000000000E+00 0.  1.
         22    1    1    2    0    0 -0.60811820195E+03  0.17188686101E+04 -0.15169976703E+04  0.23718345174E+04  0.00000000000E+00 0.  1.
<mgrwt>
<rscale>  0 0.43457919E+04</rscale>
<asrwt>0</asrwt>
<pdfrwt beam="1">  1        2 0.38782005E+00 0.43457919E+04</pdfrwt>
<pdfrwt beam="2">  1       -2 0.28815150E+00 0.43457919E+04</pdfrwt>
<totfact> 0.97538901E-02</totfact>
</mgrwt>
</event>
<event>
 6    1  0.1934315E-005  0.2235799E+04  0.7818608E-02  0.8503674E-01
         -2   -1    0    0    0  501 -0.00000000000E+00  0.00000000000E+00  0.11158437941E+04  0.11158437941E+04  0.00000000000E+00 0. -1.
          2   -1    0    0  501    0  0.00000000000E+00 -0.00000000000E+00 -0.11199588792E+04  0.11199588792E+04  0.00000000000E+00 0.  1.
         23    2    1    2    0    0  0.63278621839E+03  0.80351537387E+03  0.44402423870E+03  0.11191629786E+04  0.96503335906E+02 0.  0.
         13    1    3    3    0    0  0.41633618045E+03  0.59814112038E+03  0.30599896884E+03  0.79040747970E+03  0.00000000000E+00 0. -1.
        -13    1    3    3    0    0  0.21645003794E+03  0.20537425349E+03  0.13802526987E+03  0.32875549888E+03  0.00000000000E+00 0.  1.
         22    1    1    2    0    0 -0.63278621839E+03 -0.80351537387E+03 -0.44813932377E+03  0.11166396947E+04  0.00000000000E+00 0. -1.
<mgrwt>
<rscale>  0 0.22357989E+04</rscale>
<asrwt>0</asrwt>
<pdfrwt beam="1">  1        2 0.17230137E+00 0.22357989E+04</pdfrwt>
<pdfrwt beam="2">  1       -2 0.17166828E+00 0.22357989E+04</pdfrwt>
<totfact> 0.40028563E+00</totfact>
</mgrwt>
</event>
<event>
 6    1  0.1934315E-005  0.2500711E+04  0.7818608E-02  0.8402732E-01
          2   -1    0    0  501    0  0.00000000000E+00  0.00000000000E+00  0.15525560700E+04  0.15525560700E+04  0.00000000000E+00 0.  1.
         -2   -1    0    0    0  501 -0.00000000000E+00 -0.00000000000E+00 -0.10069775771E+04  0.10069775771E+04  0.00000000000E+00 0. -1.
         23    2    1    2    0    0 -0.25946718990E+02  0.58019541466E+03 -0.85822390715E+03  0.10403361188E+04  0.91929395999E+02 0.  0.
         11    1    3    3    0    0  0.10605346895E+02  0.48870218192E+03 -0.69512850956E+03  0.84979170436E+03  0.00000000000E+00 0.  1.
        -11    1    3    3    0    0 -0.36552065885E+02  0.91493232739E+02 -0.16309539759E+03  0.19054441443E+03  0.00000000000E+00 0. -1.
         22    1    1    2    0    0  0.25946718990E+02 -0.58019541466E+03  0.14038024001E+04  0.15191975283E+04  0.00000000000E+00 0.  1.
<mgrwt>
<rscale>  0 0.25007112E+04</rscale>
<asrwt>0</asrwt>
<pdfrwt beam="1">  1        2 0.23885478E+00 0.25007112E+04</pdfrwt>
<pdfrwt beam="2">  1       -2 0.15491963E+00 0.25007112E+04</pdfrwt>
<totfact> 0.29074099E+00</totfact>
</mgrwt>
</event>
<event>
 6    1  0.1934315E-005  0.8617141E+03  0.7818608E-02  0.9474748E-01
         -2   -1    0    0    0  501 -0.00000000000E+00  0.00000000000E+00  0.13333631453E+03  0.13333631453E+03  0.00000000000E+00 0. -1.
          2   -1    0    0  501    0  0.00000000000E+00 -0.00000000000E+00 -0.13922522770E+04  0.13922522770E+04  0.00000000000E+00 0.  1.
         23    2    1    2    0    0  0.34959939715E+03 -0.24307711843E+03 -0.64989773085E+03  0.78248063811E+03  0.92750549646E+02 0.  0.
         11    1    3    3    0    0  0.17521931702E+03 -0.95991978685E+02 -0.23035376145E+03  0.30492478490E+03  0.00000000000E+00 0.  1.
        -11    1    3    3    0    0  0.17438008013E+03 -0.14708513974E+03 -0.41954396940E+03  0.47755585321E+03  0.00000000000E+00 0. -1.
         22    1    1    2    0    0 -0.34959939715E+03  0.24307711843E+03 -0.60901823162E+03  0.74310795342E+03  0.00000000000E+00 0.  1.
<mgrwt>
<rscale>  0 0.86171408E+03</rscale>
<asrwt>0</asrwt>
<pdfrwt beam="1">  1        2 0.21419266E+00 0.86171408E+03</pdfrwt>
<pdfrwt beam="2">  1       -2 0.20513279E-01 0.86171408E+03</pdfrwt>
<totfact> 0.29989024E+02</totfact>
</mgrwt>
</event>
<event>
 6    1  0.1934315E-005  0.3455005E+04  0.7818608E-02  0.8124537E-01
         -2   -1    0    0    0  501 -0.00000000000E+00  0.00000000000E+00  0.28491672004E+04  0.28491672004E+04  0.00000000000E+00 0. -1.
          2   -1    0    0  501    0  0.00000000000E+00 -0.00000000000E+00 -0.10474166605E+04  0.10474166605E+04  0.00000000000E+00 0.  1.
         23    2    1    2    0    0  0.15739021076E+04  0.40130499818E+03  0.24208326084E+03  0.16447455969E+04  0.91488948115E+02 0.  0.
         13    1    3    3    0    0  0.10226959175E+04  0.23079943647E+03  0.18921480009E+03  0.10653532561E+04  0.00000000000E+00 0. -1.
        -13    1    3    3    0    0  0.55120619003E+03  0.17050556171E+03  0.52868460742E+02  0.57939234086E+03  0.00000000000E+00 0.  1.
         22    1    1    2    0    0 -0.15739021076E+04 -0.40130499818E+03  0.15596672791E+04  0.22518382640E+04  0.00000000000E+00 0. -1.
<mgrwt>
<rscale>  0 0.34550052E+04</rscale>
<asrwt>0</asrwt>
<pdfrwt beam="1">  1        2 0.16114103E+00 0.34550052E+04</pdfrwt>
<pdfrwt beam="2">  1       -2 0.43833341E+00 0.34550052E+04</pdfrwt>
<totfact> 0.80259251E-02</totfact>
</mgrwt>
</event>
<event>
 6    1  0.1934315E-005  0.2029538E+04  0.7818608E-02  0.8592934E-01
          2   -1    0    0  501    0  0.00000000000E+00  0.00000000000E+00  0.55693262342E+03  0.55693262342E+03  0.00000000000E+00 0.  1.
         -2   -1    0    0    0  501 -0.00000000000E+00 -0.00000000000E+00 -0.18489774633E+04  0.18489774633E+04  0.00000000000E+00 0. -1.
         23    2    1    2    0    0 -0.63396319205E+03  0.64525978808E+03 -0.10681593583E+03  0.91492481584E+03  0.86071200206E+02 0.  0.
         13    1    3    3    0    0 -0.24015580107E+03  0.20037338207E+03 -0.63918903768E+02  0.31923334301E+03  0.00000000000E+00 0. -1.
        -13    1    3    3    0    0 -0.39380739097E+03  0.44488640601E+03 -0.42897032062E+02  0.59569147283E+03  0.00000000000E+00 0.  1.
         22    1    1    2    0    0  0.63396319205E+03 -0.64525978808E+03 -0.11852289040E+04  0.14909852709E+04  0.00000000000E+00 0. -1.
<mgrwt>
<rscale>  0 0.20295377E+04</rscale>
<asrwt>0</asrwt>
<pdfrwt beam="1">  1        2 0.85681943E-01 0.20295377E+04</pdfrwt>
<pdfrwt beam="2">  1       -2 0.28445807E+00 0.20295377E+04</pdfrwt>
<totfact> 0.19895600E+00</totfact>
</mgrwt>
</event>
<event>
 6    1  0.1934315E-005  0.1788859E+04  0.7818608E-02  0.8712247E-01
          4   -1    0    0  501    0  0.00000000000E+00  0.00000000000E+00  0.68552479326E+03  0.68552479326E+03  0.00000000000E+00 0.  1.
         -4   -1    0    0    0  501 -0.00000000000E+00 -0.00000000000E+00 -0.11669951808E+04  0.11669951808E+04  0.00000000000E+00 0. -1.
         23    2    1    2    0    0  0.25377644132E+03  0.81250828093E+03  0.35076708790E+02  0.85683272825E+03  0.91431722866E+02 0.  0.
         13    1    3    3    0    0  0.71024746313E+02  0.13738635046E+03  0.29181181959E+02  0.15738826278E+03  0.00000000000E+00 0.  1.
        -13    1    3    3    0    0  0.18275169500E+03  0.67512193048E+03  0.58955268309E+01  0.69944446547E+03  0.00000000000E+00 0. -1.
         22    1    1    2    0    0 -0.25377644132E+03 -0.81250828093E+03 -0.51654709633E+03  0.99568724582E+03  0.00000000000E+00 0. -1.
<mgrwt>
<rscale>  0 0.17888590E+04</rscale>
<asrwt>0</asrwt>
<pdfrwt beam="1">  1        4 0.10546535E+00 0.17888590E+04</pdfrwt>
<pdfrwt beam="2">  1       -4 0.17953772E+00 0.17888590E+04</pdfrwt>
<totfact> 0.24869826E-01</totfact>
</mgrwt>
</event>
<event>
 6    1  0.1934315E-005  0.1450943E+04  0.7818608E-02  0.8917747E-01
          2   -1    0    0  501    0  0.00000000000E+00  0.00000000000E+00  0.19310333363E+04  0.19310333363E+04  0.00000000000E+00 0.  1.
         -2   -1    0    0    0  501 -0.00000000000E+00 -0.00000000000E+00 -0.27255293833E+03  0.27255293833E+03  0.00000000000E+00 0. -1.
         23    2    1    2    0    0  0.12593581430E+03 -0.46695423577E+03  0.16479091324E+04  0.17198323710E+04  0.91174492860E+02 0.  0.
         11    1    3    3    0    0  0.80996302701E+02 -0.17198864645E+03  0.74647136076E+03  0.77029863560E+03  0.00000000000E+00 0.  1.
        -11    1    3    3    0    0  0.44939511600E+02 -0.29496558932E+03  0.90143777164E+03  0.94953373543E+03  0.00000000000E+00 0. -1.
         22    1    1    2    0    0 -0.12593581430E+03  0.46695423577E+03  0.10571265601E+02  0.48375390364E+03  0.00000000000E+00 0. -1.
<mgrwt>
<rscale>  0 0.14509429E+04</rscale>
<asrwt>0</asrwt>
<pdfrwt beam="1">  1        2 0.29708204E+00 0.14509429E+04</pdfrwt>
<pdfrwt beam="2">  1       -2 0.41931222E-01 0.14509429E+04</pdfrwt>
<totfact> 0.38155141E+01</totfact>
</mgrwt>
</event>
<event>
 6    1  0.1934315E-005  0.6663206E+03  0.7818608E-02  0.9776628E-01
         -2   -1    0    0    0  501 -0.00000000000E+00  0.00000000000E+00  0.69055216212E+02  0.69055216212E+02  0.00000000000E+00 0. -1.
          2   -1    0    0  501    0  0.00000000000E+00 -0.00000000000E+00 -0.16073484961E+04  0.16073484961E+04  0.00000000000E+00 0.  1.
         23    2    1    2    0    0  0.46677361080E+00 -0.46274447423E+02 -0.15977948945E+04  0.16010247729E+04  0.90500034543E+02 0.  0.
         13    1    3    3    0    0  0.34015389123E+02 -0.39756042278E+02 -0.50658755310E+03  0.50928237604E+03  0.00000000000E+00 0.  1.
        -13    1    3    3    0    0 -0.33548615512E+02 -0.65184051448E+01 -0.10912073414E+04  0.10917423969E+04  0.00000000000E+00 0. -1.
         22    1    1    2    0    0 -0.46677361080E+00  0.46274447423E+02  0.59501614613E+02  0.75378939390E+02  0.00000000000E+00 0. -1.
<mgrwt>
<rscale>  0 0.66632064E+03</rscale>
<asrwt>0</asrwt>
<pdfrwt beam="1">  1        2 0.24728437E+00 0.66632064E+03</pdfrwt>
<pdfrwt beam="2">  1       -2 0.10623880E-01 0.66632064E+03</pdfrwt>
<totfact> 0.69994103E+02</totfact>
</mgrwt>
</event>
<event>
 6    1  0.1934315E-005  0.5240656E+04  0.7818608E-02  0.7792419E-01
         -2   -1    0    0    0  501 -0.00000000000E+00  0.00000000000E+00  0.14464989420E+04  0.14464989420E+04  0.00000000000E+00 0. -1.
          2   -1    0    0  501    0  0.00000000000E+00 -0.00000000000E+00 -0.47467152886E+04  0.47467152886E+04  0.00000000000E+00 0.  1.
         23    2    1    2    0    0  0.17366577486E+04  0.17315066752E+04 -0.27387160336E+04  0.36773886994E+04  0.92339763160E+02 0.  0.
         11    1    3    3    0    0  0.78897192451E+03  0.83921458351E+03 -0.13264751565E+04  0.17567851763E+04  0.00000000000E+00 0. -1.
        -11    1    3    3    0    0  0.94768582406E+03  0.89229209167E+03 -0.14122408771E+04  0.19206035231E+04  0.00000000000E+00 0.  1.
         22    1    1    2    0    0 -0.17366577486E+04 -0.17315066752E+04 -0.56150031309E+03  0.25158255312E+04  0.00000000000E+00 0. -1.
<mgrwt>
<rscale>  0 0.52406559E+04</rscale>
<asrwt>0</asrwt>
<pdfrwt beam="1">  1        2 0.73026390E+00 0.52406559E+04</pdfrwt>
<pdfrwt beam="2">  1       -2 0.22253830E+00 0.52406559E+04</pdfrwt>
<totfact> 0.45800789E-03</totfact>
</mgrwt>
</event>
<event>
 6    1  0.1934315E-005  0.3826194E+04  0.7818608E-02  0.8040557E-01
         -2   -1    0    0    0  501 -0.00000000000E+00  0.00000000000E+00  0.92585761625E+03  0.92585761625E+03  0.00000000000E+00 0. -1.
          2   -1    0    0  501    0  0.00000000000E+00 -0.00000000000E+00 -0.39530275715E+04  0.39530275715E+04  0.00000000000E+00 0.  1.
         23    2    1    2    0    0 -0.24053796250E+03 -0.92047757623E+03  0.60035038083E+03  0.11286796909E+04  0.91431861053E+02 0.  0.
         13    1    3    3    0    0 -0.15066881346E+03 -0.42477367741E+03  0.25434769254E+03  0.51751958134E+03  0.00000000000E+00 0. -1.
        -13    1    3    3    0    0 -0.89869149042E+02 -0.49570389882E+03  0.34600268828E+03  0.61116010959E+03  0.00000000000E+00 0.  1.
         22    1    1    2    0    0  0.24053796250E+03  0.92047757623E+03 -0.36275203361E+04  0.37502054969E+04  0.00000000000E+00 0.  1.
<mgrwt>
<rscale>  0 0.38261943E+04</rscale>
<asrwt>0</asrwt>
<pdfrwt beam="1">  1        2 0.60815808E+00 0.38261943E+04</pdfrwt>
<pdfrwt beam="2">  1       -2 0.14243964E+00 0.38261943E+04</pdfrwt>
<totfact> 0.10219215E-01</totfact>
</mgrwt>
</event>
<event>
 6    1  0.1934315E-005  0.3393881E+04  0.7818608E-02  0.8139410E-01
         -2   -1    0    0    0  501 -0.00000000000E+00  0.00000000000E+00  0.27812493829E+04  0.27812493829E+04  0.00000000000E+00 0. -1.
          2   -1    0    0  501    0  0.00000000000E+00 -0.00000000000E+00 -0.10353645929E+04  0.10353645929E+04  0.00000000000E+00 0.  1.
         23    2    1    2    0    0 -0.11968292881E+04 -0.36744298568E+03  0.21597309568E+04  0.24980225523E+04  0.90907499837E+02 0.  0.
         13    1    3    3    0    0 -0.81366080111E+03 -0.24154806350E+03  0.15451862933E+04  0.17629492469E+04  0.00000000000E+00 0. -1.
        -13    1    3    3    0    0 -0.38316848698E+03 -0.12589492217E+03  0.61454466348E+03  0.73507330536E+03  0.00000000000E+00 0.  1.
         22    1    1    2    0    0  0.11968292881E+04  0.36744298568E+03 -0.41384616678E+03  0.13185914236E+04  0.00000000000E+00 0.  1.
<mgrwt>
<rscale>  0 0.33938810E+04</rscale>
<asrwt>0</asrwt>
<pdfrwt beam="1">  1        2 0.15928686E+00 0.33938810E+04</pdfrwt>
<pdfrwt beam="2">  1       -2 0.42788452E+00 0.33938810E+04</pdfrwt>
<totfact> 0.96270344E-02</totfact>
</mgrwt>
</event>
<event>
 6    1  0.1934315E-005  0.3433995E+04  0.7818608E-02  0.8129613E-01
         -2   -1    0    0    0  501 -0.00000000000E+00  0.00000000000E+00  0.89061003296E+03  0.89061003296E+03  0.00000000000E+00 0. -1.
          2   -1    0    0  501    0  0.00000000000E+00 -0.00000000000E+00 -0.33101812933E+04  0.33101812933E+04  0.00000000000E+00 0.  1.
         23    2    1    2    0    0  0.49053140548E+03 -0.82612721091E+03 -0.29496356782E+04  0.31034875783E+04  0.90428349480E+02 0.  0.
         11    1    3    3    0    0  0.30516171150E+03 -0.54741348551E+03 -0.20466257364E+04  0.21404350257E+04  0.00000000000E+00 0.  1.
        -11    1    3    3    0    0  0.18536969398E+03 -0.27871372540E+03 -0.90300994179E+03  0.96305255263E+03  0.00000000000E+00 0. -1.
         22    1    1    2    0    0 -0.49053140548E+03  0.82612721091E+03  0.53006441778E+03  0.10973037480E+04  0.00000000000E+00 0. -1.
<mgrwt>
<rscale>  0 0.34339951E+04</rscale>
<asrwt>0</asrwt>
<pdfrwt beam="1">  1        2 0.50925865E+00 0.34339951E+04</pdfrwt>
<pdfrwt beam="2">  1       -2 0.13701693E+00 0.34339951E+04</pdfrwt>
<totfact> 0.34363199E-01</totfact>
</mgrwt>
</event>
<event>
 6    1  0.1934315E-005  0.2511495E+04  0.7818608E-02  0.8398902E-01
         -2   -1    0    0    0  501 -0.00000000000E+00  0.00000000000E+00  0.12555114001E+04  0.12555114001E+04  0.00000000000E+00 0. -1.
          2   -1    0    0  501    0  0.00000000000E+00 -0.00000000000E+00 -0.12559838367E+04  0.12559838367E+04  0.00000000000E+00 0.  1.
         23    2    1    2    0    0 -0.99235519714E+02 -0.11070882762E+04  0.57992346316E+03  0.12575608126E+04  0.98264106277E+02 0.  0.
         11    1    3    3    0    0 -0.61032657949E+01 -0.39287671607E+03  0.24674144791E+03  0.46397274273E+03  0.00000000000E+00 0.  1.
        -11    1    3    3    0    0 -0.93132253919E+02 -0.71421156011E+03  0.33318201525E+03  0.79358806985E+03  0.00000000000E+00 0. -1.
         22    1    1    2    0    0  0.99235519714E+02  0.11070882762E+04 -0.58039589979E+03  0.12539344242E+04  0.00000000000E+00 0.  1.
<mgrwt>
<rscale>  0 0.25114952E+04</rscale>
<asrwt>0</asrwt>
<pdfrwt beam="1">  1        2 0.19322828E+00 0.25114952E+04</pdfrwt>
<pdfrwt beam="2">  1       -2 0.19315560E+00 0.25114952E+04</pdfrwt>
<totfact> 0.23080440E+00</totfact>
</mgrwt>
</event>
<event>
 6    1  0.1934315E-005  0.1261698E+04  0.7818608E-02  0.9060503E-01
          2   -1    0    0  501    0  0.00000000000E+00  0.00000000000E+00  0.43134492966E+03  0.43134492966E+03  0.00000000000E+00 0.  1.
         -2   -1    0    0    0  501 -0.00000000000E+00 -0.00000000000E+00 -0.92262700142E+03  0.92262700142E+03  0.00000000000E+00 0. -1.
         23    2    1    2    0    0 -0.10824397284E+03  0.14480798143E+03  0.39782774716E+03  0.44666692215E+03  0.92511154921E+02 0.  0.
         13    1    3    3    0    0 -0.49937530668E+02  0.82599983351E+02  0.10936272228E+03  0.14586541483E+03  0.00000000000E+00 0. -1.
        -13    1    3    3    0    0 -0.58306442174E+02  0.62207998076E+02  0.28846502488E+03  0.30080150731E+03  0.00000000000E+00 0.  1.
         22    1    1    2    0    0  0.10824397284E+03 -0.14480798143E+03 -0.88910981892E+03  0.90730500894E+03  0.00000000000E+00 0. -1.
<mgrwt>
<rscale>  0 0.12616980E+04</rscale>
<asrwt>0</asrwt>
<pdfrwt beam="1">  1        2 0.66360759E-01 0.12616980E+04</pdfrwt>
<pdfrwt beam="2">  1       -2 0.14194261E+00 0.12616980E+04</pdfrwt>
<totfact> 0.24833647E+01</totfact>
</mgrwt>
</event>
<event>
 6    1  0.1934315E-005  0.2948977E+04  0.7818608E-02  0.8258453E-01
          2   -1    0    0  501    0  0.00000000000E+00  0.00000000000E+00  0.11862465675E+04  0.11862465675E+04  0.00000000000E+00 0.  1.
         -2   -1    0    0    0  501 -0.00000000000E+00 -0.00000000000E+00 -0.18327696259E+04  0.18327696259E+04  0.00000000000E+00 0. -1.
         23    2    1    2    0    0  0.14704489606E+04 -0.54313753139E+02 -0.39078093760E+03  0.15255055098E+04  0.96370066104E+02 0.  0.
         11    1    3    3    0    0  0.10902341056E+04 -0.21034166673E+01 -0.27010111936E+03  0.11231960844E+04  0.00000000000E+00 0. -1.
        -11    1    3    3    0    0  0.38021485503E+03 -0.52210336472E+02 -0.12067981824E+03  0.40230942538E+03  0.00000000000E+00 0.  1.
         22    1    1    2    0    0 -0.14704489606E+04  0.54313753139E+02 -0.25574212074E+03  0.14935106836E+04  0.00000000000E+00 0. -1.
<mgrwt>
<rscale>  0 0.29489772E+04</rscale>
<asrwt>0</asrwt>
<pdfrwt beam="1">  1        2 0.18249947E+00 0.29489772E+04</pdfrwt>
<pdfrwt beam="2">  1       -2 0.28196455E+00 0.29489772E+04</pdfrwt>
<totfact> 0.67976486E-01</totfact>
</mgrwt>
</event>
<event>
 6    1  0.1934315E-005  0.1061826E+04  0.7818608E-02  0.9243219E-01
          2   -1    0    0  501    0  0.00000000000E+00  0.00000000000E+00  0.75254143618E+03  0.75254143618E+03  0.00000000000E+00 0.  1.
         -2   -1    0    0    0  501 -0.00000000000E+00 -0.00000000000E+00 -0.37455552015E+03  0.37455552015E+03  0.00000000000E+00 0. -1.
         23    2    1    2    0    0 -0.52640312138E+03 -0.13295443359E+02  0.17103131912E+03  0.56131676916E+03  0.92454249229E+02 0.  0.
         11    1    3    3    0    0 -0.22895229619E+03  0.23869343477E+02  0.11118126624E+03  0.25563679988E+03  0.00000000000E+00 0. -1.
        -11    1    3    3    0    0 -0.29745082519E+03 -0.37164786835E+02  0.59850052876E+02  0.30567996928E+03  0.00000000000E+00 0.  1.
         22    1    1    2    0    0  0.52640312138E+03  0.13295443359E+02  0.20695459691E+03  0.56578018717E+03  0.00000000000E+00 0. -1.
<mgrwt>
<rscale>  0 0.10618259E+04</rscale>
<asrwt>0</asrwt>
<pdfrwt beam="1">  1        2 0.11577560E+00 0.10618259E+04</pdfrwt>
<pdfrwt beam="2">  1       -2 0.57623927E-01 0.10618259E+04</pdfrwt>
<totfact> 0.10481203E+02</totfact>
</mgrwt>
</event>
<event>
 6    1  0.1934315E-005  0.1254317E+04  0.7818608E-02  0.9066598E-01
          2   -1    0    0  501    0  0.00000000000E+00  0.00000000000E+00  0.10296030483E+04  0.10296030483E+04  0.00000000000E+00 0. -1.
         -2   -1    0    0    0  501 -0.00000000000E+00 -0.00000000000E+00 -0.38201892989E+03  0.38201892989E+03  0.00000000000E+00 0.  1.
         23    2    1    2    0    0 -0.28959658566E+03 -0.46962137706E+03  0.65307283977E+03  0.85986066538E+03  0.91901086007E+02 0.  0.
         11    1    3    3    0    0 -0.23534375035E+03 -0.30194560432E+03  0.45955557044E+03  0.59812135150E+03  0.00000000000E+00 0.  1.
        -11    1    3    3    0    0 -0.54252835308E+02 -0.16767577274E+03  0.19351726933E+03  0.26173931388E+03  0.00000000000E+00 0. -1.
         22    1    1    2    0    0  0.28959658566E+03  0.46962137706E+03 -0.54887213884E+01  0.55176131278E+03  0.00000000000E+00 0.  1.
<mgrwt>
<rscale>  0 0.12543171E+04</rscale>
<asrwt>0</asrwt>
<pdfrwt beam="1">  1        2 0.15840047E+00 0.12543171E+04</pdfrwt>
<pdfrwt beam="2">  1       -2 0.58772143E-01 0.12543171E+04</pdfrwt>
<totfact> 0.64152759E+01</totfact>
</mgrwt>
</event>
<event>
 6    1  0.1934315E-005  0.2058057E+04  0.7818608E-02  0.8579948E-01
         -2   -1    0    0    0  501 -0.00000000000E+00  0.00000000000E+00  0.84804994427E+03  0.84804994427E+03  0.00000000000E+00 0. -1.
          2   -1    0    0  501    0  0.00000000000E+00 -0.00000000000E+00 -0.12486285423E+04  0.12486285423E+04  0.00000000000E+00 0.  1.
         23    2    1    2    0    0 -0.82321897668E+02  0.29162090208E+03  0.79903931948E+03  0.85938192010E+03  0.90850454811E+02 0.  0.
         13    1    3    3    0    0  0.14142909251E+02  0.10720787781E+03  0.28289386337E+03  0.30285720873E+03  0.00000000000E+00 0. -1.
        -13    1    3    3    0    0 -0.96464806919E+02  0.18441302427E+03  0.51614545612E+03  0.55652471137E+03  0.00000000000E+00 0.  1.
         22    1    1    2    0    0  0.82321897668E+02 -0.29162090208E+03 -0.11996179175E+04  0.12372965665E+04  0.00000000000E+00 0.  1.
<mgrwt>
<rscale>  0 0.20580567E+04</rscale>
<asrwt>0</asrwt>
<pdfrwt beam="1">  1        2 0.19209670E+00 0.20580567E+04</pdfrwt>
<pdfrwt beam="2">  1       -2 0.13046922E+00 0.20580567E+04</pdfrwt>
<totfact> 0.70529960E+00</totfact>
</mgrwt>
</event>
<event>
 6    1  0.1934315E-005  0.3202690E+04  0.7818608E-02  0.8188107E-01
          2   -1    0    0  501    0  0.00000000000E+00  0.00000000000E+00  0.13972597909E+04  0.13972597909E+04  0.00000000000E+00 0. -1.
         -2   -1    0    0    0  501 -0.00000000000E+00 -0.00000000000E+00 -0.18352393357E+04  0.18352393357E+04  0.00000000000E+00 0.  1.
         23    2    1    2    0    0  0.63172764583E+03 -0.13551801814E+04  0.35579592124E+03  0.15396693558E+04  0.91639757002E+02 0.  0.
         13    1    3    3    0    0  0.28525612738E+03 -0.59952267709E+03  0.11156935064E+03  0.67323563376E+03  0.00000000000E+00 0.  1.
        -13    1    3    3    0    0  0.34647151844E+03 -0.75565750426E+03  0.24422657060E+03  0.86643372201E+03  0.00000000000E+00 0. -1.
         22    1    1    2    0    0 -0.63172764583E+03  0.13551801814E+04 -0.79377546604E+03  0.16928297708E+04  0.00000000000E+00 0.  1.
<mgrwt>
<rscale>  0 0.32026902E+04</rscale>
<asrwt>0</asrwt>
<pdfrwt beam="1">  1        2 0.21496305E+00 0.32026902E+04</pdfrwt>
<pdfrwt beam="2">  1       -2 0.28234451E+00 0.32026902E+04</pdfrwt>
<totfact> 0.49818767E-01</totfact>
</mgrwt>
</event>
<event>
 6    1  0.1934315E-005  0.2836108E+04  0.7818608E-02  0.8292145E-01
          2   -1    0    0  501    0  0.00000000000E+00  0.00000000000E+00  0.15342915665E+04  0.15342915665E+04  0.00000000000E+00 0.  1.
         -2   -1    0    0    0  501 -0.00000000000E+00 -0.00000000000E+00 -0.13106224940E+04  0.13106224940E+04  0.00000000000E+00 0. -1.
         23    2    1    2    0    0 -0.12008244206E+04 -0.75642773128E+02 -0.63787428894E+03  0.13650633647E+04  0.93878980081E+02 0.  0.
         13    1    3    3    0    0 -0.85480723670E+03 -0.95897004348E+02 -0.46186206761E+03  0.97632382786E+03  0.00000000000E+00 0. -1.
        -13    1    3    3    0    0 -0.34601718394E+03  0.20254231220E+02 -0.17601222133E+03  0.38873953686E+03  0.00000000000E+00 0.  1.
         22    1    1    2    0    0  0.12008244206E+04  0.75642773128E+02  0.86154336143E+03  0.14798506958E+04  0.00000000000E+00 0.  1.
<mgrwt>
<rscale>  0 0.28361079E+04</rscale>
<asrwt>0</asrwt>
<pdfrwt beam="1">  1        2 0.23604486E+00 0.28361079E+04</pdfrwt>
<pdfrwt beam="2">  1       -2 0.20163423E+00 0.28361079E+04</pdfrwt>
<totfact> 0.13668994E+00</totfact>
</mgrwt>
</event>
<event>
 6    1  0.1934315E-005  0.2175336E+04  0.7818608E-02  0.8528764E-01
         -2   -1    0    0    0  501 -0.00000000000E+00  0.00000000000E+00  0.42492980563E+03  0.42492980563E+03  0.00000000000E+00 0. -1.
          2   -1    0    0  501    0  0.00000000000E+00 -0.00000000000E+00 -0.27840407118E+04  0.27840407118E+04  0.00000000000E+00 0.  1.
         23    2    1    2    0    0  0.36049589500E+02 -0.93483425770E+03 -0.36853493590E+03  0.10095143675E+04  0.89925507213E+02 0.  0.
         11    1    3    3    0    0 -0.25865016578E+02 -0.21254159905E+03 -0.66828378289E+02  0.22429659505E+03  0.00000000000E+00 0.  1.
        -11    1    3    3    0    0  0.61914606078E+02 -0.72229265865E+03 -0.30170655761E+03  0.78521777240E+03  0.00000000000E+00 0. -1.
         22    1    1    2    0    0 -0.36049589500E+02  0.93483425770E+03 -0.19905759703E+04  0.21994561500E+04  0.00000000000E+00 0.  1.
<mgrwt>
<rscale>  0 0.21753362E+04</rscale>
<asrwt>0</asrwt>
<pdfrwt beam="1">  1        2 0.42831397E+00 0.21753362E+04</pdfrwt>
<pdfrwt beam="2">  1       -2 0.65373815E-01 0.21753362E+04</pdfrwt>
<totfact> 0.46729251E+00</totfact>
</mgrwt>
</event>
<event>
 6    1  0.1934315E-005  0.2008130E+04  0.7818608E-02  0.8602829E-01
         -2   -1    0    0    0  501 -0.00000000000E+00  0.00000000000E+00  0.14918762235E+04  0.14918762235E+04  0.00000000000E+00 0. -1.
          2   -1    0    0  501    0  0.00000000000E+00 -0.00000000000E+00 -0.67575750906E+03  0.67575750906E+03  0.00000000000E+00 0.  1.
         23    2    1    2    0    0  0.43484338152E+03  0.89961874357E+03  0.33030282311E+03  0.10565893003E+04  0.94224966123E+02 0.  0.
         13    1    3    3    0    0  0.28174249782E+03  0.56829151827E+03  0.25658443968E+03  0.68422924485E+03  0.00000000000E+00 0.  1.
        -13    1    3    3    0    0  0.15310088370E+03  0.33132722530E+03  0.73718383430E+02  0.37236005542E+03  0.00000000000E+00 0. -1.
         22    1    1    2    0    0 -0.43484338152E+03 -0.89961874357E+03  0.48581589130E+03  0.11110444323E+04  0.00000000000E+00 0. -1.
<mgrwt>
<rscale>  0 0.20081300E+04</rscale>
<asrwt>0</asrwt>
<pdfrwt beam="1">  1        2 0.10396269E+00 0.20081300E+04</pdfrwt>
<pdfrwt beam="2">  1       -2 0.22951942E+00 0.20081300E+04</pdfrwt>
<totfact> 0.34224387E+00</totfact>
</mgrwt>
</event>
<event>
 6    1  0.1934315E-005  0.1296583E+04  0.7818608E-02  0.9032280E-01
          2   -1    0    0  501    0  0.00000000000E+00  0.00000000000E+00  0.90927754207E+03  0.90927754207E+03  0.00000000000E+00 0.  1.
         -2   -1    0    0    0  501 -0.00000000000E+00 -0.00000000000E+00 -0.46221489827E+03  0.46221489827E+03  0.00000000000E+00 0. -1.
         23    2    1    2    0    0 -0.55042435437E+03 -0.17840298944E+03  0.52696611120E+03  0.78738700412E+03  0.86547185834E+02 0.  0.
         11    1    3    3    0    0 -0.19429139241E+03 -0.20171687849E+02  0.17344285090E+03  0.26122493121E+03  0.00000000000E+00 0. -1.
        -11    1    3    3    0    0 -0.35613296196E+03 -0.15823130159E+03  0.35352326029E+03  0.52616207290E+03  0.00000000000E+00 0.  1.
         22    1    1    2    0    0  0.55042435437E+03  0.17840298944E+03 -0.79903467405E+02  0.58410543623E+03  0.00000000000E+00 0. -1.
<mgrwt>
<rscale>  0 0.12965826E+04</rscale>
<asrwt>0</asrwt>
<pdfrwt beam="1">  1        2 0.13988885E+00 0.12965826E+04</pdfrwt>
<pdfrwt beam="2">  1       -2 0.71109985E-01 0.12965826E+04</pdfrwt>
<totfact> 0.50904892E+01</totfact>
</mgrwt>
</event>
<event>
 6    1  0.1934315E-005  0.1304948E+04  0.7818608E-02  0.9025650E-01
         -2   -1    0    0    0  501 -0.00000000000E+00  0.00000000000E+00  0.60524301754E+03  0.60524301754E+03  0.00000000000E+00 0. -1.
          2   -1    0    0  501    0  0.00000000000E+00 -0.00000000000E+00 -0.70339105595E+03  0.70339105595E+03  0.00000000000E+00 0.  1.
         23    2    1    2    0    0  0.50720066747E+03  0.18391271095E+03  0.30918069792E+03  0.63262142437E+03  0.11636477249E+03 0.  0.
         13    1    3    3    0    0  0.16615573343E+03  0.87619066879E+01  0.11964675690E+03  0.20493863764E+03  0.00000000000E+00 0.  1.
        -13    1    3    3    0    0  0.34104493403E+03  0.17515080427E+03  0.18953394102E+03  0.42768278673E+03  0.00000000000E+00 0. -1.
         22    1    1    2    0    0 -0.50720066747E+03 -0.18391271095E+03 -0.40732873634E+03  0.67601264912E+03  0.00000000000E+00 0.  1.
<mgrwt>
<rscale>  0 0.13049483E+04</rscale>
<asrwt>0</asrwt>
<pdfrwt beam="1">  1        2 0.10821401E+00 0.13049483E+04</pdfrwt>
<pdfrwt beam="2">  1       -2 0.93114310E-01 0.13049483E+04</pdfrwt>
<totfact> 0.38983337E+01</totfact>
</mgrwt>
</event>
<event>
 6    1  0.1934315E-005  0.2117184E+04  0.7818608E-02  0.8553711E-01
         -2   -1    0    0    0  501 -0.00000000000E+00  0.00000000000E+00  0.50314486520E+03  0.50314486520E+03  0.00000000000E+00 0. -1.
          2   -1    0    0  501    0  0.00000000000E+00 -0.00000000000E+00 -0.22272244505E+04  0.22272244505E+04  0.00000000000E+00 0.  1.
         23    2    1    2    0    0 -0.56767016273E+03 -0.19249073417E+03  0.25855647996E+03  0.65910210367E+03  0.90895727807E+02 0.  0.
         11    1    3    3    0    0 -0.30293631888E+03 -0.92223284551E+02  0.18449461355E+03  0.36648848541E+03  0.00000000000E+00 0. -1.
        -11    1    3    3    0    0 -0.26473384385E+03 -0.10026744962E+03  0.74061866411E+02  0.29261361826E+03  0.00000000000E+00 0.  1.
         22    1    1    2    0    0  0.56767016273E+03  0.19249073417E+03 -0.19826360653E+04  0.20712672120E+04  0.00000000000E+00 0.  1.
<mgrwt>
<rscale>  0 0.21171835E+04</rscale>
<asrwt>0</asrwt>
<pdfrwt beam="1">  1        2 0.34264992E+00 0.21171835E+04</pdfrwt>
<pdfrwt beam="2">  1       -2 0.77406902E-01 0.21171835E+04</pdfrwt>
<totfact> 0.68267540E+00</totfact>
</mgrwt>
</event>
<event>
 6    1  0.1934315E-005  0.1947462E+04  0.7818608E-02  0.8631586E-01
          2   -1    0    0  501    0  0.00000000000E+00  0.00000000000E+00  0.16072235057E+04  0.16072235057E+04  0.00000000000E+00 0.  1.
         -2   -1    0    0    0  501 -0.00000000000E+00 -0.00000000000E+00 -0.58993155738E+03  0.58993155738E+03  0.00000000000E+00 0. -1.
         23    2    1    2    0    0 -0.74764391609E+03 -0.61964521566E+03  0.55023402520E+03  0.11196232899E+04  0.88697295811E+02 0.  0.
         11    1    3    3    0    0 -0.57176485091E+03 -0.42558858808E+03  0.38770994961E+03  0.81139367514E+03  0.00000000000E+00 0. -1.
        -11    1    3    3    0    0 -0.17587906518E+03 -0.19405662759E+03  0.16252407560E+03  0.30822961478E+03  0.00000000000E+00 0.  1.
         22    1    1    2    0    0  0.74764391609E+03  0.61964521566E+03  0.46705792307E+03  0.10775317731E+04  0.00000000000E+00 0.  1.
<mgrwt>
<rscale>  0 0.19474618E+04</rscale>
<asrwt>0</asrwt>
<pdfrwt beam="1">  1        2 0.24726515E+00 0.19474618E+04</pdfrwt>
<pdfrwt beam="2">  1       -2 0.90758702E-01 0.19474618E+04</pdfrwt>
<totfact> 0.10684830E+01</totfact>
</mgrwt>
</event>
<event>
 6    1  0.1934315E-005  0.2218971E+04  0.7818608E-02  0.8510573E-01
         -2   -1    0    0    0  501 -0.00000000000E+00  0.00000000000E+00  0.26338669990E+04  0.26338669990E+04  0.00000000000E+00 0. -1.
          2   -1    0    0  501    0  0.00000000000E+00 -0.00000000000E+00 -0.46735783606E+03  0.46735783606E+03  0.00000000000E+00 0.  1.
         23    2    1    2    0    0  0.78896361250E+03 -0.50687891067E+03  0.19089511598E+04  0.21287404203E+04  0.89729786371E+02 0.  0.
         13    1    3    3    0    0  0.19148478419E+03 -0.10316957436E+03  0.52300774126E+03  0.56643400416E+03  0.00000000000E+00 0. -1.
        -13    1    3    3    0    0  0.59747882831E+03 -0.40370933631E+03  0.13859434185E+04  0.15623064161E+04  0.00000000000E+00 0.  1.
         22    1    1    2    0    0 -0.78896361250E+03  0.50687891067E+03  0.25755800310E+03  0.97248441473E+03  0.00000000000E+00 0.  1.
<mgrwt>
<rscale>  0 0.22189713E+04</rscale>
<asrwt>0</asrwt>
<pdfrwt beam="1">  1        2 0.71901207E-01 0.22189713E+04</pdfrwt>
<pdfrwt beam="2">  1       -2 0.40521030E+00 0.22189713E+04</pdfrwt>
<totfact> 0.41755415E-01</totfact>
</mgrwt>
</event>
<event>
 6    1  0.1934315E-005  0.3831426E+04  0.7818608E-02  0.8039444E-01
         -2   -1    0    0    0  501 -0.00000000000E+00  0.00000000000E+00  0.11191188621E+04  0.11191188621E+04  0.00000000000E+00 0. -1.
          2   -1    0    0  501    0  0.00000000000E+00 -0.00000000000E+00 -0.32793259800E+04  0.32793259800E+04  0.00000000000E+00 0.  1.
         23    2    1    2    0    0 -0.14993113957E+04 -0.96316795240E+03 -0.27685700432E+03  0.18056404113E+04  0.89779331987E+02 0.  0.
         13    1    3    3    0    0 -0.14461264516E+04 -0.90915403889E+03 -0.25818387103E+03  0.17275710381E+04  0.00000000000E+00 0. -1.
        -13    1    3    3    0    0 -0.53184944092E+02 -0.54013913505E+02 -0.18673133288E+02  0.78069373233E+02  0.00000000000E+00 0.  1.
         22    1    1    2    0    0  0.14993113957E+04  0.96316795240E+03 -0.18833501136E+04  0.25928044307E+04  0.00000000000E+00 0.  1.
<mgrwt>
<rscale>  0 0.38314256E+04</rscale>
<asrwt>0</asrwt>
<pdfrwt beam="1">  1        2 0.50451169E+00 0.38314256E+04</pdfrwt>
<pdfrwt beam="2">  1       -2 0.17217213E+00 0.38314256E+04</pdfrwt>
<totfact> 0.18891711E-01</totfact>
</mgrwt>
</event>
<event>
 6    1  0.1934315E-005  0.1516508E+04  0.7818608E-02  0.8873549E-01
         -2   -1    0    0    0  501 -0.00000000000E+00  0.00000000000E+00  0.34909239706E+03  0.34909239706E+03  0.00000000000E+00 0. -1.
          2   -1    0    0  501    0  0.00000000000E+00 -0.00000000000E+00 -0.16469831489E+04  0.16469831489E+04  0.00000000000E+00 0.  1.
         23    2    1    2    0    0  0.42943099024E+03  0.21093256110E+02  0.16720403266E+03  0.46919682504E+03  0.85630434204E+02 0.  0.
         13    1    3    3    0    0  0.10199347157E+03  0.24035849421E+02  0.75480428680E+02  0.12914211325E+03  0.00000000000E+00 0. -1.
        -13    1    3    3    0    0  0.32743751867E+03 -0.29425933109E+01  0.91723603976E+02  0.34005471179E+03  0.00000000000E+00 0.  1.
         22    1    1    2    0    0 -0.42943099024E+03 -0.21093256110E+02 -0.14650947845E+04  0.15268787210E+04  0.00000000000E+00 0.  1.
<mgrwt>
<rscale>  0 0.15165082E+04</rscale>
<asrwt>0</asrwt>
<pdfrwt beam="1">  1        2 0.25338203E+00 0.15165082E+04</pdfrwt>
<pdfrwt beam="2">  1       -2 0.53706522E-01 0.15165082E+04</pdfrwt>
<totfact> 0.33084705E+01</totfact>
</mgrwt>
</event>
<event>
 6    1  0.1934315E-005  0.3988363E+04  0.7818608E-02  0.8006898E-01
          2   -1    0    0  501    0  0.00000000000E+00  0.00000000000E+00  0.15214545309E+04  0.15214545309E+04  0.00000000000E+00 0.  1.
         -2   -1    0    0    0  501 -0.00000000000E+00 -0.00000000000E+00 -0.26137886825E+04  0.26137886825E+04  0.00000000000E+00 0. -1.
         23    2    1    2    0    0  0.20614136155E+03  0.16349953744E+04 -0.17088184828E+04  0.23757668522E+04  0.92213847566E+02 0.  0.
         13    1    3    3    0    0  0.14638300847E+03  0.86165095901E+03 -0.94380494428E+03  0.12863273818E+04  0.00000000000E+00 0. -1.
        -13    1    3    3    0    0  0.59758353081E+02  0.77334441535E+03 -0.76501353855E+03  0.10894394704E+04  0.00000000000E+00 0.  1.
         22    1    1    2    0    0 -0.20614136155E+03 -0.16349953744E+04  0.61648433127E+03  0.17594763613E+04  0.00000000000E+00 0.  1.
<mgrwt>
<rscale>  0 0.39883634E+04</rscale>
<asrwt>0</asrwt>
<pdfrwt beam="1">  1        2 0.23406993E+00 0.39883634E+04</pdfrwt>
<pdfrwt beam="2">  1       -2 0.40212134E+00 0.39883634E+04</pdfrwt>
<totfact> 0.70039226E-02</totfact>
</mgrwt>
</event>
<event>
 6    1  0.1934315E-005  0.3801536E+04  0.7818608E-02  0.8045825E-01
          2   -1    0    0  501    0  0.00000000000E+00  0.00000000000E+00  0.24050592805E+04  0.24050592805E+04  0.00000000000E+00 0. -1.
         -2   -1    0    0    0  501 -0.00000000000E+00 -0.00000000000E+00 -0.15022165013E+04  0.15022165013E+04  0.00000000000E+00 0.  1.
         23    2    1    2    0    0  0.16195360063E+04 -0.67623713499E+03  0.11989818607E+04  0.21274185140E+04  0.90324377256E+02 0.  0.
         11    1    3    3    0    0  0.13017906844E+04 -0.50630346534E+03  0.96764884122E+03  0.16992193693E+04  0.00000000000E+00 0.  1.
        -11    1    3    3    0    0  0.31774532189E+03 -0.16993366964E+03  0.23133301943E+03  0.42819914472E+03  0.00000000000E+00 0. -1.
         22    1    1    2    0    0 -0.16195360063E+04  0.67623713499E+03 -0.29613908146E+03  0.17798572678E+04  0.00000000000E+00 0.  1.
<mgrwt>
<rscale>  0 0.38015364E+04</rscale>
<asrwt>0</asrwt>
<pdfrwt beam="1">  1        2 0.37000912E+00 0.38015364E+04</pdfrwt>
<pdfrwt beam="2">  1       -2 0.23111023E+00 0.38015364E+04</pdfrwt>
<totfact> 0.26639455E-01</totfact>
</mgrwt>
</event>
<event>
 6    1  0.1934315E-005  0.3276126E+03  0.7818608E-02  0.1072198E+00
          2   -1    0    0  501    0  0.00000000000E+00  0.00000000000E+00  0.90462056538E+03  0.90462056538E+03  0.00000000000E+00 0.  1.
         -2   -1    0    0    0  501 -0.00000000000E+00 -0.00000000000E+00 -0.29661611314E+02  0.29661611314E+02  0.00000000000E+00 0. -1.
         23    2    1    2    0    0  0.10926740359E+03 -0.94997972205E+02  0.59459429185E+03  0.61873768850E+03  0.91268697014E+02 0.  0.
         13    1    3    3    0    0  0.85024422352E+02 -0.14530123994E+02  0.27020533630E+03  0.28363920861E+03  0.00000000000E+00 0. -1.
        -13    1    3    3    0    0  0.24242981241E+02 -0.80467848211E+02  0.32438895555E+03  0.33509847989E+03  0.00000000000E+00 0.  1.
         22    1    1    2    0    0 -0.10926740359E+03  0.94997972205E+02  0.28036466221E+03  0.31554448819E+03  0.00000000000E+00 0. -1.
<mgrwt>
<rscale>  0 0.32761260E+03</rscale>
<asrwt>0</asrwt>
<pdfrwt beam="1">  1        2 0.13917237E+00 0.32761260E+03</pdfrwt>
<pdfrwt beam="2">  1       -2 0.45633255E-02 0.32761260E+03</pdfrwt>
<totfact> 0.68113909E+03</totfact>
</mgrwt>
</event>
<event>
 6    1  0.1934315E-005  0.1706350E+04  0.7818608E-02  0.8757751E-01
         -2   -1    0    0    0  501 -0.00000000000E+00  0.00000000000E+00  0.78056374271E+03  0.78056374271E+03  0.00000000000E+00 0.  1.
          2   -1    0    0  501    0  0.00000000000E+00 -0.00000000000E+00 -0.93254090947E+03  0.93254090947E+03  0.00000000000E+00 0. -1.
         23    2    1    2    0    0  0.37107030820E+03 -0.75882366342E+03 -0.17975261062E+03  0.86795496066E+03  0.86765701256E+02 0.  0.
         11    1    3    3    0    0  0.15027742797E+03 -0.26815863408E+03 -0.10445268977E+03  0.32465785496E+03  0.00000000000E+00 0. -1.
        -11    1    3    3    0    0  0.22079288023E+03 -0.49066502934E+03 -0.75299920851E+02  0.54329710570E+03  0.00000000000E+00 0.  1.
         22    1    1    2    0    0 -0.37107030820E+03  0.75882366342E+03  0.27775443861E+02  0.84514969152E+03  0.00000000000E+00 0.  1.
<mgrwt>
<rscale>  0 0.17063500E+04</rscale>
<asrwt>0</asrwt>
<pdfrwt beam="1">  1        2 0.14346783E+00 0.17063500E+04</pdfrwt>
<pdfrwt beam="2">  1       -2 0.12008673E+00 0.17063500E+04</pdfrwt>
<totfact> 0.14056447E+01</totfact>
</mgrwt>
</event>
<event>
 6    1  0.1934315E-005  0.3532866E+04  0.7818608E-02  0.8106045E-01
         -1   -1    0    0    0  501 -0.00000000000E+00  0.00000000000E+00  0.99757704395E+03  0.99757704395E+03  0.00000000000E+00 0. -1.
          1   -1    0    0  501    0  0.00000000000E+00 -0.00000000000E+00 -0.31278636647E+04  0.31278636647E+04  0.00000000000E+00 0.  1.
         23    2    1    2    0    0  0.39255343351E+03 -0.76675231246E+03  0.73341906978E+03  0.11349862969E+04  0.91011292893E+02 0.  0.
         11    1    3    3    0    0  0.18309139517E+03 -0.30011435393E+03  0.34672547489E+03  0.49377083688E+03  0.00000000000E+00 0. -1.
        -11    1    3    3    0    0  0.20946203834E+03 -0.46663795853E+03  0.38669359489E+03  0.64121546003E+03  0.00000000000E+00 0.  1.
         22    1    1    2    0    0 -0.39255343351E+03  0.76675231246E+03 -0.28637056906E+04  0.29904544118E+04  0.00000000000E+00 0.  1.
<mgrwt>
<rscale>  0 0.35328657E+04</rscale>
<asrwt>0</asrwt>
<pdfrwt beam="1">  1        1 0.48120980E+00 0.35328657E+04</pdfrwt>
<pdfrwt beam="2">  1       -1 0.15347339E+00 0.35328657E+04</pdfrwt>
<totfact> 0.12825213E-01</totfact>
</mgrwt>
</event>
<event>
 6    1  0.1934315E-005  0.5071074E+03  0.7818608E-02  0.1011940E+00
         -2   -1    0    0    0  501 -0.00000000000E+00  0.00000000000E+00  0.11237038624E+03  0.11237038624E+03  0.00000000000E+00 0. -1.
          2   -1    0    0  501    0  0.00000000000E+00 -0.00000000000E+00 -0.57212113923E+03  0.57212113923E+03  0.00000000000E+00 0.  1.
         23    2    1    2    0    0  0.11701236437E+03 -0.46522726268E+02  0.47452879046E+02  0.16189054784E+03  0.90002868142E+02 0.  0.
         11    1    3    3    0    0  0.63803612933E+02 -0.43323731125E+02 -0.16262211313E+02  0.78818184568E+02  0.00000000000E+00 0.  1.
        -11    1    3    3    0    0  0.53208751440E+02 -0.31989951429E+01  0.63715090359E+02  0.83072363269E+02  0.00000000000E+00 0. -1.
         22    1    1    2    0    0 -0.11701236437E+03  0.46522726268E+02 -0.50720363203E+03  0.52260097763E+03  0.00000000000E+00 0.  1.
<mgrwt>
<rscale>  0 0.50710738E+03</rscale>
<asrwt>0</asrwt>
<pdfrwt beam="1">  1        2 0.88018637E-01 0.50710738E+03</pdfrwt>
<pdfrwt beam="2">  1       -2 0.17287752E-01 0.50710738E+03</pdfrwt>
<totfact> 0.14442233E+03</totfact>
</mgrwt>
</event>
<event>
 6    1  0.1934315E-005  0.3807791E+04  0.7818608E-02  0.8044485E-01
          2   -1    0    0  501    0  0.00000000000E+00  0.00000000000E+00  0.18848235080E+04  0.18848235080E+04  0.00000000000E+00 0.  1.
         -2   -1    0    0    0  501 -0.00000000000E+00 -0.00000000000E+00 -0.19231600929E+04  0.19231600929E+04  0.00000000000E+00 0. -1.
         23    2    1    2    0    0  0.27438963534E+03  0.32781426673E+03 -0.18734020792E+04  0.19237815857E+04  0.92457415471E+02 0.  0.
         13    1    3    3    0    0  0.16576608802E+03  0.12636482244E+03 -0.91036466521E+03  0.93392199243E+03  0.00000000000E+00 0. -1.
        -13    1    3    3    0    0  0.10862354732E+03  0.20144944430E+03 -0.96303741401E+03  0.98985959329E+03  0.00000000000E+00 0.  1.
         22    1    1    2    0    0 -0.27438963534E+03 -0.32781426673E+03  0.18350654943E+04  0.18842020151E+04  0.00000000000E+00 0.  1.
<mgrwt>
<rscale>  0 0.38077906E+04</rscale>
<asrwt>0</asrwt>
<pdfrwt beam="1">  1        2 0.28997285E+00 0.38077906E+04</pdfrwt>
<pdfrwt beam="2">  1       -2 0.29587078E+00 0.38077906E+04</pdfrwt>
<totfact> 0.20899371E-01</totfact>
</mgrwt>
</event>
<event>
 6    1  0.1934315E-005  0.3508745E+04  0.7818608E-02  0.8111721E-01
          2   -1    0    0  501    0  0.00000000000E+00  0.00000000000E+00  0.44572280194E+04  0.44572280194E+04  0.00000000000E+00 0.  1.
         -2   -1    0    0    0  501 -0.00000000000E+00 -0.00000000000E+00 -0.69052385661E+03  0.69052385661E+03  0.00000000000E+00 0. -1.
         23    2    1    2    0    0  0.62876575734E+03  0.15648370923E+04  0.25875813741E+04  0.30899880281E+04  0.91581346955E+02 0.  0.
         11    1    3    3    0    0  0.92234780911E+02  0.21855556081E+03  0.42451803571E+03  0.48630170739E+03  0.00000000000E+00 0. -1.
        -11    1    3    3    0    0  0.53653097643E+03  0.13462815315E+04  0.21630633384E+04  0.26036863207E+04  0.00000000000E+00 0.  1.
         22    1    1    2    0    0 -0.62876575734E+03 -0.15648370923E+04  0.11791227887E+04  0.20577638479E+04  0.00000000000E+00 0. -1.
<mgrwt>
<rscale>  0 0.35087447E+04</rscale>
<asrwt>0</asrwt>
<pdfrwt beam="1">  1        2 0.68572737E+00 0.35087447E+04</pdfrwt>
<pdfrwt beam="2">  1       -2 0.10623444E+00 0.35087447E+04</pdfrwt>
<totfact> 0.79105087E-02</totfact>
</mgrwt>
</event>
<event>
 6    1  0.1934315E-005  0.2140600E+04  0.7818608E-02  0.8543566E-01
         -2   -1    0    0    0  501 -0.00000000000E+00  0.00000000000E+00  0.19108922798E+04  0.19108922798E+04  0.00000000000E+00 0. -1.
          2   -1    0    0  501    0  0.00000000000E+00 -0.00000000000E+00 -0.59948042502E+03  0.59948042502E+03  0.00000000000E+00 0.  1.
         23    2    1    2    0    0 -0.22204855472E+03  0.95131384051E+03  0.14869134632E+03  0.99174748291E+03  0.84559858010E+02 0.  0.
         13    1    3    3    0    0 -0.18396406951E+03  0.65171716409E+03  0.78755510504E+02  0.68174809957E+03  0.00000000000E+00 0.  1.
        -13    1    3    3    0    0 -0.38084485209E+02  0.29959667642E+03  0.69935835817E+02  0.30999938334E+03  0.00000000000E+00 0. -1.
         22    1    1    2    0    0  0.22204855472E+03 -0.95131384051E+03  0.11627205085E+04  0.15186252219E+04  0.00000000000E+00 0. -1.
<mgrwt>
<rscale>  0 0.21406004E+04</rscale>
<asrwt>0</asrwt>
<pdfrwt beam="1">  1        2 0.92227759E-01 0.21406004E+04</pdfrwt>
<pdfrwt beam="2">  1       -2 0.29398342E+00 0.21406004E+04</pdfrwt>
<totfact> 0.15784783E+00</totfact>
</mgrwt>
</event>
<event>
 6    1  0.1934315E-005  0.7020938E+03  0.7818608E-02  0.9713658E-01
         -2   -1    0    0    0  501 -0.00000000000E+00  0.00000000000E+00  0.31723873391E+03  0.31723873391E+03  0.00000000000E+00 0. -1.
          2   -1    0    0  501    0  0.00000000000E+00 -0.00000000000E+00 -0.38845799939E+03  0.38845799939E+03  0.00000000000E+00 0.  1.
         23    2    1    2    0    0  0.27449800482E+03 -0.10822610265E+03  0.14057031647E+03  0.34249311139E+03  0.10236929975E+03 0.  0.
         13    1    3    3    0    0  0.14856180757E+03 -0.33681159176E+02  0.21528459509E+02  0.15384572052E+03  0.00000000000E+00 0.  1.
        -13    1    3    3    0    0  0.12593619725E+03 -0.74544943470E+02  0.11904185696E+03  0.18864739087E+03  0.00000000000E+00 0. -1.
         22    1    1    2    0    0 -0.27449800482E+03  0.10822610265E+03 -0.21178958195E+03  0.36320362191E+03  0.00000000000E+00 0.  1.
<mgrwt>
<rscale>  0 0.70209379E+03</rscale>
<asrwt>0</asrwt>
<pdfrwt beam="1">  1        2 0.59762769E-01 0.70209379E+03</pdfrwt>
<pdfrwt beam="2">  1       -2 0.48805959E-01 0.70209379E+03</pdfrwt>
<totfact> 0.32970189E+02</totfact>
</mgrwt>
</event>
<event>
 6    1  0.1934315E-005  0.2694770E+04  0.7818608E-02  0.8336704E-01
          2   -1    0    0  501    0  0.00000000000E+00  0.00000000000E+00  0.10868255054E+04  0.10868255054E+04  0.00000000000E+00 0.  1.
         -2   -1    0    0    0  501 -0.00000000000E+00 -0.00000000000E+00 -0.16704121918E+04  0.16704121918E+04  0.00000000000E+00 0. -1.
         23    2    1    2    0    0 -0.10122367498E+04  0.85119356818E+03 -0.54675947326E+03  0.14341693045E+04  0.93498365300E+02 0.  0.
         13    1    3    3    0    0 -0.70440720491E+03  0.58406173353E+03 -0.42397333179E+03  0.10084993827E+04  0.00000000000E+00 0.  1.
        -13    1    3    3    0    0 -0.30782954489E+03  0.26713183465E+03 -0.12278614148E+03  0.42566992180E+03  0.00000000000E+00 0. -1.
         22    1    1    2    0    0  0.10122367498E+04 -0.85119356818E+03 -0.36827213201E+02  0.13230683927E+04  0.00000000000E+00 0. -1.
<mgrwt>
<rscale>  0 0.26947702E+04</rscale>
<asrwt>0</asrwt>
<pdfrwt beam="1">  1        2 0.16720392E+00 0.26947702E+04</pdfrwt>
<pdfrwt beam="2">  1       -2 0.25698649E+00 0.26947702E+04</pdfrwt>
<totfact> 0.11342004E+00</totfact>
</mgrwt>
</event>
<event>
 6    1  0.1934315E-005  0.1920850E+04  0.7818608E-02  0.8644547E-01
          2   -1    0    0  501    0  0.00000000000E+00  0.00000000000E+00  0.10534229127E+04  0.10534229127E+04  0.00000000000E+00 0.  1.
         -2   -1    0    0    0  501 -0.00000000000E+00 -0.00000000000E+00 -0.87563670286E+03  0.87563670286E+03  0.00000000000E+00 0. -1.
         23    2    1    2    0    0 -0.94037038952E+02  0.94525990158E+03  0.21565212924E+03  0.97837929388E+03  0.91438261202E+02 0.  0.
         13    1    3    3    0    0 -0.24021063717E+02  0.13830592121E+03  0.78430719762E+00  0.14037861119E+03  0.00000000000E+00 0. -1.
        -13    1    3    3    0    0 -0.70015975235E+02  0.80695398038E+03  0.21486782204E+03  0.83800068268E+03  0.00000000000E+00 0.  1.
         22    1    1    2    0    0  0.94037038952E+02 -0.94525990158E+03 -0.37865919363E+02  0.95068032171E+03  0.00000000000E+00 0. -1.
<mgrwt>
<rscale>  0 0.19208496E+04</rscale>
<asrwt>0</asrwt>
<pdfrwt beam="1">  1        2 0.16206506E+00 0.19208496E+04</pdfrwt>
<pdfrwt beam="2">  1       -2 0.13471334E+00 0.19208496E+04</pdfrwt>
<totfact> 0.86389793E+00</totfact>
</mgrwt>
</event>
<event>
 6    1  0.1934315E-005  0.2041176E+04  0.7818608E-02  0.8587608E-01
          2   -1    0    0  501    0  0.00000000000E+00  0.00000000000E+00  0.22266056067E+04  0.22266056067E+04  0.00000000000E+00 0.  1.
         -2   -1    0    0    0  501 -0.00000000000E+00 -0.00000000000E+00 -0.46779722322E+03  0.46779722322E+03  0.00000000000E+00 0. -1.
         23    2    1    2    0    0  0.10020573429E+04 -0.14572220117E+03  0.10272289945E+04  0.14451781580E+04  0.89367907860E+02 0.  0.
         13    1    3    3    0    0  0.38871058564E+03 -0.12780313956E+02  0.38819391225E+03  0.54950320229E+03  0.00000000000E+00 0.  1.
        -13    1    3    3    0    0  0.61334675729E+03 -0.13294188722E+03  0.63903508221E+03  0.89567495575E+03  0.00000000000E+00 0. -1.
         22    1    1    2    0    0 -0.10020573429E+04  0.14572220117E+03  0.73157938906E+03  0.12492246719E+04  0.00000000000E+00 0.  1.
<mgrwt>
<rscale>  0 0.20411761E+04</rscale>
<asrwt>0</asrwt>
<pdfrwt beam="1">  1        2 0.34255470E+00 0.20411761E+04</pdfrwt>
<pdfrwt beam="2">  1       -2 0.71968805E-01 0.20411761E+04</pdfrwt>
<totfact> 0.80801727E+00</totfact>
</mgrwt>
</event>
<event>
 6    1  0.1934315E-005  0.3390230E+04  0.7818608E-02  0.8140308E-01
          2   -1    0    0  501    0  0.00000000000E+00  0.00000000000E+00  0.13629878531E+04  0.13629878531E+04  0.00000000000E+00 0.  1.
         -2   -1    0    0    0  501 -0.00000000000E+00 -0.00000000000E+00 -0.21081737538E+04  0.21081737538E+04  0.00000000000E+00 0. -1.
         23    2    1    2    0    0 -0.15687751039E+04  0.48107595041E+03  0.57578747184E+02  0.16444376331E+04  0.91490001754E+02 0.  0.
         13    1    3    3    0    0 -0.96510008252E+03  0.27557568553E+03  0.75331439726E+02  0.10064963753E+04  0.00000000000E+00 0.  1.
        -13    1    3    3    0    0 -0.60367502137E+03  0.20550026489E+03 -0.17752692542E+02  0.63794125779E+03  0.00000000000E+00 0. -1.
         22    1    1    2    0    0  0.15687751039E+04 -0.48107595041E+03 -0.80276464781E+03  0.18267239738E+04  0.00000000000E+00 0. -1.
<mgrwt>
<rscale>  0 0.33902302E+04</rscale>
<asrwt>0</asrwt>
<pdfrwt beam="1">  1        2 0.20969044E+00 0.33902302E+04</pdfrwt>
<pdfrwt beam="2">  1       -2 0.32433442E+00 0.33902302E+04</pdfrwt>
<totfact> 0.28355280E-01</totfact>
</mgrwt>
</event>
<event>
 6    1  0.1934315E-005  0.3251225E+04  0.7818608E-02  0.8175418E-01
          2   -1    0    0  501    0  0.00000000000E+00  0.00000000000E+00  0.24371941248E+04  0.24371941248E+04  0.00000000000E+00 0.  1.
         -2   -1    0    0    0  501 -0.00000000000E+00 -0.00000000000E+00 -0.10842861871E+04  0.10842861871E+04  0.00000000000E+00 0. -1.
         23    2    1    2    0    0  0.51698307881E+03  0.88981714815E+03  0.20381878322E+04  0.22850925916E+04  0.91610327089E+02 0.  0.
         11    1    3    3    0    0  0.22110684706E+03  0.35573250558E+03  0.73502816906E+03  0.84599069892E+03  0.00000000000E+00 0. -1.
        -11    1    3    3    0    0  0.29587623176E+03  0.53408464257E+03  0.13031596632E+04  0.14391018927E+04  0.00000000000E+00 0.  1.
         22    1    1    2    0    0 -0.51698307881E+03 -0.88981714815E+03 -0.68527989456E+03  0.12363877203E+04  0.00000000000E+00 0. -1.
<mgrwt>
<rscale>  0 0.32512250E+04</rscale>
<asrwt>0</asrwt>
<pdfrwt beam="1">  1        2 0.37495294E+00 0.32512250E+04</pdfrwt>
<pdfrwt beam="2">  1       -2 0.16681326E+00 0.32512250E+04</pdfrwt>
<totfact> 0.71277464E-01</totfact>
</mgrwt>
</event>
<event>
 6    1  0.1934315E-005  0.1428533E+04  0.7818608E-02  0.8933420E-01
          2   -1    0    0  501    0  0.00000000000E+00  0.00000000000E+00  0.11085225402E+04  0.11085225402E+04  0.00000000000E+00 0.  1.
         -2   -1    0    0    0  501 -0.00000000000E+00 -0.00000000000E+00 -0.46023132176E+03  0.46023132176E+03  0.00000000000E+00 0. -1.
         23    2    1    2    0    0 -0.21975891644E+03  0.52520190764E+03  0.79442930780E+03  0.98097212837E+03  0.84008132956E+02 0.  0.
         13    1    3    3    0    0 -0.88892048633E+02  0.17422413748E+03  0.33803274865E+03  0.39054063239E+03  0.00000000000E+00 0. -1.
        -13    1    3    3    0    0 -0.13086686780E+03  0.35097777017E+03  0.45639655916E+03  0.59043149598E+03  0.00000000000E+00 0.  1.
         22    1    1    2    0    0  0.21975891644E+03 -0.52520190764E+03 -0.14613808938E+03  0.58778173357E+03  0.00000000000E+00 0. -1.
<mgrwt>
<rscale>  0 0.14285332E+04</rscale>
<asrwt>0</asrwt>
<pdfrwt beam="1">  1        2 0.17054193E+00 0.14285332E+04</pdfrwt>
<pdfrwt beam="2">  1       -2 0.70804819E-01 0.14285332E+04</pdfrwt>
<totfact> 0.37908299E+01</totfact>
</mgrwt>
</event>
<event>
 6    1  0.1934315E-005  0.2077162E+04  0.7818608E-02  0.8571371E-01
          2   -1    0    0  501    0  0.00000000000E+00  0.00000000000E+00  0.15515542140E+04  0.15515542140E+04  0.00000000000E+00 0.  1.
         -2   -1    0    0    0  501 -0.00000000000E+00 -0.00000000000E+00 -0.69520628768E+03  0.69520628768E+03  0.00000000000E+00 0. -1.
         23    2    1    2    0    0  0.14519097532E+03  0.55308560191E+03 -0.50833168828E+03  0.76712049383E+03  0.55575573702E+02 0.  0.
         11    1    3    3    0    0  0.26046842939E+02  0.91995458368E+02 -0.58879359813E+02  0.11228704912E+03  0.00000000000E+00 0.  1.
        -11    1    3    3    0    0  0.11914413238E+03  0.46109014354E+03 -0.44945232846E+03  0.65483344471E+03  0.00000000000E+00 0. -1.
         22    1    1    2    0    0 -0.14519097532E+03 -0.55308560191E+03  0.13646796146E+04  0.14796400079E+04  0.00000000000E+00 0.  1.
<mgrwt>
<rscale>  0 0.20771618E+04</rscale>
<asrwt>0</asrwt>
<pdfrwt beam="1">  1        2 0.23870065E+00 0.20771618E+04</pdfrwt>
<pdfrwt beam="2">  1       -2 0.10695481E+00 0.20771618E+04</pdfrwt>
<totfact> 0.77083773E+00</totfact>
</mgrwt>
</event>
<event>
 6    1  0.1934315E-005  0.2764472E+04  0.7818608E-02  0.8314384E-01
         -2   -1    0    0    0  501 -0.00000000000E+00  0.00000000000E+00  0.11406590643E+04  0.11406590643E+04  0.00000000000E+00 0. -1.
          2   -1    0    0  501    0  0.00000000000E+00 -0.00000000000E+00 -0.16749758328E+04  0.16749758328E+04  0.00000000000E+00 0.  1.
         23    2    1    2    0    0  0.78319636809E+03  0.10699290635E+04  0.12387950102E+03  0.13353082165E+04  0.97760680044E+02 0.  0.
         13    1    3    3    0    0  0.43256640329E+03  0.51548216462E+03  0.82884797270E+02  0.67801581464E+03  0.00000000000E+00 0. -1.
        -13    1    3    3    0    0  0.35062996481E+03  0.55444689884E+03  0.40994703755E+02  0.65729240190E+03  0.00000000000E+00 0.  1.
         22    1    1    2    0    0 -0.78319636809E+03 -0.10699290635E+04 -0.65819626950E+03  0.14803266805E+04  0.00000000000E+00 0.  1.
<mgrwt>
<rscale>  0 0.27644720E+04</rscale>
<asrwt>0</asrwt>
<pdfrwt beam="1">  1        2 0.25768859E+00 0.27644720E+04</pdfrwt>
<pdfrwt beam="2">  1       -2 0.17548601E+00 0.27644720E+04</pdfrwt>
<totfact> 0.17230645E+00</totfact>
</mgrwt>
</event>
<event>
 6    1  0.1934315E-005  0.2248480E+04  0.7818608E-02  0.8498516E-01
          2   -1    0    0  501    0  0.00000000000E+00  0.00000000000E+00  0.11987498727E+04  0.11987498727E+04  0.00000000000E+00 0.  1.
         -2   -1    0    0    0  501 -0.00000000000E+00 -0.00000000000E+00 -0.10543613864E+04  0.10543613864E+04  0.00000000000E+00 0. -1.
         23    2    1    2    0    0 -0.82272796915E+02  0.67297253882E+03 -0.82402181691E+03  0.10709609445E+04  0.91019441787E+02 0.  0.
         11    1    3    3    0    0 -0.38249349414E+02  0.40728149478E+03 -0.56288805672E+03  0.69583345214E+03  0.00000000000E+00 0. -1.
        -11    1    3    3    0    0 -0.44023447501E+02  0.26569104404E+03 -0.26113376019E+03  0.37512749236E+03  0.00000000000E+00 0.  1.
         22    1    1    2    0    0  0.82272796915E+02 -0.67297253882E+03  0.96841030320E+03  0.11821503147E+04  0.00000000000E+00 0.  1.
<mgrwt>
<rscale>  0 0.22484800E+04</rscale>
<asrwt>0</asrwt>
<pdfrwt beam="1">  1        2 0.18442306E+00 0.22484800E+04</pdfrwt>
<pdfrwt beam="2">  1       -2 0.16220944E+00 0.22484800E+04</pdfrwt>
<totfact> 0.41913365E+00</totfact>
</mgrwt>
</event>
<event>
 6    1  0.1934315E-005  0.8471757E+03  0.7818608E-02  0.9494136E-01
          2   -1    0    0  501    0  0.00000000000E+00  0.00000000000E+00  0.48821449654E+03  0.48821449654E+03  0.00000000000E+00 0.  1.
         -2   -1    0    0    0  501 -0.00000000000E+00 -0.00000000000E+00 -0.36751604099E+03  0.36751604099E+03  0.00000000000E+00 0. -1.
         23    2    1    2    0    0 -0.16499758736E+03 -0.12907662828E+03 -0.30440499047E+03  0.38181290796E+03  0.96092240358E+02 0.  0.
         13    1    3    3    0    0 -0.12053026214E+03 -0.66234241568E+02 -0.12206172747E+03  0.18388470344E+03  0.00000000000E+00 0.  1.
        -13    1    3    3    0    0 -0.44467325219E+02 -0.62842386711E+02 -0.18234326300E+03  0.19792820452E+03  0.00000000000E+00 0. -1.
         22    1    1    2    0    0  0.16499758736E+03  0.12907662828E+03  0.42510344602E+03  0.47391762957E+03  0.00000000000E+00 0.  1.
<mgrwt>
<rscale>  0 0.84717568E+03</rscale>
<asrwt>0</asrwt>
<pdfrwt beam="1">  1        2 0.75109922E-01 0.84717568E+03</pdfrwt>
<pdfrwt beam="2">  1       -2 0.56540929E-01 0.84717568E+03</pdfrwt>
<totfact> 0.18689822E+02</totfact>
</mgrwt>
</event>
<event>
 6    1  0.1934315E-005  0.1426423E+04  0.7818608E-02  0.8934911E-01
          2   -1    0    0  501    0  0.00000000000E+00  0.00000000000E+00  0.94000776731E+03  0.94000776731E+03  0.00000000000E+00 0.  1.
         -2   -1    0    0    0  501 -0.00000000000E+00 -0.00000000000E+00 -0.54113467683E+03  0.54113467683E+03  0.00000000000E+00 0. -1.
         23    2    1    2    0    0  0.60129846499E+03  0.34836372064E+03  0.35310854422E+03  0.78471475977E+03  0.90412854972E+02 0.  0.
         13    1    3    3    0    0  0.78416168526E+02  0.46056100228E+02  0.13901065011E+02  0.91997279650E+02  0.00000000000E+00 0. -1.
        -13    1    3    3    0    0  0.52288229646E+03  0.30230762041E+03  0.33920747921E+03  0.69271748012E+03  0.00000000000E+00 0.  1.
         22    1    1    2    0    0 -0.60129846499E+03 -0.34836372064E+03  0.45764546254E+02  0.69642768436E+03  0.00000000000E+00 0.  1.
<mgrwt>
<rscale>  0 0.14264232E+04</rscale>
<asrwt>0</asrwt>
<pdfrwt beam="1">  1        2 0.14461658E+00 0.14264232E+04</pdfrwt>
<pdfrwt beam="2">  1       -2 0.83251489E-01 0.14264232E+04</pdfrwt>
<totfact> 0.33838014E+01</totfact>
</mgrwt>
</event>
<event>
 6    1  0.1934315E-005  0.3940361E+03  0.7818608E-02  0.1045865E+00
          2   -1    0    0  501    0  0.00000000000E+00  0.00000000000E+00  0.21595586741E+04  0.21595586741E+04  0.00000000000E+00 0.  1.
         -2   -1    0    0    0  501 -0.00000000000E+00 -0.00000000000E+00 -0.17974090571E+02  0.17974090571E+02  0.00000000000E+00 0. -1.
         23    2    1    2    0    0  0.12663361393E+03  0.42317523912E+01  0.18840286376E+04  0.18904978449E+04  0.91456078086E+02 0.  0.
         11    1    3    3    0    0  0.84065238490E+02  0.17567639428E+02  0.64821936012E+03  0.65388372446E+03  0.00000000000E+00 0.  1.
        -11    1    3    3    0    0  0.42568375437E+02 -0.13335887036E+02  0.12358092775E+04  0.12366141204E+04  0.00000000000E+00 0. -1.
         22    1    1    2    0    0 -0.12663361393E+03 -0.42317523912E+01  0.25755594589E+03  0.28703491977E+03  0.00000000000E+00 0. -1.
<mgrwt>
<rscale>  0 0.39403606E+03</rscale>
<asrwt>0</asrwt>
<pdfrwt beam="1">  1        2 0.33223959E+00 0.39403606E+03</pdfrwt>
<pdfrwt beam="2">  1       -2 0.27652464E-02 0.39403606E+03</pdfrwt>
<totfact> 0.29087605E+03</totfact>
</mgrwt>
</event>
<event>
 6    1  0.1934315E-005  0.1190880E+04  0.7818608E-02  0.9120877E-01
         -2   -1    0    0    0  501 -0.00000000000E+00  0.00000000000E+00  0.12884035043E+04  0.12884035043E+04  0.00000000000E+00 0. -1.
          2   -1    0    0  501    0  0.00000000000E+00 -0.00000000000E+00 -0.27518439644E+03  0.27518439644E+03  0.00000000000E+00 0.  1.
         23    2    1    2    0    0 -0.22027336864E+03 -0.34870776802E+03 -0.48323047803E+02  0.42473355858E+03  0.89140419688E+02 0.  0.
         13    1    3    3    0    0 -0.10915613542E+03 -0.10197975902E+03 -0.37028814381E+02  0.15390278179E+03  0.00000000000E+00 0.  1.
        -13    1    3    3    0    0 -0.11111723322E+03 -0.24672800900E+03 -0.11294233422E+02  0.27083077678E+03  0.00000000000E+00 0. -1.
         22    1    1    2    0    0  0.22027336864E+03  0.34870776802E+03  0.10615421557E+04  0.11388543422E+04  0.00000000000E+00 0. -1.
<mgrwt>
<rscale>  0 0.11908796E+04</rscale>
<asrwt>0</asrwt>
<pdfrwt beam="1">  1        2 0.42336062E-01 0.11908796E+04</pdfrwt>
<pdfrwt beam="2">  1       -2 0.19821592E+00 0.11908796E+04</pdfrwt>
<totfact> 0.16301254E+01</totfact>
</mgrwt>
</event>
<event>
 6    1  0.1934315E-005  0.9745243E+03  0.7818608E-02  0.9336936E-01
          2   -1    0    0  501    0  0.00000000000E+00  0.00000000000E+00  0.16434315182E+04  0.16434315182E+04  0.00000000000E+00 0.  1.
         -2   -1    0    0    0  501 -0.00000000000E+00 -0.00000000000E+00 -0.14446868538E+03  0.14446868538E+03  0.00000000000E+00 0. -1.
         23    2    1    2    0    0 -0.13708785907E+03  0.46237243771E+03  0.72021172424E+03  0.87191186230E+03  0.94572805974E+02 0.  0.
         11    1    3    3    0    0 -0.46042102631E+02  0.27382177348E+03  0.46736550762E+03  0.54362556650E+03  0.00000000000E+00 0.  1.
        -11    1    3    3    0    0 -0.91045756441E+02  0.18855066424E+03  0.25284621662E+03  0.32828629580E+03  0.00000000000E+00 0. -1.
         22    1    1    2    0    0  0.13708785907E+03 -0.46237243771E+03  0.77875110859E+03  0.91598834129E+03  0.00000000000E+00 0. -1.
<mgrwt>
<rscale>  0 0.97452428E+03</rscale>
<asrwt>0</asrwt>
<pdfrwt beam="1">  1        2 0.25283561E+00 0.97452428E+03</pdfrwt>
<pdfrwt beam="2">  1       -2 0.22225953E-01 0.97452428E+03</pdfrwt>
<totfact> 0.18693651E+02</totfact>
</mgrwt>
</event>
<event>
 6    1  0.1934315E-005  0.2017233E+04  0.7818608E-02  0.8598606E-01
         -2   -1    0    0    0  501 -0.00000000000E+00  0.00000000000E+00  0.53459112277E+03  0.53459112277E+03  0.00000000000E+00 0. -1.
          2   -1    0    0  501    0  0.00000000000E+00 -0.00000000000E+00 -0.19029630155E+04  0.19029630155E+04  0.00000000000E+00 0.  1.
         23    2    1    2    0    0 -0.84415614253E+03 -0.54748152068E+03 -0.65732789199E+03  0.12055155109E+04  0.94085497734E+02 0.  0.
         11    1    3    3    0    0 -0.35466824529E+03 -0.20583728444E+03 -0.21855133289E+03  0.46467541036E+03  0.00000000000E+00 0. -1.
        -11    1    3    3    0    0 -0.48948789724E+03 -0.34164423624E+03 -0.43877655910E+03  0.74084010051E+03  0.00000000000E+00 0.  1.
         22    1    1    2    0    0  0.84415614253E+03  0.54748152068E+03 -0.71104400078E+03  0.12320386274E+04  0.00000000000E+00 0. -1.
<mgrwt>
<rscale>  0 0.20172329E+04</rscale>
<asrwt>0</asrwt>
<pdfrwt beam="1">  1        2 0.29276354E+00 0.20172329E+04</pdfrwt>
<pdfrwt beam="2">  1       -2 0.82244790E-01 0.20172329E+04</pdfrwt>
<totfact> 0.91130007E+00</totfact>
</mgrwt>
</event>
<event>
 6    1  0.1934315E-005  0.3250016E+04  0.7818608E-02  0.8175732E-01
          2   -1    0    0  501    0  0.00000000000E+00  0.00000000000E+00  0.10667309745E+04  0.10667309745E+04  0.00000000000E+00 0.  1.
         -2   -1    0    0    0  501 -0.00000000000E+00 -0.00000000000E+00 -0.24754612116E+04  0.24754612116E+04  0.00000000000E+00 0. -1.
         23    2    1    2    0    0  0.10409388516E+04 -0.59868030204E+03  0.48610442390E+03  0.12988976916E+04  0.94158938097E+02 0.  0.
         13    1    3    3    0    0  0.57375834784E+03 -0.27724627929E+03  0.24546174811E+03  0.68287305620E+03  0.00000000000E+00 0.  1.
        -13    1    3    3    0    0  0.46718050374E+03 -0.32143402274E+03  0.24064267579E+03  0.61602463543E+03  0.00000000000E+00 0. -1.
         22    1    1    2    0    0 -0.10409388516E+04  0.59868030204E+03 -0.18948346610E+04  0.22432944945E+04  0.00000000000E+00 0. -1.
<mgrwt>
<rscale>  0 0.32500161E+04</rscale>
<asrwt>0</asrwt>
<pdfrwt beam="1">  1        2 0.16411246E+00 0.32500161E+04</pdfrwt>
<pdfrwt beam="2">  1       -2 0.38084018E+00 0.32500161E+04</pdfrwt>
<totfact> 0.18933311E-01</totfact>
</mgrwt>
</event>
<event>
 6    1  0.1934315E-005  0.2800214E+04  0.7818608E-02  0.8303202E-01
         -2   -1    0    0    0  501 -0.00000000000E+00  0.00000000000E+00  0.18494516567E+04  0.18494516567E+04  0.00000000000E+00 0. -1.
          2   -1    0    0  501    0  0.00000000000E+00 -0.00000000000E+00 -0.10599355327E+04  0.10599355327E+04  0.00000000000E+00 0.  1.
         23    2    1    2    0    0 -0.92113862264E+03  0.15886640718E+03 -0.68594579200E+03  0.11627553556E+04  0.87997101918E+02 0.  0.
         11    1    3    3    0    0 -0.28193094610E+03  0.68169533511E+02 -0.16910677837E+03  0.33575176270E+03  0.00000000000E+00 0. -1.
        -11    1    3    3    0    0 -0.63920767655E+03  0.90696873674E+02 -0.51683901363E+03  0.82700359289E+03  0.00000000000E+00 0.  1.
         22    1    1    2    0    0  0.92113862264E+03 -0.15886640718E+03  0.14754619160E+04  0.17466318338E+04  0.00000000000E+00 0. -1.
<mgrwt>
<rscale>  0 0.28002139E+04</rscale>
<asrwt>0</asrwt>
<pdfrwt beam="1">  1        2 0.16306700E+00 0.28002139E+04</pdfrwt>
<pdfrwt beam="2">  1       -2 0.28453103E+00 0.28002139E+04</pdfrwt>
<totfact> 0.79335961E-01</totfact>
</mgrwt>
</event>
<event>
 6    1  0.1934315E-005  0.1852881E+04  0.7818608E-02  0.8678673E-01
         -2   -1    0    0    0  501 -0.00000000000E+00  0.00000000000E+00  0.31578770699E+03  0.31578770699E+03  0.00000000000E+00 0. -1.
          2   -1    0    0  501    0  0.00000000000E+00 -0.00000000000E+00 -0.27179394446E+04  0.27179394446E+04  0.00000000000E+00 0.  1.
         23    2    1    2    0    0  0.72848696772E+03 -0.78447130785E+02 -0.21265090302E+04  0.22508950389E+04  0.87410561308E+02 0.  0.
         13    1    3    3    0    0  0.13681544125E+03 -0.19869397827E+02 -0.51386065646E+03  0.53213347216E+03  0.00000000000E+00 0. -1.
        -13    1    3    3    0    0  0.59167152647E+03 -0.58577732958E+02 -0.16126483737E+04  0.17187615667E+04  0.00000000000E+00 0.  1.
         22    1    1    2    0    0 -0.72848696772E+03  0.78447130785E+02 -0.27564270740E+03  0.78283211266E+03  0.00000000000E+00 0. -1.
<mgrwt>
<rscale>  0 0.18528809E+04</rscale>
<asrwt>0</asrwt>
<pdfrwt beam="1">  1        2 0.41814451E+00 0.18528809E+04</pdfrwt>
<pdfrwt beam="2">  1       -2 0.48582726E-01 0.18528809E+04</pdfrwt>
<totfact> 0.97912271E+00</totfact>
</mgrwt>
</event>
<event>
 6    1  0.1934315E-005  0.1581559E+04  0.7818608E-02  0.8831958E-01
         -1   -1    0    0    0  501 -0.00000000000E+00  0.00000000000E+00  0.10937800077E+04  0.10937800077E+04  0.00000000000E+00 0. -1.
          1   -1    0    0  501    0  0.00000000000E+00 -0.00000000000E+00 -0.57171634186E+03  0.57171634186E+03  0.00000000000E+00 0.  1.
         23    2    1    2    0    0 -0.10262782603E+03  0.43957090779E+03 -0.41826183908E+03  0.62243973132E+03  0.93451588776E+02 0.  0.
         13    1    3    3    0    0 -0.47533855082E+02  0.14446997236E+03 -0.20011044935E+03  0.25134683653E+03  0.00000000000E+00 0. -1.
        -13    1    3    3    0    0 -0.55093970950E+02  0.29510093543E+03 -0.21815138973E+03  0.37109289479E+03  0.00000000000E+00 0.  1.
         22    1    1    2    0    0  0.10262782603E+03 -0.43957090779E+03  0.94032550490E+03  0.10430566182E+04  0.00000000000E+00 0. -1.
<mgrwt>
<rscale>  0 0.15815586E+04</rscale>
<asrwt>0</asrwt>
<pdfrwt beam="1">  1        1 0.87956360E-01 0.15815586E+04</pdfrwt>
<pdfrwt beam="2">  1       -1 0.16827385E+00 0.15815586E+04</pdfrwt>
<totfact> 0.89387511E+00</totfact>
</mgrwt>
</event>
<event>
 6    1  0.1934315E-005  0.2906946E+04  0.7818608E-02  0.8270814E-01
         -2   -1    0    0    0  501 -0.00000000000E+00  0.00000000000E+00  0.79075754857E+03  0.79075754857E+03  0.00000000000E+00 0. -1.
          2   -1    0    0  501    0  0.00000000000E+00 -0.00000000000E+00 -0.26715938915E+04  0.26715938915E+04  0.00000000000E+00 0.  1.
         23    2    1    2    0    0 -0.69874262824E+03  0.12209675371E+04 -0.13697813389E+04  0.19656282845E+04  0.91600486377E+02 0.  0.
         13    1    3    3    0    0 -0.52494765758E+03  0.90566301192E+03 -0.96266591064E+03  0.14221537153E+04  0.00000000000E+00 0. -1.
        -13    1    3    3    0    0 -0.17379497066E+03  0.31530452523E+03 -0.40711542830E+03  0.54347456925E+03  0.00000000000E+00 0.  1.
         22    1    1    2    0    0  0.69874262824E+03 -0.12209675371E+04 -0.51105500402E+03  0.14967231556E+04  0.00000000000E+00 0.  1.
<mgrwt>
<rscale>  0 0.29069455E+04</rscale>
<asrwt>0</asrwt>
<pdfrwt beam="1">  1        2 0.41101444E+00 0.29069455E+04</pdfrwt>
<pdfrwt beam="2">  1       -2 0.12165501E+00 0.29069455E+04</pdfrwt>
<totfact> 0.12217106E+00</totfact>
</mgrwt>
</event>
<event>
 6    1  0.1934315E-005  0.1341086E+04  0.7818608E-02  0.8997604E-01
          2   -1    0    0  501    0  0.00000000000E+00  0.00000000000E+00  0.23448474287E+04  0.23448474287E+04  0.00000000000E+00 0.  1.
         -2   -1    0    0    0  501 -0.00000000000E+00 -0.00000000000E+00 -0.19175136400E+03  0.19175136400E+03  0.00000000000E+00 0. -1.
         23    2    1    2    0    0 -0.19220045366E+03 -0.63062364839E+03  0.88408525640E+03  0.11065583625E+04  0.90760502714E+02 0.  0.
         13    1    3    3    0    0 -0.81897821385E+02 -0.36065556434E+03  0.43344247078E+03  0.56978247140E+03  0.00000000000E+00 0. -1.
        -13    1    3    3    0    0 -0.11030263228E+03 -0.26996808405E+03  0.45064278561E+03  0.53677589115E+03  0.00000000000E+00 0.  1.
         22    1    1    2    0    0  0.19220045366E+03  0.63062364839E+03  0.12690108083E+04  0.14300404302E+04  0.00000000000E+00 0. -1.
<mgrwt>
<rscale>  0 0.13410857E+04</rscale>
<asrwt>0</asrwt>
<pdfrwt beam="1">  1        2 0.36074574E+00 0.13410857E+04</pdfrwt>
<pdfrwt beam="2">  1       -2 0.29500212E-01 0.13410857E+04</pdfrwt>
<totfact> 0.44339120E+01</totfact>
</mgrwt>
</event>
<event>
 6    1  0.1934315E-005  0.3333445E+04  0.7818608E-02  0.8154437E-01
          2   -1    0    0  501    0  0.00000000000E+00  0.00000000000E+00  0.12862835868E+04  0.12862835868E+04  0.00000000000E+00 0.  1.
         -2   -1    0    0    0  501 -0.00000000000E+00 -0.00000000000E+00 -0.21596826182E+04  0.21596826182E+04  0.00000000000E+00 0. -1.
         23    2    1    2    0    0 -0.91679094410E+02 -0.13715218236E+04 -0.14091933535E+04  0.19706517556E+04  0.90361857578E+02 0.  0.
         13    1    3    3    0    0 -0.10909382116E+03 -0.11008837061E+04 -0.11399181099E+04  0.15884771618E+04  0.00000000000E+00 0.  1.
        -13    1    3    3    0    0  0.17414726746E+02 -0.27063811742E+03 -0.26927524360E+03  0.38217459377E+03  0.00000000000E+00 0. -1.
         22    1    1    2    0    0  0.91679094410E+02  0.13715218236E+04  0.53579432212E+03  0.14753144494E+04  0.00000000000E+00 0.  1.
<mgrwt>
<rscale>  0 0.33334452E+04</rscale>
<asrwt>0</asrwt>
<pdfrwt beam="1">  1        2 0.19788979E+00 0.33334452E+04</pdfrwt>
<pdfrwt beam="2">  1       -2 0.33225886E+00 0.33334452E+04</pdfrwt>
<totfact> 0.28181103E-01</totfact>
</mgrwt>
</event>
<event>
 6    1  0.1934315E-005  0.4884853E+04  0.7818608E-02  0.7846519E-01
         -2   -1    0    0    0  501 -0.00000000000E+00  0.00000000000E+00  0.15116182199E+04  0.15116182199E+04  0.00000000000E+00 0. -1.
          2   -1    0    0  501    0  0.00000000000E+00 -0.00000000000E+00 -0.39463980223E+04  0.39463980223E+04  0.00000000000E+00 0.  1.
         23    2    1    2    0    0 -0.16620385862E+04  0.74918097690E+03 -0.30324552001E+04  0.35394594202E+04  0.91345763341E+02 0.  0.
         11    1    3    3    0    0 -0.28437379282E+03  0.10825901269E+03 -0.56365694539E+03  0.64054478373E+03  0.00000000000E+00 0.  1.
        -11    1    3    3    0    0 -0.13776647933E+04  0.64092196421E+03 -0.24687982547E+04  0.28989146365E+04  0.00000000000E+00 0. -1.
         22    1    1    2    0    0  0.16620385862E+04 -0.74918097690E+03  0.59767539771E+03  0.19185568219E+04  0.00000000000E+00 0. -1.
<mgrwt>
<rscale>  0 0.48848530E+04</rscale>
<asrwt>0</asrwt>
<pdfrwt beam="1">  1        2 0.60713816E+00 0.48848530E+04</pdfrwt>
<pdfrwt beam="2">  1       -2 0.23255665E+00 0.48848530E+04</pdfrwt>
<totfact> 0.22776688E-02</totfact>
</mgrwt>
</event>
<event>
 6    1  0.1934315E-005  0.1881614E+04  0.7818608E-02  0.8664063E-01
         -2   -1    0    0    0  501 -0.00000000000E+00  0.00000000000E+00  0.40524101450E+03  0.40524101450E+03  0.00000000000E+00 0. -1.
          2   -1    0    0  501    0  0.00000000000E+00 -0.00000000000E+00 -0.21841763674E+04  0.21841763674E+04  0.00000000000E+00 0.  1.
         23    2    1    2    0    0  0.71013830843E+03 -0.20734144394E+03 -0.16862870043E+04  0.18438500758E+04  0.94511109505E+02 0.  0.
         11    1    3    3    0    0  0.16306650336E+03 -0.27643076650E+02 -0.29681699983E+03  0.33978692676E+03  0.00000000000E+00 0. -1.
        -11    1    3    3    0    0  0.54707180507E+03 -0.17969836729E+03 -0.13894700044E+04  0.15040631491E+04  0.00000000000E+00 0.  1.
         22    1    1    2    0    0 -0.71013830843E+03  0.20734144394E+03 -0.92648348674E+02  0.74556730614E+03  0.00000000000E+00 0. -1.
<mgrwt>
<rscale>  0 0.18816140E+04</rscale>
<asrwt>0</asrwt>
<pdfrwt beam="1">  1        2 0.33602714E+00 0.18816140E+04</pdfrwt>
<pdfrwt beam="2">  1       -2 0.62344771E-01 0.18816140E+04</pdfrwt>
<totfact> 0.11803498E+01</totfact>
</mgrwt>
</event>
<event>
 6    1  0.1934315E-005  0.3113457E+04  0.7818608E-02  0.8212054E-01
         -2   -1    0    0    0  501 -0.00000000000E+00  0.00000000000E+00  0.74650641768E+03  0.74650641768E+03  0.00000000000E+00 0.  1.
          2   -1    0    0  501    0  0.00000000000E+00 -0.00000000000E+00 -0.32463268830E+04  0.32463268830E+04  0.00000000000E+00 0. -1.
         23    2    1    2    0    0  0.64832635578E+03  0.12707334774E+04 -0.45569501232E+03  0.15001360664E+04  0.87519366304E+02 0.  0.
         13    1    3    3    0    0  0.28800044257E+03  0.52219100060E+03 -0.23110261838E+03  0.63955931410E+03  0.00000000000E+00 0. -1.
        -13    1    3    3    0    0  0.36032591321E+03  0.74854247676E+03 -0.22459239395E+03  0.86057675234E+03  0.00000000000E+00 0.  1.
         22    1    1    2    0    0 -0.64832635578E+03 -0.12707334774E+04 -0.20441254530E+04  0.24926972343E+04  0.00000000000E+00 0. -1.
<mgrwt>
<rscale>  0 0.31134571E+04</rscale>
<asrwt>0</asrwt>
<pdfrwt beam="1">  1        2 0.49943492E+00 0.31134571E+04</pdfrwt>
<pdfrwt beam="2">  1       -2 0.11484714E+00 0.31134571E+04</pdfrwt>
<totfact> 0.60604051E-01</totfact>
</mgrwt>
</event>
<event>
 6    1  0.1934315E-005  0.3688263E+04  0.7818608E-02  0.8070568E-01
          2   -1    0    0  501    0  0.00000000000E+00  0.00000000000E+00  0.16913195260E+04  0.16913195260E+04  0.00000000000E+00 0.  1.
         -2   -1    0    0    0  501 -0.00000000000E+00 -0.00000000000E+00 -0.20107497949E+04  0.20107497949E+04  0.00000000000E+00 0. -1.
         23    2    1    2    0    0 -0.30152404546E+03  0.10848238582E+04  0.13047536691E+04  0.17257765750E+04  0.90349854533E+02 0.  0.
         13    1    3    3    0    0 -0.10309481622E+03  0.26478550004E+03  0.37099261747E+03  0.46730656359E+03  0.00000000000E+00 0.  1.
        -13    1    3    3    0    0 -0.19842922924E+03  0.82003835817E+03  0.93376105167E+03  0.12584700114E+04  0.00000000000E+00 0. -1.
         22    1    1    2    0    0  0.30152404546E+03 -0.10848238582E+04 -0.16241839380E+04  0.19762927460E+04  0.00000000000E+00 0. -1.
<mgrwt>
<rscale>  0 0.36882627E+04</rscale>
<asrwt>0</asrwt>
<pdfrwt beam="1">  1        2 0.26020300E+00 0.36882627E+04</pdfrwt>
<pdfrwt beam="2">  1       -2 0.30934612E+00 0.36882627E+04</pdfrwt>
<totfact> 0.22346952E-01</totfact>
</mgrwt>
</event>
<event>
 6    1  0.1934315E-005  0.3345996E+04  0.7818608E-02  0.8151289E-01
          2   -1    0    0  501    0  0.00000000000E+00  0.00000000000E+00  0.29379767883E+04  0.29379767883E+04  0.00000000000E+00 0.  1.
         -2   -1    0    0    0  501 -0.00000000000E+00 -0.00000000000E+00 -0.95267019573E+03  0.95267019573E+03  0.00000000000E+00 0. -1.
         23    2    1    2    0    0  0.13366952218E+04 -0.84614178958E+03  0.36452999374E+03  0.16257790348E+04  0.86978787704E+02 0.  0.
         11    1    3    3    0    0  0.85826742370E+03 -0.51112199321E+03  0.19713502062E+03  0.10181998227E+04  0.00000000000E+00 0.  1.
        -11    1    3    3    0    0  0.47842779812E+03 -0.33501979637E+03  0.16739497312E+03  0.60757921212E+03  0.00000000000E+00 0. -1.
         22    1    1    2    0    0 -0.13366952218E+04  0.84614178958E+03  0.16207765988E+04  0.22648679492E+04  0.00000000000E+00 0.  1.
<mgrwt>
<rscale>  0 0.33459964E+04</rscale>
<asrwt>0</asrwt>
<pdfrwt beam="1">  1        2 0.45199642E+00 0.33459964E+04</pdfrwt>
<pdfrwt beam="2">  1       -2 0.14656465E+00 0.33459964E+04</pdfrwt>
<totfact> 0.50418566E-01</totfact>
</mgrwt>
</event>
<event>
 6    1  0.1934315E-005  0.3379696E+04  0.7818608E-02  0.8142908E-01
         -2   -1    0    0    0  501 -0.00000000000E+00  0.00000000000E+00  0.71702435402E+03  0.71702435402E+03  0.00000000000E+00 0. -1.
          2   -1    0    0  501    0  0.00000000000E+00 -0.00000000000E+00 -0.39825517790E+04  0.39825517790E+04  0.00000000000E+00 0.  1.
         23    2    1    2    0    0 -0.15146564637E+04 -0.64398693742E+03 -0.21590281023E+04  0.27163353182E+04  0.90398206720E+02 0.  0.
         11    1    3    3    0    0 -0.27811273345E+03 -0.14628294383E+03 -0.45304956145E+03  0.55136131283E+03  0.00000000000E+00 0.  1.
        -11    1    3    3    0    0 -0.12365437302E+04 -0.49770399359E+03 -0.17059785408E+04  0.21649740053E+04  0.00000000000E+00 0. -1.
         22    1    1    2    0    0  0.15146564637E+04  0.64398693742E+03 -0.11064993227E+04  0.19832408148E+04  0.00000000000E+00 0. -1.
<mgrwt>
<rscale>  0 0.33796962E+04</rscale>
<asrwt>0</asrwt>
<pdfrwt beam="1">  1        2 0.61270027E+00 0.33796962E+04</pdfrwt>
<pdfrwt beam="2">  1       -2 0.11031144E+00 0.33796962E+04</pdfrwt>
<totfact> 0.19092094E-01</totfact>
</mgrwt>
</event>
<event>
 6    1  0.1934315E-005  0.3833969E+04  0.7818608E-02  0.8038904E-01
         -2   -1    0    0    0  501 -0.00000000000E+00  0.00000000000E+00  0.97567236626E+03  0.97567236626E+03  0.00000000000E+00 0. -1.
          2   -1    0    0  501    0  0.00000000000E+00 -0.00000000000E+00 -0.37664586844E+04  0.37664586844E+04  0.00000000000E+00 0.  1.
         23    2    1    2    0    0  0.52549617739E+03 -0.17808451987E+04 -0.19806225764E+04  0.27163173518E+04  0.89209370619E+02 0.  0.
         13    1    3    3    0    0  0.41349965959E+03 -0.13013038440E+04 -0.14951204915E+04  0.20247861485E+04  0.00000000000E+00 0.  1.
        -13    1    3    3    0    0  0.11199651780E+03 -0.47954135461E+03 -0.48550208482E+03  0.69153120331E+03  0.00000000000E+00 0. -1.
         22    1    1    2    0    0 -0.52549617739E+03  0.17808451987E+04 -0.81016374184E+03  0.20258136989E+04  0.00000000000E+00 0. -1.
<mgrwt>
<rscale>  0 0.38339690E+04</rscale>
<asrwt>0</asrwt>
<pdfrwt beam="1">  1        2 0.57945518E+00 0.38339690E+04</pdfrwt>
<pdfrwt beam="2">  1       -2 0.15010344E+00 0.38339690E+04</pdfrwt>
<totfact> 0.12419476E-01</totfact>
</mgrwt>
</event>
<event>
 6    1  0.1934315E-005  0.2689076E+04  0.7818608E-02  0.8338558E-01
          2   -1    0    0  501    0  0.00000000000E+00  0.00000000000E+00  0.21894019620E+04  0.21894019620E+04  0.00000000000E+00 0.  1.
         -2   -1    0    0    0  501 -0.00000000000E+00 -0.00000000000E+00 -0.82569721565E+03  0.82569721565E+03  0.00000000000E+00 0. -1.
         23    2    1    2    0    0  0.57224907100E+03  0.11046599577E+04  0.12497953848E+04  0.17658121954E+04  0.91441697616E+02 0.  0.
         13    1    3    3    0    0  0.24282689408E+03  0.54110939647E+03  0.63930598031E+03  0.87205298916E+03  0.00000000000E+00 0.  1.
        -13    1    3    3    0    0  0.32942217691E+03  0.56355056121E+03  0.61048940453E+03  0.89375920624E+03  0.00000000000E+00 0. -1.
         22    1    1    2    0    0 -0.57224907100E+03 -0.11046599577E+04  0.11390936150E+03  0.12492869822E+04  0.00000000000E+00 0. -1.
<mgrwt>
<rscale>  0 0.26890765E+04</rscale>
<asrwt>0</asrwt>
<pdfrwt beam="1">  1        2 0.33683107E+00 0.26890765E+04</pdfrwt>
<pdfrwt beam="2">  1       -2 0.12703034E+00 0.26890765E+04</pdfrwt>
<totfact> 0.21164057E+00</totfact>
</mgrwt>
</event>
<event>
 6    1  0.1934315E-005  0.4743388E+04  0.7818608E-02  0.7869359E-01
         -2   -1    0    0    0  501 -0.00000000000E+00  0.00000000000E+00  0.17218592461E+04  0.17218592461E+04  0.00000000000E+00 0. -1.
          2   -1    0    0  501    0  0.00000000000E+00 -0.00000000000E+00 -0.32667788868E+04  0.32667788868E+04  0.00000000000E+00 0.  1.
         23    2    1    2    0    0  0.12608940081E+04 -0.19552185234E+04 -0.29313012615E+03  0.23467240233E+04  0.91952145844E+02 0.  0.
         11    1    3    3    0    0  0.15879552677E+03 -0.29203375218E+03 -0.21304639460E+02  0.33309701199E+03  0.00000000000E+00 0. -1.
        -11    1    3    3    0    0  0.11020984813E+04 -0.16631847712E+04 -0.27182548669E+03  0.20136270114E+04  0.00000000000E+00 0.  1.
         22    1    1    2    0    0 -0.12608940081E+04  0.19552185234E+04 -0.12517895146E+04  0.26419141096E+04  0.00000000000E+00 0.  1.
<mgrwt>
<rscale>  0 0.47433884E+04</rscale>
<asrwt>0</asrwt>
<pdfrwt beam="1">  1        2 0.50258137E+00 0.47433884E+04</pdfrwt>
<pdfrwt beam="2">  1       -2 0.26490142E+00 0.47433884E+04</pdfrwt>
<totfact> 0.45291656E-02</totfact>
</mgrwt>
</event>
<event>
 6    1  0.1934315E-005  0.1111411E+04  0.7818608E-02  0.9194141E-01
          1   -1    0    0  501    0  0.00000000000E+00  0.00000000000E+00  0.91879693080E+03  0.91879693080E+03  0.00000000000E+00 0.  1.
         -1   -1    0    0    0  501 -0.00000000000E+00 -0.00000000000E+00 -0.33610110123E+03  0.33610110123E+03  0.00000000000E+00 0. -1.
         23    2    1    2    0    0  0.50921612224E+02 -0.15401993159E+03  0.88887256771E+03  0.90840222413E+03  0.93728380177E+02 0.  0.
         13    1    3    3    0    0  0.61008916751E+02 -0.77709372729E+02  0.33687345259E+03  0.35106204237E+03  0.00000000000E+00 0.  1.
        -13    1    3    3    0    0 -0.10087304526E+02 -0.76310558859E+02  0.55199911512E+03  0.55734018175E+03  0.00000000000E+00 0. -1.
         22    1    1    2    0    0 -0.50921612224E+02  0.15401993159E+03 -0.30617673814E+03  0.34649580790E+03  0.00000000000E+00 0. -1.
<mgrwt>
<rscale>  0 0.11114111E+04</rscale>
<asrwt>0</asrwt>
<pdfrwt beam="1">  1        1 0.14135337E+00 0.11114111E+04</pdfrwt>
<pdfrwt beam="2">  1       -1 0.51707862E-01 0.11114111E+04</pdfrwt>
<totfact> 0.65813688E+01</totfact>
</mgrwt>
</event>
<event>
 6    1  0.1934315E-005  0.3164237E+04  0.7818608E-02  0.8198326E-01
          2   -1    0    0  501    0  0.00000000000E+00  0.00000000000E+00  0.19311560854E+04  0.19311560854E+04  0.00000000000E+00 0.  1.
         -2   -1    0    0    0  501 -0.00000000000E+00 -0.00000000000E+00 -0.12961663653E+04  0.12961663653E+04  0.00000000000E+00 0. -1.
         23    2    1    2    0    0  0.81362983579E+03 -0.27094543396E+03 -0.10367288515E+04  0.13484802752E+04  0.90484270253E+02 0.  0.
         13    1    3    3    0    0  0.40644432970E+03 -0.18089626279E+03 -0.55592294005E+03  0.71201879631E+03  0.00000000000E+00 0. -1.
        -13    1    3    3    0    0  0.40718550609E+03 -0.90049171175E+02 -0.48080591143E+03  0.63646147886E+03  0.00000000000E+00 0.  1.
         22    1    1    2    0    0 -0.81362983579E+03  0.27094543396E+03  0.16717185716E+04  0.18788421755E+04  0.00000000000E+00 0.  1.
<mgrwt>
<rscale>  0 0.31642374E+04</rscale>
<asrwt>0</asrwt>
<pdfrwt beam="1">  1        2 0.29710094E+00 0.31642374E+04</pdfrwt>
<pdfrwt beam="2">  1       -2 0.19941021E+00 0.31642374E+04</pdfrwt>
<totfact> 0.82704092E-01</totfact>
</mgrwt>
</event>
<event>
 6    1  0.1934315E-005  0.3463795E+04  0.7818608E-02  0.8122424E-01
         -2   -1    0    0    0  501 -0.00000000000E+00  0.00000000000E+00  0.14943850363E+04  0.14943850363E+04  0.00000000000E+00 0. -1.
          2   -1    0    0  501    0  0.00000000000E+00 -0.00000000000E+00 -0.20071588872E+04  0.20071588872E+04  0.00000000000E+00 0.  1.
         23    2    1    2    0    0  0.15086060802E+04  0.74218542956E+03  0.15854842344E+03  0.16911834309E+04  0.90731899271E+02 0.  0.
         11    1    3    3    0    0  0.81210822877E+03  0.44968000932E+03  0.90814467580E+02  0.93272673037E+03  0.00000000000E+00 0.  1.
        -11    1    3    3    0    0  0.69649785139E+03  0.29250542024E+03  0.67733955863E+02  0.75845670057E+03  0.00000000000E+00 0. -1.
         22    1    1    2    0    0 -0.15086060802E+04 -0.74218542956E+03 -0.67132227440E+03  0.18103604926E+04  0.00000000000E+00 0.  1.
<mgrwt>
<rscale>  0 0.34637946E+04</rscale>
<asrwt>0</asrwt>
<pdfrwt beam="1">  1        2 0.30879367E+00 0.34637946E+04</pdfrwt>
<pdfrwt beam="2">  1       -2 0.22990539E+00 0.34637946E+04</pdfrwt>
<totfact> 0.46714763E-01</totfact>
</mgrwt>
</event>
<event>
 6    1  0.1934315E-005  0.4395227E+04  0.7818608E-02  0.7929241E-01
         -2   -1    0    0    0  501 -0.00000000000E+00  0.00000000000E+00  0.26103143789E+04  0.26103143789E+04  0.00000000000E+00 0. -1.
          2   -1    0    0  501    0  0.00000000000E+00 -0.00000000000E+00 -0.18501618558E+04  0.18501618558E+04  0.00000000000E+00 0.  1.
         23    2    1    2    0    0  0.13360188446E+04  0.14209538240E+04  0.14057476265E+04  0.24060057042E+04  0.93171540067E+02 0.  0.
         11    1    3    3    0    0  0.62810591971E+03  0.62146369390E+03  0.59510565684E+03  0.10653097728E+04  0.00000000000E+00 0. -1.
        -11    1    3    3    0    0  0.70791292492E+03  0.79949013014E+03  0.81064196963E+03  0.13406959314E+04  0.00000000000E+00 0.  1.
         22    1    1    2    0    0 -0.13360188446E+04 -0.14209538240E+04 -0.64559510335E+03  0.20544705305E+04  0.00000000000E+00 0.  1.
<mgrwt>
<rscale>  0 0.43952265E+04</rscale>
<asrwt>0</asrwt>
<pdfrwt beam="1">  1        2 0.28464028E+00 0.43952265E+04</pdfrwt>
<pdfrwt beam="2">  1       -2 0.40158683E+00 0.43952265E+04</pdfrwt>
<totfact> 0.44816284E-02</totfact>
</mgrwt>
</event>
<event>
 6    1  0.1934315E-005  0.3466677E+04  0.7818608E-02  0.8121733E-01
         -2   -1    0    0    0  501 -0.00000000000E+00  0.00000000000E+00  0.11626179478E+04  0.11626179478E+04  0.00000000000E+00 0. -1.
          2   -1    0    0  501    0  0.00000000000E+00 -0.00000000000E+00 -0.25842208377E+04  0.25842208377E+04  0.00000000000E+00 0.  1.
         23    2    1    2    0    0 -0.14115560124E+04 -0.68691370319E+03 -0.15025942615E+04  0.21749289872E+04  0.90475260858E+02 0.  0.
         11    1    3    3    0    0 -0.72946240554E+03 -0.32491525600E+03 -0.71371779763E+03  0.10710174692E+04  0.00000000000E+00 0. -1.
        -11    1    3    3    0    0 -0.68209360683E+03 -0.36199844719E+03 -0.78887646388E+03  0.11039115180E+04  0.00000000000E+00 0.  1.
         22    1    1    2    0    0  0.14115560124E+04  0.68691370319E+03  0.80991371563E+02  0.15719097983E+04  0.00000000000E+00 0. -1.
<mgrwt>
<rscale>  0 0.34666765E+04</rscale>
<asrwt>0</asrwt>
<pdfrwt beam="1">  1        2 0.39757243E+00 0.34666765E+04</pdfrwt>
<pdfrwt beam="2">  1       -2 0.17886430E+00 0.34666765E+04</pdfrwt>
<totfact> 0.47287342E-01</totfact>
</mgrwt>
</event>
<event>
 6    1  0.1934315E-005  0.4912284E+04  0.7818608E-02  0.7842183E-01
         -2   -1    0    0    0  501 -0.00000000000E+00  0.00000000000E+00  0.18222981194E+04  0.18222981194E+04  0.00000000000E+00 0. -1.
          2   -1    0    0  501    0  0.00000000000E+00 -0.00000000000E+00 -0.33104533345E+04  0.33104533345E+04  0.00000000000E+00 0.  1.
         23    2    1    2    0    0 -0.14421152302E+04 -0.13097074227E+04  0.81686732093E+03  0.21147788294E+04  0.99937015638E+02 0.  0.
         11    1    3    3    0    0 -0.25046125580E+03 -0.25934756220E+03  0.11812960933E+03  0.37940295634E+03  0.00000000000E+00 0. -1.
        -11    1    3    3    0    0 -0.11916539744E+04 -0.10503598604E+04  0.69873771161E+03  0.17353758731E+04  0.00000000000E+00 0.  1.
         22    1    1    2    0    0  0.14421152302E+04  0.13097074227E+04 -0.23050225360E+04  0.30179726244E+04  0.00000000000E+00 0.  1.
<mgrwt>
<rscale>  0 0.49122837E+04</rscale>
<asrwt>0</asrwt>
<pdfrwt beam="1">  1        2 0.50930051E+00 0.49122837E+04</pdfrwt>
<pdfrwt beam="2">  1       -2 0.28035356E+00 0.49122837E+04</pdfrwt>
<totfact> 0.33627853E-02</totfact>
</mgrwt>
</event>
<event>
 6    1  0.1934315E-005  0.1667932E+04  0.7818608E-02  0.8779868E-01
         -1   -1    0    0    0  501 -0.00000000000E+00  0.00000000000E+00  0.64192482707E+03  0.64192482707E+03  0.00000000000E+00 0. -1.
          1   -1    0    0  501    0  0.00000000000E+00 -0.00000000000E+00 -0.10834592499E+04  0.10834592499E+04  0.00000000000E+00 0.  1.
         23    2    1    2    0    0  0.43332461980E+03 -0.70843571037E+03 -0.17764294993E+03  0.85401154393E+03  0.90151637047E+02 0.  0.
         13    1    3    3    0    0  0.27679609264E+03 -0.52843055830E+03 -0.11739694882E+03  0.60797777545E+03  0.00000000000E+00 0.  1.
        -13    1    3    3    0    0  0.15652852716E+03 -0.18000515207E+03 -0.60246001106E+02  0.24603376848E+03  0.00000000000E+00 0. -1.
         22    1    1    2    0    0 -0.43332461980E+03  0.70843571037E+03 -0.26389147288E+03  0.87137253302E+03  0.00000000000E+00 0.  1.
<mgrwt>
<rscale>  0 0.16679321E+04</rscale>
<asrwt>0</asrwt>
<pdfrwt beam="1">  1        1 0.16668604E+00 0.16679321E+04</pdfrwt>
<pdfrwt beam="2">  1       -1 0.98757666E-01 0.16679321E+04</pdfrwt>
<totfact> 0.12213370E+01</totfact>
</mgrwt>
</event>
<event>
 6    1  0.1934315E-005  0.3132338E+04  0.7818608E-02  0.8206919E-01
          2   -1    0    0  501    0  0.00000000000E+00  0.00000000000E+00  0.26076458709E+04  0.26076458709E+04  0.00000000000E+00 0.  1.
         -2   -1    0    0    0  501 -0.00000000000E+00 -0.00000000000E+00 -0.94065096464E+03  0.94065096464E+03  0.00000000000E+00 0. -1.
         23    2    1    2    0    0  0.73476547456E+03 -0.12430054730E+04  0.15174359860E+04  0.20966388940E+04  0.91322351635E+02 0.  0.
         11    1    3    3    0    0  0.52218138675E+03 -0.83981745955E+03  0.98543020515E+03  0.13960800318E+04  0.00000000000E+00 0.  1.
        -11    1    3    3    0    0  0.21258408781E+03 -0.40318801340E+03  0.53200578088E+03  0.70055886222E+03  0.00000000000E+00 0. -1.
         22    1    1    2    0    0 -0.73476547456E+03  0.12430054730E+04  0.14955892018E+03  0.14516579415E+04  0.00000000000E+00 0. -1.
<mgrwt>
<rscale>  0 0.31323375E+04</rscale>
<asrwt>0</asrwt>
<pdfrwt beam="1">  1        2 0.40117629E+00 0.31323375E+04</pdfrwt>
<pdfrwt beam="2">  1       -2 0.14471553E+00 0.31323375E+04</pdfrwt>
<totfact> 0.83976992E-01</totfact>
</mgrwt>
</event>
<event>
 6    1  0.1934315E-005  0.2454829E+04  0.7818608E-02  0.8419257E-01
         -2   -1    0    0    0  501 -0.00000000000E+00  0.00000000000E+00  0.11855327160E+04  0.11855327160E+04  0.00000000000E+00 0. -1.
          2   -1    0    0  501    0  0.00000000000E+00 -0.00000000000E+00 -0.12707757502E+04  0.12707757502E+04  0.00000000000E+00 0.  1.
         23    2    1    2    0    0 -0.73287113647E+03  0.68255865563E+03  0.66400829544E+03  0.12055630980E+04  0.97411220058E+02 0.  0.
         13    1    3    3    0    0 -0.30527851499E+03  0.22083439243E+03  0.23917628969E+03  0.44628253175E+03  0.00000000000E+00 0. -1.
        -13    1    3    3    0    0 -0.42759262148E+03  0.46172426321E+03  0.42483200575E+03  0.75928056625E+03  0.00000000000E+00 0.  1.
         22    1    1    2    0    0  0.73287113647E+03 -0.68255865563E+03 -0.74925132960E+03  0.12507453682E+04  0.00000000000E+00 0.  1.
<mgrwt>
<rscale>  0 0.24548289E+04</rscale>
<asrwt>0</asrwt>
<pdfrwt beam="1">  1        2 0.19550396E+00 0.24548289E+04</pdfrwt>
<pdfrwt beam="2">  1       -2 0.18238965E+00 0.24548289E+04</pdfrwt>
<totfact> 0.26876149E+00</totfact>
</mgrwt>
</event>
<event>
 6    1  0.1934315E-005  0.3155687E+04  0.7818608E-02  0.8200619E-01
          2   -1    0    0  501    0  0.00000000000E+00  0.00000000000E+00  0.38343819695E+04  0.38343819695E+04  0.00000000000E+00 0.  1.
         -2   -1    0    0    0  501 -0.00000000000E+00 -0.00000000000E+00 -0.64928052838E+03  0.64928052838E+03  0.00000000000E+00 0. -1.
         23    2    1    2    0    0 -0.57454838728E+03  0.86592048184E+03 -0.91045228314E+02  0.10466490952E+04  0.85211294909E+02 0.  0.
         13    1    3    3    0    0 -0.53660664755E+03  0.83835693024E+03 -0.92943548302E+02  0.99971372895E+03  0.00000000000E+00 0. -1.
        -13    1    3    3    0    0 -0.37941739730E+02  0.27563551599E+02  0.18983199874E+01  0.46935366295E+02  0.00000000000E+00 0.  1.
         22    1    1    2    0    0  0.57454838728E+03 -0.86592048184E+03  0.32761466694E+04  0.34370134026E+04  0.00000000000E+00 0.  1.
<mgrwt>
<rscale>  0 0.31556866E+04</rscale>
<asrwt>0</asrwt>
<pdfrwt beam="1">  1        2 0.58990490E+00 0.31556866E+04</pdfrwt>
<pdfrwt beam="2">  1       -2 0.99889315E-01 0.31556866E+04</pdfrwt>
<totfact> 0.32310641E-01</totfact>
</mgrwt>
</event>
<event>
 6    1  0.1934315E-005  0.2061371E+04  0.7818608E-02  0.8578453E-01
         -2   -1    0    0    0  501 -0.00000000000E+00  0.00000000000E+00  0.60689773900E+03  0.60689773900E+03  0.00000000000E+00 0. -1.
          2   -1    0    0  501    0  0.00000000000E+00 -0.00000000000E+00 -0.17503988360E+04  0.17503988360E+04  0.00000000000E+00 0.  1.
         23    2    1    2    0    0 -0.96850393487E+02 -0.26441787883E+03 -0.17043029562E+04  0.17297652700E+04  0.90235852596E+02 0.  0.
         11    1    3    3    0    0 -0.49127540603E+02 -0.23262987385E+03 -0.13273995545E+04  0.13485250278E+04  0.00000000000E+00 0. -1.
        -11    1    3    3    0    0 -0.47722852885E+02 -0.31788004974E+02 -0.37690340175E+03  0.38124024210E+03  0.00000000000E+00 0.  1.
         22    1    1    2    0    0  0.96850393487E+02  0.26441787883E+03  0.56080185929E+03  0.62753130500E+03  0.00000000000E+00 0. -1.
<mgrwt>
<rscale>  0 0.20613715E+04</rscale>
<asrwt>0</asrwt>
<pdfrwt beam="1">  1        2 0.26929212E+00 0.20613715E+04</pdfrwt>
<pdfrwt beam="2">  1       -2 0.93368884E-01 0.20613715E+04</pdfrwt>
<totfact> 0.82482151E+00</totfact>
</mgrwt>
</event>
<event>
 6    1  0.1934315E-005  0.3491960E+04  0.7818608E-02  0.8115698E-01
         -2   -1    0    0    0  501 -0.00000000000E+00  0.00000000000E+00  0.10753918762E+04  0.10753918762E+04  0.00000000000E+00 0. -1.
          2   -1    0    0  501    0  0.00000000000E+00 -0.00000000000E+00 -0.28347312755E+04  0.28347312755E+04  0.00000000000E+00 0.  1.
         23    2    1    2    0    0  0.40665083768E+03  0.15698308106E+04 -0.16015421871E+04  0.22808185031E+04  0.86382807462E+02 0.  0.
         13    1    3    3    0    0  0.17648294143E+03  0.81545284395E+03 -0.86125939273E+03  0.11991152200E+04  0.00000000000E+00 0. -1.
        -13    1    3    3    0    0  0.23016789624E+03  0.75437796661E+03 -0.74028279440E+03  0.10817032831E+04  0.00000000000E+00 0.  1.
         22    1    1    2    0    0 -0.40665083768E+03 -0.15698308106E+04 -0.15779721218E+03  0.16293046485E+04  0.00000000000E+00 0. -1.
<mgrwt>
<rscale>  0 0.34919605E+04</rscale>
<asrwt>0</asrwt>
<pdfrwt beam="1">  1        2 0.43611250E+00 0.34919605E+04</pdfrwt>
<pdfrwt beam="2">  1       -2 0.16544491E+00 0.34919605E+04</pdfrwt>
<totfact> 0.41603477E-01</totfact>
</mgrwt>
</event>
<event>
 6    1  0.1934315E-005  0.2913574E+04  0.7818608E-02  0.8268850E-01
          2   -1    0    0  501    0  0.00000000000E+00  0.00000000000E+00  0.34372729416E+04  0.34372729416E+04  0.00000000000E+00 0.  1.
         -2   -1    0    0    0  501 -0.00000000000E+00 -0.00000000000E+00 -0.61741634416E+03  0.61741634416E+03  0.00000000000E+00 0. -1.
         23    2    1    2    0    0  0.63755260863E+01  0.86671283361E+03  0.30383248820E+04  0.31608435639E+04  0.91006392199E+02 0.  0.
         13    1    3    3    0    0 -0.29343731980E+02  0.10783766759E+03  0.38140404802E+03  0.39744064337E+03  0.00000000000E+00 0.  1.
        -13    1    3    3    0    0  0.35719258066E+02  0.75887516602E+03  0.26569208340E+04  0.27634029205E+04  0.00000000000E+00 0. -1.
         22    1    1    2    0    0 -0.63755260863E+01 -0.86671283361E+03 -0.21846828451E+03  0.89384572193E+03  0.00000000000E+00 0. -1.
<mgrwt>
<rscale>  0 0.29135741E+04</rscale>
<asrwt>0</asrwt>
<pdfrwt beam="1">  1        2 0.52881121E+00 0.29135741E+04</pdfrwt>
<pdfrwt beam="2">  1       -2 0.94987132E-01 0.29135741E+04</pdfrwt>
<totfact> 0.72202969E-01</totfact>
</mgrwt>
</event>
<event>
 6    1  0.1934315E-005  0.5570014E+03  0.7818608E-02  0.9998862E-01
         -4   -1    0    0    0  501 -0.00000000000E+00  0.00000000000E+00  0.12584597913E+04  0.12584597913E+04  0.00000000000E+00 0. -1.
          4   -1    0    0  501    0  0.00000000000E+00 -0.00000000000E+00 -0.61632999263E+02  0.61632999263E+02  0.00000000000E+00 0.  1.
         23    2    1    2    0    0  0.64455853523E+02 -0.26127185272E+03  0.69214417290E+03  0.74814691538E+03  0.90789387270E+02 0.  0.
         13    1    3    3    0    0  0.58058740899E+02 -0.93572583105E+02  0.35255545238E+03  0.36935347935E+03  0.00000000000E+00 0. -1.
        -13    1    3    3    0    0  0.63971126246E+01 -0.16769926961E+03  0.33958872052E+03  0.37879343604E+03  0.00000000000E+00 0.  1.
         22    1    1    2    0    0 -0.64455853523E+02  0.26127185272E+03  0.50468261911E+03  0.57194587516E+03  0.00000000000E+00 0. -1.
<mgrwt>
<rscale>  0 0.55700144E+03</rscale>
<asrwt>0</asrwt>
<pdfrwt beam="1">  1        4 0.94820008E-02 0.55700144E+03</pdfrwt>
<pdfrwt beam="2">  1       -4 0.19360918E+00 0.55700144E+03</pdfrwt>
<totfact> 0.25180203E+01</totfact>
</mgrwt>
</event>
<event>
 6    1  0.1934315E-005  0.1721465E+04  0.7818608E-02  0.8749216E-01
         -2   -1    0    0    0  501 -0.00000000000E+00  0.00000000000E+00  0.86934047741E+03  0.86934047741E+03  0.00000000000E+00 0. -1.
          2   -1    0    0  501    0  0.00000000000E+00 -0.00000000000E+00 -0.85221006227E+03  0.85221006227E+03  0.00000000000E+00 0.  1.
         23    2    1    2    0    0  0.21400246348E+02 -0.16762240621E+03 -0.83185041756E+03  0.85591568832E+03  0.10982398061E+03 0.  0.
         11    1    3    3    0    0  0.48811927475E+02 -0.29738585290E+02 -0.17174556914E+03  0.18100698395E+03  0.00000000000E+00 0. -1.
        -11    1    3    3    0    0 -0.27411681126E+02 -0.13788382092E+03 -0.66010484842E+03  0.67490870437E+03  0.00000000000E+00 0.  1.
         22    1    1    2    0    0 -0.21400246348E+02  0.16762240621E+03  0.84898083269E+03  0.86563485136E+03  0.00000000000E+00 0. -1.
<mgrwt>
<rscale>  0 0.17214653E+04</rscale>
<asrwt>0</asrwt>
<pdfrwt beam="1">  1        2 0.13110924E+00 0.17214653E+04</pdfrwt>
<pdfrwt beam="2">  1       -2 0.13374469E+00 0.17214653E+04</pdfrwt>
<totfact> 0.12136671E+01</totfact>
</mgrwt>
</event>
<event>
 6    1  0.1934315E-005  0.1636929E+04  0.7818608E-02  0.8798177E-01
          2   -1    0    0  501    0  0.00000000000E+00  0.00000000000E+00  0.14085790214E+04  0.14085790214E+04  0.00000000000E+00 0.  1.
         -2   -1    0    0    0  501 -0.00000000000E+00 -0.00000000000E+00 -0.47557458636E+03  0.47557458636E+03  0.00000000000E+00 0. -1.
         23    2    1    2    0    0 -0.14592476432E+03  0.63186833448E+03 -0.10192149632E+03  0.66283329254E+03  0.91697073701E+02 0.  0.
         11    1    3    3    0    0 -0.66008099897E+02  0.38355197256E+03 -0.21189877536E+02  0.38976684802E+03  0.00000000000E+00 0.  1.
        -11    1    3    3    0    0 -0.79916664425E+02  0.24831636192E+03 -0.80731618786E+02  0.27306644452E+03  0.00000000000E+00 0. -1.
         22    1    1    2    0    0  0.14592476432E+03 -0.63186833448E+03  0.10349259314E+04  0.12213203153E+04  0.00000000000E+00 0.  1.
<mgrwt>
<rscale>  0 0.16369293E+04</rscale>
<asrwt>0</asrwt>
<pdfrwt beam="1">  1        2 0.21670446E+00 0.16369293E+04</pdfrwt>
<pdfrwt beam="2">  1       -2 0.73165322E-01 0.16369293E+04</pdfrwt>
<totfact> 0.23077472E+01</totfact>
</mgrwt>
</event>
<event>
 6    1  0.1934315E-005  0.2458251E+04  0.7818608E-02  0.8418012E-01
         -2   -1    0    0    0  501 -0.00000000000E+00  0.00000000000E+00  0.63532367863E+03  0.63532367863E+03  0.00000000000E+00 0. -1.
          2   -1    0    0  501    0  0.00000000000E+00 -0.00000000000E+00 -0.23779206620E+04  0.23779206620E+04  0.00000000000E+00 0.  1.
         23    2    1    2    0    0  0.12250318674E+04  0.38854617360E+02 -0.95537674872E+03  0.15565602791E+04  0.89007938228E+02 0.  0.
         11    1    3    3    0    0  0.60180732352E+03  0.44891162858E+02 -0.42408354129E+03  0.73758668720E+03  0.00000000000E+00 0. -1.
        -11    1    3    3    0    0  0.62322454383E+03 -0.60365454971E+01 -0.53129320743E+03  0.81897359187E+03  0.00000000000E+00 0.  1.
         22    1    1    2    0    0 -0.12250318674E+04 -0.38854617360E+02 -0.78722023462E+03  0.14566840615E+04  0.00000000000E+00 0. -1.
<mgrwt>
<rscale>  0 0.24582508E+04</rscale>
<asrwt>0</asrwt>
<pdfrwt beam="1">  1        2 0.36583394E+00 0.24582508E+04</pdfrwt>
<pdfrwt beam="2">  1       -2 0.97742106E-01 0.24582508E+04</pdfrwt>
<totfact> 0.31928493E+00</totfact>
</mgrwt>
</event>
<event>
 6    1  0.1934315E-005  0.1530458E+04  0.7818608E-02  0.8864447E-01
          2   -1    0    0  501    0  0.00000000000E+00  0.00000000000E+00  0.14781937596E+04  0.14781937596E+04  0.00000000000E+00 0. -1.
         -2   -1    0    0    0  501 -0.00000000000E+00 -0.00000000000E+00 -0.39614278177E+03  0.39614278177E+03  0.00000000000E+00 0.  1.
         23    2    1    2    0    0  0.72700962094E+03 -0.14877075279E+02  0.82353623197E+03  0.11025890502E+04  0.93415052070E+02 0.  0.
         13    1    3    3    0    0  0.42167541546E+03 -0.20974786753E+02  0.41005791391E+03  0.58855551178E+03  0.00000000000E+00 0.  1.
        -13    1    3    3    0    0  0.30533420547E+03  0.60977114742E+01  0.41347831806E+03  0.51403353842E+03  0.00000000000E+00 0. -1.
         22    1    1    2    0    0 -0.72700962094E+03  0.14877075279E+02  0.25851474585E+03  0.77174749117E+03  0.00000000000E+00 0. -1.
<mgrwt>
<rscale>  0 0.15304585E+04</rscale>
<asrwt>0</asrwt>
<pdfrwt beam="1">  1        2 0.22741442E+00 0.15304585E+04</pdfrwt>
<pdfrwt beam="2">  1       -2 0.60945044E-01 0.15304585E+04</pdfrwt>
<totfact> 0.31539186E+01</totfact>
</mgrwt>
</event>
<event>
 6    1  0.1934315E-005  0.3181638E+04  0.7818608E-02  0.8193683E-01
          2   -1    0    0  501    0  0.00000000000E+00  0.00000000000E+00  0.42081441576E+04  0.42081441576E+04  0.00000000000E+00 0.  1.
         -2   -1    0    0    0  501 -0.00000000000E+00 -0.00000000000E+00 -0.60138264139E+03  0.60138264139E+03  0.00000000000E+00 0. -1.
         23    2    1    2    0    0  0.10945313071E+04 -0.63515107416E+03  0.35107755352E+03  0.13165490243E+04  0.92898953709E+02 0.  0.
         11    1    3    3    0    0  0.65329308712E+03 -0.42870525815E+03  0.23092196450E+03  0.81480366330E+03  0.00000000000E+00 0. -1.
        -11    1    3    3    0    0  0.44123822000E+03 -0.20644581601E+03  0.12015558902E+03  0.50174536103E+03  0.00000000000E+00 0.  1.
         22    1    1    2    0    0 -0.10945313071E+04  0.63515107416E+03  0.32556839627E+04  0.34929777746E+04  0.00000000000E+00 0.  1.
<mgrwt>
<rscale>  0 0.31816378E+04</rscale>
<asrwt>0</asrwt>
<pdfrwt beam="1">  1        2 0.64740678E+00 0.31816378E+04</pdfrwt>
<pdfrwt beam="2">  1       -2 0.92520409E-01 0.31816378E+04</pdfrwt>
<totfact> 0.19089028E-01</totfact>
</mgrwt>
</event>
<event>
 6    1  0.1934315E-005  0.2623998E+04  0.7818608E-02  0.8360095E-01
          1   -1    0    0  501    0  0.00000000000E+00  0.00000000000E+00  0.34454136114E+04  0.34454136114E+04  0.00000000000E+00 0.  1.
         -1   -1    0    0    0  501 -0.00000000000E+00 -0.00000000000E+00 -0.49960385014E+03  0.49960385014E+03  0.00000000000E+00 0. -1.
         23    2    1    2    0    0  0.11664750822E+04  0.37411906494E+03  0.77533071055E+03  0.14527075888E+04  0.92695391836E+02 0.  0.
         11    1    3    3    0    0  0.84318446283E+03  0.30571770446E+03  0.59424451841E+03  0.10758949302E+04  0.00000000000E+00 0.  1.
        -11    1    3    3    0    0  0.32329061939E+03  0.68401360480E+02  0.18108619215E+03  0.37681265861E+03  0.00000000000E+00 0. -1.
         22    1    1    2    0    0 -0.11664750822E+04 -0.37411906494E+03  0.21704790507E+04  0.24923098727E+04  0.00000000000E+00 0. -1.
<mgrwt>
<rscale>  0 0.26239984E+04</rscale>
<asrwt>0</asrwt>
<pdfrwt beam="1">  1        1 0.53006362E+00 0.26239984E+04</pdfrwt>
<pdfrwt beam="2">  1       -1 0.76862133E-01 0.26239984E+04</pdfrwt>
<totfact> 0.41172617E-01</totfact>
</mgrwt>
</event>
<event>
 6    1  0.1934315E-005  0.1534044E+04  0.7818608E-02  0.8862125E-01
         -2   -1    0    0    0  501 -0.00000000000E+00  0.00000000000E+00  0.73624943042E+03  0.73624943042E+03  0.00000000000E+00 0. -1.
          2   -1    0    0  501    0  0.00000000000E+00 -0.00000000000E+00 -0.79908032894E+03  0.79908032894E+03  0.00000000000E+00 0.  1.
         23    2    1    2    0    0  0.10027853988E+03  0.29080560505E+03 -0.73194120779E+03  0.79889762300E+03  0.88745675302E+02 0.  0.
         11    1    3    3    0    0 -0.16403405317E+02  0.43280510245E+02 -0.11673343178E+03  0.12557455303E+03  0.00000000000E+00 0. -1.
        -11    1    3    3    0    0  0.11668194520E+03  0.24752509480E+03 -0.61520777601E+03  0.67332306997E+03  0.00000000000E+00 0.  1.
         22    1    1    2    0    0 -0.10027853988E+03 -0.29080560505E+03  0.66911030927E+03  0.73643213636E+03  0.00000000000E+00 0. -1.
<mgrwt>
<rscale>  0 0.15340436E+04</rscale>
<asrwt>0</asrwt>
<pdfrwt beam="1">  1        2 0.12293543E+00 0.15340436E+04</pdfrwt>
<pdfrwt beam="2">  1       -2 0.11326914E+00 0.15340436E+04</pdfrwt>
<totfact> 0.20344494E+01</totfact>
</mgrwt>
</event>
<event>
 6    1  0.1934315E-005  0.2398579E+04  0.7818608E-02  0.8440036E-01
          1   -1    0    0  501    0  0.00000000000E+00  0.00000000000E+00  0.73586607720E+03  0.73586607720E+03  0.00000000000E+00 0. -1.
         -1   -1    0    0    0  501 -0.00000000000E+00 -0.00000000000E+00 -0.19545609346E+04  0.19545609346E+04  0.00000000000E+00 0.  1.
         23    2    1    2    0    0  0.28248080400E+03 -0.56237983364E+03 -0.17529653376E+04  0.18648899576E+04  0.94130744966E+02 0.  0.
         11    1    3    3    0    0  0.18967056704E+03 -0.34276357065E+03 -0.12113800505E+04  0.12731470521E+04  0.00000000000E+00 0. -1.
        -11    1    3    3    0    0  0.92810236967E+02 -0.21961626299E+03 -0.54158528704E+03  0.59174290549E+03  0.00000000000E+00 0.  1.
         22    1    1    2    0    0 -0.28248080400E+03  0.56237983364E+03  0.53427048018E+03  0.82553705423E+03  0.00000000000E+00 0. -1.
<mgrwt>
<rscale>  0 0.23985788E+04</rscale>
<asrwt>0</asrwt>
<pdfrwt beam="1">  1        1 0.11321017E+00 0.23985788E+04</pdfrwt>
<pdfrwt beam="2">  1       -1 0.30070167E+00 0.23985788E+04</pdfrwt>
<totfact> 0.73908926E-01</totfact>
</mgrwt>
</event>
<event>
 6    1  0.1934315E-005  0.1492387E+04  0.7818608E-02  0.8889532E-01
         -2   -1    0    0    0  501 -0.00000000000E+00  0.00000000000E+00  0.25951024967E+03  0.25951024967E+03  0.00000000000E+00 0. -1.
          2   -1    0    0  501    0  0.00000000000E+00 -0.00000000000E+00 -0.21455968288E+04  0.21455968288E+04  0.00000000000E+00 0.  1.
         23    2    1    2    0    0 -0.26754789079E+03 -0.49352090932E+03 -0.17337499299E+04  0.18234274273E+04  0.62080604708E+02 0.  0.
         13    1    3    3    0    0 -0.21937902335E+03 -0.39463182040E+03 -0.14662841872E+04  0.15342264328E+04  0.00000000000E+00 0. -1.
        -13    1    3    3    0    0 -0.48168867444E+02 -0.98889088918E+02 -0.26746574270E+03  0.28920099449E+03  0.00000000000E+00 0.  1.
         22    1    1    2    0    0  0.26754789079E+03  0.49352090932E+03 -0.15233664917E+03  0.58167965108E+03  0.00000000000E+00 0. -1.
<mgrwt>
<rscale>  0 0.14923865E+04</rscale>
<asrwt>0</asrwt>
<pdfrwt beam="1">  1        2 0.33009182E+00 0.14923865E+04</pdfrwt>
<pdfrwt beam="2">  1       -2 0.39924654E-01 0.14923865E+04</pdfrwt>
<totfact> 0.31822992E+01</totfact>
</mgrwt>
</event>
<event>
 6    1  0.1934315E-005  0.1864711E+04  0.7818608E-02  0.8672624E-01
          2   -1    0    0  501    0  0.00000000000E+00  0.00000000000E+00  0.56113049635E+03  0.56113049635E+03  0.00000000000E+00 0.  1.
         -2   -1    0    0    0  501 -0.00000000000E+00 -0.00000000000E+00 -0.15491701677E+04  0.15491701677E+04  0.00000000000E+00 0. -1.
         23    2    1    2    0    0 -0.63039004166E+03 -0.68132456016E+03 -0.56716227252E+03  0.10911183713E+04  0.85273067089E+02 0.  0.
         13    1    3    3    0    0 -0.22998961207E+03 -0.19897950440E+03 -0.16028599820E+03  0.34377269533E+03  0.00000000000E+00 0. -1.
        -13    1    3    3    0    0 -0.40040042958E+03 -0.48234505576E+03 -0.40687627432E+03  0.74734567599E+03  0.00000000000E+00 0.  1.
         22    1    1    2    0    0  0.63039004166E+03  0.68132456016E+03 -0.42087739879E+03  0.10191822927E+04  0.00000000000E+00 0. -1.
<mgrwt>
<rscale>  0 0.18647108E+04</rscale>
<asrwt>0</asrwt>
<pdfrwt beam="1">  1        2 0.86327771E-01 0.18647108E+04</pdfrwt>
<pdfrwt beam="2">  1       -2 0.23833387E+00 0.18647108E+04</pdfrwt>
<totfact> 0.38284197E+00</totfact>
</mgrwt>
</event>
<event>
 6    1  0.1934315E-005  0.2534133E+04  0.7818608E-02  0.8390925E-01
          2   -1    0    0  501    0  0.00000000000E+00  0.00000000000E+00  0.20981097924E+04  0.20981097924E+04  0.00000000000E+00 0.  1.
         -2   -1    0    0    0  501 -0.00000000000E+00 -0.00000000000E+00 -0.76519222170E+03  0.76519222170E+03  0.00000000000E+00 0. -1.
         23    2    1    2    0    0 -0.11642571818E+04 -0.30613011501E+03  0.11078745714E+04  0.16386164283E+04  0.92017934149E+02 0.  0.
         11    1    3    3    0    0 -0.90913360609E+03 -0.25299260270E+03  0.81842717760E+03  0.12491405909E+04  0.00000000000E+00 0.  1.
        -11    1    3    3    0    0 -0.25512357571E+03 -0.53137512310E+02  0.28944739385E+03  0.38947583738E+03  0.00000000000E+00 0. -1.
         22    1    1    2    0    0  0.11642571818E+04  0.30613011501E+03  0.22504299928E+03  0.12246855859E+04  0.00000000000E+00 0. -1.
<mgrwt>
<rscale>  0 0.25341328E+04</rscale>
<asrwt>0</asrwt>
<pdfrwt beam="1">  1        2 0.32278612E+00 0.25341328E+04</pdfrwt>
<pdfrwt beam="2">  1       -2 0.11772188E+00 0.25341328E+04</pdfrwt>
<totfact> 0.29167658E+00</totfact>
</mgrwt>
</event>
<event>
 6    1  0.1934315E-005  0.5864072E+03  0.7818608E-02  0.9934015E-01
         -2   -1    0    0    0  501 -0.00000000000E+00  0.00000000000E+00  0.11814077543E+03  0.11814077543E+03  0.00000000000E+00 0. -1.
          2   -1    0    0  501    0  0.00000000000E+00 -0.00000000000E+00 -0.72767731153E+03  0.72767731153E+03  0.00000000000E+00 0.  1.
         23    2    1    2    0    0  0.22772427461E+03 -0.14736304453E+03 -0.18121763098E+03  0.33883554622E+03  0.91626881790E+02 0.  0.
         13    1    3    3    0    0  0.17001991209E+03 -0.93965514458E+02 -0.17239246892E+03  0.25972187384E+03  0.00000000000E+00 0.  1.
        -13    1    3    3    0    0  0.57704362523E+02 -0.53397530070E+02 -0.88251620626E+01  0.79113672378E+02  0.00000000000E+00 0. -1.
         22    1    1    2    0    0 -0.22772427461E+03  0.14736304453E+03 -0.42831890511E+03  0.50698254074E+03  0.00000000000E+00 0.  1.
<mgrwt>
<rscale>  0 0.58640724E+03</rscale>
<asrwt>0</asrwt>
<pdfrwt beam="1">  1        2 0.11195036E+00 0.58640724E+03</pdfrwt>
<pdfrwt beam="2">  1       -2 0.18175504E-01 0.58640724E+03</pdfrwt>
<totfact> 0.98776217E+02</totfact>
</mgrwt>
</event>
<event>
 6    1  0.1934315E-005  0.1726433E+04  0.7818608E-02  0.8746431E-01
         -2   -1    0    0    0  501 -0.00000000000E+00  0.00000000000E+00  0.85719502707E+03  0.85719502707E+03  0.00000000000E+00 0. -1.
          2   -1    0    0  501    0  0.00000000000E+00 -0.00000000000E+00 -0.86928038568E+03  0.86928038568E+03  0.00000000000E+00 0.  1.
         23    2    1    2    0    0 -0.28781000815E+03 -0.66802274799E+03  0.45438291698E+03  0.86236798613E+03  0.90142751391E+02 0.  0.
         11    1    3    3    0    0 -0.14756130199E+02 -0.11528239709E+03  0.64448344389E+02  0.13289606297E+03  0.00000000000E+00 0. -1.
        -11    1    3    3    0    0 -0.27305387795E+03 -0.55274035090E+03  0.38993457259E+03  0.72947192316E+03  0.00000000000E+00 0.  1.
         22    1    1    2    0    0  0.28781000815E+03  0.66802274799E+03 -0.46646827559E+03  0.86410742663E+03  0.00000000000E+00 0.  1.
<mgrwt>
<rscale>  0 0.17264331E+04</rscale>
<asrwt>0</asrwt>
<pdfrwt beam="1">  1        2 0.13373544E+00 0.17264331E+04</pdfrwt>
<pdfrwt beam="2">  1       -2 0.13187616E+00 0.17264331E+04</pdfrwt>
<totfact> 0.12236661E+01</totfact>
</mgrwt>
</event>
<event>
 6    1  0.1934315E-005  0.5287728E+03  0.7818608E-02  0.1006530E+00
          2   -1    0    0  501    0  0.00000000000E+00  0.00000000000E+00  0.54586783886E+03  0.54586783886E+03  0.00000000000E+00 0.  1.
         -2   -1    0    0    0  501 -0.00000000000E+00 -0.00000000000E+00 -0.12805327307E+03  0.12805327307E+03  0.00000000000E+00 0. -1.
         23    2    1    2    0    0  0.94792161250E+02  0.46123597676E+02  0.51319733805E+03  0.53175637179E+03  0.90996654129E+02 0.  0.
         11    1    3    3    0    0  0.63596793108E+02  0.31227668995E+02  0.13947370287E+03  0.15643731395E+03  0.00000000000E+00 0. -1.
        -11    1    3    3    0    0  0.31195368141E+02  0.14895928681E+02  0.37372363518E+03  0.37531905784E+03  0.00000000000E+00 0.  1.
         22    1    1    2    0    0 -0.94792161250E+02 -0.46123597676E+02 -0.95382772249E+02  0.14216474014E+03  0.00000000000E+00 0. -1.
<mgrwt>
<rscale>  0 0.52877278E+03</rscale>
<asrwt>0</asrwt>
<pdfrwt beam="1">  1        2 0.83979666E-01 0.52877278E+03</pdfrwt>
<pdfrwt beam="2">  1       -2 0.19700504E-01 0.52877278E+03</pdfrwt>
<totfact> 0.12188662E+03</totfact>
</mgrwt>
</event>
<event>
 6    1  0.1934315E-005  0.1751909E+04  0.7818608E-02  0.8732300E-01
          2   -1    0    0  501    0  0.00000000000E+00  0.00000000000E+00  0.12874325300E+04  0.12874325300E+04  0.00000000000E+00 0.  1.
         -2   -1    0    0    0  501 -0.00000000000E+00 -0.00000000000E+00 -0.59598948272E+03  0.59598948272E+03  0.00000000000E+00 0. -1.
         23    2    1    2    0    0 -0.81972171207E+03  0.28651975615E+03  0.44978039169E+03  0.98206853321E+03  0.90105201143E+02 0.  0.
         13    1    3    3    0    0 -0.22513998573E+03  0.48911079768E+02  0.15118384560E+03  0.27556643857E+03  0.00000000000E+00 0. -1.
        -13    1    3    3    0    0 -0.59458172634E+03  0.23760867638E+03  0.29859654609E+03  0.70650209464E+03  0.00000000000E+00 0.  1.
         22    1    1    2    0    0  0.81972171207E+03 -0.28651975615E+03  0.24166265557E+03  0.90135347949E+03  0.00000000000E+00 0. -1.
<mgrwt>
<rscale>  0 0.17519090E+04</rscale>
<asrwt>0</asrwt>
<pdfrwt beam="1">  1        2 0.19806654E+00 0.17519090E+04</pdfrwt>
<pdfrwt beam="2">  1       -2 0.91690690E-01 0.17519090E+04</pdfrwt>
<totfact> 0.16131151E+01</totfact>
</mgrwt>
</event>
<event>
 6    1  0.1934315E-005  0.3479875E+04  0.7818608E-02  0.8118576E-01
         -2   -1    0    0    0  501 -0.00000000000E+00  0.00000000000E+00  0.99436945925E+03  0.99436945925E+03  0.00000000000E+00 0. -1.
          2   -1    0    0  501    0  0.00000000000E+00 -0.00000000000E+00 -0.30445250443E+04  0.30445250443E+04  0.00000000000E+00 0.  1.
         23    2    1    2    0    0  0.12954204393E+02 -0.16279656107E+04 -0.17345214856E+04  0.23805625930E+04  0.89853404248E+02 0.  0.
         13    1    3    3    0    0 -0.26189187655E+02 -0.97251277696E+03 -0.99429622127E+03  0.13910758249E+04  0.00000000000E+00 0. -1.
        -13    1    3    3    0    0  0.39143392048E+02 -0.65545283371E+03 -0.74022526432E+03  0.98948676812E+03  0.00000000000E+00 0.  1.
         22    1    1    2    0    0 -0.12954204393E+02  0.16279656107E+04 -0.31563409951E+03  0.16583319106E+04  0.00000000000E+00 0. -1.
<mgrwt>
<rscale>  0 0.34798751E+04</rscale>
<asrwt>0</asrwt>
<pdfrwt beam="1">  1        2 0.46838846E+00 0.34798751E+04</pdfrwt>
<pdfrwt beam="2">  1       -2 0.15297992E+00 0.34798751E+04</pdfrwt>
<totfact> 0.38168409E-01</totfact>
</mgrwt>
</event>
<event>
 6    1  0.1934315E-005  0.2330551E+04  0.7818608E-02  0.8465972E-01
         -2   -1    0    0    0  501 -0.00000000000E+00  0.00000000000E+00  0.70306193358E+03  0.70306193358E+03  0.00000000000E+00 0. -1.
          2   -1    0    0  501    0  0.00000000000E+00 -0.00000000000E+00 -0.19313611151E+04  0.19313611151E+04  0.00000000000E+00 0.  1.
         23    2    1    2    0    0 -0.20140618797E+02  0.54123526680E+03 -0.17787897842E+04  0.18621658621E+04  0.10113032784E+03 0.  0.
         11    1    3    3    0    0 -0.13023590712E+02  0.35735505323E+03 -0.13270192023E+04  0.13743551984E+04  0.00000000000E+00 0. -1.
        -11    1    3    3    0    0 -0.71170280859E+01  0.18388021357E+03 -0.45177058186E+03  0.48781066375E+03  0.00000000000E+00 0.  1.
         22    1    1    2    0    0  0.20140618797E+02 -0.54123526680E+03  0.55049060266E+03  0.77225718655E+03  0.00000000000E+00 0. -1.
<mgrwt>
<rscale>  0 0.23305506E+04</rscale>
<asrwt>0</asrwt>
<pdfrwt beam="1">  1        2 0.29713248E+00 0.23305506E+04</pdfrwt>
<pdfrwt beam="2">  1       -2 0.10816337E+00 0.23305506E+04</pdfrwt>
<totfact> 0.45146984E+00</totfact>
</mgrwt>
</event>
<event>
 6    1  0.1934315E-005  0.4140500E+04  0.7818608E-02  0.7976788E-01
          2   -1    0    0  501    0  0.00000000000E+00  0.00000000000E+00  0.16686749079E+04  0.16686749079E+04  0.00000000000E+00 0. -1.
         -2   -1    0    0    0  501 -0.00000000000E+00 -0.00000000000E+00 -0.25684662655E+04  0.25684662655E+04  0.00000000000E+00 0.  1.
         23    2    1    2    0    0  0.10019484534E+04  0.11147341722E+04 -0.19105253344E+04  0.24293480021E+04  0.71356038124E+02 0.  0.
         13    1    3    3    0    0  0.85045670724E+03  0.93292112905E+03 -0.16472356531E+04  0.20753322001E+04  0.00000000000E+00 0.  1.
        -13    1    3    3    0    0  0.15149174615E+03  0.18181304318E+03 -0.26328968125E+03  0.35401580202E+03  0.00000000000E+00 0. -1.
         22    1    1    2    0    0 -0.10019484534E+04 -0.11147341722E+04  0.10107339769E+04  0.18077931712E+04  0.00000000000E+00 0. -1.
<mgrwt>
<rscale>  0 0.41405001E+04</rscale>
<asrwt>0</asrwt>
<pdfrwt beam="1">  1        2 0.25671922E+00 0.41405001E+04</pdfrwt>
<pdfrwt beam="2">  1       -2 0.39514865E+00 0.41405001E+04</pdfrwt>
<totfact> 0.63558429E-02</totfact>
</mgrwt>
</event>
<event>
 6    1  0.1934315E-005  0.1831210E+04  0.7818608E-02  0.8689876E-01
          2   -1    0    0  501    0  0.00000000000E+00  0.00000000000E+00  0.24939184057E+04  0.24939184057E+04  0.00000000000E+00 0.  1.
         -2   -1    0    0    0  501 -0.00000000000E+00 -0.00000000000E+00 -0.33615086223E+03  0.33615086223E+03  0.00000000000E+00 0. -1.
         23    2    1    2    0    0 -0.56529893510E+03  0.67145847567E+03  0.69015540390E+03  0.11200093968E+04  0.87676660965E+02 0.  0.
         13    1    3    3    0    0 -0.37412604815E+03  0.47484242180E+03  0.51898880261E+03  0.79674023539E+03  0.00000000000E+00 0. -1.
        -13    1    3    3    0    0 -0.19117288695E+03  0.19661605387E+03  0.17116660129E+03  0.32326916145E+03  0.00000000000E+00 0.  1.
         22    1    1    2    0    0  0.56529893510E+03 -0.67145847567E+03  0.14676121396E+04  0.17100598711E+04  0.00000000000E+00 0.  1.
<mgrwt>
<rscale>  0 0.18312103E+04</rscale>
<asrwt>0</asrwt>
<pdfrwt beam="1">  1        2 0.38367974E+00 0.18312103E+04</pdfrwt>
<pdfrwt beam="2">  1       -2 0.51715519E-01 0.18312103E+04</pdfrwt>
<totfact> 0.11683185E+01</totfact>
</mgrwt>
</event>
<event>
 6    1  0.1934315E-005  0.5807848E+03  0.7818608E-02  0.9946093E-01
          2   -1    0    0  501    0  0.00000000000E+00  0.00000000000E+00  0.12666281897E+04  0.12666281897E+04  0.00000000000E+00 0.  1.
         -2   -1    0    0    0  501 -0.00000000000E+00 -0.00000000000E+00 -0.66576552942E+02  0.66576552942E+02  0.00000000000E+00 0. -1.
         23    2    1    2    0    0  0.23294292320E+02  0.20689418109E+03  0.10560523747E+04  0.10800573277E+04  0.89047104249E+02 0.  0.
         13    1    3    3    0    0 -0.33739332388E+02  0.68972060701E+02  0.32845474436E+03  0.33730995657E+03  0.00000000000E+00 0. -1.
        -13    1    3    3    0    0  0.57033624708E+02  0.13792212039E+03  0.72759763035E+03  0.74274737114E+03  0.00000000000E+00 0.  1.
         22    1    1    2    0    0 -0.23294292320E+02 -0.20689418109E+03  0.14399926207E+03  0.25314741496E+03  0.00000000000E+00 0. -1.
<mgrwt>
<rscale>  0 0.58078478E+03</rscale>
<asrwt>0</asrwt>
<pdfrwt beam="1">  1        2 0.19486586E+00 0.58078478E+03</pdfrwt>
<pdfrwt beam="2">  1       -2 0.10242548E-01 0.58078478E+03</pdfrwt>
<totfact> 0.11568055E+03</totfact>
</mgrwt>
</event>
<event>
 6    1  0.1934315E-005  0.3757041E+04  0.7818608E-02  0.8055437E-01
         -2   -1    0    0    0  501 -0.00000000000E+00  0.00000000000E+00  0.19443785265E+04  0.19443785265E+04  0.00000000000E+00 0. -1.
          2   -1    0    0  501    0  0.00000000000E+00 -0.00000000000E+00 -0.18148931793E+04  0.18148931793E+04  0.00000000000E+00 0.  1.
         23    2    1    2    0    0  0.65141396495E+03 -0.12086299638E+04 -0.12165451088E+04  0.18365328959E+04  0.88003027587E+02 0.  0.
         13    1    3    3    0    0  0.20083830607E+03 -0.45532846676E+03 -0.46130782305E+03  0.67857567407E+03  0.00000000000E+00 0.  1.
        -13    1    3    3    0    0  0.45057565888E+03 -0.75330149703E+03 -0.75523728570E+03  0.11579572218E+04  0.00000000000E+00 0. -1.
         22    1    1    2    0    0 -0.65141396495E+03  0.12086299638E+04  0.13460304559E+04  0.19227388100E+04  0.00000000000E+00 0. -1.
<mgrwt>
<rscale>  0 0.37570410E+04</rscale>
<asrwt>0</asrwt>
<pdfrwt beam="1">  1        2 0.27921434E+00 0.37570410E+04</pdfrwt>
<pdfrwt beam="2">  1       -2 0.29913516E+00 0.37570410E+04</pdfrwt>
<totfact> 0.21916331E-01</totfact>
</mgrwt>
</event>
<event>
 6    1  0.1934315E-005  0.3638776E+04  0.7818608E-02  0.8081667E-01
          2   -1    0    0  501    0  0.00000000000E+00  0.00000000000E+00  0.22445243669E+04  0.22445243669E+04  0.00000000000E+00 0.  1.
         -2   -1    0    0    0  501 -0.00000000000E+00 -0.00000000000E+00 -0.14747773018E+04  0.14747773018E+04  0.00000000000E+00 0. -1.
         23    2    1    2    0    0  0.77529010361E+03 -0.15869899962E+04 -0.56330501141E+02  0.17694257399E+04  0.89901783896E+02 0.  0.
         11    1    3    3    0    0  0.50926448253E+03 -0.95592990543E+03 -0.56328594243E+02  0.10845852699E+04  0.00000000000E+00 0.  1.
        -11    1    3    3    0    0  0.26602562109E+03 -0.63106009075E+03 -0.19068986357E-02  0.68484046990E+03  0.00000000000E+00 0. -1.
         22    1    1    2    0    0 -0.77529010361E+03  0.15869899962E+04  0.82607756625E+03  0.19498759289E+04  0.00000000000E+00 0.  1.
<mgrwt>
<rscale>  0 0.36387765E+04</rscale>
<asrwt>0</asrwt>
<pdfrwt beam="1">  1        2 0.34531144E+00 0.36387765E+04</pdfrwt>
<pdfrwt beam="2">  1       -2 0.22688882E+00 0.36387765E+04</pdfrwt>
<totfact> 0.35411338E-01</totfact>
</mgrwt>
</event>
<event>
 6    1  0.1934315E-005  0.4340654E+04  0.7818608E-02  0.7939143E-01
          2   -1    0    0  501    0  0.00000000000E+00  0.00000000000E+00  0.23824719762E+04  0.23824719762E+04  0.00000000000E+00 0.  1.
         -2   -1    0    0    0  501 -0.00000000000E+00 -0.00000000000E+00 -0.19770725109E+04  0.19770725109E+04  0.00000000000E+00 0. -1.
         23    2    1    2    0    0  0.24013857625E+03  0.41462763233E+03 -0.19223295229E+04  0.19830123809E+04  0.86050560675E+02 0.  0.
         13    1    3    3    0    0  0.11455159674E+03  0.27525395990E+03 -0.12427721142E+04  0.12780333871E+04  0.00000000000E+00 0. -1.
        -13    1    3    3    0    0  0.12558697951E+03  0.13937367243E+03 -0.67955740870E+03  0.70497899381E+03  0.00000000000E+00 0.  1.
         22    1    1    2    0    0 -0.24013857625E+03 -0.41462763233E+03  0.23277289882E+04  0.23765321062E+04  0.00000000000E+00 0.  1.
<mgrwt>
<rscale>  0 0.43406543E+04</rscale>
<asrwt>0</asrwt>
<pdfrwt beam="1">  1        2 0.36653415E+00 0.43406543E+04</pdfrwt>
<pdfrwt beam="2">  1       -2 0.30416500E+00 0.43406543E+04</pdfrwt>
<totfact> 0.93585015E-02</totfact>
</mgrwt>
</event>
<event>
 6    1  0.1934315E-005  0.1515145E+04  0.7818608E-02  0.8874443E-01
         -2   -1    0    0    0  501 -0.00000000000E+00  0.00000000000E+00  0.18959883407E+04  0.18959883407E+04  0.00000000000E+00 0. -1.
          2   -1    0    0  501    0  0.00000000000E+00 -0.00000000000E+00 -0.30270035010E+03  0.30270035010E+03  0.00000000000E+00 0.  1.
         23    2    1    2    0    0 -0.58571973997E+03 -0.46901564911E+03  0.67993339297E+03  0.10166311990E+04  0.90478080320E+02 0.  0.
         11    1    3    3    0    0 -0.26274396508E+03 -0.15361800857E+03  0.27114328591E+03  0.40761693443E+03  0.00000000000E+00 0.  1.
        -11    1    3    3    0    0 -0.32297577489E+03 -0.31539764054E+03  0.40879010706E+03  0.60901426458E+03  0.00000000000E+00 0. -1.
         22    1    1    2    0    0  0.58571973997E+03  0.46901564911E+03  0.91335459765E+03  0.11820574918E+04  0.00000000000E+00 0.  1.
<mgrwt>
<rscale>  0 0.15151453E+04</rscale>
<asrwt>0</asrwt>
<pdfrwt beam="1">  1        2 0.46569286E-01 0.15151453E+04</pdfrwt>
<pdfrwt beam="2">  1       -2 0.29169051E+00 0.15151453E+04</pdfrwt>
<totfact> 0.37595122E+00</totfact>
</mgrwt>
</event>
<event>
 6    1  0.1934315E-005  0.2000846E+04  0.7818608E-02  0.8606225E-01
         -2   -1    0    0    0  501 -0.00000000000E+00  0.00000000000E+00  0.17595752958E+03  0.17595752958E+03  0.00000000000E+00 0. -1.
          2   -1    0    0  501    0  0.00000000000E+00 -0.00000000000E+00 -0.56880004111E+04  0.56880004111E+04  0.00000000000E+00 0.  1.
         23    2    1    2    0    0 -0.32813330106E+03  0.84180139181E+03 -0.15175641624E+04  0.17685750179E+04  0.92496272795E+02 0.  0.
         13    1    3    3    0    0 -0.23012517828E+03  0.46433914907E+03 -0.86759785991E+03  0.10105911585E+04  0.00000000000E+00 0. -1.
        -13    1    3    3    0    0 -0.98008122788E+02  0.37746224274E+03 -0.64996630244E+03  0.75798385942E+03  0.00000000000E+00 0.  1.
         22    1    1    2    0    0  0.32813330106E+03 -0.84180139181E+03 -0.39944787191E+04  0.40953829228E+04  0.00000000000E+00 0.  1.
<mgrwt>
<rscale>  0 0.20008463E+04</rscale>
<asrwt>0</asrwt>
<pdfrwt beam="1">  1        2 0.87507697E+00 0.20008463E+04</pdfrwt>
<pdfrwt beam="2">  1       -2 0.27070390E-01 0.20008463E+04</pdfrwt>
<totfact> 0.29969425E-02</totfact>
</mgrwt>
</event>
<event>
 6    1  0.1934315E-005  0.2771187E+04  0.7818608E-02  0.8312270E-01
          2   -1    0    0  501    0  0.00000000000E+00  0.00000000000E+00  0.31412228747E+04  0.31412228747E+04  0.00000000000E+00 0.  1.
         -2   -1    0    0    0  501 -0.00000000000E+00 -0.00000000000E+00 -0.61118524337E+03  0.61118524337E+03  0.00000000000E+00 0. -1.
         23    2    1    2    0    0  0.10757408786E+04 -0.27144967339E+03  0.23874181454E+04  0.26338180766E+04  0.79554361767E+02 0.  0.
         13    1    3    3    0    0  0.63313646968E+03 -0.13205477261E+03  0.13218338291E+04  0.14715790580E+04  0.00000000000E+00 0. -1.
        -13    1    3    3    0    0  0.44260440893E+03 -0.13939490077E+03  0.10655843163E+04  0.11622390186E+04  0.00000000000E+00 0.  1.
         22    1    1    2    0    0 -0.10757408786E+04  0.27144967339E+03  0.14261948591E+03  0.11185900415E+04  0.00000000000E+00 0. -1.
<mgrwt>
<rscale>  0 0.27711868E+04</rscale>
<asrwt>0</asrwt>
<pdfrwt beam="1">  1        2 0.48326505E+00 0.27711868E+04</pdfrwt>
<pdfrwt beam="2">  1       -2 0.94028500E-01 0.27711868E+04</pdfrwt>
<totfact> 0.11785068E+00</totfact>
</mgrwt>
</event>
<event>
 6    1  0.1934315E-005  0.1247624E+04  0.7818608E-02  0.9072163E-01
         -2   -1    0    0    0  501 -0.00000000000E+00  0.00000000000E+00  0.42861589644E+03  0.42861589644E+03  0.00000000000E+00 0. -1.
          2   -1    0    0  501    0  0.00000000000E+00 -0.00000000000E+00 -0.90790211290E+03  0.90790211290E+03  0.00000000000E+00 0.  1.
         23    2    1    2    0    0 -0.28087034855E+02 -0.52649219614E+03  0.10940286641E+03  0.54624100068E+03  0.91800487610E+02 0.  0.
         13    1    3    3    0    0 -0.52833031357E+02 -0.47028970292E+03  0.10441218644E+03  0.48462938267E+03  0.00000000000E+00 0.  1.
        -13    1    3    3    0    0  0.24745996502E+02 -0.56202493219E+02  0.49906799706E+01  0.61611618007E+02  0.00000000000E+00 0. -1.
         22    1    1    2    0    0  0.28087034855E+02  0.52649219614E+03 -0.58868908287E+03  0.79027700866E+03  0.00000000000E+00 0.  1.
<mgrwt>
<rscale>  0 0.12476238E+04</rscale>
<asrwt>0</asrwt>
<pdfrwt beam="1">  1        2 0.13967725E+00 0.12476238E+04</pdfrwt>
<pdfrwt beam="2">  1       -2 0.65940908E-01 0.12476238E+04</pdfrwt>
<totfact> 0.60317631E+01</totfact>
</mgrwt>
</event>
<event>
 6    1  0.1934315E-005  0.5214137E+04  0.7818608E-02  0.7796298E-01
          2   -1    0    0  501    0  0.00000000000E+00  0.00000000000E+00  0.39161898586E+04  0.39161898586E+04  0.00000000000E+00 0.  1.
         -2   -1    0    0    0  501 -0.00000000000E+00 -0.00000000000E+00 -0.17355659970E+04  0.17355659970E+04  0.00000000000E+00 0. -1.
         23    2    1    2    0    0  0.73526553668E+03  0.17238847397E+04  0.30538880896E+04  0.35841523112E+04  0.86725547633E+02 0.  0.
         11    1    3    3    0    0  0.23425864934E+03  0.60171519066E+03  0.11208589737E+04  0.12935467229E+04  0.00000000000E+00 0. -1.
        -11    1    3    3    0    0  0.50100688734E+03  0.11221695491E+04  0.19330291159E+04  0.22906055882E+04  0.00000000000E+00 0.  1.
         22    1    1    2    0    0 -0.73526553668E+03 -0.17238847397E+04 -0.87326422794E+03  0.20676035445E+04  0.00000000000E+00 0. -1.
<mgrwt>
<rscale>  0 0.52141369E+04</rscale>
<asrwt>0</asrwt>
<pdfrwt beam="1">  1        2 0.60249074E+00 0.52141369E+04</pdfrwt>
<pdfrwt beam="2">  1       -2 0.26701015E+00 0.52141369E+04</pdfrwt>
<totfact> 0.14382484E-02</totfact>
</mgrwt>
</event>
<event>
 6    1  0.1934315E-005  0.7991053E+03  0.7818608E-02  0.9561313E-01
          2   -1    0    0  501    0  0.00000000000E+00  0.00000000000E+00  0.29561904356E+04  0.29561904356E+04  0.00000000000E+00 0.  1.
         -2   -1    0    0    0  501 -0.00000000000E+00 -0.00000000000E+00 -0.54002714774E+02  0.54002714774E+02  0.00000000000E+00 0. -1.
         23    2    1    2    0    0  0.62867044070E+02 -0.13964072373E+03  0.28386267291E+04  0.28443866468E+04  0.96342577671E+02 0.  0.
         11    1    3    3    0    0 -0.13400899571E+02 -0.51282279153E+02  0.14114198397E+04  0.14124147480E+04  0.00000000000E+00 0. -1.
        -11    1    3    3    0    0  0.76267943642E+02 -0.88358444582E+02  0.14272068894E+04  0.14319718988E+04  0.00000000000E+00 0.  1.
         22    1    1    2    0    0 -0.62867044070E+02  0.13964072373E+03  0.63560991682E+02  0.16580650355E+03  0.00000000000E+00 0. -1.
<mgrwt>
<rscale>  0 0.79910527E+03</rscale>
<asrwt>0</asrwt>
<pdfrwt beam="1">  1        2 0.45479840E+00 0.79910527E+03</pdfrwt>
<pdfrwt beam="2">  1       -2 0.83081123E-02 0.79910527E+03</pdfrwt>
<totfact> 0.17997702E+02</totfact>
</mgrwt>
</event>
<event>
 6    1  0.1934315E-005  0.4173098E+04  0.7818608E-02  0.7970509E-01
         -2   -1    0    0    0  501 -0.00000000000E+00  0.00000000000E+00  0.14093085993E+04  0.14093085993E+04  0.00000000000E+00 0. -1.
          2   -1    0    0  501    0  0.00000000000E+00 -0.00000000000E+00 -0.30892357956E+04  0.30892357956E+04  0.00000000000E+00 0.  1.
         23    2    1    2    0    0  0.46101847669E+03  0.13569393302E+04 -0.24736779825E+04  0.28602945079E+04  0.91539768537E+02 0.  0.
         13    1    3    3    0    0  0.39042047720E+03  0.11291894001E+04 -0.19921131931E+04  0.23229317305E+04  0.00000000000E+00 0.  1.
        -13    1    3    3    0    0  0.70597999485E+02  0.22774993007E+03 -0.48156478937E+03  0.53736277740E+03  0.00000000000E+00 0. -1.
         22    1    1    2    0    0 -0.46101847669E+03 -0.13569393302E+04  0.79375078617E+03  0.16382498870E+04  0.00000000000E+00 0. -1.
<mgrwt>
<rscale>  0 0.41730979E+04</rscale>
<asrwt>0</asrwt>
<pdfrwt beam="1">  1        2 0.47526705E+00 0.41730979E+04</pdfrwt>
<pdfrwt beam="2">  1       -2 0.21681671E+00 0.41730979E+04</pdfrwt>
<totfact> 0.12306805E-01</totfact>
</mgrwt>
</event>
<event>
 6    1  0.1934315E-005  0.2473698E+04  0.7818608E-02  0.8412416E-01
          2   -1    0    0  501    0  0.00000000000E+00  0.00000000000E+00  0.32565024753E+04  0.32565024753E+04  0.00000000000E+00 0.  1.
         -2   -1    0    0    0  501 -0.00000000000E+00 -0.00000000000E+00 -0.46976641206E+03  0.46976641206E+03  0.00000000000E+00 0. -1.
         23    2    1    2    0    0 -0.48972627754E+03  0.19414767018E+03  0.30781192246E+04  0.31242478815E+04  0.92637571004E+02 0.  0.
         13    1    3    3    0    0 -0.69384193333E+02  0.35807902547E+02  0.67592703329E+03  0.68042172695E+03  0.00000000000E+00 0. -1.
        -13    1    3    3    0    0 -0.42034208421E+03  0.15833976763E+03  0.24021921913E+04  0.24438261546E+04  0.00000000000E+00 0.  1.
         22    1    1    2    0    0  0.48972627754E+03 -0.19414767018E+03 -0.29138316136E+03  0.60202100584E+03  0.00000000000E+00 0. -1.
<mgrwt>
<rscale>  0 0.24736980E+04</rscale>
<asrwt>0</asrwt>
<pdfrwt beam="1">  1        2 0.50100037E+00 0.24736980E+04</pdfrwt>
<pdfrwt beam="2">  1       -2 0.72271758E-01 0.24736980E+04</pdfrwt>
<totfact> 0.18455650E+00</totfact>
</mgrwt>
</event>
<event>
 6    1  0.1934315E-005  0.4832136E+04  0.7818608E-02  0.7854937E-01
         -2   -1    0    0    0  501 -0.00000000000E+00  0.00000000000E+00  0.23586252434E+04  0.23586252434E+04  0.00000000000E+00 0. -1.
          2   -1    0    0  501    0  0.00000000000E+00 -0.00000000000E+00 -0.24749095356E+04  0.24749095356E+04  0.00000000000E+00 0.  1.
         23    2    1    2    0    0  0.16611693544E+04 -0.17188452161E+04  0.28759283905E+03  0.24092762866E+04  0.89387264734E+02 0.  0.
         11    1    3    3    0    0  0.14456326778E+04 -0.14576944428E+04  0.23033758586E+03  0.20658611597E+04  0.00000000000E+00 0. -1.
        -11    1    3    3    0    0  0.21553667661E+03 -0.26115077325E+03  0.57255253182E+02  0.34341512685E+03  0.00000000000E+00 0.  1.
         22    1    1    2    0    0 -0.16611693544E+04  0.17188452161E+04 -0.40387713125E+03  0.24242584924E+04  0.00000000000E+00 0.  1.
<mgrwt>
<rscale>  0 0.48321358E+04</rscale>
<asrwt>0</asrwt>
<pdfrwt beam="1">  1        2 0.38075531E+00 0.48321358E+04</pdfrwt>
<pdfrwt beam="2">  1       -2 0.36286542E+00 0.48321358E+04</pdfrwt>
<totfact> 0.34248432E-02</totfact>
</mgrwt>
</event>
<event>
 6    1  0.1934315E-005  0.2659306E+04  0.7818608E-02  0.8348331E-01
         -2   -1    0    0    0  501 -0.00000000000E+00  0.00000000000E+00  0.11836883494E+04  0.11836883494E+04  0.00000000000E+00 0. -1.
          2   -1    0    0  501    0  0.00000000000E+00 -0.00000000000E+00 -0.14936169215E+04  0.14936169215E+04  0.00000000000E+00 0.  1.
         23    2    1    2    0    0 -0.30424477030E+03  0.58402279073E+02  0.11449641764E+04  0.11897943916E+04  0.93231017547E+02 0.  0.
         11    1    3    3    0    0 -0.12153199765E+03 -0.15534774174E+02  0.53167474218E+03  0.54560918902E+03  0.00000000000E+00 0.  1.
        -11    1    3    3    0    0 -0.18271277265E+03  0.73937053247E+02  0.61328943417E+03  0.64418520256E+03  0.00000000000E+00 0. -1.
         22    1    1    2    0    0  0.30424477030E+03 -0.58402279073E+02 -0.14548927485E+04  0.14875108793E+04  0.00000000000E+00 0.  1.
<mgrwt>
<rscale>  0 0.26593059E+04</rscale>
<asrwt>0</asrwt>
<pdfrwt beam="1">  1        2 0.22978722E+00 0.26593059E+04</pdfrwt>
<pdfrwt beam="2">  1       -2 0.18210590E+00 0.26593059E+04</pdfrwt>
<totfact> 0.19761049E+00</totfact>
</mgrwt>
</event>
<event>
 6    1  0.1934315E-005  0.6193169E+03  0.7818608E-02  0.9866121E-01
          2   -1    0    0  501    0  0.00000000000E+00  0.00000000000E+00  0.12721225817E+03  0.12721225817E+03  0.00000000000E+00 0.  1.
         -2   -1    0    0    0  501 -0.00000000000E+00 -0.00000000000E+00 -0.75376675420E+03  0.75376675420E+03  0.00000000000E+00 0. -1.
         23    2    1    2    0    0  0.21711206795E+03  0.16117002187E+03 -0.51386750536E+03  0.58804252802E+03  0.92848132458E+02 0.  0.
         11    1    3    3    0    0  0.13229727660E+03  0.12755372774E+03 -0.41296622413E+03  0.45201064714E+03  0.00000000000E+00 0. -1.
        -11    1    3    3    0    0  0.84814791348E+02  0.33616294128E+02 -0.10090128123E+03  0.13603188088E+03  0.00000000000E+00 0.  1.
         22    1    1    2    0    0 -0.21711206795E+03 -0.16117002187E+03 -0.11268699067E+03  0.29293648435E+03  0.00000000000E+00 0. -1.
<mgrwt>
<rscale>  0 0.61931695E+03</rscale>
<asrwt>0</asrwt>
<pdfrwt beam="1">  1        2 0.19571117E-01 0.61931695E+03</pdfrwt>
<pdfrwt beam="2">  1       -2 0.11596411E+00 0.61931695E+03</pdfrwt>
<totfact> 0.17058279E+02</totfact>
</mgrwt>
</event>
<event>
 6    1  0.1934315E-005  0.2218847E+04  0.7818608E-02  0.8510624E-01
          2   -1    0    0  501    0  0.00000000000E+00  0.00000000000E+00  0.35916799254E+04  0.35916799254E+04  0.00000000000E+00 0.  1.
         -2   -1    0    0    0  501 -0.00000000000E+00 -0.00000000000E+00 -0.34268646381E+03  0.34268646381E+03  0.00000000000E+00 0. -1.
         23    2    1    2    0    0 -0.41435545605E+03 -0.10095158466E+04  0.19631538532E+04  0.22478919047E+04  0.90731885452E+02 0.  0.
         13    1    3    3    0    0 -0.27483465021E+03 -0.70209211981E+03  0.14359594244E+04  0.16218652528E+04  0.00000000000E+00 0.  1.
        -13    1    3    3    0    0 -0.13952080584E+03 -0.30742372684E+03  0.52719442881E+03  0.62602665187E+03  0.00000000000E+00 0. -1.
         22    1    1    2    0    0  0.41435545605E+03  0.10095158466E+04  0.12858396084E+04  0.16864744845E+04  0.00000000000E+00 0. -1.
<mgrwt>
<rscale>  0 0.22188466E+04</rscale>
<asrwt>0</asrwt>
<pdfrwt beam="1">  1        2 0.55256612E+00 0.22188466E+04</pdfrwt>
<pdfrwt beam="2">  1       -2 0.52720997E-01 0.22188466E+04</pdfrwt>
<totfact> 0.21765609E+00</totfact>
</mgrwt>
</event>
<event>
 6    1  0.1934315E-005  0.5680796E+04  0.7818608E-02  0.7731290E-01
          2   -1    0    0  501    0  0.00000000000E+00  0.00000000000E+00  0.23432683450E+04  0.23432683450E+04  0.00000000000E+00 0.  1.
         -2   -1    0    0    0  501 -0.00000000000E+00 -0.00000000000E+00 -0.34429944695E+04  0.34429944695E+04  0.00000000000E+00 0. -1.
         23    2    1    2    0    0 -0.13161804545E+04 -0.14351913366E+04 -0.26552436698E+04  0.32939265620E+04  0.86764556713E+02 0.  0.
         11    1    3    3    0    0 -0.85346342327E+03 -0.95965899258E+03 -0.16890197912E+04  0.21218230492E+04  0.00000000000E+00 0.  1.
        -11    1    3    3    0    0 -0.46271703127E+03 -0.47553234402E+03 -0.96622387858E+03  0.11721035128E+04  0.00000000000E+00 0. -1.
         22    1    1    2    0    0  0.13161804545E+04  0.14351913366E+04  0.15555175453E+04  0.24923362525E+04  0.00000000000E+00 0.  1.
<mgrwt>
<rscale>  0 0.56807957E+04</rscale>
<asrwt>0</asrwt>
<pdfrwt beam="1">  1        2 0.36050282E+00 0.56807957E+04</pdfrwt>
<pdfrwt beam="2">  1       -2 0.52969145E+00 0.56807957E+04</pdfrwt>
<totfact> 0.32930373E-03</totfact>
</mgrwt>
</event>
<event>
 6    1  0.1934315E-005  0.1319560E+04  0.7818608E-02  0.9014196E-01
         -2   -1    0    0    0  501 -0.00000000000E+00  0.00000000000E+00  0.99338857941E+03  0.99338857941E+03  0.00000000000E+00 0. -1.
          2   -1    0    0  501    0  0.00000000000E+00 -0.00000000000E+00 -0.43820689527E+03  0.43820689527E+03  0.00000000000E+00 0.  1.
         23    2    1    2    0    0  0.42511025560E+02  0.31584908125E+03 -0.34397006323E+03  0.47763441980E+03  0.90837245448E+02 0.  0.
         13    1    3    3    0    0  0.11950183900E+02  0.14320491955E+03 -0.22050152770E+03  0.26319456605E+03  0.00000000000E+00 0. -1.
        -13    1    3    3    0    0  0.30560841660E+02  0.17264416170E+03 -0.12346853553E+03  0.21443985376E+03  0.00000000000E+00 0.  1.
         22    1    1    2    0    0 -0.42511025560E+02 -0.31584908125E+03  0.89915174737E+03  0.95396105488E+03  0.00000000000E+00 0. -1.
<mgrwt>
<rscale>  0 0.13195601E+04</rscale>
<asrwt>0</asrwt>
<pdfrwt beam="1">  1        2 0.67416446E-01 0.13195601E+04</pdfrwt>
<pdfrwt beam="2">  1       -2 0.15282901E+00 0.13195601E+04</pdfrwt>
<totfact> 0.19985710E+01</totfact>
</mgrwt>
</event>
<event>
 6    1  0.1934315E-005  0.1082191E+04  0.7818608E-02  0.9222725E-01
          1   -1    0    0  501    0  0.00000000000E+00  0.00000000000E+00  0.12509031612E+04  0.12509031612E+04  0.00000000000E+00 0. -1.
         -1   -1    0    0    0  501 -0.00000000000E+00 -0.00000000000E+00 -0.23405842691E+03  0.23405842691E+03  0.00000000000E+00 0.  1.
         23    2    1    2    0    0  0.47709254614E+03  0.64710629710E+02  0.83899508903E+03  0.97170214156E+03  0.92127787987E+02 0.  0.
         13    1    3    3    0    0  0.26884535186E+03 -0.86140644766E+01  0.48104869136E+03  0.55114414520E+03  0.00000000000E+00 0.  1.
        -13    1    3    3    0    0  0.20824719428E+03  0.73324694187E+02  0.35794639767E+03  0.42055799636E+03  0.00000000000E+00 0. -1.
         22    1    1    2    0    0 -0.47709254614E+03 -0.64710629710E+02  0.17784964529E+03  0.51325944659E+03  0.00000000000E+00 0.  1.
<mgrwt>
<rscale>  0 0.10821912E+04</rscale>
<asrwt>0</asrwt>
<pdfrwt beam="1">  1        1 0.19244664E+00 0.10821912E+04</pdfrwt>
<pdfrwt beam="2">  1       -1 0.36008989E-01 0.10821912E+04</pdfrwt>
<totfact> 0.72116828E+01</totfact>
</mgrwt>
</event>
<event>
 6    1  0.1934315E-005  0.7811642E+03  0.7818608E-02  0.9587689E-01
          2   -1    0    0  501    0  0.00000000000E+00  0.00000000000E+00  0.45618728631E+03  0.45618728631E+03  0.00000000000E+00 0.  1.
         -2   -1    0    0    0  501 -0.00000000000E+00 -0.00000000000E+00 -0.33441173768E+03  0.33441173768E+03  0.00000000000E+00 0. -1.
         23    2    1    2    0    0 -0.34635536477E+02 -0.37828951053E+03  0.12473336976E+03  0.41071572234E+03  0.93949012153E+02 0.  0.
         11    1    3    3    0    0 -0.36977854065E+02 -0.14439693867E+03  0.90340462378E+02  0.17429640482E+03  0.00000000000E+00 0. -1.
        -11    1    3    3    0    0  0.23423175881E+01 -0.23389257186E+03  0.34392907381E+02  0.23641931753E+03  0.00000000000E+00 0.  1.
         22    1    1    2    0    0  0.34635536477E+02  0.37828951053E+03 -0.29578211279E+01  0.37988330165E+03  0.00000000000E+00 0. -1.
<mgrwt>
<rscale>  0 0.78116422E+03</rscale>
<asrwt>0</asrwt>
<pdfrwt beam="1">  1        2 0.70182660E-01 0.78116422E+03</pdfrwt>
<pdfrwt beam="2">  1       -2 0.51447959E-01 0.78116422E+03</pdfrwt>
<totfact> 0.24626933E+02</totfact>
</mgrwt>
</event>
<event>
 6    1  0.1934315E-005  0.1048802E+04  0.7818608E-02  0.9256582E-01
          2   -1    0    0  501    0  0.00000000000E+00  0.00000000000E+00  0.14828083852E+04  0.14828083852E+04  0.00000000000E+00 0.  1.
         -2   -1    0    0    0  501 -0.00000000000E+00 -0.00000000000E+00 -0.18545636347E+03  0.18545636347E+03  0.00000000000E+00 0. -1.
         23    2    1    2    0    0 -0.38219388732E+03 -0.21996830215E+02  0.92265361921E+02  0.40383211477E+03  0.89506714099E+02 0.  0.
         13    1    3    3    0    0 -0.12134491034E+03  0.27982521535E+02  0.63639787357E+01  0.12469205669E+03  0.00000000000E+00 0. -1.
        -13    1    3    3    0    0 -0.26084897698E+03 -0.49979351750E+02  0.85901383185E+02  0.27914005808E+03  0.00000000000E+00 0.  1.
         22    1    1    2    0    0  0.38219388732E+03  0.21996830215E+02  0.12050866598E+04  0.12644326339E+04  0.00000000000E+00 0.  1.
<mgrwt>
<rscale>  0 0.10488017E+04</rscale>
<asrwt>0</asrwt>
<pdfrwt beam="1">  1        2 0.22812436E+00 0.10488017E+04</pdfrwt>
<pdfrwt beam="2">  1       -2 0.28531749E-01 0.10488017E+04</pdfrwt>
<totfact> 0.14539775E+02</totfact>
</mgrwt>
</event>
<event>
 6    1  0.1934315E-005  0.2609793E+04  0.7818608E-02  0.8364882E-01
         -2   -1    0    0    0  501 -0.00000000000E+00  0.00000000000E+00  0.17408269508E+04  0.17408269508E+04  0.00000000000E+00 0. -1.
          2   -1    0    0  501    0  0.00000000000E+00 -0.00000000000E+00 -0.97812975703E+03  0.97812975703E+03  0.00000000000E+00 0.  1.
         23    2    1    2    0    0  0.54135188437E+03 -0.31907980321E+02  0.16164927917E+04  0.17074988961E+04  0.91779913529E+02 0.  0.
         13    1    3    3    0    0  0.47473910836E+02 -0.12581981936E+02  0.23963408482E+03  0.24461515302E+03  0.00000000000E+00 0.  1.
        -13    1    3    3    0    0  0.49387797353E+03 -0.19325998385E+02  0.13768587069E+04  0.14628837431E+04  0.00000000000E+00 0. -1.
         22    1    1    2    0    0 -0.54135188437E+03  0.31907980321E+02 -0.85379559793E+03  0.10114578118E+04  0.00000000000E+00 0.  1.
<mgrwt>
<rscale>  0 0.26097928E+04</rscale>
<asrwt>0</asrwt>
<pdfrwt beam="1">  1        2 0.15048150E+00 0.26097928E+04</pdfrwt>
<pdfrwt beam="2">  1       -2 0.26781953E+00 0.26097928E+04</pdfrwt>
<totfact> 0.11494047E+00</totfact>
</mgrwt>
</event>
<event>
 6    1  0.1934315E-005  0.4592747E+04  0.7818608E-02  0.7894598E-01
          2   -1    0    0  501    0  0.00000000000E+00  0.00000000000E+00  0.28700006487E+04  0.28700006487E+04  0.00000000000E+00 0.  1.
         -2   -1    0    0    0  501 -0.00000000000E+00 -0.00000000000E+00 -0.18373974456E+04  0.18373974456E+04  0.00000000000E+00 0. -1.
         23    2    1    2    0    0  0.60714018955E+03 -0.28455913359E+02 -0.17523213154E+04  0.18569185693E+04  0.89931263146E+02 0.  0.
         13    1    3    3    0    0  0.18083129657E+03 -0.31830694136E+02 -0.63551637117E+03  0.66150903919E+03  0.00000000000E+00 0. -1.
        -13    1    3    3    0    0  0.42630889299E+03  0.33747807771E+01 -0.11168049442E+04  0.11954095302E+04  0.00000000000E+00 0.  1.
         22    1    1    2    0    0 -0.60714018955E+03  0.28455913359E+02  0.27849245184E+04  0.28504795250E+04  0.00000000000E+00 0.  1.
<mgrwt>
<rscale>  0 0.45927473E+04</rscale>
<asrwt>0</asrwt>
<pdfrwt beam="1">  1        2 0.44153856E+00 0.45927473E+04</pdfrwt>
<pdfrwt beam="2">  1       -2 0.28267653E+00 0.45927473E+04</pdfrwt>
<totfact> 0.63918618E-02</totfact>
</mgrwt>
</event>
<event>
 6    1  0.2210579E-005  0.3669326E+04  0.7818608E-02  0.8074794E-01
          2   -1    0    0  501    0  0.00000000000E+00  0.00000000000E+00  0.20595851948E+04  0.20595851948E+04  0.00000000000E+00 0.  1.
         -2   -1    0    0    0  501 -0.00000000000E+00 -0.00000000000E+00 -0.16343038587E+04  0.16343038587E+04  0.00000000000E+00 0. -1.
         23    2    1    2    0    0 -0.12586998390E+04 -0.80932891818E+03 -0.85379435857E+03  0.17252922906E+04  0.91269375442E+02 0.  0.
         11    1    3    3    0    0 -0.42132710274E+03 -0.30174274910E+03 -0.33586997663E+03  0.61755473874E+03  0.00000000000E+00 0. -1.
        -11    1    3    3    0    0 -0.83737273621E+03 -0.50758616908E+03 -0.51792438194E+03  0.11077375519E+04  0.00000000000E+00 0.  1.
         22    1    1    2    0    0  0.12586998390E+04  0.80932891818E+03  0.12790756946E+04  0.19685967629E+04  0.00000000000E+00 0.  1.
<mgrwt>
<rscale>  0 0.36693258E+04</rscale>
<asrwt>0</asrwt>
<pdfrwt beam="1">  1        2 0.31685926E+00 0.36693258E+04</pdfrwt>
<pdfrwt beam="2">  1       -2 0.25143136E+00 0.36693258E+04</pdfrwt>
<totfact> 0.31589204E-01</totfact>
</mgrwt>
</event>
<event>
 6    1  0.1934315E-005  0.2329215E+04  0.7818608E-02  0.8466490E-01
          2   -1    0    0  501    0  0.00000000000E+00  0.00000000000E+00  0.23392656893E+04  0.23392656893E+04  0.00000000000E+00 0.  1.
         -2   -1    0    0    0  501 -0.00000000000E+00 -0.00000000000E+00 -0.57980208643E+03  0.57980208643E+03  0.00000000000E+00 0. -1.
         23    2    1    2    0    0  0.78796615777E+03 -0.63782071290E+03  0.16727921147E+03  0.10315410703E+04  0.91589942017E+02 0.  0.
         11    1    3    3    0    0  0.58742655078E+03 -0.48925820278E+03  0.87258480510E+02  0.76945278216E+03  0.00000000000E+00 0. -1.
        -11    1    3    3    0    0  0.20053960698E+03 -0.14856251012E+03  0.80020730961E+02  0.26208828811E+03  0.00000000000E+00 0.  1.
         22    1    1    2    0    0 -0.78796615777E+03  0.63782071290E+03  0.15921843914E+04  0.18875267054E+04  0.00000000000E+00 0.  1.
<mgrwt>
<rscale>  0 0.23292154E+04</rscale>
<asrwt>0</asrwt>
<pdfrwt beam="1">  1        2 0.35988702E+00 0.23292154E+04</pdfrwt>
<pdfrwt beam="2">  1       -2 0.89200323E-01 0.23292154E+04</pdfrwt>
<totfact> 0.42012680E+00</totfact>
</mgrwt>
</event>
<event>
 6    1  0.1934315E-005  0.4507067E+04  0.7818608E-02  0.7909401E-01
          2   -1    0    0  501    0  0.00000000000E+00  0.00000000000E+00  0.42996117781E+04  0.42996117781E+04  0.00000000000E+00 0.  1.
         -2   -1    0    0    0  501 -0.00000000000E+00 -0.00000000000E+00 -0.11811327728E+04  0.11811327728E+04  0.00000000000E+00 0. -1.
         23    2    1    2    0    0  0.18579321473E+04  0.12279520396E+04  0.11483732588E+04  0.25073467088E+04  0.90820156638E+02 0.  0.
         13    1    3    3    0    0  0.14377475837E+04  0.92216108242E+03  0.84592291829E+03  0.19060652559E+04  0.00000000000E+00 0. -1.
        -13    1    3    3    0    0  0.42018456369E+03  0.30579095715E+03  0.30245034056E+03  0.60128145285E+03  0.00000000000E+00 0.  1.
         22    1    1    2    0    0 -0.18579321473E+04 -0.12279520396E+04  0.19701057464E+04  0.29733978422E+04  0.00000000000E+00 0. -1.
<mgrwt>
<rscale>  0 0.45070666E+04</rscale>
<asrwt>0</asrwt>
<pdfrwt beam="1">  1        2 0.66147873E+00 0.45070666E+04</pdfrwt>
<pdfrwt beam="2">  1       -2 0.18171274E+00 0.45070666E+04</pdfrwt>
<totfact> 0.25200788E-02</totfact>
</mgrwt>
</event>
<event>
 6    1  0.1934315E-005  0.7034061E+03  0.7818608E-02  0.9711425E-01
          2   -1    0    0  501    0  0.00000000000E+00  0.00000000000E+00  0.31530115986E+04  0.31530115986E+04  0.00000000000E+00 0.  1.
         -2   -1    0    0    0  501 -0.00000000000E+00 -0.00000000000E+00 -0.39230754227E+02  0.39230754227E+02  0.00000000000E+00 0. -1.
         23    2    1    2    0    0  0.42649353194E+02 -0.34121394420E+03  0.15150073657E+04  0.15569067422E+04  0.10230035656E+03 0.  0.
         11    1    3    3    0    0  0.54098683265E+02 -0.89393162584E+02  0.52613321603E+03  0.53640839485E+03  0.00000000000E+00 0.  1.
        -11    1    3    3    0    0 -0.11449330071E+02 -0.25182078162E+03  0.98887414963E+03  0.10204983474E+04  0.00000000000E+00 0. -1.
         22    1    1    2    0    0 -0.42649353194E+02  0.34121394420E+03  0.15987734787E+04  0.16353356106E+04  0.00000000000E+00 0.  1.
<mgrwt>
<rscale>  0 0.70340607E+03</rscale>
<asrwt>0</asrwt>
<pdfrwt beam="1">  1        2 0.48507851E+00 0.70340607E+03</pdfrwt>
<pdfrwt beam="2">  1       -2 0.60355031E-02 0.70340607E+03</pdfrwt>
<totfact> 0.22839165E+02</totfact>
</mgrwt>
</event>
<event>
 6    1  0.1934315E-005  0.3476784E+04  0.7818608E-02  0.8119314E-01
         -2   -1    0    0    0  501 -0.00000000000E+00  0.00000000000E+00  0.16275962846E+04  0.16275962846E+04  0.00000000000E+00 0. -1.
          2   -1    0    0  501    0  0.00000000000E+00 -0.00000000000E+00 -0.18567295538E+04  0.18567295538E+04  0.00000000000E+00 0.  1.
         23    2    1    2    0    0 -0.17843905665E+03 -0.46371449019E+03 -0.17828882494E+04  0.18530606350E+04  0.90948238285E+02 0.  0.
         13    1    3    3    0    0 -0.10043511614E+03 -0.33530390004E+03 -0.13582522940E+04  0.14026279664E+04  0.00000000000E+00 0. -1.
        -13    1    3    3    0    0 -0.78003940514E+02 -0.12841059015E+03 -0.42463595539E+03  0.45043266867E+03  0.00000000000E+00 0.  1.
         22    1    1    2    0    0  0.17843905665E+03  0.46371449019E+03  0.15537549801E+04  0.16312652033E+04  0.00000000000E+00 0. -1.
<mgrwt>
<rscale>  0 0.34767836E+04</rscale>
<asrwt>0</asrwt>
<pdfrwt beam="1">  1        2 0.28565070E+00 0.34767836E+04</pdfrwt>
<pdfrwt beam="2">  1       -2 0.25039943E+00 0.34767836E+04</pdfrwt>
<totfact> 0.42220089E-01</totfact>
</mgrwt>
</event>
<event>
 6    1  0.1934315E-005  0.1810753E+04  0.7818608E-02  0.8700602E-01
         -2   -1    0    0    0  501 -0.00000000000E+00  0.00000000000E+00  0.29210715820E+03  0.29210715820E+03  0.00000000000E+00 0.  1.
          2   -1    0    0  501    0  0.00000000000E+00 -0.00000000000E+00 -0.28061853301E+04  0.28061853301E+04  0.00000000000E+00 0. -1.
         23    2    1    2    0    0 -0.43476614109E+03  0.55352617213E+03 -0.29203045204E+03  0.76743237023E+03  0.90872643263E+02 0.  0.
         13    1    3    3    0    0 -0.19623195360E+03  0.32323130680E+03 -0.15553242172E+03  0.40887136304E+03  0.00000000000E+00 0.  1.
        -13    1    3    3    0    0 -0.23853418748E+03  0.23029486533E+03 -0.13649803032E+03  0.35856100719E+03  0.00000000000E+00 0. -1.
         22    1    1    2    0    0  0.43476614109E+03 -0.55352617213E+03 -0.22220477198E+04  0.23308601180E+04  0.00000000000E+00 0. -1.
<mgrwt>
<rscale>  0 0.18107532E+04</rscale>
<asrwt>0</asrwt>
<pdfrwt beam="1">  1        2 0.43172084E+00 0.18107532E+04</pdfrwt>
<pdfrwt beam="2">  1       -2 0.44939561E-01 0.18107532E+04</pdfrwt>
<totfact> 0.10180520E+01</totfact>
</mgrwt>
</event>
<event>
 6    1  0.1934315E-005  0.3120672E+04  0.7818608E-02  0.8210088E-01
          2   -1    0    0  501    0  0.00000000000E+00  0.00000000000E+00  0.41144811977E+04  0.41144811977E+04  0.00000000000E+00 0.  1.
         -2   -1    0    0    0  501 -0.00000000000E+00 -0.00000000000E+00 -0.59172660525E+03  0.59172660525E+03  0.00000000000E+00 0. -1.
         23    2    1    2    0    0 -0.55854343726E+03 -0.90879599741E+03  0.34773956083E+04  0.36385288373E+04  0.93439538554E+02 0.  0.
         11    1    3    3    0    0 -0.34842905281E+03 -0.62044799576E+03  0.21979315777E+04  0.23102514453E+04  0.00000000000E+00 0. -1.
        -11    1    3    3    0    0 -0.21011438445E+03 -0.28834800165E+03  0.12794640306E+04  0.13282773921E+04  0.00000000000E+00 0.  1.
         22    1    1    2    0    0  0.55854343726E+03  0.90879599741E+03  0.45358984183E+02  0.10676789656E+04  0.00000000000E+00 0. -1.
<mgrwt>
<rscale>  0 0.31206717E+04</rscale>
<asrwt>0</asrwt>
<pdfrwt beam="1">  1        2 0.63299709E+00 0.31206717E+04</pdfrwt>
<pdfrwt beam="2">  1       -2 0.91034865E-01 0.31206717E+04</pdfrwt>
<totfact> 0.23972709E-01</totfact>
</mgrwt>
</event>
<event>
 6    1  0.1934315E-005  0.1657573E+04  0.7818608E-02  0.8785939E-01
          2   -1    0    0  501    0  0.00000000000E+00  0.00000000000E+00  0.80841452014E+03  0.80841452014E+03  0.00000000000E+00 0.  1.
         -2   -1    0    0    0  501 -0.00000000000E+00 -0.00000000000E+00 -0.84967186911E+03  0.84967186911E+03  0.00000000000E+00 0. -1.
         23    2    1    2    0    0  0.47363032221E+03 -0.59098202534E+03 -0.35073829414E+03  0.83993976925E+03  0.94318760671E+02 0.  0.
         13    1    3    3    0    0  0.39371351667E+03 -0.42924920593E+03 -0.27836601368E+03  0.64556397945E+03  0.00000000000E+00 0. -1.
        -13    1    3    3    0    0  0.79916805538E+02 -0.16173281941E+03 -0.72372280460E+02  0.19437578980E+03  0.00000000000E+00 0.  1.
         22    1    1    2    0    0 -0.47363032221E+03  0.59098202534E+03  0.30948094517E+03  0.81814661999E+03  0.00000000000E+00 0. -1.
<mgrwt>
<rscale>  0 0.16575730E+04</rscale>
<asrwt>0</asrwt>
<pdfrwt beam="1">  1        2 0.12437147E+00 0.16575730E+04</pdfrwt>
<pdfrwt beam="2">  1       -2 0.13071875E+00 0.16575730E+04</pdfrwt>
<totfact> 0.13885823E+01</totfact>
</mgrwt>
</event>
<event>
 6    1  0.1934315E-005  0.2533319E+04  0.7818608E-02  0.8391211E-01
          2   -1    0    0  501    0  0.00000000000E+00  0.00000000000E+00  0.83999085884E+03  0.83999085884E+03  0.00000000000E+00 0.  1.
         -2   -1    0    0    0  501 -0.00000000000E+00 -0.00000000000E+00 -0.19100513667E+04  0.19100513667E+04  0.00000000000E+00 0. -1.
         23    2    1    2    0    0  0.11459783854E+04 -0.51593010709E+03 -0.37838773092E+03  0.13155173684E+04  0.89209508729E+02 0.  0.
         11    1    3    3    0    0  0.32362923272E+03 -0.10794020740E+03 -0.82129816101E+02  0.35090208796E+03  0.00000000000E+00 0. -1.
        -11    1    3    3    0    0  0.82234915272E+03 -0.40798989969E+03 -0.29625791482E+03  0.96461528047E+03  0.00000000000E+00 0.  1.
         22    1    1    2    0    0 -0.11459783854E+04  0.51593010709E+03 -0.69167277693E+03  0.14345248571E+04  0.00000000000E+00 0.  1.
<mgrwt>
<rscale>  0 0.25333185E+04</rscale>
<asrwt>0</asrwt>
<pdfrwt beam="1">  1        2 0.12922936E+00 0.25333185E+04</pdfrwt>
<pdfrwt beam="2">  1       -2 0.29385406E+00 0.25333185E+04</pdfrwt>
<totfact> 0.99442859E-01</totfact>
</mgrwt>
</event>
<event>
 6    1  0.1934315E-005  0.2866235E+04  0.7818608E-02  0.8282995E-01
          2   -1    0    0  501    0  0.00000000000E+00  0.00000000000E+00  0.24913334596E+04  0.24913334596E+04  0.00000000000E+00 0.  1.
         -2   -1    0    0    0  501 -0.00000000000E+00 -0.00000000000E+00 -0.82438789595E+03  0.82438789595E+03  0.00000000000E+00 0. -1.
         23    2    1    2    0    0  0.13443097405E+04 -0.45417034193E+03  0.61396128054E+03  0.15487422164E+04  0.90634546383E+02 0.  0.
         11    1    3    3    0    0  0.38790474750E+03 -0.13821583819E+03  0.22288625076E+03  0.46824351767E+03  0.00000000000E+00 0. -1.
        -11    1    3    3    0    0  0.95640499296E+03 -0.31595450374E+03  0.39107502978E+03  0.10804986987E+04  0.00000000000E+00 0.  1.
         22    1    1    2    0    0 -0.13443097405E+04  0.45417034193E+03  0.10529842831E+04  0.17669791391E+04  0.00000000000E+00 0. -1.
<mgrwt>
<rscale>  0 0.28662346E+04</rscale>
<asrwt>0</asrwt>
<pdfrwt beam="1">  1        2 0.38328207E+00 0.28662346E+04</pdfrwt>
<pdfrwt beam="2">  1       -2 0.12682891E+00 0.28662346E+04</pdfrwt>
<totfact> 0.14086078E+00</totfact>
</mgrwt>
</event>
<event>
 6    1  0.1934315E-005  0.2496434E+04  0.7818608E-02  0.8404257E-01
          2   -1    0    0  501    0  0.00000000000E+00  0.00000000000E+00  0.13150181904E+04  0.13150181904E+04  0.00000000000E+00 0.  1.
         -2   -1    0    0    0  501 -0.00000000000E+00 -0.00000000000E+00 -0.11848091644E+04  0.11848091644E+04  0.00000000000E+00 0. -1.
         23    2    1    2    0    0  0.61326857204E+03 -0.10687533220E+04  0.25393336123E+03  0.12614252731E+04  0.91539953235E+02 0.  0.
         11    1    3    3    0    0  0.46375254439E+03 -0.75342796230E+03  0.15034555571E+03  0.89739840813E+03  0.00000000000E+00 0. -1.
        -11    1    3    3    0    0  0.14951602765E+03 -0.31532535969E+03  0.10358780552E+03  0.36402686500E+03  0.00000000000E+00 0.  1.
         22    1    1    2    0    0 -0.61326857204E+03  0.10687533220E+04 -0.12372433530E+03  0.12384020817E+04  0.00000000000E+00 0. -1.
<mgrwt>
<rscale>  0 0.24964339E+04</rscale>
<asrwt>0</asrwt>
<pdfrwt beam="1">  1        2 0.20231049E+00 0.24964339E+04</pdfrwt>
<pdfrwt beam="2">  1       -2 0.18227833E+00 0.24964339E+04</pdfrwt>
<totfact> 0.25280292E+00</totfact>
</mgrwt>
</event>
<event>
 6    1  0.1934315E-005  0.1043488E+04  0.7818608E-02  0.9262093E-01
          2   -1    0    0  501    0  0.00000000000E+00  0.00000000000E+00  0.13000053095E+04  0.13000053095E+04  0.00000000000E+00 0.  1.
         -2   -1    0    0    0  501 -0.00000000000E+00 -0.00000000000E+00 -0.20939685007E+03  0.20939685007E+03  0.00000000000E+00 0. -1.
         23    2    1    2    0    0 -0.12847070747E+03 -0.47597767126E+03  0.77814296392E+03  0.92571204308E+03  0.91525123315E+02 0.  0.
         11    1    3    3    0    0 -0.66466110950E+02 -0.26654879032E+03  0.51540820655E+03  0.58404761869E+03  0.00000000000E+00 0.  1.
        -11    1    3    3    0    0 -0.62004596520E+02 -0.20942888095E+03  0.26273475737E+03  0.34166442439E+03  0.00000000000E+00 0. -1.
         22    1    1    2    0    0  0.12847070747E+03  0.47597767126E+03  0.31246549554E+03  0.58369011652E+03  0.00000000000E+00 0. -1.
<mgrwt>
<rscale>  0 0.10434884E+04</rscale>
<asrwt>0</asrwt>
<pdfrwt beam="1">  1        2 0.20000081E+00 0.10434884E+04</pdfrwt>
<pdfrwt beam="2">  1       -2 0.32214901E-01 0.10434884E+04</pdfrwt>
<totfact> 0.14752378E+02</totfact>
</mgrwt>
</event>
<event>
 6    1  0.1934315E-005  0.1709590E+04  0.7818608E-02  0.8755914E-01
         -3   -1    0    0    0  501 -0.00000000000E+00  0.00000000000E+00  0.15059593979E+04  0.15059593979E+04  0.00000000000E+00 0.  1.
          3   -1    0    0  501    0  0.00000000000E+00 -0.00000000000E+00 -0.48518863216E+03  0.48518863216E+03  0.00000000000E+00 0. -1.
         23    2    1    2    0    0 -0.21475509887E+03  0.33499624351E+03  0.13896478932E+04  0.14485500474E+04  0.93987963466E+02 0.  0.
         11    1    3    3    0    0 -0.99105356896E+02  0.20324869506E+03  0.91609799284E+03  0.94359283395E+03  0.00000000000E+00 0. -1.
        -11    1    3    3    0    0 -0.11564974197E+03  0.13174754846E+03  0.47354990034E+03  0.50495721349E+03  0.00000000000E+00 0.  1.
         22    1    1    2    0    0  0.21475509887E+03 -0.33499624351E+03 -0.36887712740E+03  0.54259798265E+03  0.00000000000E+00 0. -1.
<mgrwt>
<rscale>  0 0.17095899E+04</rscale>
<asrwt>0</asrwt>
<pdfrwt beam="1">  1        3 0.74644406E-01 0.17095899E+04</pdfrwt>
<pdfrwt beam="2">  1       -3 0.23168606E+00 0.17095899E+04</pdfrwt>
<totfact> 0.39552195E-01</totfact>
</mgrwt>
</event>
<event>
 6    1  0.1934315E-005  0.2657465E+04  0.7818608E-02  0.8348940E-01
          2   -1    0    0  501    0  0.00000000000E+00  0.00000000000E+00  0.14588504742E+04  0.14588504742E+04  0.00000000000E+00 0.  1.
         -2   -1    0    0    0  501 -0.00000000000E+00 -0.00000000000E+00 -0.12102199338E+04  0.12102199338E+04  0.00000000000E+00 0. -1.
         23    2    1    2    0    0  0.12079590598E+04  0.52640101459E+03  0.28395371716E+03  0.13509236615E+04  0.90010595503E+02 0.  0.
         11    1    3    3    0    0  0.17971835908E+03  0.60437455404E+02  0.68833795504E+02  0.20171630080E+03  0.00000000000E+00 0. -1.
        -11    1    3    3    0    0  0.10282407007E+04  0.46596355919E+03  0.21511992165E+03  0.11492073607E+04  0.00000000000E+00 0.  1.
         22    1    1    2    0    0 -0.12079590598E+04 -0.52640101459E+03 -0.35323176781E+02  0.13181467465E+04  0.00000000000E+00 0. -1.
<mgrwt>
<rscale>  0 0.26574649E+04</rscale>
<asrwt>0</asrwt>
<pdfrwt beam="1">  1        2 0.22443853E+00 0.26574649E+04</pdfrwt>
<pdfrwt beam="2">  1       -2 0.18618768E+00 0.26574649E+04</pdfrwt>
<totfact> 0.19395681E+00</totfact>
</mgrwt>
</event>
<event>
 6    1  0.2173409E-005  0.2509066E+04  0.7818608E-02  0.8399763E-01
         -2   -1    0    0    0  501 -0.00000000000E+00  0.00000000000E+00  0.92113702809E+03  0.92113702809E+03  0.00000000000E+00 0.  1.
          2   -1    0    0  501    0  0.00000000000E+00 -0.00000000000E+00 -0.17085982107E+04  0.17085982107E+04  0.00000000000E+00 0. -1.
         23    2    1    2    0    0 -0.99447002472E+03  0.63568508964E+03  0.46317605559E+02  0.11846562683E+04  0.90548275774E+02 0.  0.
         11    1    3    3    0    0 -0.50593109875E+03  0.28145417754E+03  0.50980933765E+02  0.58118997440E+03  0.00000000000E+00 0. -1.
        -11    1    3    3    0    0 -0.48853892597E+03  0.35423091210E+03 -0.46633282053E+01  0.60346629392E+03  0.00000000000E+00 0.  1.
         22    1    1    2    0    0  0.99447002472E+03 -0.63568508964E+03 -0.83377878816E+03  0.14450789704E+04  0.00000000000E+00 0. -1.
<mgrwt>
<rscale>  0 0.25090660E+04</rscale>
<asrwt>0</asrwt>
<pdfrwt beam="1">  1        2 0.26286126E+00 0.25090660E+04</pdfrwt>
<pdfrwt beam="2">  1       -2 0.14171339E+00 0.25090660E+04</pdfrwt>
<totfact> 0.30082706E+00</totfact>
</mgrwt>
</event>
<event>
 6    1  0.1934315E-005  0.3662709E+04  0.7818608E-02  0.8076277E-01
          2   -1    0    0  501    0  0.00000000000E+00  0.00000000000E+00  0.27656328281E+04  0.27656328281E+04  0.00000000000E+00 0.  1.
         -2   -1    0    0    0  501 -0.00000000000E+00 -0.00000000000E+00 -0.12126913989E+04  0.12126913989E+04  0.00000000000E+00 0. -1.
         23    2    1    2    0    0  0.91303868169E+03  0.12200347007E+04  0.18780335912E+04  0.24201813520E+04  0.90240243085E+02 0.  0.
         11    1    3    3    0    0  0.42119476707E+03  0.60955253966E+03  0.96861997019E+03  0.12195015281E+04  0.00000000000E+00 0. -1.
        -11    1    3    3    0    0  0.49184391462E+03  0.61048216099E+03  0.90941362106E+03  0.12006798239E+04  0.00000000000E+00 0.  1.
         22    1    1    2    0    0 -0.91303868169E+03 -0.12200347007E+04 -0.32509216202E+03  0.15581428750E+04  0.00000000000E+00 0. -1.
<mgrwt>
<rscale>  0 0.36627089E+04</rscale>
<asrwt>0</asrwt>
<pdfrwt beam="1">  1        2 0.42548197E+00 0.36627089E+04</pdfrwt>
<pdfrwt beam="2">  1       -2 0.18656791E+00 0.36627089E+04</pdfrwt>
<totfact> 0.32145544E-01</totfact>
</mgrwt>
</event>
<event>
 6    1  0.1934315E-005  0.2357033E+04  0.7818608E-02  0.8455767E-01
         -2   -1    0    0    0  501 -0.00000000000E+00  0.00000000000E+00  0.17020844652E+04  0.17020844652E+04  0.00000000000E+00 0. -1.
          2   -1    0    0  501    0  0.00000000000E+00 -0.00000000000E+00 -0.81600011626E+03  0.81600011626E+03  0.00000000000E+00 0.  1.
         23    2    1    2    0    0  0.27577278598E+03  0.64284989580E+03  0.14546238827E+04  0.16166724563E+04  0.91610986117E+02 0.  0.
         13    1    3    3    0    0  0.17682738361E+03  0.31034350181E+03  0.78835577309E+03  0.86549745099E+03  0.00000000000E+00 0. -1.
        -13    1    3    3    0    0  0.98945402370E+02  0.33250639400E+03  0.66626810960E+03  0.75117500529E+03  0.00000000000E+00 0.  1.
         22    1    1    2    0    0 -0.27577278598E+03 -0.64284989580E+03 -0.56853953373E+03  0.90141212519E+03  0.00000000000E+00 0.  1.
<mgrwt>
<rscale>  0 0.23570330E+04</rscale>
<asrwt>0</asrwt>
<pdfrwt beam="1">  1        2 0.12553848E+00 0.23570330E+04</pdfrwt>
<pdfrwt beam="2">  1       -2 0.26185915E+00 0.23570330E+04</pdfrwt>
<totfact> 0.16451062E+00</totfact>
</mgrwt>
</event>
<event>
 6    1  0.1934315E-005  0.3431132E+04  0.7818608E-02  0.8130308E-01
          2   -1    0    0  501    0  0.00000000000E+00  0.00000000000E+00  0.26569158962E+04  0.26569158962E+04  0.00000000000E+00 0.  1.
         -2   -1    0    0    0  501 -0.00000000000E+00 -0.00000000000E+00 -0.11077378461E+04  0.11077378461E+04  0.00000000000E+00 0. -1.
         23    2    1    2    0    0 -0.96504474383E+03  0.14167600566E+04  0.79629466833E+03  0.18923947318E+04  0.92478141119E+02 0.  0.
         13    1    3    3    0    0 -0.16945704074E+03  0.19174956767E+03  0.12664885550E+03  0.28552323541E+03  0.00000000000E+00 0. -1.
        -13    1    3    3    0    0 -0.79558770309E+03  0.12250104890E+04  0.66964581283E+03  0.16068714964E+04  0.00000000000E+00 0.  1.
         22    1    1    2    0    0  0.96504474383E+03 -0.14167600566E+04  0.75288338184E+03  0.18722590105E+04  0.00000000000E+00 0.  1.
<mgrwt>
<rscale>  0 0.34311318E+04</rscale>
<asrwt>0</asrwt>
<pdfrwt beam="1">  1        2 0.40875629E+00 0.34311318E+04</pdfrwt>
<pdfrwt beam="2">  1       -2 0.17042121E+00 0.34311318E+04</pdfrwt>
<totfact> 0.49254267E-01</totfact>
</mgrwt>
</event>
<event>
 6    1  0.1934315E-005  0.2657283E+04  0.7818608E-02  0.8349000E-01
          2   -1    0    0  501    0  0.00000000000E+00  0.00000000000E+00  0.15814699696E+04  0.15814699696E+04  0.00000000000E+00 0.  1.
         -2   -1    0    0    0  501 -0.00000000000E+00 -0.00000000000E+00 -0.11162327163E+04  0.11162327163E+04  0.00000000000E+00 0. -1.
         23    2    1    2    0    0  0.94049281866E+02  0.99136341095E+03  0.11235679052E+04  0.15039498107E+04  0.88394092970E+02 0.  0.
         11    1    3    3    0    0  0.75314920809E+02  0.95378502963E+03  0.10618408755E+04  0.14292950238E+04  0.00000000000E+00 0.  1.
        -11    1    3    3    0    0  0.18734361057E+02  0.37578381323E+02  0.61727029644E+02  0.74654786958E+02  0.00000000000E+00 0. -1.
         22    1    1    2    0    0 -0.94049281866E+02 -0.99136341095E+03 -0.65833065187E+03  0.11937528753E+04  0.00000000000E+00 0. -1.
<mgrwt>
<rscale>  0 0.26572832E+04</rscale>
<asrwt>0</asrwt>
<pdfrwt beam="1">  1        2 0.24330307E+00 0.26572832E+04</pdfrwt>
<pdfrwt beam="2">  1       -2 0.17172811E+00 0.26572832E+04</pdfrwt>
<totfact> 0.20838190E+00</totfact>
</mgrwt>
</event>
<event>
 6    1  0.1934315E-005  0.1201993E+04  0.7818608E-02  0.9111113E-01
          1   -1    0    0  501    0  0.00000000000E+00  0.00000000000E+00  0.82263139606E+03  0.82263139606E+03  0.00000000000E+00 0.  1.
         -1   -1    0    0    0  501 -0.00000000000E+00 -0.00000000000E+00 -0.43907523206E+03  0.43907523206E+03  0.00000000000E+00 0. -1.
         23    2    1    2    0    0  0.56699048823E+03  0.45689382831E+02  0.38399569015E+03  0.69287807167E+03  0.95192429912E+02 0.  0.
         11    1    3    3    0    0  0.37102947368E+03 -0.14630013176E+02  0.25945515034E+03  0.45298331389E+03  0.00000000000E+00 0.  1.
        -11    1    3    3    0    0  0.19596101455E+03  0.60319396007E+02  0.12454053980E+03  0.23989475779E+03  0.00000000000E+00 0. -1.
         22    1    1    2    0    0 -0.56699048823E+03 -0.45689382831E+02 -0.43952614464E+00  0.56882855644E+03  0.00000000000E+00 0. -1.
<mgrwt>
<rscale>  0 0.12019935E+04</rscale>
<asrwt>0</asrwt>
<pdfrwt beam="1">  1        1 0.12655868E+00 0.12019935E+04</pdfrwt>
<pdfrwt beam="2">  1       -1 0.67550036E-01 0.12019935E+04</pdfrwt>
<totfact> 0.46426172E+01</totfact>
</mgrwt>
</event>
<event>
 6    1  0.1934315E-005  0.1973243E+04  0.7818608E-02  0.8619233E-01
          2   -1    0    0  501    0  0.00000000000E+00  0.00000000000E+00  0.87390226768E+03  0.87390226768E+03  0.00000000000E+00 0.  1.
         -2   -1    0    0    0  501 -0.00000000000E+00 -0.00000000000E+00 -0.11138801160E+04  0.11138801160E+04  0.00000000000E+00 0. -1.
         23    2    1    2    0    0 -0.15693689940E+03 -0.51585164396E+02 -0.10978547418E+04  0.11141445960E+04  0.93503620818E+02 0.  0.
         13    1    3    3    0    0 -0.16593117969E+03 -0.55275441545E+02 -0.10773260428E+04  0.10914302238E+04  0.00000000000E+00 0. -1.
        -13    1    3    3    0    0  0.89942802875E+01  0.36902771496E+01 -0.20528698959E+02  0.22714372197E+02  0.00000000000E+00 0.  1.
         22    1    1    2    0    0  0.15693689940E+03  0.51585164396E+02  0.85787689352E+03  0.87363778765E+03  0.00000000000E+00 0.  1.
<mgrwt>
<rscale>  0 0.19732434E+04</rscale>
<asrwt>0</asrwt>
<pdfrwt beam="1">  1        2 0.13444650E+00 0.19732434E+04</pdfrwt>
<pdfrwt beam="2">  1       -2 0.17136617E+00 0.19732434E+04</pdfrwt>
<totfact> 0.59262108E+00</totfact>
</mgrwt>
</event>
<event>
 6    1  0.1934315E-005  0.4445080E+04  0.7818608E-02  0.7920323E-01
          2   -1    0    0  501    0  0.00000000000E+00  0.00000000000E+00  0.32516042380E+04  0.32516042380E+04  0.00000000000E+00 0.  1.
         -2   -1    0    0    0  501 -0.00000000000E+00 -0.00000000000E+00 -0.15191529152E+04  0.15191529152E+04  0.00000000000E+00 0. -1.
         23    2    1    2    0    0 -0.19011324002E+04 -0.81060877712E+03 -0.78501997291E+01  0.20688984629E+04  0.94277418319E+02 0.  0.
         11    1    3    3    0    0 -0.83270105555E+03 -0.39579106906E+03 -0.31631334298E+02  0.92251946297E+03  0.00000000000E+00 0. -1.
        -11    1    3    3    0    0 -0.10684313447E+04 -0.41481770807E+03  0.23781134569E+02  0.11463790000E+04  0.00000000000E+00 0.  1.
         22    1    1    2    0    0  0.19011324002E+04  0.81060877712E+03  0.17403015226E+04  0.27018586903E+04  0.00000000000E+00 0.  1.
<mgrwt>
<rscale>  0 0.44450800E+04</rscale>
<asrwt>0</asrwt>
<pdfrwt beam="1">  1        2 0.50024680E+00 0.44450800E+04</pdfrwt>
<pdfrwt beam="2">  1       -2 0.23371583E+00 0.44450800E+04</pdfrwt>
<totfact> 0.73899953E-02</totfact>
</mgrwt>
</event>
<event>
 6    1  0.1934315E-005  0.1166398E+04  0.7818608E-02  0.9142788E-01
         -2   -1    0    0    0  501 -0.00000000000E+00  0.00000000000E+00  0.14931331279E+03  0.14931331279E+03  0.00000000000E+00 0. -1.
          2   -1    0    0  501    0  0.00000000000E+00 -0.00000000000E+00 -0.22779012283E+04  0.22779012283E+04  0.00000000000E+00 0.  1.
         23    2    1    2    0    0  0.33355280561E+03  0.46886718689E+03 -0.93492723661E+03  0.11021033271E+04  0.97205415437E+02 0.  0.
         11    1    3    3    0    0  0.20728741312E+03  0.27459928300E+03 -0.46808585613E+03  0.58092788414E+03  0.00000000000E+00 0. -1.
        -11    1    3    3    0    0  0.12626539249E+03  0.19426790389E+03 -0.46684138048E+03  0.52117544296E+03  0.00000000000E+00 0.  1.
         22    1    1    2    0    0 -0.33355280561E+03 -0.46886718689E+03 -0.11936606789E+04  0.13251112140E+04  0.00000000000E+00 0.  1.
<mgrwt>
<rscale>  0 0.11663978E+04</rscale>
<asrwt>0</asrwt>
<pdfrwt beam="1">  1        2 0.35044630E+00 0.11663978E+04</pdfrwt>
<pdfrwt beam="2">  1       -2 0.22971282E-01 0.11663978E+04</pdfrwt>
<totfact> 0.77449280E+01</totfact>
</mgrwt>
</event>
<event>
 6    1  0.1934315E-005  0.1785254E+04  0.7818608E-02  0.8714181E-01
         -2   -1    0    0    0  501 -0.00000000000E+00  0.00000000000E+00  0.10424522762E+04  0.10424522762E+04  0.00000000000E+00 0.  1.
          2   -1    0    0  501    0  0.00000000000E+00 -0.00000000000E+00 -0.76433491309E+03  0.76433491309E+03  0.00000000000E+00 0. -1.
         23    2    1    2    0    0  0.22750310238E+03 -0.84323949132E+03  0.31585207646E+03  0.93258217329E+03  0.84477656334E+02 0.  0.
         13    1    3    3    0    0  0.16388282457E+03 -0.49116835262E+03  0.21686137580E+03  0.56136689172E+03  0.00000000000E+00 0. -1.
        -13    1    3    3    0    0  0.63620277813E+02 -0.35207113871E+03  0.98990700658E+02  0.37121528158E+03  0.00000000000E+00 0.  1.
         22    1    1    2    0    0 -0.22750310238E+03  0.84323949132E+03 -0.37734713395E+02  0.87420501595E+03  0.00000000000E+00 0. -1.
<mgrwt>
<rscale>  0 0.17852537E+04</rscale>
<asrwt>0</asrwt>
<pdfrwt beam="1">  1        2 0.11758999E+00 0.17852537E+04</pdfrwt>
<pdfrwt beam="2">  1       -2 0.16037727E+00 0.17852537E+04</pdfrwt>
<totfact> 0.86500281E+00</totfact>
</mgrwt>
</event>
<event>
 6    1  0.1934315E-005  0.3041208E+04  0.7818608E-02  0.8232061E-01
          1   -1    0    0  501    0  0.00000000000E+00  0.00000000000E+00  0.24559060221E+04  0.24559060221E+04  0.00000000000E+00 0.  1.
         -1   -1    0    0    0  501 -0.00000000000E+00 -0.00000000000E+00 -0.94150025979E+03  0.94150025979E+03  0.00000000000E+00 0. -1.
         23    2    1    2    0    0  0.24792941329E+03 -0.72108731940E+03  0.22258159942E+04  0.23545542146E+04  0.90734740373E+02 0.  0.
         13    1    3    3    0    0  0.12869275417E+02 -0.81723679804E+02  0.32487796285E+03  0.33524628087E+03  0.00000000000E+00 0.  1.
        -13    1    3    3    0    0  0.23506013787E+03 -0.63936363960E+03  0.19009380314E+04  0.20193079337E+04  0.00000000000E+00 0. -1.
         22    1    1    2    0    0 -0.24792941329E+03  0.72108731940E+03 -0.71141023192E+03  0.10428520673E+04  0.00000000000E+00 0. -1.
<mgrwt>
<rscale>  0 0.30412078E+04</rscale>
<asrwt>0</asrwt>
<pdfrwt beam="1">  1        1 0.37783169E+00 0.30412078E+04</pdfrwt>
<pdfrwt beam="2">  1       -1 0.14484619E+00 0.30412078E+04</pdfrwt>
<totfact> 0.47215408E-01</totfact>
</mgrwt>
</event>
<event>
 6    1  0.1934315E-005  0.1659839E+04  0.7818608E-02  0.8784607E-01
          2   -1    0    0  501    0  0.00000000000E+00  0.00000000000E+00  0.89281760083E+03  0.89281760083E+03  0.00000000000E+00 0.  1.
         -2   -1    0    0    0  501 -0.00000000000E+00 -0.00000000000E+00 -0.77145247082E+03  0.77145247082E+03  0.00000000000E+00 0. -1.
         23    2    1    2    0    0 -0.48043164739E+03 -0.66100746944E+03  0.19075627374E+03  0.84417216695E+03  0.92158824891E+02 0.  0.
         11    1    3    3    0    0 -0.44712222443E+02 -0.63999070166E+02  0.47287562215E+02  0.91275283391E+02  0.00000000000E+00 0.  1.
        -11    1    3    3    0    0 -0.43571942494E+03 -0.59700839928E+03  0.14346871153E+03  0.75289688356E+03  0.00000000000E+00 0. -1.
         22    1    1    2    0    0  0.48043164739E+03  0.66100746944E+03 -0.69391143737E+02  0.82009790470E+03  0.00000000000E+00 0. -1.
<mgrwt>
<rscale>  0 0.16598390E+04</rscale>
<asrwt>0</asrwt>
<pdfrwt beam="1">  1        2 0.13735655E+00 0.16598390E+04</pdfrwt>
<pdfrwt beam="2">  1       -2 0.11868500E+00 0.16598390E+04</pdfrwt>
<totfact> 0.15447009E+01</totfact>
</mgrwt>
</event>
<event>
 6    1  0.1934315E-005  0.4228359E+04  0.7818608E-02  0.7960000E-01
         -2   -1    0    0    0  501 -0.00000000000E+00  0.00000000000E+00  0.13040640609E+04  0.13040640609E+04  0.00000000000E+00 0. -1.
          2   -1    0    0  501    0  0.00000000000E+00 -0.00000000000E+00 -0.34275581954E+04  0.34275581954E+04  0.00000000000E+00 0.  1.
         23    2    1    2    0    0 -0.19526214022E+04 -0.76216627007E+03 -0.76205333925E+03  0.22321925608E+04  0.91271975029E+02 0.  0.
         11    1    3    3    0    0 -0.16358149701E+04 -0.60296336572E+03 -0.62420231640E+03  0.18517785960E+04  0.00000000000E+00 0. -1.
        -11    1    3    3    0    0 -0.31680643204E+03 -0.15920290435E+03 -0.13785102284E+03  0.38041396482E+03  0.00000000000E+00 0.  1.
         22    1    1    2    0    0  0.19526214022E+04  0.76216627007E+03 -0.13614407952E+04  0.24994296954E+04  0.00000000000E+00 0. -1.
<mgrwt>
<rscale>  0 0.42283592E+04</rscale>
<asrwt>0</asrwt>
<pdfrwt beam="1">  1        2 0.52731665E+00 0.42283592E+04</pdfrwt>
<pdfrwt beam="2">  1       -2 0.20062524E+00 0.42283592E+04</pdfrwt>
<totfact> 0.92989297E-02</totfact>
</mgrwt>
</event>
<event>
 6    1  0.1934315E-005  0.1068341E+04  0.7818608E-02  0.9236610E-01
          2   -1    0    0  501    0  0.00000000000E+00  0.00000000000E+00  0.55556458380E+03  0.55556458380E+03  0.00000000000E+00 0.  1.
         -2   -1    0    0    0  501 -0.00000000000E+00 -0.00000000000E+00 -0.51360056482E+03  0.51360056482E+03  0.00000000000E+00 0. -1.
         23    2    1    2    0    0  0.50953420183E+03 -0.14567187892E+03  0.10085898407E+01  0.53763646047E+03  0.90589995174E+02 0.  0.
         11    1    3    3    0    0  0.41571408627E+03 -0.10564213324E+03 -0.32792952647E+02  0.43017884604E+03  0.00000000000E+00 0. -1.
        -11    1    3    3    0    0  0.93820115567E+02 -0.40029745688E+02  0.33801542488E+02  0.10745761443E+03  0.00000000000E+00 0.  1.
         22    1    1    2    0    0 -0.50953420183E+03  0.14567187892E+03  0.40955429138E+02  0.53152868815E+03  0.00000000000E+00 0. -1.
<mgrwt>
<rscale>  0 0.10683413E+04</rscale>
<asrwt>0</asrwt>
<pdfrwt beam="1">  1        2 0.85471475E-01 0.10683413E+04</pdfrwt>
<pdfrwt beam="2">  1       -2 0.79015471E-01 0.10683413E+04</pdfrwt>
<totfact> 0.76956231E+01</totfact>
</mgrwt>
</event>
<event>
 6    1  0.1934315E-005  0.1368467E+04  0.7818608E-02  0.8976966E-01
          4   -1    0    0  501    0  0.00000000000E+00  0.00000000000E+00  0.37950653336E+03  0.37950653336E+03  0.00000000000E+00 0. -1.
         -4   -1    0    0    0  501 -0.00000000000E+00 -0.00000000000E+00 -0.12336418932E+04  0.12336418932E+04  0.00000000000E+00 0.  1.
         23    2    1    2    0    0  0.58658600480E+03  0.11379552305E+03 -0.43337601378E+02  0.60596146912E+03  0.90986769767E+02 0.  0.
         13    1    3    3    0    0  0.16389260385E+03  0.71382710365E+02 -0.27363406166E+02  0.18084532875E+03  0.00000000000E+00 0. -1.
        -13    1    3    3    0    0  0.42269340096E+03  0.42412812690E+02 -0.15974195212E+02  0.42511614037E+03  0.00000000000E+00 0.  1.
         22    1    1    2    0    0 -0.58658600480E+03 -0.11379552305E+03 -0.81079775843E+03  0.10071869574E+04  0.00000000000E+00 0. -1.
<mgrwt>
<rscale>  0 0.13684665E+04</rscale>
<asrwt>0</asrwt>
<pdfrwt beam="1">  1        4 0.58385620E-01 0.13684665E+04</pdfrwt>
<pdfrwt beam="2">  1       -4 0.18979106E+00 0.13684665E+04</pdfrwt>
<totfact> 0.83479189E-01</totfact>
</mgrwt>
</event>
<event>
 6    1  0.1934315E-005  0.3185978E+04  0.7818608E-02  0.8192530E-01
          2   -1    0    0  501    0  0.00000000000E+00  0.00000000000E+00  0.29660770383E+04  0.29660770383E+04  0.00000000000E+00 0.  1.
         -2   -1    0    0    0  501 -0.00000000000E+00 -0.00000000000E+00 -0.85554539399E+03  0.85554539399E+03  0.00000000000E+00 0. -1.
         23    2    1    2    0    0 -0.46716845139E+03  0.11972245003E+04 -0.70366446814E+02  0.12902375643E+04  0.90380691071E+02 0.  0.
         11    1    3    3    0    0 -0.38108425348E+03  0.87207123057E+03 -0.40568446759E+02  0.95256455861E+03  0.00000000000E+00 0. -1.
        -11    1    3    3    0    0 -0.86084197912E+02  0.32515326974E+03 -0.29798000055E+02  0.33767300568E+03  0.00000000000E+00 0.  1.
         22    1    1    2    0    0  0.46716845139E+03 -0.11972245003E+04  0.21808980911E+04  0.25313848680E+04  0.00000000000E+00 0.  1.
<mgrwt>
<rscale>  0 0.31859777E+04</rscale>
<asrwt>0</asrwt>
<pdfrwt beam="1">  1        2 0.45631954E+00 0.31859777E+04</pdfrwt>
<pdfrwt beam="2">  1       -2 0.13162237E+00 0.31859777E+04</pdfrwt>
<totfact> 0.64822218E-01</totfact>
</mgrwt>
</event>
<event>
 6    1  0.1934315E-005  0.4539954E+03  0.7818608E-02  0.1026537E+00
          2   -1    0    0  501    0  0.00000000000E+00  0.00000000000E+00  0.87223342852E+02  0.87223342852E+02  0.00000000000E+00 0.  1.
         -2   -1    0    0    0  501 -0.00000000000E+00 -0.00000000000E+00 -0.59075890042E+03  0.59075890042E+03  0.00000000000E+00 0. -1.
         23    2    1    2    0    0 -0.67884181313E+02 -0.98934962003E+02 -0.53343522737E+03  0.55432797107E+03  0.91268663460E+02 0.  0.
         11    1    3    3    0    0 -0.42291804328E+02  0.98482253232E+00 -0.22953659861E+03  0.23340226367E+03  0.00000000000E+00 0.  1.
        -11    1    3    3    0    0 -0.25592376985E+02 -0.99919784536E+02 -0.30389862876E+03  0.32092570739E+03  0.00000000000E+00 0. -1.
         22    1    1    2    0    0  0.67884181313E+02  0.98934962003E+02  0.29899669805E+02  0.12365427220E+03  0.00000000000E+00 0.  1.
<mgrwt>
<rscale>  0 0.45399545E+03</rscale>
<asrwt>0</asrwt>
<pdfrwt beam="1">  1        2 0.13418975E-01 0.45399545E+03</pdfrwt>
<pdfrwt beam="2">  1       -2 0.90885991E-01 0.45399545E+03</pdfrwt>
<totfact> 0.47904149E+02</totfact>
</mgrwt>
</event>
<event>
 6    1  0.1934315E-005  0.1208013E+04  0.7818608E-02  0.9105872E-01
         -1   -1    0    0    0  501 -0.00000000000E+00  0.00000000000E+00  0.44111760860E+03  0.44111760860E+03  0.00000000000E+00 0. -1.
          1   -1    0    0  501    0  0.00000000000E+00 -0.00000000000E+00 -0.82704374381E+03  0.82704374381E+03  0.00000000000E+00 0.  1.
         23    2    1    2    0    0  0.10716515501E+03 -0.94884043688E+02  0.41830513031E+03  0.45129215809E+03  0.90543236711E+02 0.  0.
         13    1    3    3    0    0  0.31290849288E+02 -0.80098913602E+02  0.15970130889E+03  0.18138208641E+03  0.00000000000E+00 0. -1.
        -13    1    3    3    0    0  0.75874305723E+02 -0.14785130086E+02  0.25860382142E+03  0.26991007168E+03  0.00000000000E+00 0.  1.
         22    1    1    2    0    0 -0.10716515501E+03  0.94884043688E+02 -0.80423126552E+03  0.81686919432E+03  0.00000000000E+00 0.  1.
<mgrwt>
<rscale>  0 0.12080125E+04</rscale>
<asrwt>0</asrwt>
<pdfrwt beam="1">  1        1 0.12723750E+00 0.12080125E+04</pdfrwt>
<pdfrwt beam="2">  1       -1 0.67864247E-01 0.12080125E+04</pdfrwt>
<totfact> 0.45569773E+01</totfact>
</mgrwt>
</event>
<event>
 6    1  0.5351461E-005  0.3595704E+04  0.7818608E-02  0.8091476E-01
         -2   -1    0    0    0  501 -0.00000000000E+00  0.00000000000E+00  0.19083060158E+04  0.19083060158E+04  0.00000000000E+00 0. -1.
          2   -1    0    0  501    0  0.00000000000E+00 -0.00000000000E+00 -0.16937910089E+04  0.16937910089E+04  0.00000000000E+00 0.  1.
         23    2    1    2    0    0  0.11436094149E+04  0.83426154504E+02 -0.12783365501E+04  0.17197027545E+04  0.91819449290E+02 0.  0.
         13    1    3    3    0    0  0.29755465511E+03 -0.43957011942E+01 -0.28658586635E+03  0.41314592308E+03  0.00000000000E+00 0. -1.
        -13    1    3    3    0    0  0.84605475979E+03  0.87821855698E+02 -0.99175068375E+03  0.13065568314E+04  0.00000000000E+00 0.  1.
         22    1    1    2    0    0 -0.11436094149E+04 -0.83426154504E+02  0.14928515570E+04  0.18823942702E+04  0.00000000000E+00 0. -1.
<mgrwt>
<rscale>  0 0.35957039E+04</rscale>
<asrwt>0</asrwt>
<pdfrwt beam="1">  1        2 0.26058323E+00 0.35957039E+04</pdfrwt>
<pdfrwt beam="2">  1       -2 0.29358554E+00 0.35957039E+04</pdfrwt>
<totfact> 0.28037689E-01</totfact>
</mgrwt>
</event>
<event>
 6    1  0.1934315E-005  0.2152961E+04  0.7818608E-02  0.8538266E-01
         -2   -1    0    0    0  501 -0.00000000000E+00  0.00000000000E+00  0.14729276846E+04  0.14729276846E+04  0.00000000000E+00 0. -1.
          2   -1    0    0  501    0  0.00000000000E+00 -0.00000000000E+00 -0.78673925312E+03  0.78673925312E+03  0.00000000000E+00 0.  1.
         23    2    1    2    0    0 -0.69738279971E+03 -0.75478760571E+03  0.13838677924E+02  0.10316191821E+04  0.89440084640E+02 0.  0.
         13    1    3    3    0    0 -0.40504539132E+03 -0.39904775099E+03 -0.27929089714E+02  0.56928104716E+03  0.00000000000E+00 0. -1.
        -13    1    3    3    0    0 -0.29233740839E+03 -0.35573985472E+03  0.41767767638E+02  0.46233813491E+03  0.00000000000E+00 0.  1.
         22    1    1    2    0    0  0.69738279971E+03  0.75478760571E+03  0.67234975360E+03  0.12280477557E+04  0.00000000000E+00 0. -1.
<mgrwt>
<rscale>  0 0.21529608E+04</rscale>
<asrwt>0</asrwt>
<pdfrwt beam="1">  1        2 0.12103681E+00 0.21529608E+04</pdfrwt>
<pdfrwt beam="2">  1       -2 0.22660426E+00 0.21529608E+04</pdfrwt>
<totfact> 0.29007508E+00</totfact>
</mgrwt>
</event>
<event>
 6    1  0.1934315E-005  0.1996074E+04  0.7818608E-02  0.8608458E-01
          2   -1    0    0  501    0  0.00000000000E+00  0.00000000000E+00  0.54643616182E+03  0.54643616182E+03  0.00000000000E+00 0.  1.
         -2   -1    0    0    0  501 -0.00000000000E+00 -0.00000000000E+00 -0.18228627179E+04  0.18228627179E+04  0.00000000000E+00 0. -1.
         23    2    1    2    0    0  0.80861310760E+03  0.35614541047E+03 -0.93928237819E+02  0.89315627690E+03  0.90614071328E+02 0.  0.
         13    1    3    3    0    0  0.63493813510E+03  0.26420677815E+03 -0.37637044125E+02  0.68874393219E+03  0.00000000000E+00 0. -1.
        -13    1    3    3    0    0  0.17367497249E+03  0.91938632319E+02 -0.56291193694E+02  0.20441234471E+03  0.00000000000E+00 0.  1.
         22    1    1    2    0    0 -0.80861310760E+03 -0.35614541047E+03 -0.11824983183E+04  0.14761426028E+04  0.00000000000E+00 0. -1.
<mgrwt>
<rscale>  0 0.19960743E+04</rscale>
<asrwt>0</asrwt>
<pdfrwt beam="1">  1        2 0.84067102E-01 0.19960743E+04</pdfrwt>
<pdfrwt beam="2">  1       -2 0.28044042E+00 0.19960743E+04</pdfrwt>
<totfact> 0.21589571E+00</totfact>
</mgrwt>
</event>
<event>
 6    1  0.1934315E-005  0.1208034E+04  0.7818608E-02  0.9105853E-01
          2   -1    0    0  501    0  0.00000000000E+00  0.00000000000E+00  0.22842837903E+04  0.22842837903E+04  0.00000000000E+00 0. -1.
         -2   -1    0    0    0  501 -0.00000000000E+00 -0.00000000000E+00 -0.15971606710E+03  0.15971606710E+03  0.00000000000E+00 0.  1.
         23    2    1    2    0    0 -0.38221042928E+03 -0.16506158508E+03  0.19440035832E+04  0.19902008405E+04  0.91756825036E+02 0.  0.
         11    1    3    3    0    0 -0.24680287618E+03 -0.12716074257E+03  0.10959810240E+04  0.11305998050E+04  0.00000000000E+00 0. -1.
        -11    1    3    3    0    0 -0.13540755310E+03 -0.37900842504E+02  0.84802255916E+03  0.85960103545E+03  0.00000000000E+00 0.  1.
         22    1    1    2    0    0  0.38221042928E+03  0.16506158508E+03  0.18056414005E+03  0.45379901696E+03  0.00000000000E+00 0.  1.
<mgrwt>
<rscale>  0 0.12080345E+04</rscale>
<asrwt>0</asrwt>
<pdfrwt beam="1">  1        2 0.35142825E+00 0.12080345E+04</pdfrwt>
<pdfrwt beam="2">  1       -2 0.24571704E-01 0.12080345E+04</pdfrwt>
<totfact> 0.67811220E+01</totfact>
</mgrwt>
</event>
<event>
 6    1  0.1934315E-005  0.5027565E+04  0.7818608E-02  0.7824269E-01
         -2   -1    0    0    0  501 -0.00000000000E+00  0.00000000000E+00  0.20893581005E+04  0.20893581005E+04  0.00000000000E+00 0. -1.
          2   -1    0    0  501    0  0.00000000000E+00 -0.00000000000E+00 -0.30244227909E+04  0.30244227909E+04  0.00000000000E+00 0.  1.
         23    2    1    2    0    0  0.24717621023E+04  0.21284412344E+02 -0.92845858408E+03  0.26419183230E+04  0.87385160264E+02 0.  0.
         11    1    3    3    0    0  0.52463457676E+03  0.35811555255E+02 -0.21596472057E+03  0.56847574016E+03  0.00000000000E+00 0.  1.
        -11    1    3    3    0    0  0.19471275256E+04 -0.14527142910E+02 -0.71249386351E+03  0.20734425828E+04  0.00000000000E+00 0. -1.
         22    1    1    2    0    0 -0.24717621023E+04 -0.21284412344E+02 -0.66061063387E+01  0.24718625685E+04  0.00000000000E+00 0.  1.
<mgrwt>
<rscale>  0 0.50275649E+04</rscale>
<asrwt>0</asrwt>
<pdfrwt beam="1">  1        2 0.46529581E+00 0.50275649E+04</pdfrwt>
<pdfrwt beam="2">  1       -2 0.32143971E+00 0.50275649E+04</pdfrwt>
<totfact> 0.28624962E-02</totfact>
</mgrwt>
</event>
<event>
 6    1  0.1934315E-005  0.3711603E+04  0.7818608E-02  0.8065395E-01
          2   -1    0    0  501    0  0.00000000000E+00  0.00000000000E+00  0.18492962104E+04  0.18492962104E+04  0.00000000000E+00 0.  1.
         -2   -1    0    0    0  501 -0.00000000000E+00 -0.00000000000E+00 -0.18623296185E+04  0.18623296185E+04  0.00000000000E+00 0. -1.
         23    2    1    2    0    0 -0.12932055077E+04  0.77732211581E+03  0.10720161328E+04  0.18531472405E+04  0.91246638565E+02 0.  0.
         11    1    3    3    0    0 -0.10552073861E+04  0.59203238658E+03  0.86313148306E+03  0.14862573571E+04  0.00000000000E+00 0.  1.
        -11    1    3    3    0    0 -0.23799812162E+03  0.18528972922E+03  0.20888464979E+03  0.36688988344E+03  0.00000000000E+00 0. -1.
         22    1    1    2    0    0  0.12932055077E+04 -0.77732211581E+03 -0.10850495409E+04  0.18584785883E+04  0.00000000000E+00 0. -1.
<mgrwt>
<rscale>  0 0.37116029E+04</rscale>
<asrwt>0</asrwt>
<pdfrwt beam="1">  1        2 0.28450711E+00 0.37116029E+04</pdfrwt>
<pdfrwt beam="2">  1       -2 0.28651225E+00 0.37116029E+04</pdfrwt>
<totfact> 0.25146062E-01</totfact>
</mgrwt>
</event>
<event>
 6    1  0.1934315E-005  0.2485126E+04  0.7818608E-02  0.8408304E-01
          2   -1    0    0  501    0  0.00000000000E+00  0.00000000000E+00  0.20222356854E+04  0.20222356854E+04  0.00000000000E+00 0.  1.
         -2   -1    0    0    0  501 -0.00000000000E+00 -0.00000000000E+00 -0.76349296718E+03  0.76349296718E+03  0.00000000000E+00 0. -1.
         23    2    1    2    0    0 -0.21190207234E+03  0.40756650031E+03 -0.66173556957E+03  0.81107683661E+03  0.94544859294E+02 0.  0.
         11    1    3    3    0    0 -0.58776465528E+02  0.11012932250E+03 -0.25904403461E+03  0.28755339059E+03  0.00000000000E+00 0. -1.
        -11    1    3    3    0    0 -0.15312560681E+03  0.29743717781E+03 -0.40269153496E+03  0.52352344602E+03  0.00000000000E+00 0.  1.
         22    1    1    2    0    0  0.21190207234E+03 -0.40756650031E+03  0.19204782878E+04  0.19746518160E+04  0.00000000000E+00 0.  1.
<mgrwt>
<rscale>  0 0.24851259E+04</rscale>
<asrwt>0</asrwt>
<pdfrwt beam="1">  1        2 0.31111318E+00 0.24851259E+04</pdfrwt>
<pdfrwt beam="2">  1       -2 0.11746046E+00 0.24851259E+04</pdfrwt>
<totfact> 0.32462499E+00</totfact>
</mgrwt>
</event>
<event>
 6    1  0.1934315E-005  0.2358967E+04  0.7818608E-02  0.8455027E-01
         -2   -1    0    0    0  501 -0.00000000000E+00  0.00000000000E+00  0.70252481115E+03  0.70252481115E+03  0.00000000000E+00 0. -1.
          2   -1    0    0  501    0  0.00000000000E+00 -0.00000000000E+00 -0.19802598300E+04  0.19802598300E+04  0.00000000000E+00 0.  1.
         23    2    1    2    0    0 -0.10542273696E+04 -0.78037575344E+01 -0.12366687127E+04  0.16277288668E+04  0.93249737414E+02 0.  0.
         11    1    3    3    0    0 -0.46255225083E+03  0.29525538807E+02 -0.49293447906E+03  0.67661713164E+03  0.00000000000E+00 0. -1.
        -11    1    3    3    0    0 -0.59167511874E+03 -0.37329296341E+02 -0.74373423363E+03  0.95111173517E+03  0.00000000000E+00 0.  1.
         22    1    1    2    0    0  0.10542273696E+04  0.78037575344E+01 -0.41066306109E+02  0.10550557743E+04  0.00000000000E+00 0. -1.
<mgrwt>
<rscale>  0 0.23589673E+04</rscale>
<asrwt>0</asrwt>
<pdfrwt beam="1">  1        2 0.30465536E+00 0.23589673E+04</pdfrwt>
<pdfrwt beam="2">  1       -2 0.10808074E+00 0.23589673E+04</pdfrwt>
<totfact> 0.42386899E+00</totfact>
</mgrwt>
</event>
<event>
 6    1  0.1934315E-005  0.2254553E+04  0.7818608E-02  0.8496059E-01
          2   -1    0    0  501    0  0.00000000000E+00  0.00000000000E+00  0.13344085475E+04  0.13344085475E+04  0.00000000000E+00 0. -1.
         -2   -1    0    0    0  501 -0.00000000000E+00 -0.00000000000E+00 -0.95229623389E+03  0.95229623389E+03  0.00000000000E+00 0.  1.
         23    2    1    2    0    0  0.18320513061E+03 -0.82673853518E+03  0.94328591737E+03  0.12708423207E+04  0.90505009471E+02 0.  0.
         13    1    3    3    0    0  0.78437091692E+01 -0.19529421425E+03  0.24070177781E+03  0.31006241264E+03  0.00000000000E+00 0. -1.
        -13    1    3    3    0    0  0.17536142144E+03 -0.63144432093E+03  0.70258413956E+03  0.96077990806E+03  0.00000000000E+00 0.  1.
         22    1    1    2    0    0 -0.18320513061E+03  0.82673853518E+03 -0.56117360378E+03  0.10158624607E+04  0.00000000000E+00 0.  1.
<mgrwt>
<rscale>  0 0.22545529E+04</rscale>
<asrwt>0</asrwt>
<pdfrwt beam="1">  1        2 0.20529362E+00 0.22545529E+04</pdfrwt>
<pdfrwt beam="2">  1       -2 0.14650711E+00 0.22545529E+04</pdfrwt>
<totfact> 0.45815838E+00</totfact>
</mgrwt>
</event>
<event>
 6    1  0.1934315E-005  0.1881924E+04  0.7818608E-02  0.8663906E-01
          2   -1    0    0  501    0  0.00000000000E+00  0.00000000000E+00  0.14096352048E+04  0.14096352048E+04  0.00000000000E+00 0.  1.
         -2   -1    0    0    0  501 -0.00000000000E+00 -0.00000000000E+00 -0.62811280594E+03  0.62811280594E+03  0.00000000000E+00 0. -1.
         23    2    1    2    0    0 -0.24971087911E+03 -0.40709980048E+03 -0.48355634530E+03  0.68552391703E+03  0.89613230284E+02 0.  0.
         11    1    3    3    0    0 -0.17425832696E+03 -0.33646932812E+03 -0.41239466207E+03  0.56004190073E+03  0.00000000000E+00 0.  1.
        -11    1    3    3    0    0 -0.75452552154E+02 -0.70630472368E+02 -0.71161683232E+02  0.12548201630E+03  0.00000000000E+00 0. -1.
         22    1    1    2    0    0  0.24971087911E+03  0.40709980048E+03  0.12650787442E+04  0.13522240937E+04  0.00000000000E+00 0.  1.
<mgrwt>
<rscale>  0 0.18819245E+04</rscale>
<asrwt>0</asrwt>
<pdfrwt beam="1">  1        2 0.21686695E+00 0.18819245E+04</pdfrwt>
<pdfrwt beam="2">  1       -2 0.96632740E-01 0.18819245E+04</pdfrwt>
<totfact> 0.12002145E+01</totfact>
</mgrwt>
</event>
<event>
 6    1  0.1934315E-005  0.2238240E+04  0.7818608E-02  0.8502678E-01
          2   -1    0    0  501    0  0.00000000000E+00  0.00000000000E+00  0.15455664015E+04  0.15455664015E+04  0.00000000000E+00 0.  1.
         -2   -1    0    0    0  501 -0.00000000000E+00 -0.00000000000E+00 -0.81033667840E+03  0.81033667840E+03  0.00000000000E+00 0. -1.
         23    2    1    2    0    0 -0.94494386653E+03  0.10125643862E+03 -0.25065023562E+03  0.98654882688E+03  0.85330357719E+02 0.  0.
         11    1    3    3    0    0 -0.32990586309E+03  0.76392257373E+02 -0.88190268262E+02  0.34993024863E+03  0.00000000000E+00 0.  1.
        -11    1    3    3    0    0 -0.61503800344E+03  0.24864181250E+02 -0.16245996735E+03  0.63661857825E+03  0.00000000000E+00 0. -1.
         22    1    1    2    0    0  0.94494386653E+03 -0.10125643862E+03  0.98587995872E+03  0.13693542530E+04  0.00000000000E+00 0.  1.
<mgrwt>
<rscale>  0 0.22382396E+04</rscale>
<asrwt>0</asrwt>
<pdfrwt beam="1">  1        2 0.23777945E+00 0.22382396E+04</pdfrwt>
<pdfrwt beam="2">  1       -2 0.12466718E+00 0.22382396E+04</pdfrwt>
<totfact> 0.52632803E+00</totfact>
</mgrwt>
</event>
<event>
 6    1  0.1934315E-005  0.5180170E+04  0.7818608E-02  0.7801300E-01
         -2   -1    0    0    0  501 -0.00000000000E+00  0.00000000000E+00  0.22564200791E+04  0.22564200791E+04  0.00000000000E+00 0. -1.
          2   -1    0    0  501    0  0.00000000000E+00 -0.00000000000E+00 -0.29730896393E+04  0.29730896393E+04  0.00000000000E+00 0.  1.
         23    2    1    2    0    0  0.23449085689E+04  0.26075102720E+03  0.71819985216E+03  0.24680902419E+04  0.95242427238E+02 0.  0.
         13    1    3    3    0    0  0.70230366435E+03  0.11085274011E+03  0.18597501246E+03  0.73491868408E+03  0.00000000000E+00 0.  1.
        -13    1    3    3    0    0  0.16426049045E+04  0.14989828708E+03  0.53222483970E+03  0.17331715578E+04  0.00000000000E+00 0. -1.
         22    1    1    2    0    0 -0.23449085689E+04 -0.26075102720E+03 -0.14348694124E+04  0.27614194765E+04  0.00000000000E+00 0.  1.
<mgrwt>
<rscale>  0 0.51801696E+04</rscale>
<asrwt>0</asrwt>
<pdfrwt beam="1">  1        2 0.45739841E+00 0.51801696E+04</pdfrwt>
<pdfrwt beam="2">  1       -2 0.34714155E+00 0.51801696E+04</pdfrwt>
<totfact> 0.21059497E-02</totfact>
</mgrwt>
</event>
<event>
 6    1  0.1934315E-005  0.6017042E+04  0.7818608E-02  0.7688292E-01
          2   -1    0    0  501    0  0.00000000000E+00  0.00000000000E+00  0.30498516628E+04  0.30498516628E+04  0.00000000000E+00 0.  1.
         -2   -1    0    0    0  501 -0.00000000000E+00 -0.00000000000E+00 -0.29677504538E+04  0.29677504538E+04  0.00000000000E+00 0. -1.
         23    2    1    2    0    0  0.68723126303E+03 -0.26299199515E+04 -0.12468116915E+04  0.29919162014E+04  0.90870246624E+02 0.  0.
         13    1    3    3    0    0  0.18632191260E+03 -0.73081315371E+03 -0.39072969066E+03  0.84939590999E+03  0.00000000000E+00 0. -1.
        -13    1    3    3    0    0  0.50090935044E+03 -0.18991067978E+04 -0.85608200087E+03  0.21425202914E+04  0.00000000000E+00 0.  1.
         22    1    1    2    0    0 -0.68723126303E+03  0.26299199515E+04  0.13289129005E+04  0.30256859152E+04  0.00000000000E+00 0.  1.
<mgrwt>
<rscale>  0 0.60170420E+04</rscale>
<asrwt>0</asrwt>
<pdfrwt beam="1">  1        2 0.46920795E+00 0.60170420E+04</pdfrwt>
<pdfrwt beam="2">  1       -2 0.45657699E+00 0.60170420E+04</pdfrwt>
<totfact> 0.34362798E-03</totfact>
</mgrwt>
</event>
<event>
 6    1  0.1934315E-005  0.9954574E+03  0.7818608E-02  0.9313541E-01
         -1   -1    0    0    0  501 -0.00000000000E+00  0.00000000000E+00  0.35896808178E+03  0.35896808178E+03  0.00000000000E+00 0. -1.
          1   -1    0    0  501    0  0.00000000000E+00 -0.00000000000E+00 -0.69012784701E+03  0.69012784701E+03  0.00000000000E+00 0.  1.
         23    2    1    2    0    0 -0.47931523884E+03 -0.45279663641E+02 -0.52916802242E+02  0.49302714475E+03  0.92099030309E+02 0.  0.
         11    1    3    3    0    0 -0.52880127862E+02 -0.17451438039E+02  0.20665540203E+02  0.59396339654E+02  0.00000000000E+00 0. -1.
        -11    1    3    3    0    0 -0.42643511097E+03 -0.27828225601E+02 -0.73582342445E+02  0.43363080510E+03  0.00000000000E+00 0.  1.
         22    1    1    2    0    0  0.47931523884E+03  0.45279663641E+02 -0.27824296299E+03  0.55606878403E+03  0.00000000000E+00 0.  1.
<mgrwt>
<rscale>  0 0.99545742E+03</rscale>
<asrwt>0</asrwt>
<pdfrwt beam="1">  1        1 0.10617351E+00 0.99545742E+03</pdfrwt>
<pdfrwt beam="2">  1       -1 0.55225859E-01 0.99545742E+03</pdfrwt>
<totfact> 0.92532793E+01</totfact>
</mgrwt>
</event>
<event>
 6    1  0.1934315E-005  0.1944900E+04  0.7818608E-02  0.8632824E-01
         -2   -1    0    0    0  501 -0.00000000000E+00  0.00000000000E+00  0.60796946162E+03  0.60796946162E+03  0.00000000000E+00 0. -1.
          2   -1    0    0  501    0  0.00000000000E+00 -0.00000000000E+00 -0.15554375431E+04  0.15554375431E+04  0.00000000000E+00 0.  1.
         23    2    1    2    0    0 -0.71114775434E+02 -0.56081254069E+03  0.40232672202E+03  0.70001572804E+03  0.92667206579E+02 0.  0.
         11    1    3    3    0    0 -0.38614749332E+02 -0.50610260053E+03  0.33988752679E+03  0.61086370984E+03  0.00000000000E+00 0. -1.
        -11    1    3    3    0    0 -0.32500026101E+02 -0.54709940155E+02  0.62439195228E+02  0.89152018200E+02  0.00000000000E+00 0.  1.
         22    1    1    2    0    0  0.71114775434E+02  0.56081254069E+03 -0.13497948035E+04  0.14633912766E+04  0.00000000000E+00 0.  1.
<mgrwt>
<rscale>  0 0.19448995E+04</rscale>
<asrwt>0</asrwt>
<pdfrwt beam="1">  1        2 0.23929809E+00 0.19448995E+04</pdfrwt>
<pdfrwt beam="2">  1       -2 0.93533762E-01 0.19448995E+04</pdfrwt>
<totfact> 0.10654614E+01</totfact>
</mgrwt>
</event>
<event>
 6    1  0.1934315E-005  0.2749223E+04  0.7818608E-02  0.8319208E-01
          2   -1    0    0  501    0  0.00000000000E+00  0.00000000000E+00  0.33290676409E+04  0.33290676409E+04  0.00000000000E+00 0.  1.
         -2   -1    0    0    0  501 -0.00000000000E+00 -0.00000000000E+00 -0.56759335226E+03  0.56759335226E+03  0.00000000000E+00 0. -1.
         23    2    1    2    0    0  0.60882943047E+03 -0.43273949702E+02 -0.36109178211E+03  0.71500029844E+03  0.91061745695E+02 0.  0.
         11    1    3    3    0    0  0.46281100166E+03 -0.18080289581E+02 -0.31381649591E+03  0.55946556036E+03  0.00000000000E+00 0. -1.
        -11    1    3    3    0    0  0.14601842881E+03 -0.25193660121E+02 -0.47275286206E+02  0.15553473808E+03  0.00000000000E+00 0.  1.
         22    1    1    2    0    0 -0.60882943047E+03  0.43273949702E+02  0.31225660708E+04  0.31816606947E+04  0.00000000000E+00 0.  1.
<mgrwt>
<rscale>  0 0.27492229E+04</rscale>
<asrwt>0</asrwt>
<pdfrwt beam="1">  1        2 0.51216424E+00 0.27492229E+04</pdfrwt>
<pdfrwt beam="2">  1       -2 0.87322056E-01 0.27492229E+04</pdfrwt>
<totfact> 0.10540672E+00</totfact>
</mgrwt>
</event>
<event>
 6    1  0.1934315E-005  0.7419963E+03  0.7818608E-02  0.9647991E-01
          2   -1    0    0  501    0  0.00000000000E+00  0.00000000000E+00  0.16730894229E+04  0.16730894229E+04  0.00000000000E+00 0.  1.
         -2   -1    0    0    0  501 -0.00000000000E+00 -0.00000000000E+00 -0.82266741356E+02  0.82266741356E+02  0.00000000000E+00 0. -1.
         23    2    1    2    0    0 -0.31530616460E+03 -0.16488947850E+03  0.61109485569E+03  0.71301594614E+03  0.91369027815E+02 0.  0.
         13    1    3    3    0    0 -0.12256821104E+03 -0.88451767975E+02  0.18299247360E+03  0.23734558561E+03  0.00000000000E+00 0. -1.
        -13    1    3    3    0    0 -0.19273795356E+03 -0.76437710528E+02  0.42810238210E+03  0.47567036053E+03  0.00000000000E+00 0.  1.
         22    1    1    2    0    0  0.31530616460E+03  0.16488947850E+03  0.97972782585E+03  0.10423402181E+04  0.00000000000E+00 0.  1.
<mgrwt>
<rscale>  0 0.74199627E+03</rscale>
<asrwt>0</asrwt>
<pdfrwt beam="1">  1        2 0.25739835E+00 0.74199627E+03</pdfrwt>
<pdfrwt beam="2">  1       -2 0.12656423E-01 0.74199627E+03</pdfrwt>
<totfact> 0.48070022E+02</totfact>
</mgrwt>
</event>
<event>
 6    1  0.1934315E-005  0.3607099E+04  0.7818608E-02  0.8088868E-01
          2   -1    0    0  501    0  0.00000000000E+00  0.00000000000E+00  0.33992131798E+04  0.33992131798E+04  0.00000000000E+00 0.  1.
         -2   -1    0    0    0  501 -0.00000000000E+00 -0.00000000000E+00 -0.95692456289E+03  0.95692456289E+03  0.00000000000E+00 0. -1.
         23    2    1    2    0    0 -0.29109448158E+03 -0.84774993067E+03  0.31103746430E+04  0.32382133802E+04  0.90440772471E+02 0.  0.
         13    1    3    3    0    0 -0.68588517423E+02 -0.32261459617E+03  0.10774931491E+04  0.11268434003E+04  0.00000000000E+00 0.  1.
        -13    1    3    3    0    0 -0.22250596415E+03 -0.52513533450E+03  0.20328814939E+04  0.21113699799E+04  0.00000000000E+00 0. -1.
         22    1    1    2    0    0  0.29109448158E+03  0.84774993067E+03 -0.66808602608E+03  0.11179243626E+04  0.00000000000E+00 0. -1.
<mgrwt>
<rscale>  0 0.36070989E+04</rscale>
<asrwt>0</asrwt>
<pdfrwt beam="1">  1        2 0.52295587E+00 0.36070989E+04</pdfrwt>
<pdfrwt beam="2">  1       -2 0.14721916E+00 0.36070989E+04</pdfrwt>
<totfact> 0.24444367E-01</totfact>
</mgrwt>
</event>
<event>
 6    1  0.1934315E-005  0.4305475E+03  0.7818608E-02  0.1033687E+00
         -2   -1    0    0    0  501 -0.00000000000E+00  0.00000000000E+00  0.50330258098E+02  0.50330258098E+02  0.00000000000E+00 0. -1.
          2   -1    0    0  501    0  0.00000000000E+00 -0.00000000000E+00 -0.92077375039E+03  0.92077375039E+03  0.00000000000E+00 0.  1.
         23    2    1    2    0    0  0.89312462999E+02  0.18337550433E+03 -0.40715005283E+03  0.46489841520E+03  0.93573924234E+02 0.  0.
         13    1    3    3    0    0  0.75703912467E+02  0.74552220252E+02 -0.13727172045E+03  0.17358756045E+03  0.00000000000E+00 0.  1.
        -13    1    3    3    0    0  0.13608550532E+02  0.10882328408E+03 -0.26987833238E+03  0.29131085475E+03  0.00000000000E+00 0. -1.
         22    1    1    2    0    0 -0.89312462999E+02 -0.18337550433E+03 -0.46329343946E+03  0.50620559329E+03  0.00000000000E+00 0.  1.
<mgrwt>
<rscale>  0 0.43054747E+03</rscale>
<asrwt>0</asrwt>
<pdfrwt beam="1">  1        2 0.14165749E+00 0.43054747E+03</pdfrwt>
<pdfrwt beam="2">  1       -2 0.77431174E-02 0.43054747E+03</pdfrwt>
<totfact> 0.29427753E+03</totfact>
</mgrwt>
</event>
<event>
 6    1  0.1934315E-005  0.1564661E+04  0.7818608E-02  0.8842557E-01
          2   -1    0    0  501    0  0.00000000000E+00  0.00000000000E+00  0.65048541906E+03  0.65048541906E+03  0.00000000000E+00 0.  1.
         -2   -1    0    0    0  501 -0.00000000000E+00 -0.00000000000E+00 -0.94089915303E+03  0.94089915303E+03  0.00000000000E+00 0. -1.
         23    2    1    2    0    0 -0.60980513690E+03 -0.29814365383E+02  0.34735153064E+03  0.70849401595E+03  0.92517476327E+02 0.  0.
         13    1    3    3    0    0 -0.34888410062E+03 -0.24193871434E+02  0.25024281614E+03  0.43003130829E+03  0.00000000000E+00 0.  1.
        -13    1    3    3    0    0 -0.26092103628E+03 -0.56204939481E+01  0.97108714505E+02  0.27846270766E+03  0.00000000000E+00 0. -1.
         22    1    1    2    0    0  0.60980513690E+03  0.29814365383E+02 -0.63776526461E+03  0.88289055614E+03  0.00000000000E+00 0. -1.
<mgrwt>
<rscale>  0 0.15646612E+04</rscale>
<asrwt>0</asrwt>
<pdfrwt beam="1">  1        2 0.10007468E+00 0.15646612E+04</pdfrwt>
<pdfrwt beam="2">  1       -2 0.14475372E+00 0.15646612E+04</pdfrwt>
<totfact> 0.14208142E+01</totfact>
</mgrwt>
</event>
<event>
 6    1  0.1934315E-005  0.2880845E+04  0.7818608E-02  0.8278599E-01
         -2   -1    0    0    0  501 -0.00000000000E+00  0.00000000000E+00  0.60734765378E+03  0.60734765378E+03  0.00000000000E+00 0. -1.
          2   -1    0    0  501    0  0.00000000000E+00 -0.00000000000E+00 -0.34161937320E+04  0.34161937320E+04  0.00000000000E+00 0.  1.
         23    2    1    2    0    0  0.18305960353E+03  0.10593446318E+04 -0.27417510382E+04  0.29464046202E+04  0.91539952860E+02 0.  0.
         13    1    3    3    0    0  0.14331785092E+03  0.79054512818E+03 -0.21513345893E+04  0.22964629588E+04  0.00000000000E+00 0.  1.
        -13    1    3    3    0    0  0.39741752611E+02  0.26879950365E+03 -0.59041644896E+03  0.64994166143E+03  0.00000000000E+00 0. -1.
         22    1    1    2    0    0 -0.18305960353E+03 -0.10593446318E+04 -0.67095040038E+02  0.10771367656E+04  0.00000000000E+00 0. -1.
<mgrwt>
<rscale>  0 0.28808452E+04</rscale>
<asrwt>0</asrwt>
<pdfrwt beam="1">  1        2 0.52556826E+00 0.28808452E+04</pdfrwt>
<pdfrwt beam="2">  1       -2 0.93438101E-01 0.28808452E+04</pdfrwt>
<totfact> 0.77790623E-01</totfact>
</mgrwt>
</event>
<event>
 6    1  0.1934315E-005  0.1808163E+04  0.7818608E-02  0.8701970E-01
          2   -1    0    0  501    0  0.00000000000E+00  0.00000000000E+00  0.76015200924E+03  0.76015200924E+03  0.00000000000E+00 0.  1.
         -2   -1    0    0    0  501 -0.00000000000E+00 -0.00000000000E+00 -0.10752633124E+04  0.10752633124E+04  0.00000000000E+00 0. -1.
         23    2    1    2    0    0  0.57877683613E+03  0.34886758872E+03 -0.76385538926E+03  0.10242048216E+04  0.93964037644E+02 0.  0.
         13    1    3    3    0    0  0.65808220353E+02  0.72488542998E+02 -0.85809683041E+02  0.13018683665E+03  0.00000000000E+00 0.  1.
        -13    1    3    3    0    0  0.51296861577E+03  0.27637904572E+03 -0.67804570622E+03  0.89401798495E+03  0.00000000000E+00 0. -1.
         22    1    1    2    0    0 -0.57877683613E+03 -0.34886758872E+03  0.44874408613E+03  0.81121050002E+03  0.00000000000E+00 0.  1.
<mgrwt>
<rscale>  0 0.18081632E+04</rscale>
<asrwt>0</asrwt>
<pdfrwt beam="1">  1        2 0.11694646E+00 0.18081632E+04</pdfrwt>
<pdfrwt beam="2">  1       -2 0.16542512E+00 0.18081632E+04</pdfrwt>
<totfact> 0.79874048E+00</totfact>
</mgrwt>
</event>
<event>
 6    1  0.1934315E-005  0.9346289E+03  0.7818608E-02  0.9383300E-01
          2   -1    0    0  501    0  0.00000000000E+00  0.00000000000E+00  0.50062708536E+03  0.50062708536E+03  0.00000000000E+00 0.  1.
         -2   -1    0    0    0  501 -0.00000000000E+00 -0.00000000000E+00 -0.43621848180E+03  0.43621848180E+03  0.00000000000E+00 0. -1.
         23    2    1    2    0    0  0.19578021655E+03  0.71099381476E+02 -0.38189638568E+03  0.44432840131E+03  0.90542054199E+02 0.  0.
         11    1    3    3    0    0  0.92257664635E+02  0.54126988254E+02 -0.11252977616E+03  0.15525513861E+03  0.00000000000E+00 0. -1.
        -11    1    3    3    0    0  0.10352255191E+03  0.16972393221E+02 -0.26936660952E+03  0.28907326270E+03  0.00000000000E+00 0.  1.
         22    1    1    2    0    0 -0.19578021655E+03 -0.71099381476E+02  0.44630498924E+03  0.49251716585E+03  0.00000000000E+00 0.  1.
<mgrwt>
<rscale>  0 0.93462888E+03</rscale>
<asrwt>0</asrwt>
<pdfrwt beam="1">  1        2 0.77019552E-01 0.93462888E+03</pdfrwt>
<pdfrwt beam="2">  1       -2 0.67110535E-01 0.93462888E+03</pdfrwt>
<totfact> 0.12559602E+02</totfact>
</mgrwt>
</event>
<event>
 6    1  0.1934315E-005  0.2817968E+04  0.7818608E-02  0.8297712E-01
         -2   -1    0    0    0  501 -0.00000000000E+00  0.00000000000E+00  0.11848604015E+04  0.11848604015E+04  0.00000000000E+00 0. -1.
          2   -1    0    0  501    0  0.00000000000E+00 -0.00000000000E+00 -0.16755015651E+04  0.16755015651E+04  0.00000000000E+00 0.  1.
         23    2    1    2    0    0  0.12955036488E+03  0.61350184935E+03  0.10334225766E+04  0.12123516206E+04  0.93093576132E+02 0.  0.
         11    1    3    3    0    0  0.11452026326E+01  0.21650511519E+03  0.36561988370E+03  0.42491608083E+03  0.00000000000E+00 0. -1.
        -11    1    3    3    0    0  0.12840516225E+03  0.39699673417E+03  0.66780269290E+03  0.78743553975E+03  0.00000000000E+00 0.  1.
         22    1    1    2    0    0 -0.12955036488E+03 -0.61350184935E+03 -0.15240637402E+04  0.16480103460E+04  0.00000000000E+00 0.  1.
<mgrwt>
<rscale>  0 0.28179677E+04</rscale>
<asrwt>0</asrwt>
<pdfrwt beam="1">  1        2 0.25776947E+00 0.28179677E+04</pdfrwt>
<pdfrwt beam="2">  1       -2 0.18228622E+00 0.28179677E+04</pdfrwt>
<totfact> 0.15378361E+00</totfact>
</mgrwt>
</event>
<event>
 6    1  0.1934315E-005  0.1261110E+04  0.7818608E-02  0.9060987E-01
         -2   -1    0    0    0  501 -0.00000000000E+00  0.00000000000E+00  0.66913304588E+03  0.66913304588E+03  0.00000000000E+00 0. -1.
          2   -1    0    0  501    0  0.00000000000E+00 -0.00000000000E+00 -0.59420076572E+03  0.59420076572E+03  0.00000000000E+00 0.  1.
         23    2    1    2    0    0 -0.21186185767E+03 -0.56707983341E+03 -0.12529917545E+03  0.62571510108E+03  0.96718768348E+02 0.  0.
         11    1    3    3    0    0 -0.13887645875E+03 -0.23493066593E+03 -0.51465080258E+02  0.27771882017E+03  0.00000000000E+00 0.  1.
        -11    1    3    3    0    0 -0.72985398917E+02 -0.33214916748E+03 -0.73834095191E+02  0.34799628090E+03  0.00000000000E+00 0. -1.
         22    1    1    2    0    0  0.21186185767E+03  0.56707983341E+03  0.20023145560E+03  0.63761871052E+03  0.00000000000E+00 0. -1.
<mgrwt>
<rscale>  0 0.12611096E+04</rscale>
<asrwt>0</asrwt>
<pdfrwt beam="1">  1        2 0.91415502E-01 0.12611096E+04</pdfrwt>
<pdfrwt beam="2">  1       -2 0.10294355E+00 0.12611096E+04</pdfrwt>
<totfact> 0.38020807E+01</totfact>
</mgrwt>
</event>
<event>
 6    1  0.1934315E-005  0.3004224E+04  0.7818608E-02  0.8242526E-01
         -2   -1    0    0    0  501 -0.00000000000E+00  0.00000000000E+00  0.10625087663E+04  0.10625087663E+04  0.00000000000E+00 0. -1.
          2   -1    0    0  501    0  0.00000000000E+00 -0.00000000000E+00 -0.21235970913E+04  0.21235970913E+04  0.00000000000E+00 0.  1.
         23    2    1    2    0    0  0.13876795286E+04  0.26975476998E+03 -0.10655463954E+04  0.17724432442E+04  0.87998994108E+02 0.  0.
         11    1    3    3    0    0  0.84602774082E+03  0.20763138714E+03 -0.66300767411E+03  0.10947387392E+04  0.00000000000E+00 0.  1.
        -11    1    3    3    0    0  0.54165178782E+03  0.62123382843E+02 -0.40253872125E+03  0.67770450497E+03  0.00000000000E+00 0. -1.
         22    1    1    2    0    0 -0.13876795286E+04 -0.26975476998E+03  0.44580703583E+01  0.14136626134E+04  0.00000000000E+00 0. -1.
<mgrwt>
<rscale>  0 0.30042240E+04</rscale>
<asrwt>0</asrwt>
<pdfrwt beam="1">  1        2 0.32670724E+00 0.30042240E+04</pdfrwt>
<pdfrwt beam="2">  1       -2 0.16346289E+00 0.30042240E+04</pdfrwt>
<totfact> 0.11587210E+00</totfact>
</mgrwt>
</event>
<event>
 6    1  0.1934315E-005  0.1786002E+04  0.7818608E-02  0.8713779E-01
          2   -1    0    0  501    0  0.00000000000E+00  0.00000000000E+00  0.67861872234E+03  0.67861872234E+03  0.00000000000E+00 0.  1.
         -2   -1    0    0    0  501 -0.00000000000E+00 -0.00000000000E+00 -0.11751087729E+04  0.11751087729E+04  0.00000000000E+00 0. -1.
         23    2    1    2    0    0 -0.22726245863E+03  0.29770101649E+03  0.58961432648E+03  0.70485986224E+03  0.94383531845E+02 0.  0.
         11    1    3    3    0    0 -0.14719286784E+03  0.13731336562E+03  0.25125498232E+03  0.32194683856E+03  0.00000000000E+00 0. -1.
        -11    1    3    3    0    0 -0.80069590796E+02  0.16038765088E+03  0.33835934415E+03  0.38291302367E+03  0.00000000000E+00 0.  1.
         22    1    1    2    0    0  0.22726245863E+03 -0.29770101649E+03 -0.10861043771E+04  0.11488676330E+04  0.00000000000E+00 0. -1.
<mgrwt>
<rscale>  0 0.17860020E+04</rscale>
<asrwt>0</asrwt>
<pdfrwt beam="1">  1        2 0.10440288E+00 0.17860020E+04</pdfrwt>
<pdfrwt beam="2">  1       -2 0.18078596E+00 0.17860020E+04</pdfrwt>
<totfact> 0.72060124E+00</totfact>
</mgrwt>
</event>
<event>
 6    1  0.1934315E-005  0.2365114E+04  0.7818608E-02  0.8452681E-01
          2   -1    0    0  501    0  0.00000000000E+00  0.00000000000E+00  0.13745516556E+04  0.13745516556E+04  0.00000000000E+00 0.  1.
         -2   -1    0    0    0  501 -0.00000000000E+00 -0.00000000000E+00 -0.10173793609E+04  0.10173793609E+04  0.00000000000E+00 0. -1.
         23    2    1    2    0    0 -0.17406266855E+03 -0.65312727322E+03  0.11574862909E+04  0.13443740776E+04  0.10341227794E+03 0.  0.
         11    1    3    3    0    0 -0.88041964915E+02 -0.49098172616E+03  0.80652394402E+03  0.94831182387E+03  0.00000000000E+00 0.  1.
        -11    1    3    3    0    0 -0.86020703637E+02 -0.16214554707E+03  0.35096234688E+03  0.39606225372E+03  0.00000000000E+00 0. -1.
         22    1    1    2    0    0  0.17406266855E+03  0.65312727322E+03 -0.80031399628E+03  0.10475569389E+04  0.00000000000E+00 0. -1.
<mgrwt>
<rscale>  0 0.23651135E+04</rscale>
<asrwt>0</asrwt>
<pdfrwt beam="1">  1        2 0.21146949E+00 0.23651135E+04</pdfrwt>
<pdfrwt beam="2">  1       -2 0.15651990E+00 0.23651135E+04</pdfrwt>
<totfact> 0.36092692E+00</totfact>
</mgrwt>
</event>
<event>
 6    1  0.1934315E-005  0.1146953E+04  0.7818608E-02  0.9160599E-01
         -2   -1    0    0    0  501 -0.00000000000E+00  0.00000000000E+00  0.13434144476E+04  0.13434144476E+04  0.00000000000E+00 0. -1.
          2   -1    0    0  501    0  0.00000000000E+00 -0.00000000000E+00 -0.24480547649E+03  0.24480547649E+03  0.00000000000E+00 0.  1.
         23    2    1    2    0    0 -0.24163919098E+02 -0.23292163100E+03 -0.16647391629E+03  0.30164653203E+03  0.91873196877E+02 0.  0.
         13    1    3    3    0    0 -0.43917702042E+01 -0.13663503655E+03 -0.14827969963E+03  0.20168115971E+03  0.00000000000E+00 0. -1.
        -13    1    3    3    0    0 -0.19772148894E+02 -0.96286594454E+02 -0.18194216660E+02  0.99965372321E+02  0.00000000000E+00 0.  1.
         22    1    1    2    0    0  0.24163919098E+02  0.23292163100E+03  0.12650828874E+04  0.12865733920E+04  0.00000000000E+00 0. -1.
<mgrwt>
<rscale>  0 0.11469529E+04</rscale>
<asrwt>0</asrwt>
<pdfrwt beam="1">  1        2 0.37662382E-01 0.11469529E+04</pdfrwt>
<pdfrwt beam="2">  1       -2 0.20667914E+00 0.11469529E+04</pdfrwt>
<totfact> 0.16413085E+01</totfact>
</mgrwt>
</event>
<event>
 6    1  0.1934315E-005  0.4021610E+04  0.7818608E-02  0.8000201E-01
          2   -1    0    0  501    0  0.00000000000E+00  0.00000000000E+00  0.48925918495E+04  0.48925918495E+04  0.00000000000E+00 0.  1.
         -2   -1    0    0    0  501 -0.00000000000E+00 -0.00000000000E+00 -0.82642002884E+03  0.82642002884E+03  0.00000000000E+00 0. -1.
         23    2    1    2    0    0 -0.10463920444E+04 -0.16960959456E+04  0.24032433337E+04  0.31234370056E+04  0.92749339199E+02 0.  0.
         11    1    3    3    0    0 -0.55146010184E+03 -0.89875190496E+03  0.13437728132E+04  0.17080950219E+04  0.00000000000E+00 0.  1.
        -11    1    3    3    0    0 -0.49493194252E+03 -0.79734404062E+03  0.10594705205E+04  0.14153419836E+04  0.00000000000E+00 0. -1.
         22    1    1    2    0    0  0.10463920444E+04  0.16960959456E+04  0.16629284869E+04  0.25955748727E+04  0.00000000000E+00 0. -1.
<mgrwt>
<rscale>  0 0.40216096E+04</rscale>
<asrwt>0</asrwt>
<pdfrwt beam="1">  1        2 0.75270642E+00 0.40216096E+04</pdfrwt>
<pdfrwt beam="2">  1       -2 0.12714155E+00 0.40216096E+04</pdfrwt>
<totfact> 0.16637318E-02</totfact>
</mgrwt>
</event>
<event>
 6    1  0.1934315E-005  0.2580819E+04  0.7818608E-02  0.8374746E-01
         -2   -1    0    0    0  501 -0.00000000000E+00  0.00000000000E+00  0.71041652468E+03  0.71041652468E+03  0.00000000000E+00 0. -1.
          2   -1    0    0  501    0  0.00000000000E+00 -0.00000000000E+00 -0.23439166784E+04  0.23439166784E+04  0.00000000000E+00 0.  1.
         23    2    1    2    0    0  0.49192539778E+03  0.29443455288E+03  0.54821413384E+03  0.79854962848E+03  0.91980811581E+02 0.  0.
         11    1    3    3    0    0  0.25185928335E+03  0.19986361193E+03  0.32836391789E+03  0.45956656162E+03  0.00000000000E+00 0.  1.
        -11    1    3    3    0    0  0.24006611443E+03  0.94570940952E+02  0.21985021594E+03  0.33898306686E+03  0.00000000000E+00 0. -1.
         22    1    1    2    0    0 -0.49192539778E+03 -0.29443455288E+03 -0.21817142876E+04  0.22557835746E+04  0.00000000000E+00 0.  1.
<mgrwt>
<rscale>  0 0.25808194E+04</rscale>
<asrwt>0</asrwt>
<pdfrwt beam="1">  1        2 0.36060257E+00 0.25808194E+04</pdfrwt>
<pdfrwt beam="2">  1       -2 0.10929485E+00 0.25808194E+04</pdfrwt>
<totfact> 0.25301218E+00</totfact>
</mgrwt>
</event>
<event>
 6    1  0.1934315E-005  0.1514360E+04  0.7818608E-02  0.8874960E-01
          2   -1    0    0  501    0  0.00000000000E+00  0.00000000000E+00  0.29462596691E+04  0.29462596691E+04  0.00000000000E+00 0.  1.
         -2   -1    0    0    0  501 -0.00000000000E+00 -0.00000000000E+00 -0.19459293167E+03  0.19459293167E+03  0.00000000000E+00 0. -1.
         23    2    1    2    0    0  0.23554663523E+02  0.21676935158E+02  0.29440941808E+04  0.29457807353E+04  0.94386881260E+02 0.  0.
         13    1    3    3    0    0  0.19222814736E+02  0.37847514163E+02  0.55262400392E+03  0.55425196494E+03  0.00000000000E+00 0. -1.
        -13    1    3    3    0    0  0.43318487873E+01 -0.16170579005E+02  0.23914701769E+04  0.23915287704E+04  0.00000000000E+00 0.  1.
         22    1    1    2    0    0 -0.23554663523E+02 -0.21676935158E+02 -0.19242744343E+03  0.19507186541E+03  0.00000000000E+00 0. -1.
<mgrwt>
<rscale>  0 0.15143597E+04</rscale>
<asrwt>0</asrwt>
<pdfrwt beam="1">  1        2 0.45327069E+00 0.15143597E+04</pdfrwt>
<pdfrwt beam="2">  1       -2 0.29937376E-01 0.15143597E+04</pdfrwt>
<totfact> 0.18811476E+01</totfact>
</mgrwt>
</event>
<event>
 6    1  0.1934315E-005  0.1528131E+04  0.7818608E-02  0.8865958E-01
         -2   -1    0    0    0  501 -0.00000000000E+00  0.00000000000E+00  0.27752380141E+03  0.27752380141E+03  0.00000000000E+00 0. -1.
          2   -1    0    0  501    0  0.00000000000E+00 -0.00000000000E+00 -0.21035901147E+04  0.21035901147E+04  0.00000000000E+00 0.  1.
         23    2    1    2    0    0 -0.52335221844E+03  0.45694112651E+03 -0.14012910771E+04  0.15667879746E+04  0.92277500387E+02 0.  0.
         13    1    3    3    0    0 -0.17146466932E+03  0.20769347922E+03 -0.51593651278E+03  0.58200274859E+03  0.00000000000E+00 0. -1.
        -13    1    3    3    0    0 -0.35188754912E+03  0.24924764729E+03 -0.88535456429E+03  0.98478522603E+03  0.00000000000E+00 0.  1.
         22    1    1    2    0    0  0.52335221844E+03 -0.45694112651E+03 -0.42477523617E+03  0.81432594145E+03  0.00000000000E+00 0. -1.
<mgrwt>
<rscale>  0 0.15281313E+04</rscale>
<asrwt>0</asrwt>
<pdfrwt beam="1">  1        2 0.32362924E+00 0.15281313E+04</pdfrwt>
<pdfrwt beam="2">  1       -2 0.42695971E-01 0.15281313E+04</pdfrwt>
<totfact> 0.29343974E+01</totfact>
</mgrwt>
</event>
<event>
 6    1  0.1934315E-005  0.1282484E+04  0.7818608E-02  0.9043572E-01
          2   -1    0    0  501    0  0.00000000000E+00  0.00000000000E+00  0.19261517887E+04  0.19261517887E+04  0.00000000000E+00 0.  1.
         -2   -1    0    0    0  501 -0.00000000000E+00 -0.00000000000E+00 -0.21347824216E+03  0.21347824216E+03  0.00000000000E+00 0. -1.
         23    2    1    2    0    0  0.27903410744E+03 -0.18668531138E+03 -0.44062472880E+02  0.35110189841E+03  0.92841816817E+02 0.  0.
         11    1    3    3    0    0  0.64784158398E+02 -0.93082262093E+02 -0.12773663974E+01  0.11341484189E+03  0.00000000000E+00 0.  1.
        -11    1    3    3    0    0  0.21424994904E+03 -0.93603049288E+02 -0.42785106482E+02  0.23768705652E+03  0.00000000000E+00 0. -1.
         22    1    1    2    0    0 -0.27903410744E+03  0.18668531138E+03  0.17567360194E+04  0.17885281324E+04  0.00000000000E+00 0.  1.
<mgrwt>
<rscale>  0 0.12824843E+04</rscale>
<asrwt>0</asrwt>
<pdfrwt beam="1">  1        2 0.29633103E+00 0.12824843E+04</pdfrwt>
<pdfrwt beam="2">  1       -2 0.32842808E-01 0.12824843E+04</pdfrwt>
<totfact> 0.62361449E+01</totfact>
</mgrwt>
</event>
<event>
 6    1  0.1934315E-005  0.5182953E+04  0.7818608E-02  0.7800889E-01
         -2   -1    0    0    0  501 -0.00000000000E+00  0.00000000000E+00  0.18734712967E+04  0.18734712967E+04  0.00000000000E+00 0. -1.
          2   -1    0    0  501    0  0.00000000000E+00 -0.00000000000E+00 -0.35846554910E+04  0.35846554910E+04  0.00000000000E+00 0.  1.
         23    2    1    2    0    0 -0.11169814439E+04 -0.18722051539E+04  0.61804460351E+03  0.22678123083E+04  0.90519885123E+02 0.  0.
         11    1    3    3    0    0 -0.49097097037E+03 -0.74809715539E+03  0.23001590265E+03  0.92390971589E+03  0.00000000000E+00 0.  1.
        -11    1    3    3    0    0 -0.62601047353E+03 -0.11241079985E+04  0.38802870086E+03  0.13439025924E+04  0.00000000000E+00 0. -1.
         22    1    1    2    0    0  0.11169814439E+04  0.18722051539E+04 -0.23292287978E+04  0.31903144793E+04  0.00000000000E+00 0.  1.
<mgrwt>
<rscale>  0 0.51829525E+04</rscale>
<asrwt>0</asrwt>
<pdfrwt beam="1">  1        2 0.55148546E+00 0.51829525E+04</pdfrwt>
<pdfrwt beam="2">  1       -2 0.28822636E+00 0.51829525E+04</pdfrwt>
<totfact> 0.19016157E-02</totfact>
</mgrwt>
</event>
<event>
 6    1  0.3597994E-005  0.5268647E+04  0.7818608E-02  0.7788351E-01
         -2   -1    0    0    0  501 -0.00000000000E+00  0.00000000000E+00  0.20996819076E+04  0.20996819076E+04  0.00000000000E+00 0. -1.
          2   -1    0    0  501    0  0.00000000000E+00 -0.00000000000E+00 -0.33051011164E+04  0.33051011164E+04  0.00000000000E+00 0.  1.
         23    2    1    2    0    0 -0.63350436332E+03  0.12338318672E+04 -0.28995216889E+04  0.32153419840E+04  0.86770934286E+02 0.  0.
         11    1    3    3    0    0 -0.27039853110E+03  0.46088789901E+03 -0.10479688992E+04  0.11763383165E+04  0.00000000000E+00 0. -1.
        -11    1    3    3    0    0 -0.36310583222E+03  0.77294396817E+03 -0.18515527897E+04  0.20390036675E+04  0.00000000000E+00 0.  1.
         22    1    1    2    0    0  0.63350436332E+03 -0.12338318672E+04  0.16941024800E+04  0.21894410400E+04  0.00000000000E+00 0. -1.
<mgrwt>
<rscale>  0 0.52686473E+04</rscale>
<asrwt>0</asrwt>
<pdfrwt beam="1">  1        2 0.50847709E+00 0.52686473E+04</pdfrwt>
<pdfrwt beam="2">  1       -2 0.32302799E+00 0.52686473E+04</pdfrwt>
<totfact> 0.18040370E-02</totfact>
</mgrwt>
</event>
<event>
 6    1  0.1934315E-005  0.2541628E+04  0.7818608E-02  0.8388304E-01
          2   -1    0    0  501    0  0.00000000000E+00  0.00000000000E+00  0.11428976979E+04  0.11428976979E+04  0.00000000000E+00 0.  1.
         -2   -1    0    0    0  501 -0.00000000000E+00 -0.00000000000E+00 -0.14130468781E+04  0.14130468781E+04  0.00000000000E+00 0. -1.
         23    2    1    2    0    0  0.30122906545E+03 -0.59207226104E+03 -0.12224395366E+04  0.13948479241E+04  0.99768725059E+02 0.  0.
         13    1    3    3    0    0  0.22778482016E+03 -0.45373373150E+03 -0.83900750386E+03  0.98065988749E+03  0.00000000000E+00 0.  1.
        -13    1    3    3    0    0  0.73444245294E+02 -0.13833852953E+03 -0.38343203278E+03  0.41418803662E+03  0.00000000000E+00 0. -1.
         22    1    1    2    0    0 -0.30122906545E+03  0.59207226104E+03  0.95229035643E+03  0.11610966519E+04  0.00000000000E+00 0.  1.
<mgrwt>
<rscale>  0 0.25416278E+04</rscale>
<asrwt>0</asrwt>
<pdfrwt beam="1">  1        2 0.17583042E+00 0.25416278E+04</pdfrwt>
<pdfrwt beam="2">  1       -2 0.21739183E+00 0.25416278E+04</pdfrwt>
<totfact> 0.18712619E+00</totfact>
</mgrwt>
</event>
<event>
 6    1  0.1934315E-005  0.3732070E+04  0.7818608E-02  0.8060892E-01
         -2   -1    0    0    0  501 -0.00000000000E+00  0.00000000000E+00  0.26370754859E+04  0.26370754859E+04  0.00000000000E+00 0.  1.
          2   -1    0    0  501    0  0.00000000000E+00 -0.00000000000E+00 -0.13204349521E+04  0.13204349521E+04  0.00000000000E+00 0. -1.
         23    2    1    2    0    0 -0.53536968275E+03  0.17149110798E+04  0.12805536633E+03  0.18033805884E+04  0.90789103215E+02 0.  0.
         13    1    3    3    0    0 -0.47461973061E+02  0.11734858002E+03 -0.11782448971E+02  0.12713046143E+03  0.00000000000E+00 0. -1.
        -13    1    3    3    0    0 -0.48790770969E+03  0.15975624997E+04  0.13983781530E+03  0.16762501270E+04  0.00000000000E+00 0.  1.
         22    1    1    2    0    0  0.53536968275E+03 -0.17149110798E+04  0.11885851674E+04  0.21541298496E+04  0.00000000000E+00 0. -1.
<mgrwt>
<rscale>  0 0.37320700E+04</rscale>
<asrwt>0</asrwt>
<pdfrwt beam="1">  1        2 0.20314384E+00 0.37320700E+04</pdfrwt>
<pdfrwt beam="2">  1       -2 0.40570392E+00 0.37320700E+04</pdfrwt>
<totfact> 0.88253617E-02</totfact>
</mgrwt>
</event>
<event>
 6    1  0.1934315E-005  0.2810298E+04  0.7818608E-02  0.8300078E-01
          2   -1    0    0  501    0  0.00000000000E+00  0.00000000000E+00  0.15937213682E+04  0.15937213682E+04  0.00000000000E+00 0.  1.
         -2   -1    0    0    0  501 -0.00000000000E+00 -0.00000000000E+00 -0.12388886786E+04  0.12388886786E+04  0.00000000000E+00 0. -1.
         23    2    1    2    0    0  0.73205882383E+03 -0.42842105440E+03 -0.94980022363E+03  0.12764860929E+04  0.88552578439E+02 0.  0.
         13    1    3    3    0    0  0.33470695408E+03 -0.24675119976E+03 -0.45476177419E+03  0.61621682138E+03  0.00000000000E+00 0. -1.
        -13    1    3    3    0    0  0.39735186975E+03 -0.18166985464E+03 -0.49503844945E+03  0.66026927152E+03  0.00000000000E+00 0.  1.
         22    1    1    2    0    0 -0.73205882383E+03  0.42842105440E+03  0.13046329133E+04  0.15561239539E+04  0.00000000000E+00 0.  1.
<mgrwt>
<rscale>  0 0.28102977E+04</rscale>
<asrwt>0</asrwt>
<pdfrwt beam="1">  1        2 0.24518790E+00 0.28102977E+04</pdfrwt>
<pdfrwt beam="2">  1       -2 0.19059826E+00 0.28102977E+04</pdfrwt>
<totfact> 0.15013223E+00</totfact>
</mgrwt>
</event>
<event>
 6    1  0.1934315E-005  0.2055894E+04  0.7818608E-02  0.8580925E-01
          2   -1    0    0  501    0  0.00000000000E+00  0.00000000000E+00  0.17224278935E+04  0.17224278935E+04  0.00000000000E+00 0.  1.
         -2   -1    0    0    0  501 -0.00000000000E+00 -0.00000000000E+00 -0.61348010957E+03  0.61348010957E+03  0.00000000000E+00 0. -1.
         23    2    1    2    0    0  0.88513557652E+03  0.31285689874E+03  0.10248663730E+04  0.13933507839E+04  0.98645305924E+02 0.  0.
         11    1    3    3    0    0  0.52380204200E+03  0.13919828776E+03  0.55587513398E+03  0.77636454524E+03  0.00000000000E+00 0.  1.
        -11    1    3    3    0    0  0.36133353451E+03  0.17365861099E+03  0.46899123906E+03  0.61698623863E+03  0.00000000000E+00 0. -1.
         22    1    1    2    0    0 -0.88513557652E+03 -0.31285689874E+03  0.84081410928E+02  0.94255721926E+03  0.00000000000E+00 0.  1.
<mgrwt>
<rscale>  0 0.20558942E+04</rscale>
<asrwt>0</asrwt>
<pdfrwt beam="1">  1        2 0.26498890E+00 0.20558942E+04</pdfrwt>
<pdfrwt beam="2">  1       -2 0.94381556E-01 0.20558942E+04</pdfrwt>
<totfact> 0.83403053E+00</totfact>
</mgrwt>
</event>
<event>
 6    1  0.1934315E-005  0.3069532E+04  0.7818608E-02  0.8224150E-01
          1   -1    0    0  501    0  0.00000000000E+00  0.00000000000E+00  0.69110945131E+03  0.69110945131E+03  0.00000000000E+00 0.  1.
         -1   -1    0    0    0  501 -0.00000000000E+00 -0.00000000000E+00 -0.34082965429E+04  0.34082965429E+04  0.00000000000E+00 0. -1.
         23    2    1    2    0    0  0.61362878684E+03 -0.53264664899E+03  0.37673323693E+03  0.90056311904E+03  0.93985418336E+02 0.  0.
         13    1    3    3    0    0  0.19056901383E+03 -0.18918656986E+03  0.80572169094E+02  0.28035688270E+03  0.00000000000E+00 0.  1.
        -13    1    3    3    0    0  0.42305977300E+03 -0.34346007913E+03  0.29616106784E+03  0.62020623634E+03  0.00000000000E+00 0. -1.
         22    1    1    2    0    0 -0.61362878684E+03  0.53264664899E+03 -0.30939203285E+04  0.31988428751E+04  0.00000000000E+00 0. -1.
<mgrwt>
<rscale>  0 0.30695315E+04</rscale>
<asrwt>0</asrwt>
<pdfrwt beam="1">  1        1 0.10632453E+00 0.30695315E+04</pdfrwt>
<pdfrwt beam="2">  1       -1 0.52435331E+00 0.30695315E+04</pdfrwt>
<totfact> 0.24575287E-02</totfact>
</mgrwt>
</event>
<event>
 6    1  0.1934315E-005  0.1982506E+04  0.7818608E-02  0.8614843E-01
          2   -1    0    0  501    0  0.00000000000E+00  0.00000000000E+00  0.12555139872E+04  0.12555139872E+04  0.00000000000E+00 0.  1.
         -2   -1    0    0    0  501 -0.00000000000E+00 -0.00000000000E+00 -0.78261411877E+03  0.78261411877E+03  0.00000000000E+00 0. -1.
         23    2    1    2    0    0  0.37150917239E+03 -0.52050047941E+03  0.10127226057E+04  0.12012598953E+04  0.92078476720E+02 0.  0.
         11    1    3    3    0    0  0.32810287509E+03 -0.39672690916E+03  0.81512677528E+03  0.96409304368E+03  0.00000000000E+00 0. -1.
        -11    1    3    3    0    0  0.43406297300E+02 -0.12377357025E+03  0.19759583040E+03  0.23716685167E+03  0.00000000000E+00 0.  1.
         22    1    1    2    0    0 -0.37150917239E+03  0.52050047941E+03 -0.53982273728E+03  0.83686821060E+03  0.00000000000E+00 0. -1.
<mgrwt>
<rscale>  0 0.19825065E+04</rscale>
<asrwt>0</asrwt>
<pdfrwt beam="1">  1        2 0.19315600E+00 0.19825065E+04</pdfrwt>
<pdfrwt beam="2">  1       -2 0.12040217E+00 0.19825065E+04</pdfrwt>
<totfact> 0.86025686E+00</totfact>
</mgrwt>
</event>
<event>
 6    1  0.1934315E-005  0.2741618E+04  0.7818608E-02  0.8321626E-01
          2   -1    0    0  501    0  0.00000000000E+00  0.00000000000E+00  0.16613987642E+04  0.16613987642E+04  0.00000000000E+00 0.  1.
         -2   -1    0    0    0  501 -0.00000000000E+00 -0.00000000000E+00 -0.11310454320E+04  0.11310454320E+04  0.00000000000E+00 0. -1.
         23    2    1    2    0    0 -0.12199344462E+04 -0.60132764934E+03  0.42678943672E+03  0.14284205617E+04  0.91657420696E+02 0.  0.
         11    1    3    3    0    0 -0.37889449604E+03 -0.17487519717E+03  0.17415307637E+03  0.45218543511E+03  0.00000000000E+00 0.  1.
        -11    1    3    3    0    0 -0.84103995019E+03 -0.42645245217E+03  0.25263636035E+03  0.97623512657E+03  0.00000000000E+00 0. -1.
         22    1    1    2    0    0  0.12199344462E+04  0.60132764934E+03  0.10356389544E+03  0.13640236345E+04  0.00000000000E+00 0. -1.
<mgrwt>
<rscale>  0 0.27416181E+04</rscale>
<asrwt>0</asrwt>
<pdfrwt beam="1">  1        2 0.25559981E+00 0.27416181E+04</pdfrwt>
<pdfrwt beam="2">  1       -2 0.17400699E+00 0.27416181E+04</pdfrwt>
<totfact> 0.17992196E+00</totfact>
</mgrwt>
</event>
<event>
 6    1  0.2542104E-005  0.3738689E+04  0.7818608E-02  0.8059441E-01
         -2   -1    0    0    0  501 -0.00000000000E+00  0.00000000000E+00  0.20211161261E+04  0.20211161261E+04  0.00000000000E+00 0. -1.
          2   -1    0    0  501    0  0.00000000000E+00 -0.00000000000E+00 -0.17289701448E+04  0.17289701448E+04  0.00000000000E+00 0.  1.
         23    2    1    2    0    0  0.11386378420E+04  0.14782081967E+04  0.23220927326E+03  0.18832204436E+04  0.10489272862E+03 0.  0.
         11    1    3    3    0    0  0.46920564457E+03  0.54521406642E+03  0.12264608437E+03  0.72969471502E+03  0.00000000000E+00 0. -1.
        -11    1    3    3    0    0  0.66943219741E+03  0.93299413030E+03  0.10956318889E+03  0.11535257286E+04  0.00000000000E+00 0.  1.
         22    1    1    2    0    0 -0.11386378420E+04 -0.14782081967E+04  0.59936708027E+02  0.18668658273E+04  0.00000000000E+00 0.  1.
<mgrwt>
<rscale>  0 0.37386893E+04</rscale>
<asrwt>0</asrwt>
<pdfrwt beam="1">  1        2 0.26599541E+00 0.37386893E+04</pdfrwt>
<pdfrwt beam="2">  1       -2 0.31094094E+00 0.37386893E+04</pdfrwt>
<totfact> 0.20733332E-01</totfact>
</mgrwt>
</event>
<event>
 6    1  0.1934315E-005  0.1102357E+04  0.7818608E-02  0.9202898E-01
         -2   -1    0    0    0  501 -0.00000000000E+00  0.00000000000E+00  0.34505347388E+03  0.34505347388E+03  0.00000000000E+00 0. -1.
          2   -1    0    0  501    0  0.00000000000E+00 -0.00000000000E+00 -0.88043606990E+03  0.88043606990E+03  0.00000000000E+00 0.  1.
         23    2    1    2    0    0  0.32310088056E+03 -0.46969994352E+02 -0.75785797273E+03  0.83040012019E+03  0.92818604750E+02 0.  0.
         11    1    3    3    0    0  0.27238230127E+03 -0.25632365790E+02 -0.53555558588E+03  0.60138916001E+03  0.00000000000E+00 0. -1.
        -11    1    3    3    0    0  0.50718579292E+02 -0.21337628562E+02 -0.22230238686E+03  0.22901096017E+03  0.00000000000E+00 0.  1.
         22    1    1    2    0    0 -0.32310088056E+03  0.46969994352E+02  0.22247537671E+03  0.39508942359E+03  0.00000000000E+00 0. -1.
<mgrwt>
<rscale>  0 0.11023566E+04</rscale>
<asrwt>0</asrwt>
<pdfrwt beam="1">  1        2 0.13545170E+00 0.11023566E+04</pdfrwt>
<pdfrwt beam="2">  1       -2 0.53085150E-01 0.11023566E+04</pdfrwt>
<totfact> 0.10044095E+02</totfact>
</mgrwt>
</event>
<event>
 6    1  0.1934315E-005  0.1809569E+04  0.7818608E-02  0.8701227E-01
          2   -1    0    0  501    0  0.00000000000E+00  0.00000000000E+00  0.14160499124E+04  0.14160499124E+04  0.00000000000E+00 0.  1.
         -2   -1    0    0    0  501 -0.00000000000E+00 -0.00000000000E+00 -0.57811186534E+03  0.57811186534E+03  0.00000000000E+00 0. -1.
         23    2    1    2    0    0  0.60817134647E+03 -0.58772160410E+03  0.73073777474E+02  0.85385198585E+03  0.91838805465E+02 0.  0.
         11    1    3    3    0    0  0.54179352535E+03 -0.51324064462E+03  0.93147948574E+02  0.75208558272E+03  0.00000000000E+00 0. -1.
        -11    1    3    3    0    0  0.66377821118E+02 -0.74480959480E+02 -0.20074171100E+02  0.10176640313E+03  0.00000000000E+00 0.  1.
         22    1    1    2    0    0 -0.60817134647E+03  0.58772160410E+03  0.76486426962E+03  0.11403097919E+04  0.00000000000E+00 0. -1.
<mgrwt>
<rscale>  0 0.18095693E+04</rscale>
<asrwt>0</asrwt>
<pdfrwt beam="1">  1        2 0.21785383E+00 0.18095693E+04</pdfrwt>
<pdfrwt beam="2">  1       -2 0.88940287E-01 0.18095693E+04</pdfrwt>
<totfact> 0.14516675E+01</totfact>
</mgrwt>
</event>
<event>
 6    1  0.1934315E-005  0.4546107E+04  0.7818608E-02  0.7902614E-01
          2   -1    0    0  501    0  0.00000000000E+00  0.00000000000E+00  0.26753110299E+04  0.26753110299E+04  0.00000000000E+00 0.  1.
         -2   -1    0    0    0  501 -0.00000000000E+00 -0.00000000000E+00 -0.19312792290E+04  0.19312792290E+04  0.00000000000E+00 0. -1.
         23    2    1    2    0    0  0.18175785481E+04 -0.10726113359E+04  0.12251188828E+04  0.24419813712E+04  0.90938903011E+02 0.  0.
         13    1    3    3    0    0  0.12522134869E+04 -0.72094927460E+03  0.88374703688E+03  0.16937577449E+04  0.00000000000E+00 0.  1.
        -13    1    3    3    0    0  0.56536506116E+03 -0.35166206129E+03  0.34137184593E+03  0.74822362629E+03  0.00000000000E+00 0. -1.
         22    1    1    2    0    0 -0.18175785481E+04  0.10726113359E+04 -0.48108708187E+03  0.21646088877E+04  0.00000000000E+00 0. -1.
<mgrwt>
<rscale>  0 0.45461072E+04</rscale>
<asrwt>0</asrwt>
<pdfrwt beam="1">  1        2 0.41158631E+00 0.45461072E+04</pdfrwt>
<pdfrwt beam="2">  1       -2 0.29711988E+00 0.45461072E+04</pdfrwt>
<totfact> 0.68630723E-02</totfact>
</mgrwt>
</event>
<event>
 6    1  0.1934315E-005  0.2666412E+04  0.7818608E-02  0.8345986E-01
         -2   -1    0    0    0  501 -0.00000000000E+00  0.00000000000E+00  0.10131108956E+04  0.10131108956E+04  0.00000000000E+00 0. -1.
          2   -1    0    0  501    0  0.00000000000E+00 -0.00000000000E+00 -0.17544359074E+04  0.17544359074E+04  0.00000000000E+00 0.  1.
         23    2    1    2    0    0 -0.67406974273E+03  0.78410752667E+03  0.49958890232E+03  0.11522876988E+04  0.94779945072E+02 0.  0.
         11    1    3    3    0    0 -0.38914333935E+03  0.39225917963E+03  0.23709432674E+03  0.60125994573E+03  0.00000000000E+00 0.  1.
        -11    1    3    3    0    0 -0.28492640337E+03  0.39184834704E+03  0.26249457558E+03  0.55102775304E+03  0.00000000000E+00 0. -1.
         22    1    1    2    0    0  0.67406974273E+03 -0.78410752667E+03 -0.12409139141E+04  0.16152591042E+04  0.00000000000E+00 0.  1.
<mgrwt>
<rscale>  0 0.26664119E+04</rscale>
<asrwt>0</asrwt>
<pdfrwt beam="1">  1        2 0.26991321E+00 0.26664119E+04</pdfrwt>
<pdfrwt beam="2">  1       -2 0.15586322E+00 0.26664119E+04</pdfrwt>
<totfact> 0.21764485E+00</totfact>
</mgrwt>
</event>
<event>
 6    1  0.1934315E-005  0.7284434E+03  0.7818608E-02  0.9669790E-01
         -4   -1    0    0    0  501 -0.00000000000E+00  0.00000000000E+00  0.15407183749E+04  0.15407183749E+04  0.00000000000E+00 0. -1.
          4   -1    0    0  501    0  0.00000000000E+00 -0.00000000000E+00 -0.86101034824E+02  0.86101034824E+02  0.00000000000E+00 0.  1.
         23    2    1    2    0    0  0.11691200607E+03  0.19635932888E+03  0.11968360867E+03  0.27246588481E+03  0.87681748392E+02 0.  0.
         11    1    3    3    0    0  0.33771518893E+02  0.13757396406E+03  0.55746140575E+02  0.15223253024E+03  0.00000000000E+00 0.  1.
        -11    1    3    3    0    0  0.83140487172E+02  0.58785364821E+02  0.63937468094E+02  0.12023335457E+03  0.00000000000E+00 0. -1.
         22    1    1    2    0    0 -0.11691200607E+03 -0.19635932888E+03  0.13349337314E+04  0.13543535249E+04  0.00000000000E+00 0. -1.
<mgrwt>
<rscale>  0 0.72844340E+03</rscale>
<asrwt>0</asrwt>
<pdfrwt beam="1">  1        4 0.13246314E-01 0.72844340E+03</pdfrwt>
<pdfrwt beam="2">  1       -4 0.23703358E+00 0.72844340E+03</pdfrwt>
<totfact> 0.74866604E+00</totfact>
</mgrwt>
</event>
<event>
 6    1  0.1934315E-005  0.7866961E+03  0.7818608E-02  0.9579476E-01
          1   -1    0    0  501    0  0.00000000000E+00  0.00000000000E+00  0.19658896672E+03  0.19658896672E+03  0.00000000000E+00 0.  1.
         -1   -1    0    0    0  501 -0.00000000000E+00 -0.00000000000E+00 -0.78703646278E+03  0.78703646278E+03  0.00000000000E+00 0. -1.
         23    2    1    2    0    0 -0.24424281040E+02 -0.31497367447E+03 -0.57632610927E+03  0.66739074659E+03  0.11598992755E+03 0.  0.
         13    1    3    3    0    0 -0.43360347194E+02 -0.12873768337E+03 -0.33842318768E+03  0.36466939108E+03  0.00000000000E+00 0. -1.
        -13    1    3    3    0    0  0.18936066154E+02 -0.18623599110E+03 -0.23790292159E+03  0.30272135551E+03  0.00000000000E+00 0.  1.
         22    1    1    2    0    0  0.24424281040E+02  0.31497367447E+03 -0.14121386790E+02  0.31623468292E+03  0.00000000000E+00 0.  1.
<mgrwt>
<rscale>  0 0.78669609E+03</rscale>
<asrwt>0</asrwt>
<pdfrwt beam="1">  1        1 0.30244457E-01 0.78669609E+03</pdfrwt>
<pdfrwt beam="2">  1       -1 0.12108253E+00 0.78669609E+03</pdfrwt>
<totfact> 0.93400451E+01</totfact>
</mgrwt>
</event>
<event>
 6    1  0.1934315E-005  0.1075787E+04  0.7818608E-02  0.9229118E-01
         -2   -1    0    0    0  501 -0.00000000000E+00  0.00000000000E+00  0.21205400642E+03  0.21205400642E+03  0.00000000000E+00 0. -1.
          2   -1    0    0  501    0  0.00000000000E+00 -0.00000000000E+00 -0.13644132181E+04  0.13644132181E+04  0.00000000000E+00 0.  1.
         23    2    1    2    0    0  0.28045357878E+03  0.28466218382E+03 -0.10994254313E+04  0.11733682864E+04  0.91488184449E+02 0.  0.
         13    1    3    3    0    0  0.15636451034E+03  0.10923797824E+03 -0.60257622343E+03  0.63204501503E+03  0.00000000000E+00 0.  1.
        -13    1    3    3    0    0  0.12408906844E+03  0.17542420558E+03 -0.49684920787E+03  0.54132327141E+03  0.00000000000E+00 0. -1.
         22    1    1    2    0    0 -0.28045357878E+03 -0.28466218382E+03 -0.52933780338E+02  0.40309893804E+03  0.00000000000E+00 0. -1.
<mgrwt>
<rscale>  0 0.10757868E+04</rscale>
<asrwt>0</asrwt>
<pdfrwt beam="1">  1        2 0.20990973E+00 0.10757868E+04</pdfrwt>
<pdfrwt beam="2">  1       -2 0.32623693E-01 0.10757868E+04</pdfrwt>
<totfact> 0.13195394E+02</totfact>
</mgrwt>
</event>
<event>
 6    1  0.1934315E-005  0.3492956E+04  0.7818608E-02  0.8115461E-01
         -1   -1    0    0    0  501 -0.00000000000E+00  0.00000000000E+00  0.21620613316E+04  0.21620613316E+04  0.00000000000E+00 0. -1.
          1   -1    0    0  501    0  0.00000000000E+00 -0.00000000000E+00 -0.14107762756E+04  0.14107762756E+04  0.00000000000E+00 0.  1.
         23    2    1    2    0    0 -0.67790441779E+03  0.85900730356E+03  0.17666066953E+04  0.20800797640E+04  0.91567797508E+02 0.  0.
         13    1    3    3    0    0 -0.33187447191E+03  0.49413822630E+03  0.96038488793E+03  0.11298904304E+04  0.00000000000E+00 0.  1.
        -13    1    3    3    0    0 -0.34602994588E+03  0.36486907726E+03  0.80622180737E+03  0.95018933359E+03  0.00000000000E+00 0. -1.
         22    1    1    2    0    0  0.67790441779E+03 -0.85900730356E+03 -0.10153216393E+04  0.14927578432E+04  0.00000000000E+00 0.  1.
<mgrwt>
<rscale>  0 0.34929557E+04</rscale>
<asrwt>0</asrwt>
<pdfrwt beam="1">  1        1 0.21704250E+00 0.34929557E+04</pdfrwt>
<pdfrwt beam="2">  1       -1 0.33262482E+00 0.34929557E+04</pdfrwt>
<totfact> 0.12465940E-01</totfact>
</mgrwt>
</event>
<event>
 6    1  0.1934315E-005  0.1919101E+04  0.7818608E-02  0.8645407E-01
         -4   -1    0    0    0  501 -0.00000000000E+00  0.00000000000E+00  0.72620624085E+03  0.72620624085E+03  0.00000000000E+00 0. -1.
          4   -1    0    0  501    0  0.00000000000E+00 -0.00000000000E+00 -0.12678727175E+04  0.12678727175E+04  0.00000000000E+00 0.  1.
         23    2    1    2    0    0 -0.29678917289E+03 -0.39987707973E+03 -0.11208660627E+04  0.12302349608E+04  0.95665230019E+02 0.  0.
         13    1    3    3    0    0 -0.11751461069E+03 -0.16728278054E+03 -0.35006323595E+03  0.40538559614E+03  0.00000000000E+00 0.  1.
        -13    1    3    3    0    0 -0.17927456220E+03 -0.23259429918E+03 -0.77080282674E+03  0.82484936466E+03  0.00000000000E+00 0. -1.
         22    1    1    2    0    0  0.29678917289E+03  0.39987707973E+03  0.57919958608E+03  0.76384399752E+03  0.00000000000E+00 0. -1.
<mgrwt>
<rscale>  0 0.19191009E+04</rscale>
<asrwt>0</asrwt>
<pdfrwt beam="1">  1        4 0.19505734E+00 0.19191009E+04</pdfrwt>
<pdfrwt beam="2">  1       -4 0.11172404E+00 0.19191009E+04</pdfrwt>
<totfact> 0.16764066E-01</totfact>
</mgrwt>
</event>
<event>
 6    1  0.1934315E-005  0.2406590E+04  0.7818608E-02  0.8437040E-01
         -2   -1    0    0    0  501 -0.00000000000E+00  0.00000000000E+00  0.10240761001E+04  0.10240761001E+04  0.00000000000E+00 0. -1.
          2   -1    0    0  501    0  0.00000000000E+00 -0.00000000000E+00 -0.14138781961E+04  0.14138781961E+04  0.00000000000E+00 0.  1.
         23    2    1    2    0    0 -0.36485368961E+03 -0.24221797173E+03  0.93834964836E+03  0.10394641044E+04  0.90541709000E+02 0.  0.
         13    1    3    3    0    0 -0.10983459526E+03 -0.47980699696E+02  0.18126102961E+03  0.21730473238E+03  0.00000000000E+00 0.  1.
        -13    1    3    3    0    0 -0.25501909435E+03 -0.19423727203E+03  0.75708861876E+03  0.82215937201E+03  0.00000000000E+00 0. -1.
         22    1    1    2    0    0  0.36485368961E+03  0.24221797173E+03 -0.13281517444E+04  0.13984901919E+04  0.00000000000E+00 0.  1.
<mgrwt>
<rscale>  0 0.24065900E+04</rscale>
<asrwt>0</asrwt>
<pdfrwt beam="1">  1        2 0.21751972E+00 0.24065900E+04</pdfrwt>
<pdfrwt beam="2">  1       -2 0.15755017E+00 0.24065900E+04</pdfrwt>
<totfact> 0.33548594E+00</totfact>
</mgrwt>
</event>
<event>
 6    1  0.1934315E-005  0.1370649E+04  0.7818608E-02  0.8975343E-01
         -2   -1    0    0    0  501 -0.00000000000E+00  0.00000000000E+00  0.31957767417E+03  0.31957767417E+03  0.00000000000E+00 0. -1.
          2   -1    0    0  501    0  0.00000000000E+00 -0.00000000000E+00 -0.14696564830E+04  0.14696564830E+04  0.00000000000E+00 0.  1.
         23    2    1    2    0    0  0.56232646935E+02  0.62484607194E+03 -0.22738163373E+03  0.67345425004E+03  0.90793696607E+02 0.  0.
         11    1    3    3    0    0  0.44899774084E+02  0.27208701282E+03 -0.57244738069E+02  0.28164568574E+03  0.00000000000E+00 0. -1.
        -11    1    3    3    0    0  0.11332872851E+02  0.35275905912E+03 -0.17013689566E+03  0.39180856431E+03  0.00000000000E+00 0.  1.
         22    1    1    2    0    0 -0.56232646935E+02 -0.62484607194E+03 -0.92269717512E+03  0.11157799071E+04  0.00000000000E+00 0.  1.
<mgrwt>
<rscale>  0 0.13706486E+04</rscale>
<asrwt>0</asrwt>
<pdfrwt beam="1">  1        2 0.22610100E+00 0.13706486E+04</pdfrwt>
<pdfrwt beam="2">  1       -2 0.49165796E-01 0.13706486E+04</pdfrwt>
<totfact> 0.50432539E+01</totfact>
</mgrwt>
</event>
<event>
 6    1  0.1934315E-005  0.1274685E+04  0.7818608E-02  0.9049885E-01
         -2   -1    0    0    0  501 -0.00000000000E+00  0.00000000000E+00  0.17504887604E+03  0.17504887604E+03  0.00000000000E+00 0. -1.
          2   -1    0    0  501    0  0.00000000000E+00 -0.00000000000E+00 -0.23205255933E+04  0.23205255933E+04  0.00000000000E+00 0.  1.
         23    2    1    2    0    0  0.13012858017E+02  0.57713017842E+03 -0.15916096128E+04  0.16955636277E+04  0.92012383569E+02 0.  0.
         11    1    3    3    0    0 -0.26747742360E+02  0.43540749924E+03 -0.11424980393E+04  0.12229459930E+04  0.00000000000E+00 0. -1.
        -11    1    3    3    0    0  0.39760600377E+02  0.14172267918E+03 -0.44911157351E+03  0.47261763466E+03  0.00000000000E+00 0.  1.
         22    1    1    2    0    0 -0.13012858017E+02 -0.57713017842E+03 -0.55386710444E+03  0.80001084161E+03  0.00000000000E+00 0. -1.
<mgrwt>
<rscale>  0 0.12746849E+04</rscale>
<asrwt>0</asrwt>
<pdfrwt beam="1">  1        2 0.35700391E+00 0.12746849E+04</pdfrwt>
<pdfrwt beam="2">  1       -2 0.26930599E-01 0.12746849E+04</pdfrwt>
<totfact> 0.54451553E+01</totfact>
</mgrwt>
</event>
<event>
 6    1  0.1934315E-005  0.3342965E+04  0.7818608E-02  0.8152048E-01
          2   -1    0    0  501    0  0.00000000000E+00  0.00000000000E+00  0.29338388403E+04  0.29338388403E+04  0.00000000000E+00 0.  1.
         -2   -1    0    0    0  501 -0.00000000000E+00 -0.00000000000E+00 -0.95228628866E+03  0.95228628866E+03  0.00000000000E+00 0. -1.
         23    2    1    2    0    0 -0.45017049782E+03  0.12382991743E+04 -0.20197144141E+03  0.13358672302E+04  0.87809288685E+02 0.  0.
         13    1    3    3    0    0 -0.11585725110E+03  0.30158826600E+03 -0.87526810186E+02  0.33472276188E+03  0.00000000000E+00 0.  1.
        -13    1    3    3    0    0 -0.33431324671E+03  0.93671090834E+03 -0.11444463122E+03  0.10011444683E+04  0.00000000000E+00 0. -1.
         22    1    1    2    0    0  0.45017049782E+03 -0.12382991743E+04  0.21835239931E+04  0.25502578989E+04  0.00000000000E+00 0.  1.
<mgrwt>
<rscale>  0 0.33429655E+04</rscale>
<asrwt>0</asrwt>
<pdfrwt beam="1">  1        2 0.45135982E+00 0.33429655E+04</pdfrwt>
<pdfrwt beam="2">  1       -2 0.14650558E+00 0.33429655E+04</pdfrwt>
<totfact> 0.50783951E-01</totfact>
</mgrwt>
</event>
<event>
 6    1  0.1934315E-005  0.3597692E+04  0.7818608E-02  0.8091021E-01
          2   -1    0    0  501    0  0.00000000000E+00  0.00000000000E+00  0.20748910166E+04  0.20748910166E+04  0.00000000000E+00 0.  1.
         -2   -1    0    0    0  501 -0.00000000000E+00 -0.00000000000E+00 -0.15595262736E+04  0.15595262736E+04  0.00000000000E+00 0. -1.
         23    2    1    2    0    0  0.39197089224E+03  0.85132235524E+03  0.18076035125E+04  0.20380865068E+04  0.89304074231E+02 0.  0.
         13    1    3    3    0    0  0.93353002886E+02  0.19316542348E+03  0.49902113761E+03  0.54318483020E+03  0.00000000000E+00 0. -1.
        -13    1    3    3    0    0  0.29861788935E+03  0.65815693176E+03  0.13085823749E+04  0.14949016766E+04  0.00000000000E+00 0.  1.
         22    1    1    2    0    0 -0.39197089224E+03 -0.85132235524E+03 -0.12922387695E+04  0.15963307835E+04  0.00000000000E+00 0. -1.
<mgrwt>
<rscale>  0 0.35976921E+04</rscale>
<asrwt>0</asrwt>
<pdfrwt beam="1">  1        2 0.31921400E+00 0.35976921E+04</pdfrwt>
<pdfrwt beam="2">  1       -2 0.23992712E+00 0.35976921E+04</pdfrwt>
<totfact> 0.36687210E-01</totfact>
</mgrwt>
</event>
<event>
 6    1  0.1934315E-005  0.1134319E+04  0.7818608E-02  0.9172373E-01
          2   -1    0    0  501    0  0.00000000000E+00  0.00000000000E+00  0.51450089138E+03  0.51450089138E+03  0.00000000000E+00 0.  1.
         -2   -1    0    0    0  501 -0.00000000000E+00 -0.00000000000E+00 -0.62520754702E+03  0.62520754702E+03  0.00000000000E+00 0. -1.
         23    2    1    2    0    0 -0.24402503976E+03 -0.49781731026E+03 -0.15692890423E+03  0.58337509346E+03  0.91266227385E+02 0.  0.
         13    1    3    3    0    0 -0.84432858488E+01 -0.62191169157E+02  0.33155777158E+01  0.62849213620E+02  0.00000000000E+00 0.  1.
        -13    1    3    3    0    0 -0.23558175391E+03 -0.43562614111E+03 -0.16024448195E+03  0.52052587984E+03  0.00000000000E+00 0. -1.
         22    1    1    2    0    0  0.24402503976E+03  0.49781731026E+03  0.46222248587E+02  0.55633334494E+03  0.00000000000E+00 0. -1.
<mgrwt>
<rscale>  0 0.11343189E+04</rscale>
<asrwt>0</asrwt>
<pdfrwt beam="1">  1        2 0.79153983E-01 0.11343189E+04</pdfrwt>
<pdfrwt beam="2">  1       -2 0.96185777E-01 0.11343189E+04</pdfrwt>
<totfact> 0.53441284E+01</totfact>
</mgrwt>
</event>
<event>
 6    1  0.1934315E-005  0.3955637E+04  0.7818608E-02  0.8013556E-01
         -2   -1    0    0    0  501 -0.00000000000E+00  0.00000000000E+00  0.11302327250E+04  0.11302327250E+04  0.00000000000E+00 0. -1.
          2   -1    0    0  501    0  0.00000000000E+00 -0.00000000000E+00 -0.34610267859E+04  0.34610267859E+04  0.00000000000E+00 0.  1.
         23    2    1    2    0    0 -0.13056863896E+04 -0.10316574286E+04 -0.24044912201E+04  0.29255568755E+04  0.90393618384E+02 0.  0.
         11    1    3    3    0    0 -0.14091349591E+03 -0.14814265844E+03 -0.30659529032E+03  0.36851530853E+03  0.00000000000E+00 0.  1.
        -11    1    3    3    0    0 -0.11647728937E+04 -0.88351477016E+03 -0.20978959298E+04  0.25570415670E+04  0.00000000000E+00 0. -1.
         22    1    1    2    0    0  0.13056863896E+04  0.10316574286E+04  0.73697159220E+02  0.16657026353E+04  0.00000000000E+00 0. -1.
<mgrwt>
<rscale>  0 0.39556369E+04</rscale>
<asrwt>0</asrwt>
<pdfrwt beam="1">  1        2 0.53246566E+00 0.39556369E+04</pdfrwt>
<pdfrwt beam="2">  1       -2 0.17388196E+00 0.39556369E+04</pdfrwt>
<totfact> 0.13685572E-01</totfact>
</mgrwt>
</event>
<event>
 6    1  0.1934315E-005  0.4507805E+04  0.7818608E-02  0.7909272E-01
         -2   -1    0    0    0  501 -0.00000000000E+00  0.00000000000E+00  0.11989495906E+04  0.11989495906E+04  0.00000000000E+00 0. -1.
          2   -1    0    0  501    0  0.00000000000E+00 -0.00000000000E+00 -0.42371056871E+04  0.42371056871E+04  0.00000000000E+00 0.  1.
         23    2    1    2    0    0  0.17145341358E+04 -0.18353895743E+03 -0.32682904963E+04  0.36964358671E+04  0.92744269353E+02 0.  0.
         11    1    3    3    0    0  0.77260423134E+03 -0.36561004630E+02 -0.14539683893E+04  0.16468995362E+04  0.00000000000E+00 0.  1.
        -11    1    3    3    0    0  0.94192990447E+03 -0.14697795280E+03 -0.18143221071E+04  0.20495363309E+04  0.00000000000E+00 0. -1.
         22    1    1    2    0    0 -0.17145341358E+04  0.18353895743E+03  0.23013439977E+03  0.17396194106E+04  0.00000000000E+00 0. -1.
<mgrwt>
<rscale>  0 0.45078048E+04</rscale>
<asrwt>0</asrwt>
<pdfrwt beam="1">  1        2 0.65186242E+00 0.45078048E+04</pdfrwt>
<pdfrwt beam="2">  1       -2 0.18445378E+00 0.45078048E+04</pdfrwt>
<totfact> 0.27449384E-02</totfact>
</mgrwt>
</event>
<event>
 6    1  0.1934315E-005  0.3998644E+04  0.7818608E-02  0.8004820E-01
          2   -1    0    0  501    0  0.00000000000E+00  0.00000000000E+00  0.15371978551E+04  0.15371978551E+04  0.00000000000E+00 0.  1.
         -2   -1    0    0    0  501 -0.00000000000E+00 -0.00000000000E+00 -0.26003740203E+04  0.26003740203E+04  0.00000000000E+00 0. -1.
         23    2    1    2    0    0  0.57963854247E+03  0.41302010487E+03  0.14003667729E+04  0.15732766010E+04  0.87210764447E+02 0.  0.
         11    1    3    3    0    0  0.36779206004E+03  0.28631453457E+03  0.99315807181E+03  0.10970915950E+04  0.00000000000E+00 0. -1.
        -11    1    3    3    0    0  0.21184648243E+03  0.12670557029E+03  0.40720870113E+03  0.47618500600E+03  0.00000000000E+00 0.  1.
         22    1    1    2    0    0 -0.57963854247E+03 -0.41302010487E+03 -0.24635429381E+04  0.25642952745E+04  0.00000000000E+00 0. -1.
<mgrwt>
<rscale>  0 0.39986445E+04</rscale>
<asrwt>0</asrwt>
<pdfrwt beam="1">  1        2 0.23649198E+00 0.39986445E+04</pdfrwt>
<pdfrwt beam="2">  1       -2 0.40005754E+00 0.39986445E+04</pdfrwt>
<totfact> 0.70733655E-02</totfact>
</mgrwt>
</event>
<event>
 6    1  0.1934315E-005  0.1014288E+04  0.7818608E-02  0.9293012E-01
         -2   -1    0    0    0  501 -0.00000000000E+00  0.00000000000E+00  0.30557587620E+03  0.30557587620E+03  0.00000000000E+00 0. -1.
          2   -1    0    0  501    0  0.00000000000E+00 -0.00000000000E+00 -0.84167260573E+03  0.84167260573E+03  0.00000000000E+00 0.  1.
         23    2    1    2    0    0  0.42680460730E+03 -0.13739818687E+03 -0.12332297400E+02  0.45777794963E+03  0.91477489259E+02 0.  0.
         11    1    3    3    0    0  0.13356485477E+03 -0.29108881092E+02  0.36261493568E+02  0.14142769638E+03  0.00000000000E+00 0. -1.
        -11    1    3    3    0    0  0.29323975253E+03 -0.10828930578E+03 -0.48593790968E+02  0.31635025324E+03  0.00000000000E+00 0.  1.
         22    1    1    2    0    0 -0.42680460730E+03  0.13739818687E+03 -0.52376443212E+03  0.68947053231E+03  0.00000000000E+00 0.  1.
<mgrwt>
<rscale>  0 0.10142876E+04</rscale>
<asrwt>0</asrwt>
<pdfrwt beam="1">  1        2 0.12948809E+00 0.10142876E+04</pdfrwt>
<pdfrwt beam="2">  1       -2 0.47011673E-01 0.10142876E+04</pdfrwt>
<totfact> 0.13760751E+02</totfact>
</mgrwt>
</event>
<event>
 6    1  0.1934315E-005  0.1507271E+04  0.7818608E-02  0.8879632E-01
          2   -1    0    0  501    0  0.00000000000E+00  0.00000000000E+00  0.67900051554E+03  0.67900051554E+03  0.00000000000E+00 0.  1.
         -2   -1    0    0    0  501 -0.00000000000E+00 -0.00000000000E+00 -0.83647451327E+03  0.83647451327E+03  0.00000000000E+00 0. -1.
         23    2    1    2    0    0 -0.30203879389E+03 -0.26646983924E+03  0.55808005245E+03  0.69434701993E+03  0.91819556174E+02 0.  0.
         11    1    3    3    0    0 -0.18790723567E+03 -0.10461072955E+03  0.29038501683E+03  0.36135300186E+03  0.00000000000E+00 0. -1.
        -11    1    3    3    0    0 -0.11413155823E+03 -0.16185910969E+03  0.26769503562E+03  0.33299401807E+03  0.00000000000E+00 0.  1.
         22    1    1    2    0    0  0.30203879389E+03  0.26646983924E+03 -0.71555405018E+03  0.82112800888E+03  0.00000000000E+00 0. -1.
<mgrwt>
<rscale>  0 0.15072712E+04</rscale>
<asrwt>0</asrwt>
<pdfrwt beam="1">  1        2 0.10446162E+00 0.15072712E+04</pdfrwt>
<pdfrwt beam="2">  1       -2 0.12868839E+00 0.15072712E+04</pdfrwt>
<totfact> 0.18316293E+01</totfact>
</mgrwt>
</event>
<event>
 6    1  0.1934315E-005  0.8525954E+03  0.7818608E-02  0.9486860E-01
         -2   -1    0    0    0  501 -0.00000000000E+00  0.00000000000E+00  0.13058677382E+03  0.13058677382E+03  0.00000000000E+00 0. -1.
          2   -1    0    0  501    0  0.00000000000E+00 -0.00000000000E+00 -0.13916396765E+04  0.13916396765E+04  0.00000000000E+00 0.  1.
         23    2    1    2    0    0  0.13142294245E+03 -0.33486505849E+03 -0.10290905694E+04  0.10941924315E+04  0.93931251031E+02 0.  0.
         11    1    3    3    0    0  0.14336244835E+03 -0.27220185901E+03 -0.86975452463E+03  0.92256142168E+03  0.00000000000E+00 0. -1.
        -11    1    3    3    0    0 -0.11939505904E+02 -0.62663199481E+02 -0.15933604475E+03  0.17163100980E+03  0.00000000000E+00 0.  1.
         22    1    1    2    0    0 -0.13142294245E+03  0.33486505849E+03 -0.23196233327E+03  0.42803401881E+03  0.00000000000E+00 0. -1.
<mgrwt>
<rscale>  0 0.85259542E+03</rscale>
<asrwt>0</asrwt>
<pdfrwt beam="1">  1        2 0.21409839E+00 0.85259542E+03</pdfrwt>
<pdfrwt beam="2">  1       -2 0.20090275E-01 0.85259542E+03</pdfrwt>
<totfact> 0.31148306E+02</totfact>
</mgrwt>
</event>
<event>
 6    1  0.1934315E-005  0.1832001E+04  0.7818608E-02  0.8689464E-01
          1   -1    0    0  501    0  0.00000000000E+00  0.00000000000E+00  0.68625365678E+03  0.68625365678E+03  0.00000000000E+00 0.  1.
         -1   -1    0    0    0  501 -0.00000000000E+00 -0.00000000000E+00 -0.12226630039E+04  0.12226630039E+04  0.00000000000E+00 0. -1.
         23    2    1    2    0    0  0.57360457253E+03  0.23676832013E+03  0.42999650291E+03  0.76042995635E+03  0.90968582201E+02 0.  0.
         11    1    3    3    0    0  0.38258751085E+03  0.11161610667E+03  0.28424106286E+03  0.48951439258E+03  0.00000000000E+00 0. -1.
        -11    1    3    3    0    0  0.19101706169E+03  0.12515221346E+03  0.14575544005E+03  0.27091556377E+03  0.00000000000E+00 0.  1.
         22    1    1    2    0    0 -0.57360457253E+03 -0.23676832013E+03 -0.96640585003E+03  0.11484867043E+04  0.00000000000E+00 0. -1.
<mgrwt>
<rscale>  0 0.18320010E+04</rscale>
<asrwt>0</asrwt>
<pdfrwt beam="1">  1        1 0.10557749E+00 0.18320010E+04</pdfrwt>
<pdfrwt beam="2">  1       -1 0.18810200E+00 0.18320010E+04</pdfrwt>
<totfact> 0.48138779E+00</totfact>
</mgrwt>
</event>
<event>
 6    1  0.1934315E-005  0.2646806E+04  0.7818608E-02  0.8352474E-01
         -2   -1    0    0    0  501 -0.00000000000E+00  0.00000000000E+00  0.69718054988E+03  0.69718054988E+03  0.00000000000E+00 0. -1.
          2   -1    0    0  501    0  0.00000000000E+00 -0.00000000000E+00 -0.25121123463E+04  0.25121123463E+04  0.00000000000E+00 0.  1.
         23    2    1    2    0    0 -0.10060504058E+04  0.28579680171E+03 -0.18885480030E+04  0.21608480590E+04  0.93986931804E+02 0.  0.
         13    1    3    3    0    0 -0.49856126517E+03  0.16038386801E+03 -0.10344357197E+04  0.11594583125E+04  0.00000000000E+00 0.  1.
        -13    1    3    3    0    0 -0.50748914063E+03  0.12541293369E+03 -0.85411228328E+03  0.10013897464E+04  0.00000000000E+00 0. -1.
         22    1    1    2    0    0  0.10060504058E+04 -0.28579680171E+03  0.73616206568E+02  0.10484448372E+04  0.00000000000E+00 0. -1.
<mgrwt>
<rscale>  0 0.26468063E+04</rscale>
<asrwt>0</asrwt>
<pdfrwt beam="1">  1        2 0.38647882E+00 0.26468063E+04</pdfrwt>
<pdfrwt beam="2">  1       -2 0.10725855E+00 0.26468063E+04</pdfrwt>
<totfact> 0.21072498E+00</totfact>
</mgrwt>
</event>
<event>
 6    1  0.1934315E-005  0.2132643E+04  0.7818608E-02  0.8546999E-01
          2   -1    0    0  501    0  0.00000000000E+00  0.00000000000E+00  0.12148808081E+04  0.12148808081E+04  0.00000000000E+00 0.  1.
         -2   -1    0    0    0  501 -0.00000000000E+00 -0.00000000000E+00 -0.93592821169E+03  0.93592821169E+03  0.00000000000E+00 0. -1.
         23    2    1    2    0    0  0.92292007472E+03 -0.29496824964E+02  0.67357050780E+03  0.11466303390E+04  0.91719018257E+02 0.  0.
         13    1    3    3    0    0  0.44767280908E+03  0.30007330811E+02  0.34036775012E+03  0.56317101241E+03  0.00000000000E+00 0. -1.
        -13    1    3    3    0    0  0.47524726563E+03 -0.59504155775E+02  0.33320275767E+03  0.58345932658E+03  0.00000000000E+00 0.  1.
         22    1    1    2    0    0 -0.92292007472E+03  0.29496824964E+02 -0.39461791138E+03  0.10041786808E+04  0.00000000000E+00 0. -1.
<mgrwt>
<rscale>  0 0.21326427E+04</rscale>
<asrwt>0</asrwt>
<pdfrwt beam="1">  1        2 0.18690474E+00 0.21326427E+04</pdfrwt>
<pdfrwt beam="2">  1       -2 0.14398896E+00 0.21326427E+04</pdfrwt>
<totfact> 0.56930082E+00</totfact>
</mgrwt>
</event>
<event>
 6    1  0.1934315E-005  0.2003556E+04  0.7818608E-02  0.8604960E-01
         -2   -1    0    0    0  501 -0.00000000000E+00  0.00000000000E+00  0.83116825660E+03  0.83116825660E+03  0.00000000000E+00 0. -1.
          2   -1    0    0  501    0  0.00000000000E+00 -0.00000000000E+00 -0.12074079756E+04  0.12074079756E+04  0.00000000000E+00 0.  1.
         23    2    1    2    0    0 -0.98672066732E+03 -0.16062380148E+03 -0.19092500915E+03  0.10218367264E+04  0.90995908816E+02 0.  0.
         11    1    3    3    0    0 -0.40644750901E+03 -0.30589837817E+02 -0.49546936674E+02  0.41059738758E+03  0.00000000000E+00 0. -1.
        -11    1    3    3    0    0 -0.58027315831E+03 -0.13003396366E+03 -0.14137807247E+03  0.61123933883E+03  0.00000000000E+00 0.  1.
         22    1    1    2    0    0  0.98672066732E+03  0.16062380148E+03 -0.18531470984E+03  0.10167395058E+04  0.00000000000E+00 0. -1.
<mgrwt>
<rscale>  0 0.20035560E+04</rscale>
<asrwt>0</asrwt>
<pdfrwt beam="1">  1        2 0.18575507E+00 0.20035560E+04</pdfrwt>
<pdfrwt beam="2">  1       -2 0.12787204E+00 0.20035560E+04</pdfrwt>
<totfact> 0.78863653E+00</totfact>
</mgrwt>
</event>
<event>
 6    1  0.1934315E-005  0.2372171E+04  0.7818608E-02  0.8449996E-01
          2   -1    0    0  501    0  0.00000000000E+00  0.00000000000E+00  0.48879099741E+04  0.48879099741E+04  0.00000000000E+00 0.  1.
         -2   -1    0    0    0  501 -0.00000000000E+00 -0.00000000000E+00 -0.28781190682E+03  0.28781190682E+03  0.00000000000E+00 0. -1.
         23    2    1    2    0    0  0.22107962735E+03 -0.78058299592E+03  0.42104530746E+03  0.91864917959E+03  0.91930131464E+02 0.  0.
         11    1    3    3    0    0  0.16663643286E+03 -0.51421826846E+03  0.23623831957E+03  0.58991242740E+03  0.00000000000E+00 0. -1.
        -11    1    3    3    0    0  0.54443194489E+02 -0.26636472746E+03  0.18480698789E+03  0.32873675218E+03  0.00000000000E+00 0.  1.
         22    1    1    2    0    0 -0.22107962735E+03  0.78058299592E+03  0.41790527598E+04  0.42570727013E+04  0.00000000000E+00 0.  1.
<mgrwt>
<rscale>  0 0.23721709E+04</rscale>
<asrwt>0</asrwt>
<pdfrwt beam="1">  1        2 0.75198609E+00 0.23721709E+04</pdfrwt>
<pdfrwt beam="2">  1       -2 0.44278759E-01 0.23721709E+04</pdfrwt>
<totfact> 0.20771515E-01</totfact>
</mgrwt>
</event>
<event>
 6    1  0.1934315E-005  0.1635379E+04  0.7818608E-02  0.8799103E-01
          2   -1    0    0  501    0  0.00000000000E+00  0.00000000000E+00  0.65762103361E+03  0.65762103361E+03  0.00000000000E+00 0.  1.
         -2   -1    0    0    0  501 -0.00000000000E+00 -0.00000000000E+00 -0.10167195306E+04  0.10167195306E+04  0.00000000000E+00 0. -1.
         23    2    1    2    0    0  0.43026589251E+03 -0.64020413930E+03 -0.45008988670E+03  0.89763630184E+03  0.90443054078E+02 0.  0.
         11    1    3    3    0    0  0.36757598662E+03 -0.57255190518E+03 -0.42437346614E+03  0.80188567067E+03  0.00000000000E+00 0. -1.
        -11    1    3    3    0    0  0.62689905899E+02 -0.67652234119E+02 -0.25716420565E+02  0.95750631171E+02  0.00000000000E+00 0.  1.
         22    1    1    2    0    0 -0.43026589251E+03  0.64020413930E+03  0.90991389680E+02  0.77670426240E+03  0.00000000000E+00 0.  1.
<mgrwt>
<rscale>  0 0.16353790E+04</rscale>
<asrwt>0</asrwt>
<pdfrwt beam="1">  1        2 0.10117247E+00 0.16353790E+04</pdfrwt>
<pdfrwt beam="2">  1       -2 0.15641839E+00 0.16353790E+04</pdfrwt>
<totfact> 0.11344282E+01</totfact>
</mgrwt>
</event>
<event>
 6    1  0.1934315E-005  0.1695864E+04  0.7818608E-02  0.8763727E-01
         -2   -1    0    0    0  501 -0.00000000000E+00  0.00000000000E+00  0.39148484884E+03  0.39148484884E+03  0.00000000000E+00 0. -1.
          2   -1    0    0  501    0  0.00000000000E+00 -0.00000000000E+00 -0.18365686440E+04  0.18365686440E+04  0.00000000000E+00 0.  1.
         23    2    1    2    0    0  0.74724605205E+03 -0.13438320451E+03 -0.23660152106E+03  0.80086572846E+03  0.94710755952E+02 0.  0.
         11    1    3    3    0    0  0.16752609985E+03 -0.21784085022E+02 -0.13136865468E+02  0.16944650403E+03  0.00000000000E+00 0.  1.
        -11    1    3    3    0    0  0.57971995220E+03 -0.11259911949E+03 -0.22346465559E+03  0.63141922443E+03  0.00000000000E+00 0. -1.
         22    1    1    2    0    0 -0.74724605205E+03  0.13438320451E+03 -0.12084822741E+04  0.14271877644E+04  0.00000000000E+00 0.  1.
<mgrwt>
<rscale>  0 0.16958641E+04</rscale>
<asrwt>0</asrwt>
<pdfrwt beam="1">  1        2 0.28254902E+00 0.16958641E+04</pdfrwt>
<pdfrwt beam="2">  1       -2 0.60228439E-01 0.16958641E+04</pdfrwt>
<totfact> 0.20136686E+01</totfact>
</mgrwt>
</event>
<event>
 6    1  0.1934315E-005  0.2824168E+04  0.7818608E-02  0.8295804E-01
          2   -1    0    0  501    0  0.00000000000E+00  0.00000000000E+00  0.18507208614E+04  0.18507208614E+04  0.00000000000E+00 0.  1.
         -2   -1    0    0    0  501 -0.00000000000E+00 -0.00000000000E+00 -0.10774076942E+04  0.10774076942E+04  0.00000000000E+00 0. -1.
         23    2    1    2    0    0 -0.47702108906E+03  0.89996038811E+03 -0.62467361754E+03  0.11984335334E+04  0.92455318128E+02 0.  0.
         13    1    3    3    0    0 -0.10074100571E+03  0.12002441251E+03 -0.10163701242E+03  0.18677444184E+03  0.00000000000E+00 0. -1.
        -13    1    3    3    0    0 -0.37628008335E+03  0.77993597560E+03 -0.52303660512E+03  0.10116590915E+04  0.00000000000E+00 0.  1.
         22    1    1    2    0    0  0.47702108906E+03 -0.89996038811E+03  0.13979867848E+04  0.17296950223E+04  0.00000000000E+00 0.  1.
<mgrwt>
<rscale>  0 0.28241678E+04</rscale>
<asrwt>0</asrwt>
<pdfrwt beam="1">  1        2 0.28472629E+00 0.28241678E+04</pdfrwt>
<pdfrwt beam="2">  1       -2 0.16575503E+00 0.28241678E+04</pdfrwt>
<totfact> 0.16058504E+00</totfact>
</mgrwt>
</event>
<event>
 6    1  0.1934315E-005  0.2751431E+04  0.7818608E-02  0.8318508E-01
          2   -1    0    0  501    0  0.00000000000E+00  0.00000000000E+00  0.30103343877E+04  0.30103343877E+04  0.00000000000E+00 0.  1.
         -2   -1    0    0    0  501 -0.00000000000E+00 -0.00000000000E+00 -0.62869857264E+03  0.62869857264E+03  0.00000000000E+00 0. -1.
         23    2    1    2    0    0  0.61551009162E+03  0.58166943224E+03 -0.23925012141E+03  0.88472086960E+03  0.91095527955E+02 0.  0.
         13    1    3    3    0    0  0.21123968840E+03  0.14662336283E+03 -0.55521190596E+02  0.26306504726E+03  0.00000000000E+00 0.  1.
        -13    1    3    3    0    0  0.40427040322E+03  0.43504606941E+03 -0.18372893081E+03  0.62165582234E+03  0.00000000000E+00 0. -1.
         22    1    1    2    0    0 -0.61551009162E+03 -0.58166943224E+03  0.26208859365E+04  0.27543120908E+04  0.00000000000E+00 0.  1.
<mgrwt>
<rscale>  0 0.27514309E+04</rscale>
<asrwt>0</asrwt>
<pdfrwt beam="1">  1        2 0.46312836E+00 0.27514309E+04</pdfrwt>
<pdfrwt beam="2">  1       -2 0.96722859E-01 0.27514309E+04</pdfrwt>
<totfact> 0.13385635E+00</totfact>
</mgrwt>
</event>
<event>
 6    1  0.1943361E-005  0.4009920E+04  0.7818608E-02  0.8002548E-01
          2   -1    0    0  501    0  0.00000000000E+00  0.00000000000E+00  0.26129031560E+04  0.26129031560E+04  0.00000000000E+00 0.  1.
         -2   -1    0    0    0  501 -0.00000000000E+00 -0.00000000000E+00 -0.15384665907E+04  0.15384665907E+04  0.00000000000E+00 0. -1.
         23    2    1    2    0    0  0.18687580133E+04  0.10195200484E+03  0.12789108530E+04  0.22686959943E+04  0.93369272537E+02 0.  0.
         13    1    3    3    0    0  0.61119859474E+03  0.74052333946E+02  0.44026344466E+03  0.75688795147E+03  0.00000000000E+00 0.  1.
        -13    1    3    3    0    0  0.12575594186E+04  0.27899670896E+02  0.83864740837E+03  0.15118080428E+04  0.00000000000E+00 0. -1.
         22    1    1    2    0    0 -0.18687580133E+04 -0.10195200484E+03 -0.20447428765E+03  0.18826737524E+04  0.00000000000E+00 0. -1.
<mgrwt>
<rscale>  0 0.40099198E+04</rscale>
<asrwt>0</asrwt>
<pdfrwt beam="1">  1        2 0.40198510E+00 0.40099198E+04</pdfrwt>
<pdfrwt beam="2">  1       -2 0.23668717E+00 0.40099198E+04</pdfrwt>
<totfact> 0.18306739E-01</totfact>
</mgrwt>
</event>
<event>
 6    1  0.1934315E-005  0.1095168E+04  0.7818608E-02  0.9209915E-01
          1   -1    0    0  501    0  0.00000000000E+00  0.00000000000E+00  0.29824312342E+03  0.29824312342E+03  0.00000000000E+00 0.  1.
         -1   -1    0    0    0  501 -0.00000000000E+00 -0.00000000000E+00 -0.10053810895E+04  0.10053810895E+04  0.00000000000E+00 0. -1.
         23    2    1    2    0    0 -0.20836824981E+03 -0.25157422482E+03 -0.87346928832E+03  0.93705494678E+03  0.91741253152E+02 0.  0.
         11    1    3    3    0    0 -0.21798700080E+03 -0.24160886434E+03 -0.84042131526E+03  0.90122203867E+03  0.00000000000E+00 0. -1.
        -11    1    3    3    0    0  0.96187509954E+01 -0.99653604869E+01 -0.33047973060E+02  0.35832908112E+02  0.00000000000E+00 0.  1.
         22    1    1    2    0    0  0.20836824981E+03  0.25157422482E+03  0.16633132224E+03  0.36656926614E+03  0.00000000000E+00 0.  1.
<mgrwt>
<rscale>  0 0.10951676E+04</rscale>
<asrwt>0</asrwt>
<pdfrwt beam="1">  1        1 0.45883558E-01 0.10951676E+04</pdfrwt>
<pdfrwt beam="2">  1       -1 0.15467401E+00 0.10951676E+04</pdfrwt>
<totfact> 0.28270175E+01</totfact>
</mgrwt>
</event>
<event>
 6    1  0.2157015E-005  0.2282073E+04  0.7818608E-02  0.8485023E-01
          2   -1    0    0  501    0  0.00000000000E+00  0.00000000000E+00  0.16765878889E+04  0.16765878889E+04  0.00000000000E+00 0. -1.
         -2   -1    0    0    0  501 -0.00000000000E+00 -0.00000000000E+00 -0.77655570820E+03  0.77655570820E+03  0.00000000000E+00 0.  1.
         23    2    1    2    0    0  0.45046966281E+03  0.74456079231E+02 -0.67063883318E+03  0.81745595617E+03  0.10005583870E+03 0.  0.
         13    1    3    3    0    0  0.26236764369E+03  0.91290531088E+02 -0.42198452001E+03  0.50521448579E+03  0.00000000000E+00 0.  1.
        -13    1    3    3    0    0  0.18810201912E+03 -0.16834451857E+02 -0.24865431317E+03  0.31224147038E+03  0.00000000000E+00 0. -1.
         22    1    1    2    0    0 -0.45046966281E+03 -0.74456079231E+02  0.15706710139E+04  0.16356876409E+04  0.00000000000E+00 0. -1.
<mgrwt>
<rscale>  0 0.22820727E+04</rscale>
<asrwt>0</asrwt>
<pdfrwt beam="1">  1        2 0.25793660E+00 0.22820727E+04</pdfrwt>
<pdfrwt beam="2">  1       -2 0.11947011E+00 0.22820727E+04</pdfrwt>
<totfact> 0.49267181E+00</totfact>
</mgrwt>
</event>
<event>
 6    1  0.1934315E-005  0.2892665E+04  0.7818608E-02  0.8275063E-01
          2   -1    0    0  501    0  0.00000000000E+00  0.00000000000E+00  0.20618846963E+04  0.20618846963E+04  0.00000000000E+00 0.  1.
         -2   -1    0    0    0  501 -0.00000000000E+00 -0.00000000000E+00 -0.10145460552E+04  0.10145460552E+04  0.00000000000E+00 0. -1.
         23    2    1    2    0    0 -0.13085720691E+04  0.60342205342E+03  0.41198267496E+03  0.15015795718E+04  0.92371268199E+02 0.  0.
         11    1    3    3    0    0 -0.71340135723E+03  0.37921724158E+03  0.23525657610E+03  0.84148254254E+03  0.00000000000E+00 0.  1.
        -11    1    3    3    0    0 -0.59517071191E+03  0.22420481184E+03  0.17672609886E+03  0.66009702922E+03  0.00000000000E+00 0. -1.
         22    1    1    2    0    0  0.13085720691E+04 -0.60342205342E+03  0.63535596612E+03  0.15748511798E+04  0.00000000000E+00 0.  1.
<mgrwt>
<rscale>  0 0.28926645E+04</rscale>
<asrwt>0</asrwt>
<pdfrwt beam="1">  1        2 0.31721303E+00 0.28926645E+04</pdfrwt>
<pdfrwt beam="2">  1       -2 0.15608401E+00 0.28926645E+04</pdfrwt>
<totfact> 0.14358480E+00</totfact>
</mgrwt>
</event>
<event>
 6    1  0.1934315E-005  0.2047130E+04  0.7818608E-02  0.8584898E-01
          2   -1    0    0  501    0  0.00000000000E+00  0.00000000000E+00  0.10590649213E+04  0.10590649213E+04  0.00000000000E+00 0.  1.
         -2   -1    0    0    0  501 -0.00000000000E+00 -0.00000000000E+00 -0.98925455686E+03  0.98925455686E+03  0.00000000000E+00 0. -1.
         23    2    1    2    0    0  0.75107122143E+03 -0.85545917316E+02 -0.65333868523E+03  0.10021977684E+04  0.78248614809E+02 0.  0.
         11    1    3    3    0    0  0.16433150208E+03 -0.41988085926E+02 -0.17747496210E+03  0.24548972302E+03  0.00000000000E+00 0. -1.
        -11    1    3    3    0    0  0.58673971935E+03 -0.43557831389E+02 -0.47586372313E+03  0.75670804537E+03  0.00000000000E+00 0.  1.
         22    1    1    2    0    0 -0.75107122143E+03  0.85545917316E+02  0.72314904969E+03  0.10461217098E+04  0.00000000000E+00 0.  1.
<mgrwt>
<rscale>  0 0.20471295E+04</rscale>
<asrwt>0</asrwt>
<pdfrwt beam="1">  1        2 0.16293307E+00 0.20471295E+04</pdfrwt>
<pdfrwt beam="2">  1       -2 0.15219301E+00 0.20471295E+04</pdfrwt>
<totfact> 0.61636514E+00</totfact>
</mgrwt>
</event>
<event>
 6    1  0.1934315E-005  0.1201316E+04  0.7818608E-02  0.9111706E-01
          2   -1    0    0  501    0  0.00000000000E+00  0.00000000000E+00  0.30596128884E+04  0.30596128884E+04  0.00000000000E+00 0.  1.
         -2   -1    0    0    0  501 -0.00000000000E+00 -0.00000000000E+00 -0.11792006037E+03  0.11792006037E+03  0.00000000000E+00 0. -1.
         23    2    1    2    0    0 -0.48409363673E+03 -0.56845930695E+02  0.56622621344E+03  0.75257526955E+03  0.90439496867E+02 0.  0.
         11    1    3    3    0    0 -0.36693354108E+03 -0.46564618431E+01  0.43436163343E+03  0.56862284055E+03  0.00000000000E+00 0. -1.
        -11    1    3    3    0    0 -0.11716009565E+03 -0.52189468852E+02  0.13186458001E+03  0.18395242900E+03  0.00000000000E+00 0.  1.
         22    1    1    2    0    0  0.48409363673E+03  0.56845930695E+02  0.23754666146E+04  0.24249576792E+04  0.00000000000E+00 0.  1.
<mgrwt>
<rscale>  0 0.12013155E+04</rscale>
<asrwt>0</asrwt>
<pdfrwt beam="1">  1        2 0.47070961E+00 0.12013155E+04</pdfrwt>
<pdfrwt beam="2">  1       -2 0.18141550E-01 0.12013155E+04</pdfrwt>
<totfact> 0.40560921E+01</totfact>
</mgrwt>
</event>
<event>
 6    1  0.1934315E-005  0.4072184E+04  0.7818608E-02  0.7990141E-01
          2   -1    0    0  501    0  0.00000000000E+00  0.00000000000E+00  0.35834328880E+04  0.35834328880E+04  0.00000000000E+00 0.  1.
         -2   -1    0    0    0  501 -0.00000000000E+00 -0.00000000000E+00 -0.11568991982E+04  0.11568991982E+04  0.00000000000E+00 0. -1.
         23    2    1    2    0    0 -0.38867074000E+03 -0.11968815320E+04  0.30756133321E+04  0.33243890337E+04  0.92599852544E+02 0.  0.
         13    1    3    3    0    0 -0.75305104172E+02 -0.36785456495E+03  0.90157429277E+03  0.97663915806E+03  0.00000000000E+00 0.  1.
        -13    1    3    3    0    0 -0.31336563583E+03 -0.82902696706E+03  0.21740390393E+04  0.23477498756E+04  0.00000000000E+00 0. -1.
         22    1    1    2    0    0  0.38867074000E+03  0.11968815320E+04 -0.64907964232E+03  0.14159430525E+04  0.00000000000E+00 0. -1.
<mgrwt>
<rscale>  0 0.40721840E+04</rscale>
<asrwt>0</asrwt>
<pdfrwt beam="1">  1        2 0.55129736E+00 0.40721840E+04</pdfrwt>
<pdfrwt beam="2">  1       -2 0.17798449E+00 0.40721840E+04</pdfrwt>
<totfact> 0.10399313E-01</totfact>
</mgrwt>
</event>
<event>
 6    1  0.1934315E-005  0.2023690E+04  0.7818608E-02  0.8595624E-01
         -2   -1    0    0    0  501 -0.00000000000E+00  0.00000000000E+00  0.83483101556E+03  0.83483101556E+03  0.00000000000E+00 0. -1.
          2   -1    0    0  501    0  0.00000000000E+00 -0.00000000000E+00 -0.12263922851E+04  0.12263922851E+04  0.00000000000E+00 0.  1.
         23    2    1    2    0    0 -0.73306577049E+03 -0.21996155109E+03 -0.86706147027E+03  0.11601855940E+04  0.92013648698E+02 0.  0.
         13    1    3    3    0    0 -0.70413111952E+03 -0.22669941351E+03 -0.81833265898E+03  0.11031144992E+04  0.00000000000E+00 0. -1.
        -13    1    3    3    0    0 -0.28934650967E+02  0.67378624213E+01 -0.48728811298E+02  0.57071094848E+02  0.00000000000E+00 0.  1.
         22    1    1    2    0    0  0.73306577049E+03  0.21996155109E+03  0.47550020076E+03  0.90103770661E+03  0.00000000000E+00 0. -1.
<mgrwt>
<rscale>  0 0.20236900E+04</rscale>
<asrwt>0</asrwt>
<pdfrwt beam="1">  1        2 0.18867574E+00 0.20236900E+04</pdfrwt>
<pdfrwt beam="2">  1       -2 0.12843554E+00 0.20236900E+04</pdfrwt>
<totfact> 0.75864124E+00</totfact>
</mgrwt>
</event>
<event>
 6    1  0.1934315E-005  0.2758714E+04  0.7818608E-02  0.8316202E-01
         -2   -1    0    0    0  501 -0.00000000000E+00  0.00000000000E+00  0.14959059088E+04  0.14959059088E+04  0.00000000000E+00 0. -1.
          2   -1    0    0  501    0  0.00000000000E+00 -0.00000000000E+00 -0.12718882037E+04  0.12718882037E+04  0.00000000000E+00 0.  1.
         23    2    1    2    0    0  0.44674847222E+03  0.11382423717E+04  0.74915243504E+03  0.14370250195E+04  0.92906627627E+02 0.  0.
         13    1    3    3    0    0  0.39599126707E+03  0.91726697000E+03  0.62596316810E+03  0.11789901041E+04  0.00000000000E+00 0. -1.
        -13    1    3    3    0    0  0.50757205152E+02  0.22097540174E+03  0.12318926694E+03  0.25803491535E+03  0.00000000000E+00 0.  1.
         22    1    1    2    0    0 -0.44674847222E+03 -0.11382423717E+04 -0.52513473003E+03  0.13307690930E+04  0.00000000000E+00 0.  1.
<mgrwt>
<rscale>  0 0.27587135E+04</rscale>
<asrwt>0</asrwt>
<pdfrwt beam="1">  1        2 0.19567511E+00 0.27587135E+04</pdfrwt>
<pdfrwt beam="2">  1       -2 0.23013937E+00 0.27587135E+04</pdfrwt>
<totfact> 0.12791736E+00</totfact>
</mgrwt>
</event>
<event>
 6    1  0.1934315E-005  0.5426806E+04  0.7818608E-02  0.7765842E-01
          2   -1    0    0  501    0  0.00000000000E+00  0.00000000000E+00  0.23287018577E+04  0.23287018577E+04  0.00000000000E+00 0.  1.
         -2   -1    0    0    0  501 -0.00000000000E+00 -0.00000000000E+00 -0.31616568211E+04  0.31616568211E+04  0.00000000000E+00 0. -1.
         23    2    1    2    0    0  0.21958119921E+04 -0.14572587749E+04 -0.10670526004E+04  0.28446082853E+04  0.89451680250E+02 0.  0.
         13    1    3    3    0    0  0.11995652563E+03 -0.80485415020E+02 -0.37036802376E+02  0.14912811540E+03  0.00000000000E+00 0.  1.
        -13    1    3    3    0    0  0.20758554665E+04 -0.13767733599E+04 -0.10300157980E+04  0.26954801699E+04  0.00000000000E+00 0. -1.
         22    1    1    2    0    0 -0.21958119921E+04  0.14572587749E+04  0.23409763694E+03  0.26457503936E+04  0.00000000000E+00 0.  1.
<mgrwt>
<rscale>  0 0.54268061E+04</rscale>
<asrwt>0</asrwt>
<pdfrwt beam="1">  1        2 0.35826182E+00 0.54268061E+04</pdfrwt>
<pdfrwt beam="2">  1       -2 0.48640874E+00 0.54268061E+04</pdfrwt>
<totfact> 0.62199337E-03</totfact>
</mgrwt>
</event>
<event>
 6    1  0.1934315E-005  0.2505469E+04  0.7818608E-02  0.8401040E-01
          2   -1    0    0  501    0  0.00000000000E+00  0.00000000000E+00  0.23015428533E+04  0.23015428533E+04  0.00000000000E+00 0.  1.
         -2   -1    0    0    0  501 -0.00000000000E+00 -0.00000000000E+00 -0.68186616340E+03  0.68186616340E+03  0.00000000000E+00 0. -1.
         23    2    1    2    0    0 -0.75343847264E+03 -0.57117655048E+03 -0.16442661191E+03  0.96426643249E+03  0.94135318804E+02 0.  0.
         11    1    3    3    0    0 -0.48900872274E+03 -0.34866732291E+03 -0.14660187681E+03  0.61821561228E+03  0.00000000000E+00 0. -1.
        -11    1    3    3    0    0 -0.26442974990E+03 -0.22250922757E+03 -0.17824735100E+02  0.34605082021E+03  0.00000000000E+00 0.  1.
         22    1    1    2    0    0  0.75343847264E+03  0.57117655048E+03  0.17841033019E+04  0.20191425843E+04  0.00000000000E+00 0.  1.
<mgrwt>
<rscale>  0 0.25054694E+04</rscale>
<asrwt>0</asrwt>
<pdfrwt beam="1">  1        2 0.35408351E+00 0.25054694E+04</pdfrwt>
<pdfrwt beam="2">  1       -2 0.10490249E+00 0.25054694E+04</pdfrwt>
<totfact> 0.29710919E+00</totfact>
</mgrwt>
</event>
<event>
 6    1  0.1934315E-005  0.1167210E+04  0.7818608E-02  0.9142051E-01
          2   -1    0    0  501    0  0.00000000000E+00  0.00000000000E+00  0.10706760374E+04  0.10706760374E+04  0.00000000000E+00 0.  1.
         -2   -1    0    0    0  501 -0.00000000000E+00 -0.00000000000E+00 -0.31811211891E+03  0.31811211891E+03  0.00000000000E+00 0. -1.
         23    2    1    2    0    0 -0.54484719135E+03 -0.18051202003E+03  0.47881458428E+03  0.75287798239E+03  0.90104378070E+02 0.  0.
         13    1    3    3    0    0 -0.49981389620E+03 -0.14145509415E+03  0.44706232031E+03  0.68533801349E+03  0.00000000000E+00 0.  1.
        -13    1    3    3    0    0 -0.45033295157E+02 -0.39056925882E+02  0.31752263973E+02  0.67539968904E+02  0.00000000000E+00 0. -1.
         22    1    1    2    0    0  0.54484719135E+03  0.18051202003E+03  0.27374933418E+03  0.63591017390E+03  0.00000000000E+00 0.  1.
<mgrwt>
<rscale>  0 0.11672104E+04</rscale>
<asrwt>0</asrwt>
<pdfrwt beam="1">  1        2 0.16471939E+00 0.11672104E+04</pdfrwt>
<pdfrwt beam="2">  1       -2 0.48940327E-01 0.11672104E+04</pdfrwt>
<totfact> 0.88785563E+01</totfact>
</mgrwt>
</event>
<event>
 6    1  0.1934315E-005  0.1925226E+04  0.7818608E-02  0.8642401E-01
         -2   -1    0    0    0  501 -0.00000000000E+00  0.00000000000E+00  0.39145301681E+03  0.39145301681E+03  0.00000000000E+00 0. -1.
          2   -1    0    0  501    0  0.00000000000E+00 -0.00000000000E+00 -0.23671381946E+04  0.23671381946E+04  0.00000000000E+00 0.  1.
         23    2    1    2    0    0  0.45213353575E+03 -0.75011857246E+03 -0.15544596375E+04  0.17867200457E+04  0.94451841726E+02 0.  0.
         11    1    3    3    0    0  0.33970217582E+03 -0.62930917230E+03 -0.12334269817E+04  0.14257523354E+04  0.00000000000E+00 0. -1.
        -11    1    3    3    0    0  0.11243135992E+03 -0.12080940016E+03 -0.32103265576E+03  0.36096771037E+03  0.00000000000E+00 0.  1.
         22    1    1    2    0    0 -0.45213353575E+03  0.75011857246E+03 -0.42122554035E+03  0.97187116571E+03  0.00000000000E+00 0. -1.
<mgrwt>
<rscale>  0 0.19252256E+04</rscale>
<asrwt>0</asrwt>
<pdfrwt beam="1">  1        2 0.36417511E+00 0.19252256E+04</pdfrwt>
<pdfrwt beam="2">  1       -2 0.60223540E-01 0.19252256E+04</pdfrwt>
<totfact> 0.99749613E+00</totfact>
</mgrwt>
</event>
<event>
 6    1  0.1934315E-005  0.1256321E+04  0.7818608E-02  0.9064939E-01
         -1   -1    0    0    0  501 -0.00000000000E+00  0.00000000000E+00  0.31871492120E+03  0.31871492120E+03  0.00000000000E+00 0. -1.
          1   -1    0    0  501    0  0.00000000000E+00 -0.00000000000E+00 -0.12380512600E+04  0.12380512600E+04  0.00000000000E+00 0.  1.
         23    2    1    2    0    0  0.41435730416E+03 -0.20917286897E+02  0.11649616291E+03  0.44093533380E+03  0.93397560022E+02 0.  0.
         13    1    3    3    0    0  0.35952038854E+03 -0.27556363884E+02  0.13131964297E+03  0.38374354926E+03  0.00000000000E+00 0. -1.
        -13    1    3    3    0    0  0.54836915618E+02  0.66390769873E+01 -0.14823480062E+02  0.57191784540E+02  0.00000000000E+00 0.  1.
         22    1    1    2    0    0 -0.41435730416E+03  0.20917286897E+02 -0.10358325017E+04  0.11158308474E+04  0.00000000000E+00 0.  1.
<mgrwt>
<rscale>  0 0.12563207E+04</rscale>
<asrwt>0</asrwt>
<pdfrwt beam="1">  1        1 0.19046943E+00 0.12563207E+04</pdfrwt>
<pdfrwt beam="2">  1       -1 0.49033065E-01 0.12563207E+04</pdfrwt>
<totfact> 0.41153257E+01</totfact>
</mgrwt>
</event>
<event>
 6    1  0.1934315E-005  0.3163519E+04  0.7818608E-02  0.8198519E-01
         -2   -1    0    0    0  501 -0.00000000000E+00  0.00000000000E+00  0.11086853486E+04  0.11086853486E+04  0.00000000000E+00 0. -1.
          2   -1    0    0  501    0  0.00000000000E+00 -0.00000000000E+00 -0.22566931289E+04  0.22566931289E+04  0.00000000000E+00 0.  1.
         23    2    1    2    0    0 -0.94227171831E+01  0.13784429841E+04  0.24826201041E+03  0.14032971396E+04  0.86110324783E+02 0.  0.
         11    1    3    3    0    0  0.19396169742E+02  0.11515317101E+04  0.19003314740E+03  0.11672677875E+04  0.00000000000E+00 0. -1.
        -11    1    3    3    0    0 -0.28818886925E+02  0.22691127403E+03  0.58228863009E+02  0.23602935201E+03  0.00000000000E+00 0.  1.
         22    1    1    2    0    0  0.94227171831E+01 -0.13784429841E+04 -0.13962697908E+04  0.19620813379E+04  0.00000000000E+00 0.  1.
<mgrwt>
<rscale>  0 0.31635187E+04</rscale>
<asrwt>0</asrwt>
<pdfrwt beam="1">  1        2 0.34718356E+00 0.31635187E+04</pdfrwt>
<pdfrwt beam="2">  1       -2 0.17056698E+00 0.31635187E+04</pdfrwt>
<totfact> 0.85553057E-01</totfact>
</mgrwt>
</event>
<event>
 6    1  0.1934315E-005  0.2127200E+04  0.7818608E-02  0.8549355E-01
         -2   -1    0    0    0  501 -0.00000000000E+00  0.00000000000E+00  0.46323951705E+03  0.46323951705E+03  0.00000000000E+00 0. -1.
          2   -1    0    0  501    0  0.00000000000E+00 -0.00000000000E+00 -0.24420296866E+04  0.24420296866E+04  0.00000000000E+00 0.  1.
         23    2    1    2    0    0  0.33389264765E+02 -0.84586173990E+03 -0.18662232475E+04  0.20512971679E+04  0.91836459826E+02 0.  0.
         13    1    3    3    0    0 -0.18606207455E+02 -0.19101695929E+03 -0.49301607467E+03  0.52905436353E+03  0.00000000000E+00 0. -1.
        -13    1    3    3    0    0  0.51995472219E+02 -0.65484478061E+03 -0.13732071728E+04  0.15222428043E+04  0.00000000000E+00 0.  1.
         22    1    1    2    0    0 -0.33389264765E+02  0.84586173990E+03 -0.11256692209E+03  0.85397203583E+03  0.00000000000E+00 0. -1.
<mgrwt>
<rscale>  0 0.21271997E+04</rscale>
<asrwt>0</asrwt>
<pdfrwt beam="1">  1        2 0.37569687E+00 0.21271997E+04</pdfrwt>
<pdfrwt beam="2">  1       -2 0.71267619E-01 0.21271997E+04</pdfrwt>
<totfact> 0.61807143E+00</totfact>
</mgrwt>
</event>
<event>
 6    1  0.1934315E-005  0.2101914E+04  0.7818608E-02  0.8560401E-01
         -2   -1    0    0    0  501 -0.00000000000E+00  0.00000000000E+00  0.20744820235E+04  0.20744820235E+04  0.00000000000E+00 0. -1.
          2   -1    0    0  501    0  0.00000000000E+00 -0.00000000000E+00 -0.53242726134E+03  0.53242726134E+03  0.00000000000E+00 0.  1.
         23    2    1    2    0    0  0.36660140228E+03  0.35088381518E+03 -0.36621610291E+03  0.63231724232E+03  0.90525250555E+02 0.  0.
         11    1    3    3    0    0  0.14749654596E+03  0.86281841400E+02 -0.14090308105E+03  0.22148016948E+03  0.00000000000E+00 0. -1.
        -11    1    3    3    0    0  0.21910485632E+03  0.26460197378E+03 -0.22531302186E+03  0.41083707283E+03  0.00000000000E+00 0.  1.
         22    1    1    2    0    0 -0.36660140228E+03 -0.35088381518E+03  0.19082708650E+04  0.19745920425E+04  0.00000000000E+00 0. -1.
<mgrwt>
<rscale>  0 0.21019142E+04</rscale>
<asrwt>0</asrwt>
<pdfrwt beam="1">  1        2 0.81911888E-01 0.21019142E+04</pdfrwt>
<pdfrwt beam="2">  1       -2 0.31915107E+00 0.21019142E+04</pdfrwt>
<totfact> 0.12790314E+00</totfact>
</mgrwt>
</event>
<event>
 6    1  0.1934315E-005  0.3942980E+04  0.7818608E-02  0.8016149E-01
         -2   -1    0    0    0  501 -0.00000000000E+00  0.00000000000E+00  0.11769166577E+04  0.11769166577E+04  0.00000000000E+00 0. -1.
          2   -1    0    0  501    0  0.00000000000E+00 -0.00000000000E+00 -0.33025050886E+04  0.33025050886E+04  0.00000000000E+00 0.  1.
         23    2    1    2    0    0 -0.11325680843E+04 -0.17186486390E+03 -0.28847623656E+04  0.31051608321E+04  0.89004999906E+02 0.  0.
         11    1    3    3    0    0 -0.48618623764E+03 -0.94105013022E+02 -0.11411642528E+04  0.12439809737E+04  0.00000000000E+00 0. -1.
        -11    1    3    3    0    0 -0.64638184664E+03 -0.77759850878E+02 -0.17435981129E+04  0.18611798584E+04  0.00000000000E+00 0.  1.
         22    1    1    2    0    0  0.11325680843E+04  0.17186486390E+03  0.75917393479E+03  0.13742609142E+04  0.00000000000E+00 0. -1.
<mgrwt>
<rscale>  0 0.39429802E+04</rscale>
<asrwt>0</asrwt>
<pdfrwt beam="1">  1        2 0.50807771E+00 0.39429802E+04</pdfrwt>
<pdfrwt beam="2">  1       -2 0.18106410E+00 0.39429802E+04</pdfrwt>
<totfact> 0.15657716E-01</totfact>
</mgrwt>
</event>
<event>
 6    1  0.1934315E-005  0.2509890E+04  0.7818608E-02  0.8399471E-01
          2   -1    0    0  501    0  0.00000000000E+00  0.00000000000E+00  0.15556883203E+04  0.15556883203E+04  0.00000000000E+00 0.  1.
         -2   -1    0    0    0  501 -0.00000000000E+00 -0.00000000000E+00 -0.10123410607E+04  0.10123410607E+04  0.00000000000E+00 0. -1.
         23    2    1    2    0    0 -0.37752213029E+03  0.11576388796E+04 -0.31400774976E+02  0.12215576813E+04  0.92554987220E+02 0.  0.
         13    1    3    3    0    0 -0.27806399554E+03  0.71142037706E+03 -0.10246964620E+02  0.76390021521E+03  0.00000000000E+00 0. -1.
        -13    1    3    3    0    0 -0.99458134744E+02  0.44621850258E+03 -0.21153810356E+02  0.45765746613E+03  0.00000000000E+00 0.  1.
         22    1    1    2    0    0  0.37752213029E+03 -0.11576388796E+04  0.57474803458E+03  0.13464716996E+04  0.00000000000E+00 0. -1.
<mgrwt>
<rscale>  0 0.25098902E+04</rscale>
<asrwt>0</asrwt>
<pdfrwt beam="1">  1        2 0.23933667E+00 0.25098902E+04</pdfrwt>
<pdfrwt beam="2">  1       -2 0.15574478E+00 0.25098902E+04</pdfrwt>
<totfact> 0.28523462E+00</totfact>
</mgrwt>
</event>
<event>
 6    1  0.1934315E-005  0.2522118E+04  0.7818608E-02  0.8395148E-01
         -2   -1    0    0    0  501 -0.00000000000E+00  0.00000000000E+00  0.12853756883E+04  0.12853756883E+04  0.00000000000E+00 0. -1.
          2   -1    0    0  501    0  0.00000000000E+00 -0.00000000000E+00 -0.12372021627E+04  0.12372021627E+04  0.00000000000E+00 0.  1.
         23    2    1    2    0    0 -0.67940606271E+03  0.27637128813E+03  0.10475633126E+04  0.12829191750E+04  0.10256231653E+03 0.  0.
         13    1    3    3    0    0 -0.26697605486E+03  0.16253135738E+03  0.45668467343E+03  0.55340179521E+03  0.00000000000E+00 0. -1.
        -13    1    3    3    0    0 -0.41243000785E+03  0.11383993076E+03  0.59087863913E+03  0.72951737977E+03  0.00000000000E+00 0.  1.
         22    1    1    2    0    0  0.67940606271E+03 -0.27637128813E+03 -0.99938978689E+03  0.12396586760E+04  0.00000000000E+00 0.  1.
<mgrwt>
<rscale>  0 0.25221178E+04</rscale>
<asrwt>0</asrwt>
<pdfrwt beam="1">  1        2 0.19033879E+00 0.25221178E+04</pdfrwt>
<pdfrwt beam="2">  1       -2 0.19775011E+00 0.25221178E+04</pdfrwt>
<totfact> 0.22051402E+00</totfact>
</mgrwt>
</event>
<event>
 6    1  0.1934315E-005  0.1730467E+04  0.7818608E-02  0.8744176E-01
         -2   -1    0    0    0  501 -0.00000000000E+00  0.00000000000E+00  0.60422284492E+03  0.60422284492E+03  0.00000000000E+00 0. -1.
          2   -1    0    0  501    0  0.00000000000E+00 -0.00000000000E+00 -0.12389952110E+04  0.12389952110E+04  0.00000000000E+00 0.  1.
         23    2    1    2    0    0 -0.43424524376E+03 -0.51758524985E+03 -0.89003663785E+03  0.11209831419E+04  0.89300420066E+02 0.  0.
         11    1    3    3    0    0 -0.17374609995E+02 -0.48794272903E+01 -0.10506332544E+02  0.20882262968E+02  0.00000000000E+00 0. -1.
        -11    1    3    3    0    0 -0.41687063377E+03 -0.51270582256E+03 -0.87953030531E+03  0.11001008789E+04  0.00000000000E+00 0.  1.
         22    1    1    2    0    0  0.43424524376E+03  0.51758524985E+03  0.25526427180E+03  0.72223491404E+03  0.00000000000E+00 0. -1.
<mgrwt>
<rscale>  0 0.17304672E+04</rscale>
<asrwt>0</asrwt>
<pdfrwt beam="1">  1        2 0.19061465E+00 0.17304672E+04</pdfrwt>
<pdfrwt beam="2">  1       -2 0.92957362E-01 0.17304672E+04</pdfrwt>
<totfact> 0.16714215E+01</totfact>
</mgrwt>
</event>
<event>
 6    1  0.1934315E-005  0.9304309E+03  0.7818608E-02  0.9388321E-01
          2   -1    0    0  501    0  0.00000000000E+00  0.00000000000E+00  0.17910344220E+03  0.17910344220E+03  0.00000000000E+00 0.  1.
         -2   -1    0    0    0  501 -0.00000000000E+00 -0.00000000000E+00 -0.12083821655E+04  0.12083821655E+04  0.00000000000E+00 0. -1.
         23    2    1    2    0    0 -0.20501084037E+03  0.40255749988E+03 -0.38495294292E+03  0.60056903230E+03  0.91719185143E+02 0.  0.
         11    1    3    3    0    0 -0.17422872654E+03  0.24655879237E+03 -0.25670313620E+03  0.39628700128E+03  0.00000000000E+00 0.  1.
        -11    1    3    3    0    0 -0.30782113827E+02  0.15599870751E+03 -0.12824980671E+03  0.20428203102E+03  0.00000000000E+00 0. -1.
         22    1    1    2    0    0  0.20501084037E+03 -0.40255749988E+03 -0.64432578040E+03  0.78691657542E+03  0.00000000000E+00 0. -1.
<mgrwt>
<rscale>  0 0.93043088E+03</rscale>
<asrwt>0</asrwt>
<pdfrwt beam="1">  1        2 0.27554376E-01 0.93043088E+03</pdfrwt>
<pdfrwt beam="2">  1       -2 0.18590495E+00 0.93043088E+03</pdfrwt>
<totfact> 0.32496534E+01</totfact>
</mgrwt>
</event>
<event>
 6    1  0.1934315E-005  0.2351890E+04  0.7818608E-02  0.8457738E-01
          2   -1    0    0  501    0  0.00000000000E+00  0.00000000000E+00  0.12181696457E+04  0.12181696457E+04  0.00000000000E+00 0.  1.
         -2   -1    0    0    0  501 -0.00000000000E+00 -0.00000000000E+00 -0.11351839260E+04  0.11351839260E+04  0.00000000000E+00 0. -1.
         23    2    1    2    0    0 -0.11476080039E+04  0.18937384291E+02 -0.20607427669E+03  0.11697495683E+04  0.92112376351E+02 0.  0.
         13    1    3    3    0    0 -0.69417363498E+03  0.29232902667E+02 -0.16659954950E+03  0.71448373529E+03  0.00000000000E+00 0. -1.
        -13    1    3    3    0    0 -0.45343436896E+03 -0.10295518376E+02 -0.39474727195E+02  0.45526583305E+03  0.00000000000E+00 0.  1.
         22    1    1    2    0    0  0.11476080039E+04 -0.18937384291E+02  0.28905999633E+03  0.11836040033E+04  0.00000000000E+00 0. -1.
<mgrwt>
<rscale>  0 0.23518900E+04</rscale>
<asrwt>0</asrwt>
<pdfrwt beam="1">  1        2 0.18741072E+00 0.23518900E+04</pdfrwt>
<pdfrwt beam="2">  1       -2 0.17464368E+00 0.23518900E+04</pdfrwt>
<totfact> 0.32958258E+00</totfact>
</mgrwt>
</event>
<event>
 6    1  0.2312252E-005  0.2998935E+04  0.7818608E-02  0.8244035E-01
          2   -1    0    0  501    0  0.00000000000E+00  0.00000000000E+00  0.14582360306E+04  0.14582360306E+04  0.00000000000E+00 0.  1.
         -2   -1    0    0    0  501 -0.00000000000E+00 -0.00000000000E+00 -0.15418643914E+04  0.15418643914E+04  0.00000000000E+00 0. -1.
         23    2    1    2    0    0  0.68564697660E+03 -0.80921218509E+03  0.10165236976E+04  0.14719411736E+04  0.91401607787E+02 0.  0.
         11    1    3    3    0    0  0.29952142612E+03 -0.42311098117E+03  0.48416281266E+03  0.70933039992E+03  0.00000000000E+00 0.  1.
        -11    1    3    3    0    0  0.38612555048E+03 -0.38610120392E+03  0.53236088493E+03  0.76261077373E+03  0.00000000000E+00 0. -1.
         22    1    1    2    0    0 -0.68564697660E+03  0.80921218509E+03 -0.11001520584E+04  0.15281592484E+04  0.00000000000E+00 0. -1.
<mgrwt>
<rscale>  0 0.29989346E+04</rscale>
<asrwt>0</asrwt>
<pdfrwt beam="1">  1        2 0.22434400E+00 0.29989346E+04</pdfrwt>
<pdfrwt beam="2">  1       -2 0.23720991E+00 0.29989346E+04</pdfrwt>
<totfact> 0.88467481E-01</totfact>
</mgrwt>
</event>
<event>
 6    1  0.1934315E-005  0.8493533E+03  0.7818608E-02  0.9491205E-01
         -2   -1    0    0    0  501 -0.00000000000E+00  0.00000000000E+00  0.46471911475E+03  0.46471911475E+03  0.00000000000E+00 0. -1.
          2   -1    0    0  501    0  0.00000000000E+00 -0.00000000000E+00 -0.38808445754E+03  0.38808445754E+03  0.00000000000E+00 0.  1.
         23    2    1    2    0    0  0.31266026696E+02  0.41875974511E+03  0.42570873216E+02  0.43149889639E+03  0.89675692313E+02 0.  0.
         11    1    3    3    0    0 -0.22799589658E+02  0.26246030831E+03  0.36852869353E+02  0.26601385059E+03  0.00000000000E+00 0. -1.
        -11    1    3    3    0    0  0.54065616354E+02  0.15629943680E+03  0.57180038630E+01  0.16548504580E+03  0.00000000000E+00 0.  1.
         22    1    1    2    0    0 -0.31266026696E+02 -0.41875974511E+03  0.34063783992E+02  0.42130467589E+03  0.00000000000E+00 0.  1.
<mgrwt>
<rscale>  0 0.84935332E+03</rscale>
<asrwt>0</asrwt>
<pdfrwt beam="1">  1        2 0.59705302E-01 0.84935332E+03</pdfrwt>
<pdfrwt beam="2">  1       -2 0.71495248E-01 0.84935332E+03</pdfrwt>
<totfact> 0.14691815E+02</totfact>
</mgrwt>
</event>
<event>
 6    1  0.1934315E-005  0.1409636E+04  0.7818608E-02  0.8946873E-01
          2   -1    0    0  501    0  0.00000000000E+00  0.00000000000E+00  0.36721337073E+04  0.36721337073E+04  0.00000000000E+00 0.  1.
         -2   -1    0    0    0  501 -0.00000000000E+00 -0.00000000000E+00 -0.13528052003E+03  0.13528052003E+03  0.00000000000E+00 0. -1.
         23    2    1    2    0    0  0.20548681130E+03  0.62559672445E+03  0.11437035339E+04  0.13253261236E+04  0.12180094088E+03 0.  0.
         11    1    3    3    0    0  0.18519787919E+03  0.40999482406E+03  0.83092675625E+03  0.94489855776E+03  0.00000000000E+00 0.  1.
        -11    1    3    3    0    0  0.20288932111E+02  0.21560190039E+03  0.31277677770E+03  0.38042756589E+03  0.00000000000E+00 0. -1.
         22    1    1    2    0    0 -0.20548681130E+03 -0.62559672445E+03  0.23931496533E+04  0.24820881037E+04  0.00000000000E+00 0.  1.
<mgrwt>
<rscale>  0 0.14096356E+04</rscale>
<asrwt>0</asrwt>
<pdfrwt beam="1">  1        2 0.56494357E+00 0.14096356E+04</pdfrwt>
<pdfrwt beam="2">  1       -2 0.20812390E-01 0.14096356E+04</pdfrwt>
<totfact> 0.12102620E+01</totfact>
</mgrwt>
</event>
<event>
 6    1  0.1934315E-005  0.1241141E+04  0.7818608E-02  0.9077589E-01
          2   -1    0    0  501    0  0.00000000000E+00  0.00000000000E+00  0.13564917457E+04  0.13564917457E+04  0.00000000000E+00 0. -1.
         -2   -1    0    0    0  501 -0.00000000000E+00 -0.00000000000E+00 -0.28389964159E+03  0.28389964159E+03  0.00000000000E+00 0.  1.
         23    2    1    2    0    0 -0.25839706684E+03  0.21850517606E+03  0.12215163622E+04  0.12706725877E+04  0.89403835899E+02 0.  0.
         13    1    3    3    0    0 -0.19716337977E+03  0.17375345954E+03  0.10621622938E+04  0.10941902948E+04  0.00000000000E+00 0. -1.
        -13    1    3    3    0    0 -0.61233687065E+02  0.44751716519E+02  0.15935406841E+03  0.17648229283E+03  0.00000000000E+00 0.  1.
         22    1    1    2    0    0  0.25839706684E+03 -0.21850517606E+03 -0.14892425811E+03  0.36971879959E+03  0.00000000000E+00 0.  1.
<mgrwt>
<rscale>  0 0.12411406E+04</rscale>
<asrwt>0</asrwt>
<pdfrwt beam="1">  1        2 0.20869103E+00 0.12411406E+04</pdfrwt>
<pdfrwt beam="2">  1       -2 0.43676869E-01 0.12411406E+04</pdfrwt>
<totfact> 0.74949080E+01</totfact>
</mgrwt>
</event>
<event>
 6    1  0.1934315E-005  0.3540196E+04  0.7818608E-02  0.8104330E-01
         -2   -1    0    0    0  501 -0.00000000000E+00  0.00000000000E+00  0.15357716346E+04  0.15357716346E+04  0.00000000000E+00 0. -1.
          2   -1    0    0  501    0  0.00000000000E+00 -0.00000000000E+00 -0.20401771488E+04  0.20401771488E+04  0.00000000000E+00 0.  1.
         23    2    1    2    0    0  0.80522807072E+03  0.67183099813E+02  0.13371130984E+04  0.15649548463E+04  0.91139553652E+02 0.  0.
         11    1    3    3    0    0  0.46442695997E+03  0.17542854642E+02  0.69042282885E+03  0.83227629757E+03  0.00000000000E+00 0.  1.
        -11    1    3    3    0    0  0.34080111074E+03  0.49640245172E+02  0.64669026951E+03  0.73267854869E+03  0.00000000000E+00 0. -1.
         22    1    1    2    0    0 -0.80522807072E+03 -0.67183099813E+02 -0.18415186125E+04  0.20109939371E+04  0.00000000000E+00 0.  1.
<mgrwt>
<rscale>  0 0.35401956E+04</rscale>
<asrwt>0</asrwt>
<pdfrwt beam="1">  1        2 0.31387341E+00 0.35401956E+04</pdfrwt>
<pdfrwt beam="2">  1       -2 0.23627256E+00 0.35401956E+04</pdfrwt>
<totfact> 0.40607889E-01</totfact>
</mgrwt>
</event>
<event>
 6    1  0.1934315E-005  0.4148511E+04  0.7818608E-02  0.7975239E-01
         -2   -1    0    0    0  501 -0.00000000000E+00  0.00000000000E+00  0.24836034889E+04  0.24836034889E+04  0.00000000000E+00 0. -1.
          2   -1    0    0  501    0  0.00000000000E+00 -0.00000000000E+00 -0.17323759608E+04  0.17323759608E+04  0.00000000000E+00 0.  1.
         23    2    1    2    0    0 -0.19860735222E+04  0.39744298180E+03  0.82526476194E+03  0.21891764322E+04  0.94776392905E+02 0.  0.
         11    1    3    3    0    0 -0.36951837929E+03  0.78524610370E+02  0.11488646492E+03  0.39485294337E+03  0.00000000000E+00 0.  1.
        -11    1    3    3    0    0 -0.16165551429E+04  0.31891837143E+03  0.71037829702E+03  0.17943234889E+04  0.00000000000E+00 0. -1.
         22    1    1    2    0    0  0.19860735222E+04 -0.39744298180E+03 -0.74037233773E+02  0.20268030174E+04  0.00000000000E+00 0.  1.
<mgrwt>
<rscale>  0 0.41485106E+04</rscale>
<asrwt>0</asrwt>
<pdfrwt beam="1">  1        2 0.26651938E+00 0.41485106E+04</pdfrwt>
<pdfrwt beam="2">  1       -2 0.38209285E+00 0.41485106E+04</pdfrwt>
<totfact> 0.71155382E-02</totfact>
</mgrwt>
</event>
<event>
 6    1  0.1934315E-005  0.2331856E+04  0.7818608E-02  0.8465466E-01
         -2   -1    0    0    0  501 -0.00000000000E+00  0.00000000000E+00  0.21170353044E+04  0.21170353044E+04  0.00000000000E+00 0. -1.
          2   -1    0    0  501    0  0.00000000000E+00 -0.00000000000E+00 -0.64211860675E+03  0.64211860675E+03  0.00000000000E+00 0.  1.
         23    2    1    2    0    0 -0.91238118594E+03 -0.41431063598E+03  0.37665324170E+02  0.10070739352E+04  0.93201409843E+02 0.  0.
         11    1    3    3    0    0 -0.63611527235E+03 -0.26993765553E+03 -0.13694007075E+02  0.69115591831E+03  0.00000000000E+00 0.  1.
        -11    1    3    3    0    0 -0.27626591359E+03 -0.14437298045E+03  0.51359331245E+02  0.31591801690E+03  0.00000000000E+00 0. -1.
         22    1    1    2    0    0  0.91238118594E+03  0.41431063598E+03  0.14372513735E+04  0.17520799760E+04  0.00000000000E+00 0. -1.
<mgrwt>
<rscale>  0 0.23318557E+04</rscale>
<asrwt>0</asrwt>
<pdfrwt beam="1">  1        2 0.98787479E-01 0.23318557E+04</pdfrwt>
<pdfrwt beam="2">  1       -2 0.32569774E+00 0.23318557E+04</pdfrwt>
<totfact> 0.91183833E-01</totfact>
</mgrwt>
</event>
<event>
 6    1  0.1934315E-005  0.4193481E+04  0.7818608E-02  0.7966613E-01
          2   -1    0    0  501    0  0.00000000000E+00  0.00000000000E+00  0.21488037043E+04  0.21488037043E+04  0.00000000000E+00 0.  1.
         -2   -1    0    0    0  501 -0.00000000000E+00 -0.00000000000E+00 -0.20459387849E+04  0.20459387849E+04  0.00000000000E+00 0. -1.
         23    2    1    2    0    0 -0.94608830947E+03  0.49677723264E+03 -0.17519376822E+04  0.20541436479E+04  0.91377109030E+02 0.  0.
         13    1    3    3    0    0 -0.33018065492E+03  0.22322960103E+03 -0.64988928236E+03  0.76236920123E+03  0.00000000000E+00 0. -1.
        -13    1    3    3    0    0 -0.61590765455E+03  0.27354763161E+03 -0.11020483998E+04  0.12917744467E+04  0.00000000000E+00 0.  1.
         22    1    1    2    0    0  0.94608830947E+03 -0.49677723264E+03  0.18548026016E+04  0.21405988412E+04  0.00000000000E+00 0.  1.
<mgrwt>
<rscale>  0 0.41934811E+04</rscale>
<asrwt>0</asrwt>
<pdfrwt beam="1">  1        2 0.33058519E+00 0.41934811E+04</pdfrwt>
<pdfrwt beam="2">  1       -2 0.31475981E+00 0.41934811E+04</pdfrwt>
<totfact> 0.11053770E-01</totfact>
</mgrwt>
</event>
<event>
 6    1  0.1934315E-005  0.1218241E+04  0.7818608E-02  0.9097038E-01
          1   -1    0    0  501    0  0.00000000000E+00  0.00000000000E+00  0.73499438759E+03  0.73499438759E+03  0.00000000000E+00 0.  1.
         -1   -1    0    0    0  501 -0.00000000000E+00 -0.00000000000E+00 -0.50480375190E+03  0.50480375190E+03  0.00000000000E+00 0. -1.
         23    2    1    2    0    0  0.53555976580E+03 -0.23124158266E+03 -0.50497917021E+02  0.59243194025E+03  0.90158925860E+02 0.  0.
         13    1    3    3    0    0  0.57053119950E+02  0.13340078800E+01  0.61108959184E+01  0.57394957287E+02  0.00000000000E+00 0.  1.
        -13    1    3    3    0    0  0.47850664585E+03 -0.23257559054E+03 -0.56608812940E+02  0.53503698296E+03  0.00000000000E+00 0. -1.
         22    1    1    2    0    0 -0.53555976580E+03  0.23124158266E+03  0.28068855271E+03  0.64736619924E+03  0.00000000000E+00 0. -1.
<mgrwt>
<rscale>  0 0.12182412E+04</rscale>
<asrwt>0</asrwt>
<pdfrwt beam="1">  1        1 0.11307606E+00 0.12182412E+04</pdfrwt>
<pdfrwt beam="2">  1       -1 0.77662115E-01 0.12182412E+04</pdfrwt>
<totfact> 0.41524194E+01</totfact>
</mgrwt>
</event>
<event>
 6    1  0.1934315E-005  0.3762974E+04  0.7818608E-02  0.8054148E-01
         -2   -1    0    0    0  501 -0.00000000000E+00  0.00000000000E+00  0.15880978765E+04  0.15880978765E+04  0.00000000000E+00 0. -1.
          2   -1    0    0  501    0  0.00000000000E+00 -0.00000000000E+00 -0.22290773000E+04  0.22290773000E+04  0.00000000000E+00 0.  1.
         23    2    1    2    0    0  0.13162520213E+03 -0.90862097895E+03  0.13439677377E+04  0.16301835191E+04  0.91278414133E+02 0.  0.
         13    1    3    3    0    0  0.24835788244E+02 -0.36797645301E+03  0.47822233711E+03  0.60392059914E+03  0.00000000000E+00 0.  1.
        -13    1    3    3    0    0  0.10678941389E+03 -0.54064452594E+03  0.86574540054E+03  0.10262629200E+04  0.00000000000E+00 0. -1.
         22    1    1    2    0    0 -0.13162520213E+03  0.90862097895E+03 -0.19849471612E+04  0.21869916575E+04  0.00000000000E+00 0.  1.
<mgrwt>
<rscale>  0 0.37629738E+04</rscale>
<asrwt>0</asrwt>
<pdfrwt beam="1">  1        2 0.34293497E+00 0.37629738E+04</pdfrwt>
<pdfrwt beam="2">  1       -2 0.24432275E+00 0.37629738E+04</pdfrwt>
<totfact> 0.27857549E-01</totfact>
</mgrwt>
</event>
<event>
 6    1  0.1934315E-005  0.1578763E+04  0.7818608E-02  0.8833702E-01
          2   -1    0    0  501    0  0.00000000000E+00  0.00000000000E+00  0.78858095310E+03  0.78858095310E+03  0.00000000000E+00 0.  1.
         -2   -1    0    0    0  501 -0.00000000000E+00 -0.00000000000E+00 -0.79018259483E+03  0.79018259483E+03  0.00000000000E+00 0. -1.
         23    2    1    2    0    0  0.43908585074E+03 -0.33362933009E+03  0.56030798264E+03  0.79145970559E+03  0.91424919765E+02 0.  0.
         13    1    3    3    0    0  0.36235653595E+03 -0.27023326350E+03  0.40457513748E+03  0.60663771538E+03  0.00000000000E+00 0. -1.
        -13    1    3    3    0    0  0.76729314785E+02 -0.63396066590E+02  0.15573284516E+03  0.18482199022E+03  0.00000000000E+00 0.  1.
         22    1    1    2    0    0 -0.43908585074E+03  0.33362933009E+03 -0.56190962436E+03  0.78730384234E+03  0.00000000000E+00 0. -1.
<mgrwt>
<rscale>  0 0.15787627E+04</rscale>
<asrwt>0</asrwt>
<pdfrwt beam="1">  1        2 0.12132015E+00 0.15787627E+04</pdfrwt>
<pdfrwt beam="2">  1       -2 0.12156655E+00 0.15787627E+04</pdfrwt>
<totfact> 0.17336128E+01</totfact>
</mgrwt>
</event>
<event>
 6    1  0.1934315E-005  0.1920861E+04  0.7818608E-02  0.8644541E-01
         -2   -1    0    0    0  501 -0.00000000000E+00  0.00000000000E+00  0.39190425530E+03  0.39190425530E+03  0.00000000000E+00 0. -1.
          2   -1    0    0  501    0  0.00000000000E+00 -0.00000000000E+00 -0.23537052589E+04  0.23537052589E+04  0.00000000000E+00 0.  1.
         23    2    1    2    0    0 -0.17492436239E+03  0.84501843381E+03 -0.38773586085E+03  0.95052295370E+03  0.92195996050E+02 0.  0.
         13    1    3    3    0    0 -0.62076773598E+02  0.48316522903E+03 -0.24718200628E+03  0.54626102606E+03  0.00000000000E+00 0.  1.
        -13    1    3    3    0    0 -0.11284758879E+03  0.36185320478E+03 -0.14055385457E+03  0.40426192764E+03  0.00000000000E+00 0. -1.
         22    1    1    2    0    0  0.17492436239E+03 -0.84501843381E+03 -0.15740651427E+04  0.17950865605E+04  0.00000000000E+00 0.  1.
<mgrwt>
<rscale>  0 0.19208614E+04</rscale>
<asrwt>0</asrwt>
<pdfrwt beam="1">  1        2 0.36210850E+00 0.19208614E+04</pdfrwt>
<pdfrwt beam="2">  1       -2 0.60292963E-01 0.19208614E+04</pdfrwt>
<totfact> 0.10131298E+01</totfact>
</mgrwt>
</event>
<event>
 6    1  0.1934315E-005  0.2497125E+04  0.7818608E-02  0.8404011E-01
         -2   -1    0    0    0  501 -0.00000000000E+00  0.00000000000E+00  0.76361117777E+03  0.76361117777E+03  0.00000000000E+00 0. -1.
          2   -1    0    0  501    0  0.00000000000E+00 -0.00000000000E+00 -0.20414943367E+04  0.20414943367E+04  0.00000000000E+00 0.  1.
         23    2    1    2    0    0 -0.19371684738E+03 -0.11481295501E+04 -0.11404047611E+04  0.16326602106E+04  0.96585006692E+02 0.  0.
         13    1    3    3    0    0 -0.94812709884E+02 -0.52609983521E+03 -0.45712334853E+03  0.70337205114E+03  0.00000000000E+00 0.  1.
        -13    1    3    3    0    0 -0.98904137495E+02 -0.62202971486E+03 -0.68328141258E+03  0.92928815949E+03  0.00000000000E+00 0. -1.
         22    1    1    2    0    0  0.19371684738E+03  0.11481295501E+04 -0.13747839787E+03  0.11724453039E+04  0.00000000000E+00 0. -1.
<mgrwt>
<rscale>  0 0.24971247E+04</rscale>
<asrwt>0</asrwt>
<pdfrwt beam="1">  1        2 0.31407605E+00 0.24971247E+04</pdfrwt>
<pdfrwt beam="2">  1       -2 0.11747864E+00 0.24971247E+04</pdfrwt>
<totfact> 0.31626507E+00</totfact>
</mgrwt>
</event>
<event>
 6    1  0.1934315E-005  0.3070901E+04  0.7818608E-02  0.8223770E-01
          2   -1    0    0  501    0  0.00000000000E+00  0.00000000000E+00  0.11437620030E+04  0.11437620030E+04  0.00000000000E+00 0.  1.
         -2   -1    0    0    0  501 -0.00000000000E+00 -0.00000000000E+00 -0.20612752923E+04  0.20612752923E+04  0.00000000000E+00 0. -1.
         23    2    1    2    0    0  0.60016471512E+03 -0.13901076614E+04 -0.71403079138E+03  0.16772931667E+04  0.10428518860E+03 0.  0.
         11    1    3    3    0    0  0.18323548249E+03 -0.49969245418E+03 -0.29513465069E+03  0.60858216606E+03  0.00000000000E+00 0. -1.
        -11    1    3    3    0    0  0.41692923263E+03 -0.89041520718E+03 -0.41889614069E+03  0.10687110006E+04  0.00000000000E+00 0.  1.
         22    1    1    2    0    0 -0.60016471512E+03  0.13901076614E+04 -0.20348249798E+03  0.15277441286E+04  0.00000000000E+00 0.  1.
<mgrwt>
<rscale>  0 0.30709011E+04</rscale>
<asrwt>0</asrwt>
<pdfrwt beam="1">  1        2 0.17596339E+00 0.30709011E+04</pdfrwt>
<pdfrwt beam="2">  1       -2 0.31711927E+00 0.30709011E+04</pdfrwt>
<totfact> 0.43472846E-01</totfact>
</mgrwt>
</event>
<event>
 6    1  0.1934315E-005  0.9979525E+03  0.7818608E-02  0.9310793E-01
          2   -1    0    0  501    0  0.00000000000E+00  0.00000000000E+00  0.85304050301E+03  0.85304050301E+03  0.00000000000E+00 0.  1.
         -2   -1    0    0    0  501 -0.00000000000E+00 -0.00000000000E+00 -0.29187044768E+03  0.29187044768E+03  0.00000000000E+00 0. -1.
         23    2    1    2    0    0 -0.11644253546E+03 -0.32955669750E+03  0.68435253811E+03  0.77431628668E+03  0.95188415677E+02 0.  0.
         11    1    3    3    0    0  0.97939658962E+00 -0.62391284130E+02  0.19296757738E+03  0.20280561499E+03  0.00000000000E+00 0. -1.
        -11    1    3    3    0    0 -0.11742193204E+03 -0.26716541337E+03  0.49138496073E+03  0.57151067169E+03  0.00000000000E+00 0.  1.
         22    1    1    2    0    0  0.11644253546E+03  0.32955669750E+03 -0.12318248277E+03  0.37059466401E+03  0.00000000000E+00 0. -1.
<mgrwt>
<rscale>  0 0.99795253E+03</rscale>
<asrwt>0</asrwt>
<pdfrwt beam="1">  1        2 0.13123700E+00 0.99795253E+03</pdfrwt>
<pdfrwt beam="2">  1       -2 0.44903146E-01 0.99795253E+03</pdfrwt>
<totfact> 0.14827017E+02</totfact>
</mgrwt>
</event>
<event>
 6    1  0.1934315E-005  0.1189502E+04  0.7818608E-02  0.9122095E-01
          2   -1    0    0  501    0  0.00000000000E+00  0.00000000000E+00  0.13912784445E+04  0.13912784445E+04  0.00000000000E+00 0.  1.
         -2   -1    0    0    0  501 -0.00000000000E+00 -0.00000000000E+00 -0.25424737344E+03  0.25424737344E+03  0.00000000000E+00 0. -1.
         23    2    1    2    0    0 -0.39506019289E+03 -0.40433989332E+03  0.81152126427E+03  0.99320692380E+03  0.91268427154E+02 0.  0.
         13    1    3    3    0    0 -0.20391327281E+03 -0.26767532987E+03  0.44666849520E+03  0.55923469997E+03  0.00000000000E+00 0.  1.
        -13    1    3    3    0    0 -0.19114692009E+03 -0.13666456345E+03  0.36485276907E+03  0.43397222383E+03  0.00000000000E+00 0. -1.
         22    1    1    2    0    0  0.39506019289E+03  0.40433989332E+03  0.32550980680E+03  0.65231889415E+03  0.00000000000E+00 0. -1.
<mgrwt>
<rscale>  0 0.11895022E+04</rscale>
<asrwt>0</asrwt>
<pdfrwt beam="1">  1        2 0.21404283E+00 0.11895022E+04</pdfrwt>
<pdfrwt beam="2">  1       -2 0.39114981E-01 0.11895022E+04</pdfrwt>
<totfact> 0.89252669E+01</totfact>
</mgrwt>
</event>
<event>
 6    1  0.1934315E-005  0.2744448E+04  0.7818608E-02  0.8320726E-01
          2   -1    0    0  501    0  0.00000000000E+00  0.00000000000E+00  0.23299251034E+04  0.23299251034E+04  0.00000000000E+00 0.  1.
         -2   -1    0    0    0  501 -0.00000000000E+00 -0.00000000000E+00 -0.80817995911E+03  0.80817995911E+03  0.00000000000E+00 0. -1.
         23    2    1    2    0    0  0.92321160183E+03 -0.89389923500E+03  0.13059705744E+04  0.18350570323E+04  0.10246787900E+03 0.  0.
         11    1    3    3    0    0  0.16827022710E+03 -0.11253930557E+03  0.21738773290E+03  0.29704779252E+03  0.00000000000E+00 0. -1.
        -11    1    3    3    0    0  0.75494137472E+03 -0.78135992943E+03  0.10885828415E+04  0.15380092397E+04  0.00000000000E+00 0.  1.
         22    1    1    2    0    0 -0.92321160183E+03  0.89389923500E+03  0.21577456979E+03  0.13030480302E+04  0.00000000000E+00 0.  1.
<mgrwt>
<rscale>  0 0.27444480E+04</rscale>
<asrwt>0</asrwt>
<pdfrwt beam="1">  1        2 0.35845001E+00 0.27444480E+04</pdfrwt>
<pdfrwt beam="2">  1       -2 0.12433538E+00 0.27444480E+04</pdfrwt>
<totfact> 0.18514920E+00</totfact>
</mgrwt>
</event>
<event>
 6    1  0.1934315E-005  0.9335489E+03  0.7818608E-02  0.9384589E-01
         -2   -1    0    0    0  501 -0.00000000000E+00  0.00000000000E+00  0.59827610281E+03  0.59827610281E+03  0.00000000000E+00 0. -1.
          2   -1    0    0  501    0  0.00000000000E+00 -0.00000000000E+00 -0.36417701900E+03  0.36417701900E+03  0.00000000000E+00 0.  1.
         23    2    1    2    0    0  0.13349650957E+03  0.18367878715E+03  0.53325504661E+03  0.58688221639E+03  0.92252784541E+02 0.  0.
         13    1    3    3    0    0  0.87869305287E+02  0.17876675077E+03  0.43496690285E+03  0.47840858329E+03  0.00000000000E+00 0.  1.
        -13    1    3    3    0    0  0.45627204287E+02  0.49120363804E+01  0.98288143761E+02  0.10847363309E+03  0.00000000000E+00 0. -1.
         22    1    1    2    0    0 -0.13349650957E+03 -0.18367878715E+03 -0.29915596281E+03  0.37557090543E+03  0.00000000000E+00 0.  1.
<mgrwt>
<rscale>  0 0.93354894E+03</rscale>
<asrwt>0</asrwt>
<pdfrwt beam="1">  1        2 0.56027234E-01 0.93354894E+03</pdfrwt>
<pdfrwt beam="2">  1       -2 0.92042477E-01 0.93354894E+03</pdfrwt>
<totfact> 0.88863145E+01</totfact>
</mgrwt>
</event>
<event>
 6    1  0.1934315E-005  0.1737360E+04  0.7818608E-02  0.8740339E-01
          2   -1    0    0  501    0  0.00000000000E+00  0.00000000000E+00  0.15147616412E+04  0.15147616412E+04  0.00000000000E+00 0.  1.
         -2   -1    0    0    0  501 -0.00000000000E+00 -0.00000000000E+00 -0.49816754441E+03  0.49816754441E+03  0.00000000000E+00 0. -1.
         23    2    1    2    0    0 -0.29795210128E+03  0.35326276605E+03 -0.33898123814E+03  0.58074395835E+03  0.93729551479E+02 0.  0.
         13    1    3    3    0    0 -0.92387601813E+02  0.79976227269E+02 -0.46452238887E+02  0.13072672410E+03  0.00000000000E+00 0. -1.
        -13    1    3    3    0    0 -0.20556449946E+03  0.27328653878E+03 -0.29252899925E+03  0.45001723425E+03  0.00000000000E+00 0.  1.
         22    1    1    2    0    0  0.29795210128E+03 -0.35326276605E+03  0.13555753349E+04  0.14321852273E+04  0.00000000000E+00 0.  1.
<mgrwt>
<rscale>  0 0.17373602E+04</rscale>
<asrwt>0</asrwt>
<pdfrwt beam="1">  1        2 0.23304025E+00 0.17373602E+04</pdfrwt>
<pdfrwt beam="2">  1       -2 0.76641161E-01 0.17373602E+04</pdfrwt>
<totfact> 0.17977813E+01</totfact>
</mgrwt>
</event>
<event>
 6    1  0.1934315E-005  0.4002469E+04  0.7818608E-02  0.8004049E-01
          2   -1    0    0  501    0  0.00000000000E+00  0.00000000000E+00  0.36990427438E+04  0.36990427438E+04  0.00000000000E+00 0.  1.
         -2   -1    0    0    0  501 -0.00000000000E+00 -0.00000000000E+00 -0.10826961931E+04  0.10826961931E+04  0.00000000000E+00 0. -1.
         23    2    1    2    0    0  0.15915973367E+04  0.69707523700E+03  0.24926672829E+04  0.30397881541E+04  0.88463950094E+02 0.  0.
         13    1    3    3    0    0  0.74993908353E+03  0.34831322696E+03  0.11157542347E+04  0.13887542063E+04  0.00000000000E+00 0. -1.
        -13    1    3    3    0    0  0.84165825316E+03  0.34876201003E+03  0.13769130481E+04  0.16510339478E+04  0.00000000000E+00 0.  1.
         22    1    1    2    0    0 -0.15915973367E+04 -0.69707523700E+03  0.12367926786E+03  0.17419507827E+04  0.00000000000E+00 0. -1.
<mgrwt>
<rscale>  0 0.40024690E+04</rscale>
<asrwt>0</asrwt>
<pdfrwt beam="1">  1        2 0.56908349E+00 0.40024690E+04</pdfrwt>
<pdfrwt beam="2">  1       -2 0.16656865E+00 0.40024690E+04</pdfrwt>
<totfact> 0.10374927E-01</totfact>
</mgrwt>
</event>
<event>
 6    1  0.1934315E-005  0.4570494E+04  0.7818608E-02  0.7898410E-01
          2   -1    0    0  501    0  0.00000000000E+00  0.00000000000E+00  0.19582681722E+04  0.19582681722E+04  0.00000000000E+00 0.  1.
         -2   -1    0    0    0  501 -0.00000000000E+00 -0.00000000000E+00 -0.26668230704E+04  0.26668230704E+04  0.00000000000E+00 0. -1.
         23    2    1    2    0    0 -0.17193395407E+04  0.81179666881E+03  0.92645547876E+03  0.21174227597E+04  0.10008546971E+03 0.  0.
         11    1    3    3    0    0 -0.96804750210E+03  0.46227339502E+03  0.46760019849E+03  0.11702404042E+04  0.00000000000E+00 0.  1.
        -11    1    3    3    0    0 -0.75129203862E+03  0.34952327378E+03  0.45885528026E+03  0.94718235543E+03  0.00000000000E+00 0. -1.
         22    1    1    2    0    0  0.17193395407E+04 -0.81179666881E+03 -0.16350103769E+04  0.25076684829E+04  0.00000000000E+00 0. -1.
<mgrwt>
<rscale>  0 0.45704944E+04</rscale>
<asrwt>0</asrwt>
<pdfrwt beam="1">  1        2 0.30127203E+00 0.45704944E+04</pdfrwt>
<pdfrwt beam="2">  1       -2 0.41028047E+00 0.45704944E+04</pdfrwt>
<totfact> 0.33756431E-02</totfact>
</mgrwt>
</event>
<event>
 6    1  0.1934315E-005  0.2879400E+04  0.7818608E-02  0.8279033E-01
         -2   -1    0    0    0  501 -0.00000000000E+00  0.00000000000E+00  0.13653731868E+04  0.13653731868E+04  0.00000000000E+00 0. -1.
          2   -1    0    0  501    0  0.00000000000E+00 -0.00000000000E+00 -0.15180731729E+04  0.15180731729E+04  0.00000000000E+00 0.  1.
         23    2    1    2    0    0  0.79638903344E+03  0.49466150177E+03 -0.11688445841E+04  0.15008852081E+04  0.86794309933E+02 0.  0.
         11    1    3    3    0    0  0.62399276549E+03  0.34521578325E+03 -0.87072149907E+03  0.11254762713E+04  0.00000000000E+00 0. -1.
        -11    1    3    3    0    0  0.17239626795E+03  0.14944571852E+03 -0.29812308506E+03  0.37540893681E+03  0.00000000000E+00 0.  1.
         22    1    1    2    0    0 -0.79638903344E+03 -0.49466150177E+03  0.10161445980E+04  0.13825611516E+04  0.00000000000E+00 0. -1.
<mgrwt>
<rscale>  0 0.28794002E+04</rscale>
<asrwt>0</asrwt>
<pdfrwt beam="1">  1        2 0.23354972E+00 0.28794002E+04</pdfrwt>
<pdfrwt beam="2">  1       -2 0.21005742E+00 0.28794002E+04</pdfrwt>
<totfact> 0.12265162E+00</totfact>
</mgrwt>
</event>
<event>
 6    1  0.1934315E-005  0.1459051E+04  0.7818608E-02  0.8912150E-01
          4   -1    0    0  501    0  0.00000000000E+00  0.00000000000E+00  0.94911265653E+03  0.94911265653E+03  0.00000000000E+00 0.  1.
         -4   -1    0    0    0  501 -0.00000000000E+00 -0.00000000000E+00 -0.56074219132E+03  0.56074219132E+03  0.00000000000E+00 0. -1.
         23    2    1    2    0    0 -0.71607547885E+03 -0.58400566690E+02  0.81634964406E+02  0.72866256355E+03  0.90056351876E+02 0.  0.
         11    1    3    3    0    0 -0.24615817502E+03 -0.32087126261E+02 -0.13033481008E+02  0.24858258674E+03  0.00000000000E+00 0. -1.
        -11    1    3    3    0    0 -0.46991730382E+03 -0.26313440428E+02  0.94668445414E+02  0.48007997681E+03  0.00000000000E+00 0.  1.
         22    1    1    2    0    0  0.71607547885E+03  0.58400566690E+02  0.30673550081E+03  0.78119228430E+03  0.00000000000E+00 0. -1.
<mgrwt>
<rscale>  0 0.14590511E+04</rscale>
<asrwt>0</asrwt>
<pdfrwt beam="1">  1        4 0.14601733E+00 0.14590511E+04</pdfrwt>
<pdfrwt beam="2">  1       -4 0.86268030E-01 0.14590511E+04</pdfrwt>
<totfact> 0.72358642E-01</totfact>
</mgrwt>
</event>
<event>
 6    1  0.1934315E-005  0.3332795E+04  0.7818608E-02  0.8154600E-01
          2   -1    0    0  501    0  0.00000000000E+00  0.00000000000E+00  0.20362054081E+04  0.20362054081E+04  0.00000000000E+00 0.  1.
         -2   -1    0    0    0  501 -0.00000000000E+00 -0.00000000000E+00 -0.13637530129E+04  0.13637530129E+04  0.00000000000E+00 0. -1.
         23    2    1    2    0    0  0.37169996915E+03 -0.55522665334E+03 -0.12195053485E+04  0.13934835002E+04  0.90362971713E+02 0.  0.
         11    1    3    3    0    0  0.56707497030E+02 -0.71258417016E+02 -0.11087588723E+03  0.14348158273E+03  0.00000000000E+00 0.  1.
        -11    1    3    3    0    0  0.31499247212E+03 -0.48396823633E+03 -0.11086294613E+04  0.12500019175E+04  0.00000000000E+00 0. -1.
         22    1    1    2    0    0 -0.37169996915E+03  0.55522665334E+03  0.18919577438E+04  0.20064749208E+04  0.00000000000E+00 0.  1.
<mgrwt>
<rscale>  0 0.33327954E+04</rscale>
<asrwt>0</asrwt>
<pdfrwt beam="1">  1        2 0.31326237E+00 0.33327954E+04</pdfrwt>
<pdfrwt beam="2">  1       -2 0.20980816E+00 0.33327954E+04</pdfrwt>
<totfact> 0.61013995E-01</totfact>
</mgrwt>
</event>
<event>
 6    1  0.1934315E-005  0.1830171E+04  0.7818608E-02  0.8690417E-01
         -2   -1    0    0    0  501 -0.00000000000E+00  0.00000000000E+00  0.97733601605E+03  0.97733601605E+03  0.00000000000E+00 0. -1.
          2   -1    0    0  501    0  0.00000000000E+00 -0.00000000000E+00 -0.85680025411E+03  0.85680025411E+03  0.00000000000E+00 0.  1.
         23    2    1    2    0    0  0.56973155928E+03 -0.34376823347E+03  0.68672979580E+03  0.96043933646E+03  0.89862442655E+02 0.  0.
         11    1    3    3    0    0  0.16515873772E+03 -0.58596017519E+02  0.20568987858E+03  0.27022070251E+03  0.00000000000E+00 0.  1.
        -11    1    3    3    0    0  0.40457282156E+03 -0.28517221595E+03  0.48103991722E+03  0.69021863395E+03  0.00000000000E+00 0. -1.
         22    1    1    2    0    0 -0.56973155928E+03  0.34376823347E+03 -0.56619403386E+03  0.87369693371E+03  0.00000000000E+00 0.  1.
<mgrwt>
<rscale>  0 0.18301713E+04</rscale>
<asrwt>0</asrwt>
<pdfrwt beam="1">  1        2 0.13181542E+00 0.18301713E+04</pdfrwt>
<pdfrwt beam="2">  1       -2 0.15035939E+00 0.18301713E+04</pdfrwt>
<totfact> 0.88000068E+00</totfact>
</mgrwt>
</event>
<event>
 6    1  0.1934315E-005  0.3479852E+03  0.7818608E-02  0.1063445E+00
         -2   -1    0    0    0  501 -0.00000000000E+00  0.00000000000E+00  0.64192974084E+02  0.64192974084E+02  0.00000000000E+00 0. -1.
          2   -1    0    0  501    0  0.00000000000E+00 -0.00000000000E+00 -0.47160016765E+03  0.47160016765E+03  0.00000000000E+00 0.  1.
         23    2    1    2    0    0  0.52320975108E+02  0.13058818324E+03 -0.34159921447E+03  0.38048233029E+03  0.91027590860E+02 0.  0.
         11    1    3    3    0    0  0.60428888440E+02  0.75984329573E+02 -0.28643798502E+03  0.30244336356E+03  0.00000000000E+00 0. -1.
        -11    1    3    3    0    0 -0.81079133315E+01  0.54603853668E+02 -0.55161229452E+02  0.78038966732E+02  0.00000000000E+00 0.  1.
         22    1    1    2    0    0 -0.52320975108E+02 -0.13058818324E+03 -0.65807979094E+02  0.15531081144E+03  0.00000000000E+00 0. -1.
<mgrwt>
<rscale>  0 0.34798516E+03</rscale>
<asrwt>0</asrwt>
<pdfrwt beam="1">  1        2 0.72553870E-01 0.34798516E+03</pdfrwt>
<pdfrwt beam="2">  1       -2 0.98758424E-02 0.34798516E+03</pdfrwt>
<totfact> 0.45172222E+03</totfact>
</mgrwt>
</event>
<event>
 6    1  0.1934315E-005  0.9635826E+03  0.7818608E-02  0.9349414E-01
          2   -1    0    0  501    0  0.00000000000E+00  0.00000000000E+00  0.18435835760E+04  0.18435835760E+04  0.00000000000E+00 0.  1.
         -2   -1    0    0    0  501 -0.00000000000E+00 -0.00000000000E+00 -0.12590851661E+03  0.12590851661E+03  0.00000000000E+00 0. -1.
         23    2    1    2    0    0 -0.16711850085E+03 -0.22921187016E+03  0.81810719136E+02  0.30921536433E+03  0.91948208366E+02 0.  0.
         11    1    3    3    0    0 -0.16472551274E+03 -0.16239935692E+03  0.65068352890E+02  0.24029551852E+03  0.00000000000E+00 0.  1.
        -11    1    3    3    0    0 -0.23929881083E+01 -0.66812513245E+02  0.16742366246E+02  0.68919845804E+02  0.00000000000E+00 0. -1.
         22    1    1    2    0    0  0.16711850085E+03  0.22921187016E+03  0.16358643402E+04  0.16602767282E+04  0.00000000000E+00 0.  1.
<mgrwt>
<rscale>  0 0.96358263E+03</rscale>
<asrwt>0</asrwt>
<pdfrwt beam="1">  1        2 0.28362822E+00 0.96358263E+03</pdfrwt>
<pdfrwt beam="2">  1       -2 0.19370542E-01 0.96358263E+03</pdfrwt>
<totfact> 0.18499434E+02</totfact>
</mgrwt>
</event>
<event>
 6    1  0.1934315E-005  0.3348535E+04  0.7818608E-02  0.8150654E-01
         -2   -1    0    0    0  501 -0.00000000000E+00  0.00000000000E+00  0.72022603634E+03  0.72022603634E+03  0.00000000000E+00 0. -1.
          2   -1    0    0  501    0  0.00000000000E+00 -0.00000000000E+00 -0.38920710284E+04  0.38920710284E+04  0.00000000000E+00 0.  1.
         23    2    1    2    0    0 -0.83366775963E+03  0.12507771996E+04 -0.57557347145E+03  0.16122851739E+04  0.93451187760E+02 0.  0.
         11    1    3    3    0    0 -0.46626143698E+03  0.62867705268E+03 -0.27231264050E+03  0.82872717969E+03  0.00000000000E+00 0. -1.
        -11    1    3    3    0    0 -0.36740632265E+03  0.62210014691E+03 -0.30326083095E+03  0.78355799421E+03  0.00000000000E+00 0.  1.
         22    1    1    2    0    0  0.83366775963E+03 -0.12507771996E+04 -0.25962715206E+04  0.30000118909E+04  0.00000000000E+00 0.  1.
<mgrwt>
<rscale>  0 0.33485345E+04</rscale>
<asrwt>0</asrwt>
<pdfrwt beam="1">  1        2 0.59878016E+00 0.33485345E+04</pdfrwt>
<pdfrwt beam="2">  1       -2 0.11080401E+00 0.33485345E+04</pdfrwt>
<totfact> 0.22346923E-01</totfact>
</mgrwt>
</event>
<event>
 6    1  0.1934315E-005  0.7941746E+03  0.7818608E-02  0.9568488E-01
          2   -1    0    0  501    0  0.00000000000E+00  0.00000000000E+00  0.15482822755E+03  0.15482822755E+03  0.00000000000E+00 0.  1.
         -2   -1    0    0    0  501 -0.00000000000E+00 -0.00000000000E+00 -0.10184081665E+04  0.10184081665E+04  0.00000000000E+00 0. -1.
         23    2    1    2    0    0 -0.28991413051E+03  0.41612483677E+02 -0.82267283596E+03  0.87750815235E+03  0.86302726155E+02 0.  0.
         11    1    3    3    0    0 -0.13934209670E+03  0.15235319795E+02 -0.51808858347E+03  0.53671604709E+03  0.00000000000E+00 0. -1.
        -11    1    3    3    0    0 -0.15057203381E+03  0.26377163881E+02 -0.30458425249E+03  0.34079210526E+03  0.00000000000E+00 0.  1.
         22    1    1    2    0    0  0.28991413051E+03 -0.41612483677E+02 -0.40907102993E+02  0.29572824171E+03  0.00000000000E+00 0.  1.
<mgrwt>
<rscale>  0 0.79417462E+03</rscale>
<asrwt>0</asrwt>
<pdfrwt beam="1">  1        2 0.23819728E-01 0.79417462E+03</pdfrwt>
<pdfrwt beam="2">  1       -2 0.15667817E+00 0.79417462E+03</pdfrwt>
<totfact> 0.62360663E+01</totfact>
</mgrwt>
</event>
<event>
 6    1  0.2244463E-005  0.2691834E+04  0.7818608E-02  0.8337660E-01
          2   -1    0    0  501    0  0.00000000000E+00  0.00000000000E+00  0.29946416901E+04  0.29946416901E+04  0.00000000000E+00 0.  1.
         -2   -1    0    0    0  501 -0.00000000000E+00 -0.00000000000E+00 -0.60491107484E+03  0.60491107484E+03  0.00000000000E+00 0. -1.
         23    2    1    2    0    0 -0.43779162321E+03  0.42911363495E+03  0.27962042854E+04  0.28640115618E+04  0.89463976650E+02 0.  0.
         13    1    3    3    0    0 -0.28020471246E+03  0.22580016712E+03  0.15040434262E+04  0.15464950774E+04  0.00000000000E+00 0. -1.
        -13    1    3    3    0    0 -0.15758691074E+03  0.20331346783E+03  0.12921608592E+04  0.13175164844E+04  0.00000000000E+00 0.  1.
         22    1    1    2    0    0  0.43779162321E+03 -0.42911363495E+03 -0.40647367015E+03  0.73554120318E+03  0.00000000000E+00 0. -1.
<mgrwt>
<rscale>  0 0.26918335E+04</rscale>
<asrwt>0</asrwt>
<pdfrwt beam="1">  1        2 0.46071410E+00 0.26918335E+04</pdfrwt>
<pdfrwt beam="2">  1       -2 0.93063244E-01 0.26918335E+04</pdfrwt>
<totfact> 0.15059358E+00</totfact>
</mgrwt>
</event>
<event>
 6    1  0.1934315E-005  0.4215808E+04  0.7818608E-02  0.7962372E-01
         -2   -1    0    0    0  501 -0.00000000000E+00  0.00000000000E+00  0.10867569902E+04  0.10867569902E+04  0.00000000000E+00 0. -1.
          2   -1    0    0  501    0  0.00000000000E+00 -0.00000000000E+00 -0.40885497397E+04  0.40885497397E+04  0.00000000000E+00 0.  1.
         23    2    1    2    0    0  0.15344733219E+04  0.11782757710E+04 -0.47689151732E+03  0.19944155969E+04  0.85591386784E+02 0.  0.
         11    1    3    3    0    0  0.51145373150E+03  0.44418774548E+03 -0.16644173478E+03  0.69756040870E+03  0.00000000000E+00 0. -1.
        -11    1    3    3    0    0  0.10230195904E+04  0.73408802555E+03 -0.31044978255E+03  0.12968551882E+04  0.00000000000E+00 0.  1.
         22    1    1    2    0    0 -0.15344733219E+04 -0.11782757710E+04 -0.25249012322E+04  0.31808911331E+04  0.00000000000E+00 0.  1.
<mgrwt>
<rscale>  0 0.42158083E+04</rscale>
<asrwt>0</asrwt>
<pdfrwt beam="1">  1        2 0.62900766E+00 0.42158083E+04</pdfrwt>
<pdfrwt beam="2">  1       -2 0.16719338E+00 0.42158083E+04</pdfrwt>
<totfact> 0.49845142E-02</totfact>
</mgrwt>
</event>
<event>
 6    1  0.1934315E-005  0.2250688E+04  0.7818608E-02  0.8497622E-01
          2   -1    0    0  501    0  0.00000000000E+00  0.00000000000E+00  0.52863892157E+03  0.52863892157E+03  0.00000000000E+00 0.  1.
         -2   -1    0    0    0  501 -0.00000000000E+00 -0.00000000000E+00 -0.23955841189E+04  0.23955841189E+04  0.00000000000E+00 0. -1.
         23    2    1    2    0    0  0.85794301313E+03  0.93357609909E+02 -0.26610474308E+00  0.86770348264E+03  0.90152126221E+02 0.  0.
         11    1    3    3    0    0  0.37097985436E+03 -0.39995630630E+01 -0.66974831587E+01  0.37106186159E+03  0.00000000000E+00 0.  1.
        -11    1    3    3    0    0  0.48696315877E+03  0.97357172972E+02  0.64313784156E+01  0.49664162105E+03  0.00000000000E+00 0. -1.
         22    1    1    2    0    0 -0.85794301313E+03 -0.93357609909E+02 -0.18666790926E+04  0.20565195579E+04  0.00000000000E+00 0. -1.
<mgrwt>
<rscale>  0 0.22506879E+04</rscale>
<asrwt>0</asrwt>
<pdfrwt beam="1">  1        2 0.81329065E-01 0.22506879E+04</pdfrwt>
<pdfrwt beam="2">  1       -2 0.36855140E+00 0.22506879E+04</pdfrwt>
<totfact> 0.62370073E-01</totfact>
</mgrwt>
</event>
<event>
 6    1  0.1934315E-005  0.2156183E+04  0.7818608E-02  0.8536890E-01
          2   -1    0    0  501    0  0.00000000000E+00  0.00000000000E+00  0.51377473190E+03  0.51377473190E+03  0.00000000000E+00 0.  1.
         -2   -1    0    0    0  501 -0.00000000000E+00 -0.00000000000E+00 -0.22622399952E+04  0.22622399952E+04  0.00000000000E+00 0. -1.
         23    2    1    2    0    0 -0.64253055975E+03  0.80098682802E+03 -0.46117923838E+03  0.11293421037E+04  0.91114643897E+02 0.  0.
         11    1    3    3    0    0 -0.42413129266E+03  0.59277595881E+03 -0.31459920871E+03  0.79387867642E+03  0.00000000000E+00 0. -1.
        -11    1    3    3    0    0 -0.21839926709E+03  0.20821086921E+03 -0.14658002967E+03  0.33546342725E+03  0.00000000000E+00 0.  1.
         22    1    1    2    0    0  0.64253055975E+03 -0.80098682802E+03 -0.12872860250E+04  0.16466726235E+04  0.00000000000E+00 0. -1.
<mgrwt>
<rscale>  0 0.21561834E+04</rscale>
<asrwt>0</asrwt>
<pdfrwt beam="1">  1        2 0.79042265E-01 0.21561834E+04</pdfrwt>
<pdfrwt beam="2">  1       -2 0.34803693E+00 0.21561834E+04</pdfrwt>
<totfact> 0.87739659E-01</totfact>
</mgrwt>
</event>
<event>
 6    1  0.1934315E-005  0.2979577E+04  0.7818608E-02  0.8249587E-01
         -2   -1    0    0    0  501 -0.00000000000E+00  0.00000000000E+00  0.12192081626E+04  0.12192081626E+04  0.00000000000E+00 0. -1.
          2   -1    0    0  501    0  0.00000000000E+00 -0.00000000000E+00 -0.18204187295E+04  0.18204187295E+04  0.00000000000E+00 0.  1.
         23    2    1    2    0    0 -0.13303165513E+04  0.46866076520E+03  0.18309512810E+03  0.14257742151E+04  0.99615495708E+02 0.  0.
         11    1    3    3    0    0 -0.79910680994E+03  0.33293666063E+03  0.11393905044E+03  0.87315555366E+03  0.00000000000E+00 0.  1.
        -11    1    3    3    0    0 -0.53120974139E+03  0.13572410457E+03  0.69156077655E+02  0.55261866145E+03  0.00000000000E+00 0. -1.
         22    1    1    2    0    0  0.13303165513E+04 -0.46866076520E+03 -0.78430569498E+03  0.16138526769E+04  0.00000000000E+00 0. -1.
<mgrwt>
<rscale>  0 0.29795767E+04</rscale>
<asrwt>0</asrwt>
<pdfrwt beam="1">  1        2 0.28006442E+00 0.29795767E+04</pdfrwt>
<pdfrwt beam="2">  1       -2 0.18757049E+00 0.29795767E+04</pdfrwt>
<totfact> 0.11603335E+00</totfact>
</mgrwt>
</event>
<event>
 6    1  0.1934315E-005  0.3867787E+04  0.7818608E-02  0.8031762E-01
         -2   -1    0    0    0  501 -0.00000000000E+00  0.00000000000E+00  0.96816050648E+03  0.96816050648E+03  0.00000000000E+00 0. -1.
          2   -1    0    0  501    0  0.00000000000E+00 -0.00000000000E+00 -0.38629385165E+04  0.38629385165E+04  0.00000000000E+00 0.  1.
         23    2    1    2    0    0 -0.17750399654E+04  0.74017681314E+03 -0.12061870947E+04  0.22718085212E+04  0.87166827887E+02 0.  0.
         13    1    3    3    0    0 -0.89574354742E+03  0.41811695260E+03 -0.60257343759E+03  0.11577016181E+04  0.00000000000E+00 0.  1.
        -13    1    3    3    0    0 -0.87929641797E+03  0.32205986054E+03 -0.60361365713E+03  0.11141069031E+04  0.00000000000E+00 0. -1.
         22    1    1    2    0    0  0.17750399654E+04 -0.74017681314E+03 -0.16885909153E+04  0.25592905018E+04  0.00000000000E+00 0.  1.
<mgrwt>
<rscale>  0 0.38677872E+04</rscale>
<asrwt>0</asrwt>
<pdfrwt beam="1">  1        2 0.59429823E+00 0.38677872E+04</pdfrwt>
<pdfrwt beam="2">  1       -2 0.14894777E+00 0.38677872E+04</pdfrwt>
<totfact> 0.10663059E-01</totfact>
</mgrwt>
</event>
<event>
 6    1  0.1934315E-005  0.2069560E+04  0.7818608E-02  0.8574772E-01
         -2   -1    0    0    0  501 -0.00000000000E+00  0.00000000000E+00  0.41914577395E+03  0.41914577395E+03  0.00000000000E+00 0. -1.
          2   -1    0    0  501    0  0.00000000000E+00 -0.00000000000E+00 -0.25546474952E+04  0.25546474952E+04  0.00000000000E+00 0.  1.
         23    2    1    2    0    0  0.35225000155E+02 -0.18214783612E+03 -0.25296687614E+04  0.25381485855E+04  0.92496296615E+02 0.  0.
         11    1    3    3    0    0 -0.26208530195E+02 -0.72702755905E+02 -0.12330911210E+04  0.12355105384E+04  0.00000000000E+00 0.  1.
        -11    1    3    3    0    0  0.61433530350E+02 -0.10944508022E+03 -0.12965776405E+04  0.13026380472E+04  0.00000000000E+00 0. -1.
         22    1    1    2    0    0 -0.35225000155E+02  0.18214783612E+03  0.39416704016E+03  0.43564468364E+03  0.00000000000E+00 0. -1.
<mgrwt>
<rscale>  0 0.20695601E+04</rscale>
<asrwt>0</asrwt>
<pdfrwt beam="1">  1        2 0.39302269E+00 0.20695601E+04</pdfrwt>
<pdfrwt beam="2">  1       -2 0.64483966E-01 0.20695601E+04</pdfrwt>
<totfact> 0.66411736E+00</totfact>
</mgrwt>
</event>
<event>
 6    1  0.1934315E-005  0.1000587E+04  0.7818608E-02  0.9307901E-01
         -2   -1    0    0    0  501 -0.00000000000E+00  0.00000000000E+00  0.41640159947E+03  0.41640159947E+03  0.00000000000E+00 0. -1.
          2   -1    0    0  501    0  0.00000000000E+00 -0.00000000000E+00 -0.60108725327E+03  0.60108725327E+03  0.00000000000E+00 0.  1.
         23    2    1    2    0    0 -0.27426199213E+03 -0.40300261211E+03 -0.18725344130E+03  0.53000824879E+03  0.90631930439E+02 0.  0.
         13    1    3    3    0    0 -0.19165926623E+03 -0.21043568428E+03 -0.12916283530E+03  0.31256917566E+03  0.00000000000E+00 0. -1.
        -13    1    3    3    0    0 -0.82602725904E+02 -0.19256692783E+03 -0.58090606006E+02  0.21743907314E+03  0.00000000000E+00 0.  1.
         22    1    1    2    0    0  0.27426199213E+03  0.40300261211E+03  0.25677875041E+01  0.48748060395E+03  0.00000000000E+00 0.  1.
<mgrwt>
<rscale>  0 0.10005872E+04</rscale>
<asrwt>0</asrwt>
<pdfrwt beam="1">  1        2 0.92474961E-01 0.10005872E+04</pdfrwt>
<pdfrwt beam="2">  1       -2 0.64061785E-01 0.10005872E+04</pdfrwt>
<totfact> 0.11136255E+02</totfact>
</mgrwt>
</event>
<event>
 6    1  0.1934315E-005  0.2019993E+04  0.7818608E-02  0.8597330E-01
         -2   -1    0    0    0  501 -0.00000000000E+00  0.00000000000E+00  0.89555456447E+03  0.89555456447E+03  0.00000000000E+00 0. -1.
          2   -1    0    0  501    0  0.00000000000E+00 -0.00000000000E+00 -0.11390623112E+04  0.11390623112E+04  0.00000000000E+00 0.  1.
         23    2    1    2    0    0  0.91085233413E+03  0.10335923335E+03  0.30062763776E+03  0.96858759730E+03  0.86312521469E+02 0.  0.
         11    1    3    3    0    0  0.46842083681E+03  0.52458460592E+02  0.10916513460E+03  0.48382537868E+03  0.00000000000E+00 0. -1.
        -11    1    3    3    0    0  0.44243149731E+03  0.50900772756E+02  0.19146250316E+03  0.48476221862E+03  0.00000000000E+00 0.  1.
         22    1    1    2    0    0 -0.91085233413E+03 -0.10335923335E+03 -0.54413538450E+03  0.10660292784E+04  0.00000000000E+00 0.  1.
<mgrwt>
<rscale>  0 0.20199925E+04</rscale>
<asrwt>0</asrwt>
<pdfrwt beam="1">  1        2 0.17524036E+00 0.20199925E+04</pdfrwt>
<pdfrwt beam="2">  1       -2 0.13777763E+00 0.20199925E+04</pdfrwt>
<totfact> 0.71598265E+00</totfact>
</mgrwt>
</event>
<event>
 6    1  0.1934315E-005  0.2251463E+04  0.7818608E-02  0.8497308E-01
          2   -1    0    0  501    0  0.00000000000E+00  0.00000000000E+00  0.13434987396E+04  0.13434987396E+04  0.00000000000E+00 0.  1.
         -2   -1    0    0    0  501 -0.00000000000E+00 -0.00000000000E+00 -0.94326243506E+03  0.94326243506E+03  0.00000000000E+00 0. -1.
         23    2    1    2    0    0  0.25423623091E+03  0.81100997526E+03 -0.54641541782E+03  0.10145494295E+04  0.91474012712E+02 0.  0.
         13    1    3    3    0    0  0.17734330779E+03  0.47850346010E+03 -0.37029308368E+03  0.63050232194E+03  0.00000000000E+00 0. -1.
        -13    1    3    3    0    0  0.76892923116E+02  0.33250651516E+03 -0.17612233414E+03  0.38404710757E+03  0.00000000000E+00 0.  1.
         22    1    1    2    0    0 -0.25423623091E+03 -0.81100997526E+03  0.94665172238E+03  0.12722117452E+04  0.00000000000E+00 0.  1.
<mgrwt>
<rscale>  0 0.22514634E+04</rscale>
<asrwt>0</asrwt>
<pdfrwt beam="1">  1        2 0.20669211E+00 0.22514634E+04</pdfrwt>
<pdfrwt beam="2">  1       -2 0.14511730E+00 0.22514634E+04</pdfrwt>
<totfact> 0.46425376E+00</totfact>
</mgrwt>
</event>
<event>
 6    1  0.2147990E-005  0.1952525E+04  0.7818608E-02  0.8629144E-01
          2   -1    0    0  501    0  0.00000000000E+00  0.00000000000E+00  0.13265581611E+04  0.13265581611E+04  0.00000000000E+00 0.  1.
         -2   -1    0    0    0  501 -0.00000000000E+00 -0.00000000000E+00 -0.71846696368E+03  0.71846696368E+03  0.00000000000E+00 0. -1.
         23    2    1    2    0    0  0.65666338439E+03  0.19874597431E+03  0.10289818493E+04  0.12401302847E+04  0.91720848988E+02 0.  0.
         11    1    3    3    0    0  0.50592176928E+03  0.13863066794E+03  0.71627934939E+03  0.88782397191E+03  0.00000000000E+00 0.  1.
        -11    1    3    3    0    0  0.15074161510E+03  0.60115306363E+02  0.31270249990E+03  0.35230631278E+03  0.00000000000E+00 0. -1.
         22    1    1    2    0    0 -0.65666338439E+03 -0.19874597431E+03 -0.42089065190E+03  0.80489484006E+03  0.00000000000E+00 0. -1.
<mgrwt>
<rscale>  0 0.19525247E+04</rscale>
<asrwt>0</asrwt>
<pdfrwt beam="1">  1        2 0.20408587E+00 0.19525247E+04</pdfrwt>
<pdfrwt beam="2">  1       -2 0.11053338E+00 0.19525247E+04</pdfrwt>
<totfact> 0.96629957E+00</totfact>
</mgrwt>
</event>
<event>
 6    1  0.1934315E-005  0.3011438E+04  0.7818608E-02  0.8240472E-01
         -2   -1    0    0    0  501 -0.00000000000E+00  0.00000000000E+00  0.29805748537E+04  0.29805748537E+04  0.00000000000E+00 0. -1.
          2   -1    0    0  501    0  0.00000000000E+00 -0.00000000000E+00 -0.76065508438E+03  0.76065508438E+03  0.00000000000E+00 0.  1.
         23    2    1    2    0    0 -0.14456196675E+04 -0.22941324516E+03  0.67944058564E+03  0.16162539910E+04  0.90503004723E+02 0.  0.
         11    1    3    3    0    0 -0.92949184923E+03 -0.13070173196E+03  0.39105584607E+03  0.10168395720E+04  0.00000000000E+00 0.  1.
        -11    1    3    3    0    0 -0.51612781831E+03 -0.98711513201E+02  0.28838473958E+03  0.59941441899E+03  0.00000000000E+00 0. -1.
         22    1    1    2    0    0  0.14456196675E+04  0.22941324516E+03  0.15404791837E+04  0.21249759471E+04  0.00000000000E+00 0. -1.
<mgrwt>
<rscale>  0 0.30114378E+04</rscale>
<asrwt>0</asrwt>
<pdfrwt beam="1">  1        2 0.11702386E+00 0.30114378E+04</pdfrwt>
<pdfrwt beam="2">  1       -2 0.45854997E+00 0.30114378E+04</pdfrwt>
<totfact> 0.95804995E-02</totfact>
</mgrwt>
</event>
<event>
 6    1  0.1934315E-005  0.2503053E+04  0.7818608E-02  0.8401899E-01
         -2   -1    0    0    0  501 -0.00000000000E+00  0.00000000000E+00  0.44629321978E+03  0.44629321978E+03  0.00000000000E+00 0. -1.
          2   -1    0    0  501    0  0.00000000000E+00 -0.00000000000E+00 -0.35096187269E+04  0.35096187269E+04  0.00000000000E+00 0.  1.
         23    2    1    2    0    0  0.43070827554E+03 -0.11639292276E+04 -0.17670003391E+04  0.21612811192E+04  0.92763206262E+02 0.  0.
         13    1    3    3    0    0  0.26669872621E+03 -0.67048084357E+03 -0.10997582292E+04  0.13153482181E+04  0.00000000000E+00 0.  1.
        -13    1    3    3    0    0  0.16400954934E+03 -0.49344838406E+03 -0.66724210983E+03  0.84593290108E+03  0.00000000000E+00 0. -1.
         22    1    1    2    0    0 -0.43070827554E+03  0.11639292276E+04 -0.12963251681E+04  0.17946308275E+04  0.00000000000E+00 0. -1.
<mgrwt>
<rscale>  0 0.25030534E+04</rscale>
<asrwt>0</asrwt>
<pdfrwt beam="1">  1        2 0.53994134E+00 0.25030534E+04</pdfrwt>
<pdfrwt beam="2">  1       -2 0.68660495E-01 0.25030534E+04</pdfrwt>
<totfact> 0.13857039E+00</totfact>
</mgrwt>
</event>
<event>
 6    1  0.1934315E-005  0.9591338E+03  0.7818608E-02  0.9354538E-01
         -2   -1    0    0    0  501 -0.00000000000E+00  0.00000000000E+00  0.17847583235E+03  0.17847583235E+03  0.00000000000E+00 0. -1.
          2   -1    0    0  501    0  0.00000000000E+00 -0.00000000000E+00 -0.12886024266E+04  0.12886024266E+04  0.00000000000E+00 0.  1.
         23    2    1    2    0    0 -0.94471536609E+02  0.40410185403E+03 -0.20621851885E+03  0.47245622601E+03  0.92008849097E+02 0.  0.
         11    1    3    3    0    0 -0.10241179496E+03  0.24198729841E+03 -0.12735625605E+03  0.29200281556E+03  0.00000000000E+00 0. -1.
        -11    1    3    3    0    0  0.79402583548E+01  0.16211455562E+03 -0.78862262798E+02  0.18045341045E+03  0.00000000000E+00 0.  1.
         22    1    1    2    0    0  0.94471536609E+02 -0.40410185403E+03 -0.90390807542E+03  0.99462203297E+03  0.00000000000E+00 0.  1.
<mgrwt>
<rscale>  0 0.95913376E+03</rscale>
<asrwt>0</asrwt>
<pdfrwt beam="1">  1        2 0.19824653E+00 0.95913376E+03</pdfrwt>
<pdfrwt beam="2">  1       -2 0.27457821E-01 0.95913376E+03</pdfrwt>
<totfact> 0.20264168E+02</totfact>
</mgrwt>
</event>
<event>
 6    1  0.1934315E-005  0.1941113E+04  0.7818608E-02  0.8634658E-01
         -2   -1    0    0    0  501 -0.00000000000E+00  0.00000000000E+00  0.50884599559E+03  0.50884599559E+03  0.00000000000E+00 0. -1.
          2   -1    0    0  501    0  0.00000000000E+00 -0.00000000000E+00 -0.18512081006E+04  0.18512081006E+04  0.00000000000E+00 0.  1.
         23    2    1    2    0    0  0.14059210137E+03  0.48126393032E+02 -0.18361182280E+04  0.18444210893E+04  0.92069098236E+02 0.  0.
         13    1    3    3    0    0  0.17641766036E+02 -0.14071702852E+02 -0.63916579837E+03  0.63956404100E+03  0.00000000000E+00 0.  1.
        -13    1    3    3    0    0  0.12295033533E+03  0.62198095885E+02 -0.11969524296E+04  0.12048570483E+04  0.00000000000E+00 0. -1.
         22    1    1    2    0    0 -0.14059210137E+03 -0.48126393032E+02  0.49375612304E+03  0.51563300681E+03  0.00000000000E+00 0. -1.
<mgrwt>
<rscale>  0 0.19411129E+04</rscale>
<asrwt>0</asrwt>
<pdfrwt beam="1">  1        2 0.28480125E+00 0.19411129E+04</pdfrwt>
<pdfrwt beam="2">  1       -2 0.78283999E-01 0.19411129E+04</pdfrwt>
<totfact> 0.10948167E+01</totfact>
</mgrwt>
</event>
<event>
 6    1  0.1934315E-005  0.2908620E+04  0.7818608E-02  0.8270317E-01
         -2   -1    0    0    0  501 -0.00000000000E+00  0.00000000000E+00  0.67579535520E+03  0.67579535520E+03  0.00000000000E+00 0. -1.
          2   -1    0    0  501    0  0.00000000000E+00 -0.00000000000E+00 -0.31296713969E+04  0.31296713969E+04  0.00000000000E+00 0.  1.
         23    2    1    2    0    0 -0.14179098924E+04 -0.97073198928E+02 -0.16228484418E+04  0.21591075748E+04  0.90646487493E+02 0.  0.
         11    1    3    3    0    0 -0.43408011545E+03 -0.51627882760E+02 -0.55387246093E+03  0.70559598063E+03  0.00000000000E+00 0. -1.
        -11    1    3    3    0    0 -0.98382977693E+03 -0.45445316168E+02 -0.10689759809E+04  0.14535115942E+04  0.00000000000E+00 0.  1.
         22    1    1    2    0    0  0.14179098924E+04  0.97073198928E+02 -0.83102759990E+03  0.16463591773E+04  0.00000000000E+00 0.  1.
<mgrwt>
<rscale>  0 0.29086199E+04</rscale>
<asrwt>0</asrwt>
<pdfrwt beam="1">  1        2 0.48148791E+00 0.29086199E+04</pdfrwt>
<pdfrwt beam="2">  1       -2 0.10396852E+00 0.29086199E+04</pdfrwt>
<totfact> 0.93448563E-01</totfact>
</mgrwt>
</event>
<event>
 6    1  0.1934315E-005  0.2506350E+04  0.7818608E-02  0.8400727E-01
         -2   -1    0    0    0  501 -0.00000000000E+00  0.00000000000E+00  0.13151162346E+04  0.13151162346E+04  0.00000000000E+00 0. -1.
          2   -1    0    0  501    0  0.00000000000E+00 -0.00000000000E+00 -0.11941508517E+04  0.11941508517E+04  0.00000000000E+00 0.  1.
         23    2    1    2    0    0  0.35536049396E+03 -0.10253296681E+04  0.68392650655E+03  0.12867666832E+04  0.10213237281E+03 0.  0.
         13    1    3    3    0    0  0.25483991163E+03 -0.60950109111E+03  0.44811309300E+03  0.79827332709E+03  0.00000000000E+00 0.  1.
        -13    1    3    3    0    0  0.10052058233E+03 -0.41582857702E+03  0.23581341355E+03  0.48849335609E+03  0.00000000000E+00 0. -1.
         22    1    1    2    0    0 -0.35536049396E+03  0.10253296681E+04 -0.56296112366E+03  0.12225004032E+04  0.00000000000E+00 0.  1.
<mgrwt>
<rscale>  0 0.25063497E+04</rscale>
<asrwt>0</asrwt>
<pdfrwt beam="1">  1        2 0.18371552E+00 0.25063497E+04</pdfrwt>
<pdfrwt beam="2">  1       -2 0.20232557E+00 0.25063497E+04</pdfrwt>
<totfact> 0.21856183E+00</totfact>
</mgrwt>
</event>
<event>
 6    1  0.1934315E-005  0.1079741E+04  0.7818608E-02  0.9225166E-01
          2   -1    0    0  501    0  0.00000000000E+00  0.00000000000E+00  0.12640711847E+04  0.12640711847E+04  0.00000000000E+00 0.  1.
         -2   -1    0    0    0  501 -0.00000000000E+00 -0.00000000000E+00 -0.23057263202E+03  0.23057263202E+03  0.00000000000E+00 0. -1.
         23    2    1    2    0    0  0.45654883635E+03 -0.24095767033E+03  0.32178263473E+03  0.61541859716E+03  0.93266000509E+02 0.  0.
         13    1    3    3    0    0  0.21917453717E+03 -0.63410223933E+02  0.14017824559E+03  0.26778400770E+03  0.00000000000E+00 0.  1.
        -13    1    3    3    0    0  0.23737429919E+03 -0.17754744640E+03  0.18160438914E+03  0.34763458946E+03  0.00000000000E+00 0. -1.
         22    1    1    2    0    0 -0.45654883635E+03  0.24095767033E+03  0.71171591800E+03  0.87922521961E+03  0.00000000000E+00 0. -1.
<mgrwt>
<rscale>  0 0.10797411E+04</rscale>
<asrwt>0</asrwt>
<pdfrwt beam="1">  1        2 0.19447249E+00 0.10797411E+04</pdfrwt>
<pdfrwt beam="2">  1       -2 0.35472713E-01 0.10797411E+04</pdfrwt>
<totfact> 0.12865658E+02</totfact>
</mgrwt>
</event>
<event>
 6    1  0.1934315E-005  0.2414694E+04  0.7818608E-02  0.8434023E-01
          2   -1    0    0  501    0  0.00000000000E+00  0.00000000000E+00  0.29266632429E+04  0.29266632429E+04  0.00000000000E+00 0.  1.
         -2   -1    0    0    0  501 -0.00000000000E+00 -0.00000000000E+00 -0.49807103460E+03  0.49807103460E+03  0.00000000000E+00 0. -1.
         23    2    1    2    0    0 -0.68993513341E+03  0.73654258172E+03  0.21515044667E+04  0.23781765488E+04  0.90811694428E+02 0.  0.
         13    1    3    3    0    0 -0.39286277909E+03  0.36608584272E+03  0.10784116200E+04  0.12047122601E+04  0.00000000000E+00 0. -1.
        -13    1    3    3    0    0 -0.29707235432E+03  0.37045673900E+03  0.10730928467E+04  0.11734642887E+04  0.00000000000E+00 0.  1.
         22    1    1    2    0    0  0.68993513341E+03 -0.73654258172E+03  0.27708774157E+03  0.10465577287E+04  0.00000000000E+00 0. -1.
<mgrwt>
<rscale>  0 0.24146935E+04</rscale>
<asrwt>0</asrwt>
<pdfrwt beam="1">  1        2 0.45025587E+00 0.24146935E+04</pdfrwt>
<pdfrwt beam="2">  1       -2 0.76626315E-01 0.24146935E+04</pdfrwt>
<totfact> 0.26456350E+00</totfact>
</mgrwt>
</event>
<event>
 6    1  0.1934315E-005  0.1067405E+04  0.7818608E-02  0.9237557E-01
          2   -1    0    0  501    0  0.00000000000E+00  0.00000000000E+00  0.21970528908E+04  0.21970528908E+04  0.00000000000E+00 0.  1.
         -2   -1    0    0    0  501 -0.00000000000E+00 -0.00000000000E+00 -0.12964556798E+03  0.12964556798E+03  0.00000000000E+00 0. -1.
         23    2    1    2    0    0  0.41724976999E+02 -0.43808871551E+03  0.16830723920E+04  0.17424245201E+04  0.98223394041E+02 0.  0.
         13    1    3    3    0    0 -0.17447951710E+02 -0.23851972740E+03  0.78953629250E+03  0.82496281647E+03  0.00000000000E+00 0. -1.
        -13    1    3    3    0    0  0.59172928710E+02 -0.19956898812E+03  0.89353609950E+03  0.91746170363E+03  0.00000000000E+00 0.  1.
         22    1    1    2    0    0 -0.41724976999E+02  0.43808871551E+03  0.38433493080E+03  0.58427393866E+03  0.00000000000E+00 0. -1.
<mgrwt>
<rscale>  0 0.10674046E+04</rscale>
<asrwt>0</asrwt>
<pdfrwt beam="1">  1        2 0.33800811E+00 0.10674046E+04</pdfrwt>
<pdfrwt beam="2">  1       -2 0.19945474E-01 0.10674046E+04</pdfrwt>
<totfact> 0.11129779E+02</totfact>
</mgrwt>
</event>
<event>
 6    1  0.1934315E-005  0.1620029E+04  0.7818608E-02  0.8808337E-01
          2   -1    0    0  501    0  0.00000000000E+00  0.00000000000E+00  0.10373513338E+04  0.10373513338E+04  0.00000000000E+00 0.  1.
         -2   -1    0    0    0  501 -0.00000000000E+00 -0.00000000000E+00 -0.63249873871E+03  0.63249873871E+03  0.00000000000E+00 0. -1.
         23    2    1    2    0    0  0.62868940158E+03 -0.45474840511E+03  0.43361465259E+03  0.89340063340E+03  0.89980826909E+02 0.  0.
         13    1    3    3    0    0  0.13243253419E+03 -0.13685502563E+03  0.12868823203E+03  0.22984415419E+03  0.00000000000E+00 0.  1.
        -13    1    3    3    0    0  0.49625686739E+03 -0.31789337949E+03  0.30492642056E+03  0.66355647922E+03  0.00000000000E+00 0. -1.
         22    1    1    2    0    0 -0.62868940158E+03  0.45474840511E+03 -0.28762057460E+02  0.77644943915E+03  0.00000000000E+00 0. -1.
<mgrwt>
<rscale>  0 0.16200289E+04</rscale>
<asrwt>0</asrwt>
<pdfrwt beam="1">  1        2 0.15959251E+00 0.16200289E+04</pdfrwt>
<pdfrwt beam="2">  1       -2 0.97307499E-01 0.16200289E+04</pdfrwt>
<totfact> 0.20115756E+01</totfact>
</mgrwt>
</event>
<event>
 6    1  0.1934315E-005  0.1916349E+04  0.7818608E-02  0.8646761E-01
         -2   -1    0    0    0  501 -0.00000000000E+00  0.00000000000E+00  0.64336933540E+03  0.64336933540E+03  0.00000000000E+00 0. -1.
          2   -1    0    0  501    0  0.00000000000E+00 -0.00000000000E+00 -0.14270163772E+04  0.14270163772E+04  0.00000000000E+00 0.  1.
         23    2    1    2    0    0 -0.53747577422E+03  0.50692140742E+03 -0.10485180773E+04  0.12855250966E+04  0.85645165363E+02 0.  0.
         13    1    3    3    0    0 -0.37382746429E+03  0.32852845842E+03 -0.64087304433E+03  0.81141615710E+03  0.00000000000E+00 0.  1.
        -13    1    3    3    0    0 -0.16364830992E+03  0.17839294900E+03 -0.40764503298E+03  0.47410893949E+03  0.00000000000E+00 0. -1.
         22    1    1    2    0    0  0.53747577422E+03 -0.50692140742E+03  0.26487103547E+03  0.78486061604E+03  0.00000000000E+00 0. -1.
<mgrwt>
<rscale>  0 0.19163492E+04</rscale>
<asrwt>0</asrwt>
<pdfrwt beam="1">  1        2 0.21954098E+00 0.19163492E+04</pdfrwt>
<pdfrwt beam="2">  1       -2 0.98979900E-01 0.19163492E+04</pdfrwt>
<totfact> 0.11055608E+01</totfact>
</mgrwt>
</event>
<event>
 6    1  0.1934315E-005  0.1846800E+04  0.7818608E-02  0.8681800E-01
         -2   -1    0    0    0  501 -0.00000000000E+00  0.00000000000E+00  0.12995382323E+04  0.12995382323E+04  0.00000000000E+00 0. -1.
          2   -1    0    0  501    0  0.00000000000E+00 -0.00000000000E+00 -0.65613103123E+03  0.65613103123E+03  0.00000000000E+00 0.  1.
         23    2    1    2    0    0 -0.96735317369E+02  0.71817550487E+03  0.92477037078E+03  0.11783025478E+04  0.89793530781E+02 0.  0.
         13    1    3    3    0    0 -0.48218422476E+02  0.24866608639E+03  0.38980067202E+03  0.46487030740E+03  0.00000000000E+00 0. -1.
        -13    1    3    3    0    0 -0.48516894893E+02  0.46950941848E+03  0.53496969875E+03  0.71343224045E+03  0.00000000000E+00 0.  1.
         22    1    1    2    0    0  0.96735317369E+02 -0.71817550487E+03 -0.28136316969E+03  0.77736671571E+03  0.00000000000E+00 0.  1.
<mgrwt>
<rscale>  0 0.18467998E+04</rscale>
<asrwt>0</asrwt>
<pdfrwt beam="1">  1        2 0.10094324E+00 0.18467998E+04</pdfrwt>
<pdfrwt beam="2">  1       -2 0.19992896E+00 0.18467998E+04</pdfrwt>
<totfact> 0.55610711E+00</totfact>
</mgrwt>
</event>
<event>
 6    1  0.1934315E-005  0.2569433E+04  0.7818608E-02  0.8378659E-01
         -2   -1    0    0    0  501 -0.00000000000E+00  0.00000000000E+00  0.18644149670E+04  0.18644149670E+04  0.00000000000E+00 0. -1.
          2   -1    0    0  501    0  0.00000000000E+00 -0.00000000000E+00 -0.88526245705E+03  0.88526245705E+03  0.00000000000E+00 0.  1.
         23    2    1    2    0    0 -0.70638319566E+03 -0.56971164327E+03  0.14607601031E+04  0.17223048289E+04  0.94685105164E+02 0.  0.
         13    1    3    3    0    0 -0.51285646546E+03 -0.36224600510E+03  0.97187834493E+03  0.11570615540E+04  0.00000000000E+00 0. -1.
        -13    1    3    3    0    0 -0.19352673020E+03 -0.20746563817E+03  0.48888175817E+03  0.56524327488E+03  0.00000000000E+00 0.  1.
         22    1    1    2    0    0  0.70638319566E+03  0.56971164327E+03 -0.48160759314E+03  0.10273725952E+04  0.00000000000E+00 0.  1.
<mgrwt>
<rscale>  0 0.25694331E+04</rscale>
<asrwt>0</asrwt>
<pdfrwt beam="1">  1        2 0.13619422E+00 0.25694331E+04</pdfrwt>
<pdfrwt beam="2">  1       -2 0.28683307E+00 0.25694331E+04</pdfrwt>
<totfact> 0.10180420E+00</totfact>
</mgrwt>
</event>
<event>
 6    1  0.1934315E-005  0.1018764E+04  0.7818608E-02  0.9288200E-01
          2   -1    0    0  501    0  0.00000000000E+00  0.00000000000E+00  0.98005838206E+03  0.98005838206E+03  0.00000000000E+00 0.  1.
         -2   -1    0    0    0  501 -0.00000000000E+00 -0.00000000000E+00 -0.26474979705E+03  0.26474979705E+03  0.00000000000E+00 0. -1.
         23    2    1    2    0    0 -0.52466943991E+02 -0.47408335633E+03  0.15634032347E+03  0.50999301435E+03  0.90237292613E+02 0.  0.
         11    1    3    3    0    0 -0.75572273754E+02 -0.37314336083E+03  0.13721266499E+03  0.40469056293E+03  0.00000000000E+00 0.  1.
        -11    1    3    3    0    0  0.23105329763E+02 -0.10093999550E+03  0.19127658480E+02  0.10530245142E+03  0.00000000000E+00 0. -1.
         22    1    1    2    0    0  0.52466943991E+02  0.47408335633E+03  0.55896826154E+03  0.73481516476E+03  0.00000000000E+00 0.  1.
<mgrwt>
<rscale>  0 0.10187645E+04</rscale>
<asrwt>0</asrwt>
<pdfrwt beam="1">  1        2 0.15077821E+00 0.10187645E+04</pdfrwt>
<pdfrwt beam="2">  1       -2 0.40730739E-01 0.10187645E+04</pdfrwt>
<totfact> 0.14759933E+02</totfact>
</mgrwt>
</event>
<event>
 6    1  0.1934315E-005  0.2249911E+04  0.7818608E-02  0.8497937E-01
          2   -1    0    0  501    0  0.00000000000E+00  0.00000000000E+00  0.89270078843E+03  0.89270078843E+03  0.00000000000E+00 0.  1.
         -2   -1    0    0    0  501 -0.00000000000E+00 -0.00000000000E+00 -0.14176361284E+04  0.14176361284E+04  0.00000000000E+00 0. -1.
         23    2    1    2    0    0 -0.21647857786E+03  0.88511832344E+03  0.41149488403E+03  0.10037386673E+04  0.88689636318E+02 0.  0.
         11    1    3    3    0    0 -0.86207281829E+02  0.43774340168E+03  0.15807695654E+03  0.47332790468E+03  0.00000000000E+00 0. -1.
        -11    1    3    3    0    0 -0.13027129603E+03  0.44737492175E+03  0.25341792748E+03  0.53041076267E+03  0.00000000000E+00 0.  1.
         22    1    1    2    0    0  0.21647857786E+03 -0.88511832344E+03 -0.93643022403E+03  0.13065982495E+04  0.00000000000E+00 0. -1.
<mgrwt>
<rscale>  0 0.22499110E+04</rscale>
<asrwt>0</asrwt>
<pdfrwt beam="1">  1        2 0.13733858E+00 0.22499110E+04</pdfrwt>
<pdfrwt beam="2">  1       -2 0.21809786E+00 0.22499110E+04</pdfrwt>
<totfact> 0.27427816E+00</totfact>
</mgrwt>
</event>
<event>
 6    1  0.1934315E-005  0.1275302E+04  0.7818608E-02  0.9049383E-01
         -2   -1    0    0    0  501 -0.00000000000E+00  0.00000000000E+00  0.32199595090E+03  0.32199595090E+03  0.00000000000E+00 0. -1.
          2   -1    0    0  501    0  0.00000000000E+00 -0.00000000000E+00 -0.12627457024E+04  0.12627457024E+04  0.00000000000E+00 0.  1.
         23    2    1    2    0    0 -0.20554771641E+03 -0.52450848180E+03 -0.83572340031E+03  0.10116888236E+04  0.87872992174E+02 0.  0.
         13    1    3    3    0    0 -0.13162071727E+03 -0.43142681384E+03 -0.67298625052E+03  0.81016270113E+03  0.00000000000E+00 0.  1.
        -13    1    3    3    0    0 -0.73926999145E+02 -0.93081667962E+02 -0.16273714979E+03  0.20152612247E+03  0.00000000000E+00 0. -1.
         22    1    1    2    0    0  0.20554771641E+03  0.52450848180E+03 -0.10502635120E+03  0.57305282972E+03  0.00000000000E+00 0. -1.
<mgrwt>
<rscale>  0 0.12753023E+04</rscale>
<asrwt>0</asrwt>
<pdfrwt beam="1">  1        2 0.19426857E+00 0.12753023E+04</pdfrwt>
<pdfrwt beam="2">  1       -2 0.49537839E-01 0.12753023E+04</pdfrwt>
<totfact> 0.65807804E+01</totfact>
</mgrwt>
</event>
<event>
 6    1  0.1934315E-005  0.3622877E+04  0.7818608E-02  0.8085271E-01
         -2   -1    0    0    0  501 -0.00000000000E+00  0.00000000000E+00  0.35912803020E+04  0.35912803020E+04  0.00000000000E+00 0. -1.
          2   -1    0    0  501    0  0.00000000000E+00 -0.00000000000E+00 -0.91368816065E+03  0.91368816065E+03  0.00000000000E+00 0.  1.
         23    2    1    2    0    0  0.21987749126E+03 -0.14278209209E+04 -0.17023640177E+02  0.14475229761E+04  0.89522447180E+02 0.  0.
         11    1    3    3    0    0 -0.21247369810E+01 -0.14974964578E+03  0.92235157827E+01  0.15004847271E+03  0.00000000000E+00 0. -1.
        -11    1    3    3    0    0  0.22200222825E+03 -0.12780712751E+04 -0.26247155960E+02  0.12974745034E+04  0.00000000000E+00 0.  1.
         22    1    1    2    0    0 -0.21987749126E+03  0.14278209209E+04  0.26946157816E+04  0.30574454866E+04  0.00000000000E+00 0. -1.
<mgrwt>
<rscale>  0 0.36228775E+04</rscale>
<asrwt>0</asrwt>
<pdfrwt beam="1">  1        2 0.14056741E+00 0.36228775E+04</pdfrwt>
<pdfrwt beam="2">  1       -2 0.55250465E+00 0.36228775E+04</pdfrwt>
<totfact> 0.19302340E-02</totfact>
</mgrwt>
</event>
<event>
 6    1  0.1934315E-005  0.2001841E+04  0.7818608E-02  0.8605760E-01
         -2   -1    0    0    0  501 -0.00000000000E+00  0.00000000000E+00  0.16685682147E+04  0.16685682147E+04  0.00000000000E+00 0. -1.
          2   -1    0    0  501    0  0.00000000000E+00 -0.00000000000E+00 -0.60042031911E+03  0.60042031911E+03  0.00000000000E+00 0.  1.
         23    2    1    2    0    0 -0.80682719174E+03 -0.57279337252E+03  0.69025617333E+03  0.12098074734E+04  0.90100904824E+02 0.  0.
         11    1    3    3    0    0 -0.16067673607E+03 -0.72019834457E+02  0.12359074915E+03  0.21512448337E+03  0.00000000000E+00 0. -1.
        -11    1    3    3    0    0 -0.64615045568E+03 -0.50077353806E+03  0.56666542418E+03  0.99468299008E+03  0.00000000000E+00 0.  1.
         22    1    1    2    0    0  0.80682719174E+03  0.57279337252E+03  0.37789172229E+03  0.10591810604E+04  0.00000000000E+00 0.  1.
<mgrwt>
<rscale>  0 0.20018414E+04</rscale>
<asrwt>0</asrwt>
<pdfrwt beam="1">  1        2 0.92372357E-01 0.20018414E+04</pdfrwt>
<pdfrwt beam="2">  1       -2 0.25670280E+00 0.20018414E+04</pdfrwt>
<totfact> 0.26903606E+00</totfact>
</mgrwt>
</event>
<event>
 6    1  0.1934315E-005  0.7421159E+03  0.7818608E-02  0.9647801E-01
          2   -1    0    0  501    0  0.00000000000E+00  0.00000000000E+00  0.92410504361E+03  0.92410504361E+03  0.00000000000E+00 0.  1.
         -2   -1    0    0    0  501 -0.00000000000E+00 -0.00000000000E+00 -0.14899170653E+03  0.14899170653E+03  0.00000000000E+00 0. -1.
         23    2    1    2    0    0 -0.22234589749E+03  0.72851183856E+02  0.79947967989E+03  0.83785493459E+03  0.89934085585E+02 0.  0.
         11    1    3    3    0    0 -0.12753496359E+03  0.87190111647E+02  0.51253380810E+03  0.53531129911E+03  0.00000000000E+00 0. -1.
        -11    1    3    3    0    0 -0.94810933897E+02 -0.14338927791E+02  0.28694587179E+03  0.30254363549E+03  0.00000000000E+00 0.  1.
         22    1    1    2    0    0  0.22234589749E+03 -0.72851183856E+02 -0.24366342815E+02  0.23524181555E+03  0.00000000000E+00 0. -1.
<mgrwt>
<rscale>  0 0.74211586E+03</rscale>
<asrwt>0</asrwt>
<pdfrwt beam="1">  1        2 0.14217000E+00 0.74211586E+03</pdfrwt>
<pdfrwt beam="2">  1       -2 0.22921802E-01 0.74211586E+03</pdfrwt>
<totfact> 0.47608953E+02</totfact>
</mgrwt>
</event>
<event>
 6    1  0.1934315E-005  0.2155545E+04  0.7818608E-02  0.8537162E-01
          2   -1    0    0  501    0  0.00000000000E+00  0.00000000000E+00  0.24823018394E+04  0.24823018394E+04  0.00000000000E+00 0.  1.
         -2   -1    0    0    0  501 -0.00000000000E+00 -0.00000000000E+00 -0.46795029018E+03  0.46795029018E+03  0.00000000000E+00 0. -1.
         23    2    1    2    0    0 -0.13269392632E+00  0.59057735273E+03 -0.22183342287E+03  0.63739570158E+03  0.91003218182E+02 0.  0.
         13    1    3    3    0    0 -0.36142436259E+02  0.16568091377E+03 -0.84083525067E+02  0.18927884212E+03  0.00000000000E+00 0. -1.
        -13    1    3    3    0    0  0.36009742333E+02  0.42489643896E+03 -0.13774989780E+03  0.44811685946E+03  0.00000000000E+00 0.  1.
         22    1    1    2    0    0  0.13269392632E+00 -0.59057735273E+03  0.22361849721E+04  0.23128564280E+04  0.00000000000E+00 0.  1.
<mgrwt>
<rscale>  0 0.21555453E+04</rscale>
<asrwt>0</asrwt>
<pdfrwt beam="1">  1        2 0.38189258E+00 0.21555453E+04</pdfrwt>
<pdfrwt beam="2">  1       -2 0.71992354E-01 0.21555453E+04</pdfrwt>
<totfact> 0.57163892E+00</totfact>
</mgrwt>
</event>
<event>
 6    1  0.1934315E-005  0.2086699E+04  0.7818608E-02  0.8567125E-01
         -2   -1    0    0    0  501 -0.00000000000E+00  0.00000000000E+00  0.10124050437E+04  0.10124050437E+04  0.00000000000E+00 0. -1.
          2   -1    0    0  501    0  0.00000000000E+00 -0.00000000000E+00 -0.10752396668E+04  0.10752396668E+04  0.00000000000E+00 0.  1.
         23    2    1    2    0    0 -0.62752889159E+03 -0.44124682500E+03 -0.73645849957E+03  0.10667331584E+04  0.84007376414E+02 0.  0.
         11    1    3    3    0    0 -0.27687813045E+03 -0.19914229805E+03 -0.27039720128E+03  0.43523993436E+03  0.00000000000E+00 0.  1.
        -11    1    3    3    0    0 -0.35065076113E+03 -0.24210452695E+03 -0.46606129828E+03  0.63149322404E+03  0.00000000000E+00 0. -1.
         22    1    1    2    0    0  0.62752889159E+03  0.44124682500E+03  0.67362387640E+03  0.10209115521E+04  0.00000000000E+00 0. -1.
<mgrwt>
<rscale>  0 0.20866989E+04</rscale>
<asrwt>0</asrwt>
<pdfrwt beam="1">  1        2 0.16542149E+00 0.20866989E+04</pdfrwt>
<pdfrwt beam="2">  1       -2 0.15575462E+00 0.20866989E+04</pdfrwt>
<totfact> 0.56417802E+00</totfact>
</mgrwt>
</event>
<event>
 6    1  0.1934315E-005  0.2253895E+04  0.7818608E-02  0.8496325E-01
         -2   -1    0    0    0  501 -0.00000000000E+00  0.00000000000E+00  0.13844930679E+04  0.13844930679E+04  0.00000000000E+00 0. -1.
          2   -1    0    0  501    0  0.00000000000E+00 -0.00000000000E+00 -0.91731072820E+03  0.91731072820E+03  0.00000000000E+00 0.  1.
         23    2    1    2    0    0  0.59765772041E+03 -0.66928087628E+03  0.92720198642E+03  0.12934637158E+04  0.90626807520E+02 0.  0.
         13    1    3    3    0    0  0.34750885545E+03 -0.33065077625E+03  0.52662017233E+03  0.71233499588E+03  0.00000000000E+00 0. -1.
        -13    1    3    3    0    0  0.25014886496E+03 -0.33863010003E+03  0.40058181409E+03  0.58112871988E+03  0.00000000000E+00 0.  1.
         22    1    1    2    0    0 -0.59765772041E+03  0.66928087628E+03 -0.46001964676E+03  0.10083400803E+04  0.00000000000E+00 0.  1.
<mgrwt>
<rscale>  0 0.22538947E+04</rscale>
<asrwt>0</asrwt>
<pdfrwt beam="1">  1        2 0.14112473E+00 0.22538947E+04</pdfrwt>
<pdfrwt beam="2">  1       -2 0.21299893E+00 0.22538947E+04</pdfrwt>
<totfact> 0.28443880E+00</totfact>
</mgrwt>
</event>
<event>
 6    1  0.1934315E-005  0.3617523E+04  0.7818608E-02  0.8086490E-01
          1   -1    0    0  501    0  0.00000000000E+00  0.00000000000E+00  0.15363559883E+04  0.15363559883E+04  0.00000000000E+00 0. -1.
         -1   -1    0    0    0  501 -0.00000000000E+00 -0.00000000000E+00 -0.21294656524E+04  0.21294656524E+04  0.00000000000E+00 0.  1.
         23    2    1    2    0    0 -0.13324729721E+04 -0.11807509023E+04  0.20370789109E+02  0.17827350306E+04  0.89846011379E+02 0.  0.
         13    1    3    3    0    0 -0.26798656468E+03 -0.28028213475E+03 -0.14191145693E+02  0.38804157319E+03  0.00000000000E+00 0. -1.
        -13    1    3    3    0    0 -0.10644864074E+04 -0.90046876760E+03  0.34561934803E+02  0.13946934574E+04  0.00000000000E+00 0.  1.
         22    1    1    2    0    0  0.13324729721E+04  0.11807509023E+04 -0.61348045322E+03  0.18830866101E+04  0.00000000000E+00 0.  1.
<mgrwt>
<rscale>  0 0.36175225E+04</rscale>
<asrwt>0</asrwt>
<pdfrwt beam="1">  1        1 0.23636246E+00 0.36175225E+04</pdfrwt>
<pdfrwt beam="2">  1       -1 0.32761010E+00 0.36175225E+04</pdfrwt>
<totfact> 0.10881154E-01</totfact>
</mgrwt>
</event>
<event>
 6    1  0.1934315E-005  0.1940426E+04  0.7818608E-02  0.8634991E-01
          2   -1    0    0  501    0  0.00000000000E+00  0.00000000000E+00  0.15884761106E+04  0.15884761106E+04  0.00000000000E+00 0.  1.
         -2   -1    0    0    0  501 -0.00000000000E+00 -0.00000000000E+00 -0.59258897980E+03  0.59258897980E+03  0.00000000000E+00 0. -1.
         23    2    1    2    0    0 -0.85753080506E+03 -0.13666127550E+03  0.97954856779E+03  0.13125592847E+04  0.96234574881E+02 0.  0.
         13    1    3    3    0    0 -0.47921616670E+03 -0.12419924708E+03  0.54527713652E+03  0.73647861001E+03  0.00000000000E+00 0. -1.
        -13    1    3    3    0    0 -0.37831463836E+03 -0.12462028414E+02  0.43427143127E+03  0.57608067471E+03  0.00000000000E+00 0.  1.
         22    1    1    2    0    0  0.85753080506E+03  0.13666127550E+03  0.16338563012E+02  0.86850580567E+03  0.00000000000E+00 0. -1.
<mgrwt>
<rscale>  0 0.19404262E+04</rscale>
<asrwt>0</asrwt>
<pdfrwt beam="1">  1        2 0.24438094E+00 0.19404262E+04</pdfrwt>
<pdfrwt beam="2">  1       -2 0.91167536E-01 0.19404262E+04</pdfrwt>
<totfact> 0.10839200E+01</totfact>
</mgrwt>
</event>
<event>
 6    1  0.1934315E-005  0.2043373E+04  0.7818608E-02  0.8586607E-01
          2   -1    0    0  501    0  0.00000000000E+00  0.00000000000E+00  0.29301655847E+04  0.29301655847E+04  0.00000000000E+00 0.  1.
         -2   -1    0    0    0  501 -0.00000000000E+00 -0.00000000000E+00 -0.35624044933E+03  0.35624044933E+03  0.00000000000E+00 0. -1.
         23    2    1    2    0    0  0.72069647049E+03  0.27528928443E+03  0.21678106706E+03  0.80622141358E+03  0.88381808010E+02 0.  0.
         11    1    3    3    0    0  0.48219469881E+03  0.14281286975E+03  0.15801911326E+03  0.52714066764E+03  0.00000000000E+00 0.  1.
        -11    1    3    3    0    0  0.23850177168E+03  0.13247641468E+03  0.58761953798E+02  0.27908074594E+03  0.00000000000E+00 0. -1.
         22    1    1    2    0    0 -0.72069647049E+03 -0.27528928443E+03  0.23571440683E+04  0.24801846204E+04  0.00000000000E+00 0.  1.
<mgrwt>
<rscale>  0 0.20433732E+04</rscale>
<asrwt>0</asrwt>
<pdfrwt beam="1">  1        2 0.45079469E+00 0.20433732E+04</pdfrwt>
<pdfrwt beam="2">  1       -2 0.54806225E-01 0.20433732E+04</pdfrwt>
<totfact> 0.55908338E+00</totfact>
</mgrwt>
</event>
