<event>
 6    1  0.2852411E-002  0.9639386E+02  0.7546771E-02  0.1417085E+00
         -2   -1    0    0    0  501 -0.00000000000E+00  0.00000000000E+00  0.45088450778E+01  0.45088450778E+01  0.00000000000E+00 0.  1.
          2   -1    0    0  501    0  0.00000000000E+00 -0.00000000000E+00 -0.74143209748E+03  0.74143209748E+03  0.00000000000E+00 0. -1.
         23    2    1    2    0    0 -0.10431735824E+02  0.23908555990E+01 -0.71579901251E+03  0.72226034261E+03  0.95797906528E+02 0.  0.
         13    1    3    3    0    0  0.19257257525E+02  0.38292082917E+02 -0.21056941721E+03  0.21488742412E+03  0.00000000000E+00 0.  1.
        -13    1    3    3    0    0 -0.29688993349E+02 -0.35901227318E+02 -0.50522959530E+03  0.50737291849E+03  0.00000000000E+00 0. -1.
         22    1    1    2    0    0  0.10431735824E+02 -0.23908555990E+01 -0.21124239886E+02  0.23680599941E+02  0.00000000000E+00 0.  1.
<mgrwt>
<rscale>  0 0.55642341E+02</rscale>
<asrwt>0</asrwt>
<pdfrwt beam="1">  1        2 0.11406656E+00 0.96393860E+02</pdfrwt>
<pdfrwt beam="2">  1       -2 0.69366796E-03 0.96393860E+02</pdfrwt>
<totfact> 0.12425868E+05</totfact>
</mgrwt>
</event>
<event>
 6    1  0.2852411E-002  0.9277865E+02  0.7546771E-02  0.1408713E+00
          2   -1    0    0  501    0  0.00000000000E+00  0.00000000000E+00  0.21220596725E+02  0.21220596725E+02  0.00000000000E+00 0. -1.
         -2   -1    0    0    0  501 -0.00000000000E+00 -0.00000000000E+00 -0.13826570606E+03  0.13826570606E+03  0.00000000000E+00 0.  1.
         23    2    1    2    0    0 -0.25356434705E+01  0.13433205351E+02 -0.90393800329E+02  0.12953346042E+03  0.91765994450E+02 0.  0.
         11    1    3    3    0    0  0.37404747728E+02 -0.14776545298E+02 -0.23195496574E+02  0.46427281902E+02  0.00000000000E+00 0. -1.
        -11    1    3    3    0    0 -0.39940391198E+02  0.28209750649E+02 -0.67198303755E+02  0.83106178520E+02  0.00000000000E+00 0.  1.
         22    1    1    2    0    0  0.25356434705E+01 -0.13433205351E+02 -0.26651309002E+02  0.29952842358E+02  0.00000000000E+00 0. -1.
<mgrwt>
<rscale>  0 0.57481956E+02</rscale>
<asrwt>0</asrwt>
<pdfrwt beam="1">  1        2 0.32647071E-02 0.92778652E+02</pdfrwt>
<pdfrwt beam="2">  1       -2 0.21271648E-01 0.92778652E+02</pdfrwt>
<totfact> 0.45527174E+04</totfact>
</mgrwt>
</event>
<event>
 6    1  0.2852411E-002  0.9952284E+02  0.7546771E-02  0.1362688E+00
         -2   -1    0    0    0  501 -0.00000000000E+00  0.00000000000E+00  0.41865408781E+01  0.41865408781E+01  0.00000000000E+00 0.  1.
          2   -1    0    0  501    0  0.00000000000E+00 -0.00000000000E+00 -0.93144488884E+03  0.93144488884E+03  0.00000000000E+00 0. -1.
         23    2    1    2    0    0 -0.49533564190E+01  0.22787370677E+02 -0.80875050511E+03  0.81485101400E+03  0.96752237745E+02 0.  0.
         13    1    3    3    0    0 -0.31897018523E+01  0.24205345230E+02 -0.81117047117E+03  0.81153780333E+03  0.00000000000E+00 0. -1.
        -13    1    3    3    0    0 -0.17636545667E+01 -0.14179745524E+01  0.24199660591E+01  0.33132106769E+01  0.00000000000E+00 0.  1.
         22    1    1    2    0    0  0.49533564190E+01 -0.22787370677E+02 -0.11850784285E+03  0.12078041571E+03  0.00000000000E+00 0.  1.
<mgrwt>
<rscale>  0 0.69242377E+02</rscale>
<asrwt>0</asrwt>
<pdfrwt beam="1">  1        2 0.14329920E+00 0.99522839E+02</pdfrwt>
<pdfrwt beam="2">  1       -2 0.64408329E-03 0.99522839E+02</pdfrwt>
<totfact> 0.10425839E+05</totfact>
</mgrwt>
</event>
<event>
 6    1  0.2852411E-002  0.9214138E+02  0.7546771E-02  0.1429581E+00
          2   -1    0    0  501    0  0.00000000000E+00  0.00000000000E+00  0.42861504475E+03  0.42861504475E+03  0.00000000000E+00 0. -1.
         -2   -1    0    0    0  501 -0.00000000000E+00 -0.00000000000E+00 -0.30294835626E+02  0.30294835626E+02  0.00000000000E+00 0.  1.
         23    2    1    2    0    0  0.10046609236E+02  0.12175231850E+01  0.42264054353E+03  0.43256798627E+03  0.91583934136E+02 0.  0.
         13    1    3    3    0    0  0.40813113423E+02  0.12220139972E+02  0.35391983647E+03  0.35647481355E+03  0.00000000000E+00 0. -1.
        -13    1    3    3    0    0 -0.30766504187E+02 -0.11002616787E+02  0.68720707056E+02  0.76093172718E+02  0.00000000000E+00 0.  1.
         22    1    1    2    0    0 -0.10046609236E+02 -0.12175231850E+01 -0.24320334401E+02  0.26341894109E+02  0.00000000000E+00 0.  1.
<mgrwt>
<rscale>  0 0.53044137E+02</rscale>
<asrwt>0</asrwt>
<pdfrwt beam="1">  1        2 0.65940772E-01 0.92141379E+02</pdfrwt>
<pdfrwt beam="2">  1       -2 0.46607442E-02 0.92141379E+02</pdfrwt>
<totfact> 0.14703490E+04</totfact>
</mgrwt>
</event>
<event>
 6    1  0.2852411E-002  0.9703023E+02  0.7546771E-02  0.1349787E+00
         -2   -1    0    0    0  501 -0.00000000000E+00  0.00000000000E+00  0.13530909056E+02  0.13530909056E+02  0.00000000000E+00 0.  1.
          2   -1    0    0  501    0  0.00000000000E+00 -0.00000000000E+00 -0.31402232823E+03  0.31402232823E+03  0.00000000000E+00 0. -1.
         23    2    1    2    0    0  0.30390837780E+02  0.74667103065E+01 -0.24976219174E+03  0.26794779039E+03  0.91845038883E+02 0.  0.
         11    1    3    3    0    0 -0.23039916417E+02  0.23831122644E+02 -0.14983000329E+03  0.15345289192E+03  0.00000000000E+00 0. -1.
        -11    1    3    3    0    0  0.53430754197E+02 -0.16364412337E+02 -0.99932188455E+02  0.11449489847E+03  0.00000000000E+00 0.  1.
         22    1    1    2    0    0 -0.30390837780E+02 -0.74667103065E+01 -0.50729227436E+02  0.59605446899E+02  0.00000000000E+00 0. -1.
<mgrwt>
<rscale>  0 0.73121957E+02</rscale>
<asrwt>0</asrwt>
<pdfrwt beam="1">  1        2 0.48311129E-01 0.97030232E+02</pdfrwt>
<pdfrwt beam="2">  1       -2 0.20816782E-02 0.97030232E+02</pdfrwt>
<totfact> 0.66459180E+04</totfact>
</mgrwt>
</event>
<event>
 6    1  0.2852411E-002  0.9722354E+02  0.7546771E-02  0.1349366E+00
          2   -1    0    0  501    0  0.00000000000E+00  0.00000000000E+00  0.12753844675E+04  0.12753844675E+04  0.00000000000E+00 0. -1.
         -2   -1    0    0    0  501 -0.00000000000E+00 -0.00000000000E+00 -0.48045474817E+01  0.48045474817E+01  0.00000000000E+00 0.  1.
         23    2    1    2    0    0  0.30851520790E+02 -0.54709706794E+01  0.11862305523E+04  0.11902081076E+04  0.92036234050E+02 0.  0.
         13    1    3    3    0    0 -0.13706064018E+02 -0.26045507826E+02  0.84010288142E+03  0.84061827011E+03  0.00000000000E+00 0. -1.
        -13    1    3    3    0    0  0.44557584808E+02  0.20574537146E+02  0.34612767089E+03  0.34958983752E+03  0.00000000000E+00 0.  1.
         22    1    1    2    0    0 -0.30851520790E+02  0.54709706794E+01  0.84349367715E+02  0.89980907358E+02  0.00000000000E+00 0.  1.
<mgrwt>
<rscale>  0 0.73253530E+02</rscale>
<asrwt>0</asrwt>
<pdfrwt beam="1">  1        2 0.19621273E+00 0.97223537E+02</pdfrwt>
<pdfrwt beam="2">  1       -2 0.73916217E-03 0.97223537E+02</pdfrwt>
<totfact> 0.54691869E+04</totfact>
</mgrwt>
</event>
<event>
 6    1  0.2852411E-002  0.8887069E+02  0.7546771E-02  0.1433328E+00
          2   -1    0    0  501    0  0.00000000000E+00  0.00000000000E+00  0.95772781246E+03  0.95772781246E+03  0.00000000000E+00 0. -1.
         -2   -1    0    0    0  501 -0.00000000000E+00 -0.00000000000E+00 -0.29026434845E+01  0.29026434845E+01  0.00000000000E+00 0.  1.
         23    2    1    2    0    0 -0.22126656918E+01 -0.10425319116E+02  0.91806857999E+03  0.92235997121E+03  0.88229336128E+02 0.  0.
         13    1    3    3    0    0 -0.35438080684E+02 -0.32613223504E+02  0.44126681205E+03  0.44388723717E+03  0.00000000000E+00 0.  1.
        -13    1    3    3    0    0  0.33225414992E+02  0.22187904388E+02  0.47680176795E+03  0.47847273404E+03  0.00000000000E+00 0. -1.
         22    1    1    2    0    0  0.22126656918E+01  0.10425319116E+02  0.36756588987E+02  0.38270484738E+02  0.00000000000E+00 0.  1.
<mgrwt>
<rscale>  0 0.52297767E+02</rscale>
<asrwt>0</asrwt>
<pdfrwt beam="1">  1        2 0.14734249E+00 0.88870687E+02</pdfrwt>
<pdfrwt beam="2">  1       -2 0.44656130E-03 0.88870687E+02</pdfrwt>
<totfact> 0.16549677E+05</totfact>
</mgrwt>
</event>
<event>
 6    1  0.2852411E-002  0.8864821E+02  0.7546771E-02  0.1405049E+00
         -1   -1    0    0    0  501 -0.00000000000E+00  0.00000000000E+00  0.38412249740E+02  0.38412249740E+02  0.00000000000E+00 0.  1.
          1   -1    0    0  501    0  0.00000000000E+00 -0.00000000000E+00 -0.72226661117E+02  0.72226661117E+02  0.00000000000E+00 0. -1.
         23    2    1    2    0    0  0.15633025208E+02 -0.55774826094E+01 -0.26714887705E+02  0.92586126424E+02  0.87080455854E+02 0.  0.
         11    1    3    3    0    0  0.32125060888E+01 -0.19127769417E+02 -0.55299027083E+02  0.58601827229E+02  0.00000000000E+00 0. -1.
        -11    1    3    3    0    0  0.12420519119E+02  0.13550286808E+02  0.28584139378E+02  0.33984299195E+02  0.00000000000E+00 0.  1.
         22    1    1    2    0    0 -0.15633025208E+02  0.55774826094E+01 -0.70995236727E+01  0.18052784433E+02  0.00000000000E+00 0.  1.
<mgrwt>
<rscale>  0 0.58313304E+02</rscale>
<asrwt>0</asrwt>
<pdfrwt beam="1">  1        1 0.11111794E-01 0.88648213E+02</pdfrwt>
<pdfrwt beam="2">  1       -1 0.59095770E-02 0.88648213E+02</pdfrwt>
<totfact> 0.64665230E+04</totfact>
</mgrwt>
</event>
<event>
 6    1  0.2852411E-002  0.9182275E+02  0.7546771E-02  0.1412268E+00
         -1   -1    0    0    0  501 -0.00000000000E+00  0.00000000000E+00  0.44714029927E+02  0.44714029927E+02  0.00000000000E+00 0.  1.
          1   -1    0    0  501    0  0.00000000000E+00 -0.00000000000E+00 -0.61848963750E+02  0.61848963750E+02  0.00000000000E+00 0. -1.
         23    2    1    2    0    0 -0.63313863376E+01  0.11743384556E+02 -0.15499618352E+02  0.93121721770E+02  0.90848353659E+02 0.  0.
         11    1    3    3    0    0  0.38147752904E+02 -0.13749031590E+02 -0.62990288762E+01  0.41036138781E+02  0.00000000000E+00 0.  1.
        -11    1    3    3    0    0 -0.44479139241E+02  0.25492416146E+02 -0.92005894759E+01  0.52085582989E+02  0.00000000000E+00 0. -1.
         22    1    1    2    0    0  0.63313863376E+01 -0.11743384556E+02 -0.16353154704E+01  0.13441271907E+02  0.00000000000E+00 0.  1.
<mgrwt>
<rscale>  0 0.56690885E+02</rscale>
<asrwt>0</asrwt>
<pdfrwt beam="1">  1        1 0.95152251E-02 0.91822747E+02</pdfrwt>
<pdfrwt beam="2">  1       -1 0.68790816E-02 0.91822747E+02</pdfrwt>
<totfact> 0.63619641E+04</totfact>
</mgrwt>
</event>
<event>
 6    1  0.2852411E-002  0.9031765E+02  0.7546771E-02  0.1419188E+00
         -2   -1    0    0    0  501 -0.00000000000E+00  0.00000000000E+00  0.63083306189E+01  0.63083306189E+01  0.00000000000E+00 0.  1.
          2   -1    0    0  501    0  0.00000000000E+00 -0.00000000000E+00 -0.66830091434E+03  0.66830091434E+03  0.00000000000E+00 0. -1.
         23    2    1    2    0    0  0.29343669841E+01 -0.12249135262E+02 -0.65279377762E+03  0.65901213439E+03  0.89435034276E+02 0.  0.
         13    1    3    3    0    0  0.96042792848E+01 -0.50592655236E+01 -0.64800903545E+03  0.64809995246E+03  0.00000000000E+00 0. -1.
        -13    1    3    3    0    0 -0.66699123007E+01 -0.71898697387E+01 -0.47847421634E+01  0.10912181933E+02  0.00000000000E+00 0.  1.
         22    1    1    2    0    0 -0.29343669841E+01  0.12249135262E+02 -0.91988061019E+01  0.15597110565E+02  0.00000000000E+00 0. -1.
<mgrwt>
<rscale>  0 0.55193139E+02</rscale>
<asrwt>0</asrwt>
<pdfrwt beam="1">  1        2 0.10281551E+00 0.90317646E+02</pdfrwt>
<pdfrwt beam="2">  1       -2 0.97051258E-03 0.90317646E+02</pdfrwt>
<totfact> 0.86553421E+04</totfact>
</mgrwt>
</event>
<event>
 6    1  0.2852411E-002  0.7121938E+02  0.7546771E-02  0.1397458E+00
          4   -1    0    0  501    0  0.00000000000E+00  0.00000000000E+00  0.52072630063E+02  0.52072630063E+02  0.00000000000E+00 0. -1.
         -4   -1    0    0    0  501 -0.00000000000E+00 -0.00000000000E+00 -0.94048294064E+02  0.94048294064E+02  0.00000000000E+00 0.  1.
         23    2    1    2    0    0 -0.29952942741E+02 -0.20133147986E+02  0.20376571964E+02  0.74077022535E+02  0.61397704810E+02 0.  0.
         13    1    3    3    0    0 -0.35059154188E+02 -0.34967928904E+02  0.15102967007E+01  0.49539694592E+02  0.00000000000E+00 0. -1.
        -13    1    3    3    0    0  0.51062114468E+01  0.14834780918E+02  0.18866275264E+02  0.24537327942E+02  0.00000000000E+00 0.  1.
         22    1    1    2    0    0  0.29952942741E+02  0.20133147986E+02 -0.62352235966E+02  0.72043901592E+02  0.00000000000E+00 0.  1.
<mgrwt>
<rscale>  0 0.60089253E+02</rscale>
<asrwt>0</asrwt>
<pdfrwt beam="1">  1        4 0.80111740E-02 0.71219383E+02</pdfrwt>
<pdfrwt beam="2">  1       -4 0.14468968E-01 0.71219383E+02</pdfrwt>
<totfact> 0.60049712E+03</totfact>
</mgrwt>
</event>
<event>
 6    1  0.2852411E-002  0.9397610E+02  0.7546771E-02  0.1381222E+00
          1   -1    0    0  501    0  0.00000000000E+00  0.00000000000E+00  0.73573142222E+03  0.73573142222E+03  0.00000000000E+00 0. -1.
         -1   -1    0    0    0  501 -0.00000000000E+00 -0.00000000000E+00 -0.45567372293E+01  0.45567372293E+01  0.00000000000E+00 0.  1.
         23    2    1    2    0    0 -0.14342266934E+02  0.14502596047E+02  0.63977920425E+03  0.64664436728E+03  0.91735934210E+02 0.  0.
         11    1    3    3    0    0 -0.41673912992E+02  0.15527712301E+02  0.15941562198E+03  0.16550276555E+03  0.00000000000E+00 0.  1.
        -11    1    3    3    0    0  0.27331646059E+02 -0.10251162546E+01  0.48036358227E+03  0.48114160173E+03  0.00000000000E+00 0. -1.
         22    1    1    2    0    0  0.14342266934E+02 -0.14502596047E+02  0.91395480743E+02  0.93643792176E+02  0.00000000000E+00 0. -1.
<mgrwt>
<rscale>  0 0.64143568E+02</rscale>
<asrwt>0</asrwt>
<pdfrwt beam="1">  1        1 0.11318935E+00 0.93976101E+02</pdfrwt>
<pdfrwt beam="2">  1       -1 0.70103708E-03 0.93976101E+02</pdfrwt>
<totfact> 0.72981564E+04</totfact>
</mgrwt>
</event>
<event>
 6    1  0.2852411E-002  0.9403175E+02  0.7546771E-02  0.1415803E+00
          2   -1    0    0  501    0  0.00000000000E+00  0.00000000000E+00  0.21481338895E+02  0.21481338895E+02  0.00000000000E+00 0. -1.
         -2   -1    0    0    0  501 -0.00000000000E+00 -0.00000000000E+00 -0.13030532726E+03  0.13030532726E+03  0.00000000000E+00 0.  1.
         23    2    1    2    0    0  0.11759628563E+02  0.89688244227E-01 -0.95737428635E+02  0.13419249231E+03  0.93293476950E+02 0.  0.
         11    1    3    3    0    0  0.67526317105E+01  0.18829067907E+02  0.12922861354E+02  0.23814537132E+02  0.00000000000E+00 0. -1.
        -11    1    3    3    0    0  0.50069968520E+01 -0.18739379663E+02 -0.10866028999E+03  0.11037795517E+03  0.00000000000E+00 0.  1.
         22    1    1    2    0    0 -0.11759628563E+02 -0.89688244227E-01 -0.13086559729E+02  0.17594173850E+02  0.00000000000E+00 0.  1.
<mgrwt>
<rscale>  0 0.55918749E+02</rscale>
<asrwt>0</asrwt>
<pdfrwt beam="1">  1        2 0.33048214E-02 0.94031749E+02</pdfrwt>
<pdfrwt beam="2">  1       -2 0.20046973E-01 0.94031749E+02</pdfrwt>
<totfact> 0.49598633E+04</totfact>
</mgrwt>
</event>
<event>
 6    1  0.2852411E-002  0.9241936E+02  0.7546771E-02  0.1403525E+00
         -2   -1    0    0    0  501 -0.00000000000E+00  0.00000000000E+00  0.29382841661E+01  0.29382841661E+01  0.00000000000E+00 0. -1.
          2   -1    0    0  501    0  0.00000000000E+00 -0.00000000000E+00 -0.10200318965E+04  0.10200318965E+04  0.00000000000E+00 0.  1.
         23    2    1    2    0    0  0.47649990885E+01  0.14227035249E+02 -0.93130270656E+03  0.93587716566E+03  0.91193334295E+02 0.  0.
         11    1    3    3    0    0  0.16373717140E+02  0.39051350682E+02 -0.21950570361E+03  0.22355281371E+03  0.00000000000E+00 0. -1.
        -11    1    3    3    0    0 -0.11608718052E+02 -0.24824315433E+02 -0.71179700295E+03  0.71232435195E+03  0.00000000000E+00 0.  1.
         22    1    1    2    0    0 -0.47649990885E+01 -0.14227035249E+02 -0.85790905731E+02  0.87093014958E+02  0.00000000000E+00 0. -1.
<mgrwt>
<rscale>  0 0.58664107E+02</rscale>
<asrwt>0</asrwt>
<pdfrwt beam="1">  1        2 0.15692796E+00 0.92419359E+02</pdfrwt>
<pdfrwt beam="2">  1       -2 0.45204378E-03 0.92419359E+02</pdfrwt>
<totfact> 0.15033751E+05</totfact>
</mgrwt>
</event>
<event>
 6    1  0.2852411E-002  0.8285903E+02  0.7546771E-02  0.1443246E+00
          1   -1    0    0  501    0  0.00000000000E+00  0.00000000000E+00  0.10488082970E+03  0.10488082970E+03  0.00000000000E+00 0. -1.
         -1   -1    0    0    0  501 -0.00000000000E+00 -0.00000000000E+00 -0.26016011810E+02  0.26016011810E+02  0.00000000000E+00 0.  1.
         23    2    1    2    0    0 -0.79576098407E+01 -0.80704259683E+01  0.84407457805E+02  0.11828033696E+03  0.82080228123E+02 0.  0.
         13    1    3    3    0    0  0.21114454432E+02 -0.33866411624E+02  0.24374174621E+02  0.46763815185E+02  0.00000000000E+00 0. -1.
        -13    1    3    3    0    0 -0.29072064272E+02  0.25795985655E+02  0.60033283184E+02  0.71516521775E+02  0.00000000000E+00 0.  1.
         22    1    1    2    0    0  0.79576098407E+01  0.80704259683E+01 -0.55426399185E+01  0.12616504546E+02  0.00000000000E+00 0.  1.
<mgrwt>
<rscale>  0 0.50390528E+02</rscale>
<asrwt>0</asrwt>
<pdfrwt beam="1">  1        1 0.16135512E-01 0.82859032E+02</pdfrwt>
<pdfrwt beam="2">  1       -1 0.40024634E-02 0.82859032E+02</pdfrwt>
<totfact> 0.69989156E+04</totfact>
</mgrwt>
</event>
<event>
 6    1  0.2852411E-002  0.8649869E+02  0.7546771E-02  0.1427941E+00
         -2   -1    0    0    0  501 -0.00000000000E+00  0.00000000000E+00  0.30263700701E+01  0.30263700701E+01  0.00000000000E+00 0.  1.
          2   -1    0    0  501    0  0.00000000000E+00 -0.00000000000E+00 -0.19947901649E+04  0.19947901649E+04  0.00000000000E+00 0. -1.
         23    2    1    2    0    0  0.95836143895E+01  0.80891806519E+01 -0.19749368808E+04  0.19768302169E+04  0.85584712370E+02 0.  0.
         11    1    3    3    0    0  0.44317987153E+02  0.34930659504E+01 -0.14736449157E+04  0.14743153065E+04  0.00000000000E+00 0. -1.
        -11    1    3    3    0    0 -0.34734372764E+02  0.45961147016E+01 -0.50129196509E+03  0.50251491041E+03  0.00000000000E+00 0.  1.
         22    1    1    2    0    0 -0.95836143895E+01 -0.80891806519E+01 -0.16826914041E+02  0.20986318031E+02  0.00000000000E+00 0.  1.
<mgrwt>
<rscale>  0 0.53375446E+02</rscale>
<asrwt>0</asrwt>
<pdfrwt beam="1">  1        2 0.30689055E+00 0.86498691E+02</pdfrwt>
<pdfrwt beam="2">  1       -2 0.46559577E-03 0.86498691E+02</pdfrwt>
<totfact> 0.44565087E+04</totfact>
</mgrwt>
</event>
<event>
 6    1  0.2852411E-002  0.9903241E+02  0.7546771E-02  0.1341118E+00
         -3   -1    0    0    0  501 -0.00000000000E+00  0.00000000000E+00  0.27405966192E+03  0.27405966192E+03  0.00000000000E+00 0.  1.
          3   -1    0    0  501    0  0.00000000000E+00 -0.00000000000E+00 -0.17688727380E+02  0.17688727380E+02  0.00000000000E+00 0. -1.
         23    2    1    2    0    0 -0.23278388300E+02 -0.25003473029E+02  0.22295861693E+03  0.24396303596E+03  0.92953542310E+02 0.  0.
         11    1    3    3    0    0  0.16658117206E+02 -0.45093738086E+02  0.15767039719E+03  0.16483595553E+03  0.00000000000E+00 0.  1.
        -11    1    3    3    0    0 -0.39936505506E+02  0.20090265057E+02  0.65288219738E+02  0.79127080438E+02  0.00000000000E+00 0. -1.
         22    1    1    2    0    0  0.23278388300E+02  0.25003473029E+02  0.33412317612E+02  0.47785353338E+02  0.00000000000E+00 0.  1.
<mgrwt>
<rscale>  0 0.75896110E+02</rscale>
<asrwt>0</asrwt>
<pdfrwt beam="1">  1        3 0.27213429E-02 0.99032409E+02</pdfrwt>
<pdfrwt beam="2">  1       -3 0.42163022E-01 0.99032409E+02</pdfrwt>
<totfact> 0.70514825E+03</totfact>
</mgrwt>
</event>
<event>
 6    1  0.2852411E-002  0.9276949E+02  0.7546771E-02  0.1362566E+00
         -2   -1    0    0    0  501 -0.00000000000E+00  0.00000000000E+00  0.28840424815E+02  0.28840424815E+02  0.00000000000E+00 0.  1.
          2   -1    0    0  501    0  0.00000000000E+00 -0.00000000000E+00 -0.13900485795E+03  0.13900485795E+03  0.00000000000E+00 0. -1.
         23    2    1    2    0    0  0.25210839146E+02  0.14028310489E+02 -0.10196556045E+03  0.13785192652E+03  0.88169145521E+02 0.  0.
         11    1    3    3    0    0  0.21148383860E+02 -0.44164201743E+01  0.10352556422E+02  0.23956926587E+02  0.00000000000E+00 0.  1.
        -11    1    3    3    0    0  0.40624552862E+01  0.18444730663E+02 -0.11231811687E+03  0.11389499993E+03  0.00000000000E+00 0. -1.
         22    1    1    2    0    0 -0.25210839146E+02 -0.14028310489E+02 -0.81988726890E+01  0.29993356248E+02  0.00000000000E+00 0.  1.
<mgrwt>
<rscale>  0 0.69277798E+02</rscale>
<asrwt>0</asrwt>
<pdfrwt beam="1">  1        2 0.21385363E-01 0.92769489E+02</pdfrwt>
<pdfrwt beam="2">  1       -2 0.44369884E-02 0.92769489E+02</pdfrwt>
<totfact> 0.52404408E+04</totfact>
</mgrwt>
</event>
<event>
 6    1  0.2852411E-002  0.9347905E+02  0.7546771E-02  0.1395019E+00
         -2   -1    0    0    0  501 -0.00000000000E+00  0.00000000000E+00  0.24141598719E+02  0.24141598719E+02  0.00000000000E+00 0. -1.
          2   -1    0    0  501    0  0.00000000000E+00 -0.00000000000E+00 -0.13865709937E+03  0.13865709937E+03  0.00000000000E+00 0.  1.
         23    2    1    2    0    0 -0.29712279116E+00  0.16589616739E+02 -0.11221169279E+03  0.14604724453E+03  0.91994727948E+02 0.  0.
         13    1    3    3    0    0 -0.16708175599E+02  0.12000634266E+02  0.98457061268E+01  0.22806058050E+02  0.00000000000E+00 0. -1.
        -13    1    3    3    0    0  0.16411052808E+02  0.45889824739E+01 -0.12205739892E+03  0.12324118648E+03  0.00000000000E+00 0.  1.
         22    1    1    2    0    0  0.29712279116E+00 -0.16589616739E+02 -0.23038078543E+01  0.16751453553E+02  0.00000000000E+00 0. -1.
<mgrwt>
<rscale>  0 0.60675342E+02</rscale>
<asrwt>0</asrwt>
<pdfrwt beam="1">  1        2 0.21331861E-01 0.93479055E+02</pdfrwt>
<pdfrwt beam="2">  1       -2 0.37140921E-02 0.93479055E+02</pdfrwt>
<totfact> 0.68349939E+04</totfact>
</mgrwt>
</event>
<event>
 6    1  0.2852411E-002  0.9251312E+02  0.7546771E-02  0.1421089E+00
          2   -1    0    0  501    0  0.00000000000E+00  0.00000000000E+00  0.20128123458E+03  0.20128123458E+03  0.00000000000E+00 0. -1.
         -2   -1    0    0    0  501 -0.00000000000E+00 -0.00000000000E+00 -0.13454529399E+02  0.13454529399E+02  0.00000000000E+00 0.  1.
         23    2    1    2    0    0  0.11261754226E+02 -0.16523564728E+01  0.16299012351E+03  0.18741520068E+03  0.91810237404E+02 0.  0.
         13    1    3    3    0    0 -0.31692312016E+02  0.17415878543E+02  0.11369521182E+03  0.11930765549E+03  0.00000000000E+00 0. -1.
        -13    1    3    3    0    0  0.42954066242E+02 -0.19068235015E+02  0.49294911688E+02  0.68107545189E+02  0.00000000000E+00 0.  1.
         22    1    1    2    0    0 -0.11261754226E+02  0.16523564728E+01  0.24836581666E+02  0.27320563300E+02  0.00000000000E+00 0. -1.
<mgrwt>
<rscale>  0 0.54791131E+02</rscale>
<asrwt>0</asrwt>
<pdfrwt beam="1">  1        2 0.30966342E-01 0.92513118E+02</pdfrwt>
<pdfrwt beam="2">  1       -2 0.20699277E-02 0.92513118E+02</pdfrwt>
<totfact> 0.10633178E+05</totfact>
</mgrwt>
</event>
<event>
 6    1  0.2852411E-002  0.9122481E+02  0.7546771E-02  0.1392668E+00
         -1   -1    0    0    0  501 -0.00000000000E+00  0.00000000000E+00  0.92764383218E+01  0.92764383218E+01  0.00000000000E+00 0.  1.
          1   -1    0    0  501    0  0.00000000000E+00 -0.00000000000E+00 -0.50873334983E+03  0.50873334983E+03  0.00000000000E+00 0. -1.
         23    2    1    2    0    0  0.18466868645E+02 -0.16060144981E+01 -0.48747615480E+03  0.49593847076E+03  0.89321670168E+02 0.  0.
         13    1    3    3    0    0 -0.15986603486E+02  0.31423838772E+02 -0.31544336208E+03  0.31740753585E+03  0.00000000000E+00 0. -1.
        -13    1    3    3    0    0  0.34453472132E+02 -0.33029853270E+02 -0.17203279272E+03  0.17853093491E+03  0.00000000000E+00 0.  1.
         22    1    1    2    0    0 -0.18466868645E+02  0.16060144981E+01 -0.11980756711E+02  0.22071317394E+02  0.00000000000E+00 0.  1.
<mgrwt>
<rscale>  0 0.61248022E+02</rscale>
<asrwt>0</asrwt>
<pdfrwt beam="1">  1        1 0.78266676E-01 0.91224806E+02</pdfrwt>
<pdfrwt beam="2">  1       -1 0.14271442E-02 0.91224806E+02</pdfrwt>
<totfact> 0.43914221E+04</totfact>
</mgrwt>
</event>
<event>
 6    1  0.2852411E-002  0.9112942E+02  0.7546771E-02  0.1425624E+00
          1   -1    0    0  501    0  0.00000000000E+00  0.00000000000E+00  0.12174730642E+03  0.12174730642E+03  0.00000000000E+00 0. -1.
         -1   -1    0    0    0  501 -0.00000000000E+00 -0.00000000000E+00 -0.24072659532E+02  0.24072659532E+02  0.00000000000E+00 0.  1.
         23    2    1    2    0    0  0.40663028694E+01 -0.10339357270E+02  0.99086257823E+02  0.13462042252E+03  0.90449624331E+02 0.  0.
         11    1    3    3    0    0 -0.21155065567E+02 -0.32411780920E+01  0.10549731740E+03  0.10764630051E+03  0.00000000000E+00 0. -1.
        -11    1    3    3    0    0  0.25221368436E+02 -0.70981791777E+01 -0.64110595743E+01  0.26974122012E+02  0.00000000000E+00 0.  1.
         22    1    1    2    0    0 -0.40663028694E+01  0.10339357270E+02 -0.14116109325E+01  0.11199543437E+02  0.00000000000E+00 0. -1.
<mgrwt>
<rscale>  0 0.53848634E+02</rscale>
<asrwt>0</asrwt>
<pdfrwt beam="1">  1        1 0.18730354E-01 0.91129423E+02</pdfrwt>
<pdfrwt beam="2">  1       -1 0.37034862E-02 0.91129423E+02</pdfrwt>
<totfact> 0.65791238E+04</totfact>
</mgrwt>
</event>
<event>
 6    1  0.2852411E-002  0.1058528E+03  0.7546771E-02  0.1360926E+00
          4   -1    0    0  501    0  0.00000000000E+00  0.00000000000E+00  0.19388701043E+03  0.19388701043E+03  0.00000000000E+00 0.  1.
         -4   -1    0    0    0  501 -0.00000000000E+00 -0.00000000000E+00 -0.26498406390E+02  0.26498406390E+02  0.00000000000E+00 0. -1.
         23    2    1    2    0    0 -0.19949637378E+02  0.71521339135E+00  0.16999083864E+03  0.20025406846E+03  0.10395338932E+03 0.  0.
         13    1    3    3    0    0 -0.23319179290E+02  0.26406750531E+02  0.78986425741E+01  0.36103866149E+02  0.00000000000E+00 0. -1.
        -13    1    3    3    0    0  0.33695419119E+01 -0.25691537139E+02  0.16209219607E+03  0.16415020231E+03  0.00000000000E+00 0.  1.
         22    1    1    2    0    0  0.19949637378E+02 -0.71521339135E+00 -0.26022346036E+01  0.20131348357E+02  0.00000000000E+00 0.  1.
<mgrwt>
<rscale>  0 0.69755767E+02</rscale>
<asrwt>0</asrwt>
<pdfrwt beam="1">  1        4 0.29828770E-01 0.10585276E+03</pdfrwt>
<pdfrwt beam="2">  1       -4 0.40766780E-02 0.10585276E+03</pdfrwt>
<totfact> 0.54593543E+03</totfact>
</mgrwt>
</event>
<event>
 6    1  0.2852411E-002  0.9226065E+02  0.7546771E-02  0.1423835E+00
          4   -1    0    0  501    0  0.00000000000E+00  0.00000000000E+00  0.10680258206E+03  0.10680258206E+03  0.00000000000E+00 0. -1.
         -4   -1    0    0    0  501 -0.00000000000E+00 -0.00000000000E+00 -0.25125662682E+02  0.25125662682E+02  0.00000000000E+00 0.  1.
         23    2    1    2    0    0  0.14186344076E+01 -0.10911295050E+02  0.69445472681E+02  0.11547597524E+03  0.91602174099E+02 0.  0.
         13    1    3    3    0    0 -0.36997141126E+02  0.41155634148E+01  0.31024088499E+01  0.37354400737E+02  0.00000000000E+00 0.  1.
        -13    1    3    3    0    0  0.38415775534E+02 -0.15026858465E+02  0.66343063831E+02  0.78121574508E+02  0.00000000000E+00 0. -1.
         22    1    1    2    0    0 -0.14186344076E+01  0.10911295050E+02  0.12231446692E+02  0.16452269492E+02  0.00000000000E+00 0. -1.
<mgrwt>
<rscale>  0 0.54217744E+02</rscale>
<asrwt>0</asrwt>
<pdfrwt beam="1">  1        4 0.16431166E-01 0.92260648E+02</pdfrwt>
<pdfrwt beam="2">  1       -4 0.38654866E-02 0.92260648E+02</pdfrwt>
<totfact> 0.16779433E+04</totfact>
</mgrwt>
</event>
<event>
 6    1  0.2852411E-002  0.9312891E+02  0.7546771E-02  0.1416240E+00
         -1   -1    0    0    0  501 -0.00000000000E+00  0.00000000000E+00  0.56765853145E+01  0.56765853145E+01  0.00000000000E+00 0.  1.
          1   -1    0    0  501    0  0.00000000000E+00 -0.00000000000E+00 -0.55718130756E+03  0.55718130756E+03  0.00000000000E+00 0. -1.
         23    2    1    2    0    0  0.27227891966E+01  0.11711416314E+02 -0.53086060871E+03  0.53896751245E+03  0.92349459909E+02 0.  0.
         11    1    3    3    0    0  0.14928444492E+02 -0.21213841476E+02 -0.45078755520E+03  0.45153328277E+03  0.00000000000E+00 0.  1.
        -11    1    3    3    0    0 -0.12205655295E+02  0.32925257791E+02 -0.80073053509E+02  0.87434229681E+02  0.00000000000E+00 0. -1.
         22    1    1    2    0    0 -0.27227891966E+01 -0.11711416314E+02 -0.20644113538E+02  0.23890380425E+02  0.00000000000E+00 0. -1.
<mgrwt>
<rscale>  0 0.55824325E+02</rscale>
<asrwt>0</asrwt>
<pdfrwt beam="1">  1        1 0.85720244E-01 0.93128909E+02</pdfrwt>
<pdfrwt beam="2">  1       -1 0.87332038E-03 0.93128909E+02</pdfrwt>
<totfact> 0.78302848E+04</totfact>
</mgrwt>
</event>
<event>
 6    1  0.2852411E-002  0.1002257E+03  0.7546771E-02  0.1334261E+00
          2   -1    0    0  501    0  0.00000000000E+00  0.00000000000E+00  0.33729264776E+04  0.33729264776E+04  0.00000000000E+00 0. -1.
         -2   -1    0    0    0  501 -0.00000000000E+00 -0.00000000000E+00 -0.24579775095E+01  0.24579775095E+01  0.00000000000E+00 0.  1.
         23    2    1    2    0    0 -0.23085565226E+02  0.29080070024E+02  0.31651052878E+04  0.31666917558E+04  0.93094572435E+02 0.  0.
         13    1    3    3    0    0  0.26014008241E+01 -0.12541932399E+02  0.67742843699E+02  0.68943166645E+02  0.00000000000E+00 0.  1.
        -13    1    3    3    0    0 -0.25686966050E+02  0.41622002423E+02  0.30973624441E+04  0.30977485892E+04  0.00000000000E+00 0. -1.
         22    1    1    2    0    0  0.23085565226E+02 -0.29080070024E+02  0.20536321225E+03  0.20869269929E+03  0.00000000000E+00 0.  1.
<mgrwt>
<rscale>  0 0.78192284E+02</rscale>
<asrwt>0</asrwt>
<pdfrwt beam="1">  1        2 0.51890806E+00 0.10022571E+03</pdfrwt>
<pdfrwt beam="2">  1       -2 0.37815309E-03 0.10022571E+03</pdfrwt>
<totfact> 0.10608143E+04</totfact>
</mgrwt>
</event>
<event>
 6    1  0.2852411E-002  0.9312143E+02  0.7546771E-02  0.1396531E+00
          2   -1    0    0  501    0  0.00000000000E+00  0.00000000000E+00  0.17694367890E+03  0.17694367890E+03  0.00000000000E+00 0. -1.
         -2   -1    0    0    0  501 -0.00000000000E+00 -0.00000000000E+00 -0.28478128373E+02  0.28478128373E+02  0.00000000000E+00 0.  1.
         23    2    1    2    0    0 -0.20461571681E+01  0.16256454329E+02  0.16017905130E+03  0.18528067606E+03  0.91668649937E+02 0.  0.
         11    1    3    3    0    0 -0.37038122573E+02  0.37053777318E+02  0.92252997767E+02  0.10609156674E+03  0.00000000000E+00 0.  1.
        -11    1    3    3    0    0  0.34991965405E+02 -0.20797322989E+02  0.67926053529E+02  0.79189109317E+02  0.00000000000E+00 0. -1.
         22    1    1    2    0    0  0.20461571681E+01 -0.16256454329E+02 -0.11713500764E+02  0.20141131216E+02  0.00000000000E+00 0.  1.
<mgrwt>
<rscale>  0 0.60311063E+02</rscale>
<asrwt>0</asrwt>
<pdfrwt beam="1">  1        2 0.27222104E-01 0.93121429E+02</pdfrwt>
<pdfrwt beam="2">  1       -2 0.43812506E-02 0.93121429E+02</pdfrwt>
<totfact> 0.41019663E+04</totfact>
</mgrwt>
</event>
<event>
 6    1  0.2852411E-002  0.9256374E+02  0.7546771E-02  0.1411948E+00
          2   -1    0    0  501    0  0.00000000000E+00  0.00000000000E+00  0.24436911332E+03  0.24436911332E+03  0.00000000000E+00 0. -1.
         -2   -1    0    0    0  501 -0.00000000000E+00 -0.00000000000E+00 -0.12450831036E+02  0.12450831036E+02  0.00000000000E+00 0.  1.
         23    2    1    2    0    0  0.12547966999E+02 -0.37229350242E+01  0.22159299415E+03  0.24014891272E+03  0.91633691947E+02 0.  0.
         11    1    3    3    0    0  0.47347603396E+02  0.94577415740E+01  0.16872695600E+03  0.17549937351E+03  0.00000000000E+00 0. -1.
        -11    1    3    3    0    0 -0.34799636397E+02 -0.13180676598E+02  0.52866038154E+02  0.64649539202E+02  0.00000000000E+00 0.  1.
         22    1    1    2    0    0 -0.12547966999E+02  0.37229350242E+01  0.10325288133E+02  0.16671031642E+02  0.00000000000E+00 0.  1.
<mgrwt>
<rscale>  0 0.56761523E+02</rscale>
<asrwt>0</asrwt>
<pdfrwt beam="1">  1        2 0.37595245E-01 0.92563736E+02</pdfrwt>
<pdfrwt beam="2">  1       -2 0.19155126E-02 0.92563736E+02</pdfrwt>
<totfact> 0.96783321E+04</totfact>
</mgrwt>
</event>
<event>
 6    1  0.2852411E-002  0.9320191E+02  0.7546771E-02  0.1382215E+00
         -2   -1    0    0    0  501 -0.00000000000E+00  0.00000000000E+00  0.22510712268E+01  0.22510712268E+01  0.00000000000E+00 0.  1.
          2   -1    0    0  501    0  0.00000000000E+00 -0.00000000000E+00 -0.18975925098E+04  0.18975925098E+04  0.00000000000E+00 0. -1.
         23    2    1    2    0    0 -0.22606443666E+01  0.20449678596E+02 -0.17948171044E+04  0.17972353863E+04  0.90902670986E+02 0.  0.
         11    1    3    3    0    0  0.15228212139E+02  0.19088572165E+02 -0.17274284495E+04  0.17276010304E+04  0.00000000000E+00 0. -1.
        -11    1    3    3    0    0 -0.17488856505E+02  0.13611064318E+01 -0.67388654898E+02  0.69634355900E+02  0.00000000000E+00 0.  1.
         22    1    1    2    0    0  0.22606443666E+01 -0.20449678596E+02 -0.10052433417E+03  0.10260819474E+03  0.00000000000E+00 0.  1.
<mgrwt>
<rscale>  0 0.63885105E+02</rscale>
<asrwt>0</asrwt>
<pdfrwt beam="1">  1        2 0.29193764E+00 0.93201907E+02</pdfrwt>
<pdfrwt beam="2">  1       -2 0.34631826E-03 0.93201907E+02</pdfrwt>
<totfact> 0.75896675E+04</totfact>
</mgrwt>
</event>
<event>
 6    1  0.2852411E-002  0.9085459E+02  0.7546771E-02  0.1400236E+00
          2   -1    0    0  501    0  0.00000000000E+00  0.00000000000E+00  0.47679240226E+02  0.47679240226E+02  0.00000000000E+00 0. -1.
         -2   -1    0    0    0  501 -0.00000000000E+00 -0.00000000000E+00 -0.10077417151E+03  0.10077417151E+03  0.00000000000E+00 0.  1.
         23    2    1    2    0    0 -0.66453128331E+01 -0.15249375151E+02  0.20260185870E+01  0.90877177577E+02  0.89318827959E+02 0.  0.
         13    1    3    3    0    0  0.22845421585E+02  0.13050400166E+02 -0.29301064731E+02  0.39379926692E+02  0.00000000000E+00 0.  1.
        -13    1    3    3    0    0 -0.29490734418E+02 -0.28299775317E+02  0.31327083318E+02  0.51497250885E+02  0.00000000000E+00 0. -1.
         22    1    1    2    0    0  0.66453128331E+01  0.15249375151E+02 -0.55120949874E+02  0.57576234161E+02  0.00000000000E+00 0.  1.
<mgrwt>
<rscale>  0 0.59430860E+02</rscale>
<asrwt>0</asrwt>
<pdfrwt beam="1">  1        2 0.73352678E-02 0.90854591E+02</pdfrwt>
<pdfrwt beam="2">  1       -2 0.15503719E-01 0.90854591E+02</pdfrwt>
<totfact> 0.26973892E+04</totfact>
</mgrwt>
</event>
<event>
 6    1  0.2852411E-002  0.9284669E+02  0.7546771E-02  0.1395556E+00
          1   -1    0    0  501    0  0.00000000000E+00  0.00000000000E+00  0.52060839179E+03  0.52060839179E+03  0.00000000000E+00 0. -1.
         -1   -1    0    0    0  501 -0.00000000000E+00 -0.00000000000E+00 -0.75296726470E+01  0.75296726470E+01  0.00000000000E+00 0.  1.
         23    2    1    2    0    0  0.14758003278E+01 -0.16724355590E+02  0.49431687813E+03  0.50296091736E+03  0.91316079285E+02 0.  0.
         11    1    3    3    0    0  0.31488379473E+02 -0.26049203070E+02  0.10974442965E+03  0.11710644244E+03  0.00000000000E+00 0.  1.
        -11    1    3    3    0    0 -0.30012579146E+02  0.93248474797E+01  0.38457244848E+03  0.38585447492E+03  0.00000000000E+00 0. -1.
         22    1    1    2    0    0 -0.14758003278E+01  0.16724355590E+02  0.18761841015E+02  0.25177147074E+02  0.00000000000E+00 0.  1.
<mgrwt>
<rscale>  0 0.60545694E+02</rscale>
<asrwt>0</asrwt>
<pdfrwt beam="1">  1        1 0.80093570E-01 0.92846693E+02</pdfrwt>
<pdfrwt beam="2">  1       -1 0.11584116E-02 0.92846693E+02</pdfrwt>
<totfact> 0.57401445E+04</totfact>
</mgrwt>
</event>
<event>
 6    1  0.2852411E-002  0.8642123E+02  0.7546771E-02  0.1414105E+00
         -4   -1    0    0    0  501 -0.00000000000E+00  0.00000000000E+00  0.21371617445E+03  0.21371617445E+03  0.00000000000E+00 0.  1.
          4   -1    0    0  501    0  0.00000000000E+00 -0.00000000000E+00 -0.12183533662E+02  0.12183533662E+02  0.00000000000E+00 0. -1.
         23    2    1    2    0    0  0.12483949132E+02  0.92749340548E+01  0.17393631120E+03  0.19422273233E+03  0.85010328866E+02 0.  0.
         13    1    3    3    0    0  0.38338498945E+02  0.69103085071E+01  0.33417593403E+02  0.51325709093E+02  0.00000000000E+00 0. -1.
        -13    1    3    3    0    0 -0.25854549813E+02  0.23646255476E+01  0.14051871779E+03  0.14289702324E+03  0.00000000000E+00 0.  1.
         22    1    1    2    0    0 -0.12483949132E+02 -0.92749340548E+01  0.27596329587E+02  0.31676975776E+02  0.00000000000E+00 0. -1.
<mgrwt>
<rscale>  0 0.56287745E+02</rscale>
<asrwt>0</asrwt>
<pdfrwt beam="1">  1        4 0.18743900E-02 0.86421232E+02</pdfrwt>
<pdfrwt beam="2">  1       -4 0.32879409E-01 0.86421232E+02</pdfrwt>
<totfact> 0.14279145E+04</totfact>
</mgrwt>
</event>
<event>
 6    1  0.2852411E-002  0.9177711E+02  0.7546771E-02  0.1418682E+00
         -1   -1    0    0    0  501 -0.00000000000E+00  0.00000000000E+00  0.33053673735E+02  0.33053673735E+02  0.00000000000E+00 0.  1.
          1   -1    0    0  501    0  0.00000000000E+00 -0.00000000000E+00 -0.83113232105E+02  0.83113232105E+02  0.00000000000E+00 0. -1.
         23    2    1    2    0    0 -0.15755361746E+01  0.11995172319E+02 -0.38806557646E+02  0.99644300158E+02  0.90976212080E+02 0.  0.
         11    1    3    3    0    0  0.26282511275E+02  0.14926387879E+02 -0.58195679409E+02  0.65576707419E+02  0.00000000000E+00 0. -1.
        -11    1    3    3    0    0 -0.27858047449E+02 -0.29312155600E+01  0.19389121762E+02  0.34067592740E+02  0.00000000000E+00 0.  1.
         22    1    1    2    0    0  0.15755361746E+01 -0.11995172319E+02 -0.11253000724E+02  0.16522605681E+02  0.00000000000E+00 0.  1.
<mgrwt>
<rscale>  0 0.55300745E+02</rscale>
<asrwt>0</asrwt>
<pdfrwt beam="1">  1        1 0.12786651E-01 0.91777108E+02</pdfrwt>
<pdfrwt beam="2">  1       -1 0.50851807E-02 0.91777108E+02</pdfrwt>
<totfact> 0.67555918E+04</totfact>
</mgrwt>
</event>
<event>
 6    1  0.2852411E-002  0.9157472E+02  0.7546771E-02  0.1431154E+00
          3   -1    0    0  501    0  0.00000000000E+00  0.00000000000E+00  0.89283516186E+01  0.89283516186E+01  0.00000000000E+00 0. -1.
         -3   -1    0    0    0  501 -0.00000000000E+00 -0.00000000000E+00 -0.29219931595E+03  0.29219931595E+03  0.00000000000E+00 0.  1.
         23    2    1    2    0    0 -0.48542991589E+01  0.88186054244E+01 -0.26316168208E+03  0.27863955394E+03  0.91019767536E+02 0.  0.
         13    1    3    3    0    0  0.54947812424E+01 -0.36970457841E+02 -0.64875367242E+02  0.74872028480E+02  0.00000000000E+00 0. -1.
        -13    1    3    3    0    0 -0.10349080401E+02  0.45789063266E+02 -0.19828631484E+03  0.20376752546E+03  0.00000000000E+00 0.  1.
         22    1    1    2    0    0  0.48542991589E+01 -0.88186054244E+01 -0.20109282258E+02  0.22488113636E+02  0.00000000000E+00 0.  1.
<mgrwt>
<rscale>  0 0.52729063E+02</rscale>
<asrwt>0</asrwt>
<pdfrwt beam="1">  1        3 0.13735928E-02 0.91574724E+02</pdfrwt>
<pdfrwt beam="2">  1       -3 0.44953734E-01 0.91574724E+02</pdfrwt>
<totfact> 0.17165456E+04</totfact>
</mgrwt>
</event>
<event>
 6    1  0.2852411E-002  0.9143418E+02  0.7546771E-02  0.1414791E+00
          2   -1    0    0  501    0  0.00000000000E+00  0.00000000000E+00  0.84922842657E+03  0.84922842657E+03  0.00000000000E+00 0. -1.
         -2   -1    0    0    0  501 -0.00000000000E+00 -0.00000000000E+00 -0.36766738321E+01  0.36766738321E+01  0.00000000000E+00 0.  1.
         23    2    1    2    0    0  0.86761506644E+01 -0.96719226272E+01  0.80824676632E+03  0.81340214242E+03  0.90506289012E+02 0.  0.
         13    1    3    3    0    0 -0.40253231826E+02 -0.91586630458E+01  0.43674918097E+03  0.43869585234E+03  0.00000000000E+00 0. -1.
        -13    1    3    3    0    0  0.48929382491E+02 -0.51325958145E+00  0.37149758534E+03  0.37470629008E+03  0.00000000000E+00 0.  1.
         22    1    1    2    0    0 -0.86761506644E+01  0.96719226272E+01  0.37304986427E+02  0.39502957991E+02  0.00000000000E+00 0. -1.
<mgrwt>
<rscale>  0 0.56138392E+02</rscale>
<asrwt>0</asrwt>
<pdfrwt beam="1">  1        2 0.13065037E+00 0.91434184E+02</pdfrwt>
<pdfrwt beam="2">  1       -2 0.56564280E-03 0.91434184E+02</pdfrwt>
<totfact> 0.13925061E+05</totfact>
</mgrwt>
</event>
<event>
 6    1  0.2852411E-002  0.9000396E+02  0.7546771E-02  0.1402375E+00
          4   -1    0    0  501    0  0.00000000000E+00  0.00000000000E+00  0.17671494229E+03  0.17671494229E+03  0.00000000000E+00 0.  1.
         -4   -1    0    0    0  501 -0.00000000000E+00 -0.00000000000E+00 -0.18765116127E+02  0.18765116127E+02  0.00000000000E+00 0. -1.
         23    2    1    2    0    0 -0.13105869120E+02  0.10092511275E+02  0.15415901950E+03  0.17850970767E+03  0.88470841804E+02 0.  0.
         11    1    3    3    0    0 -0.26274204204E+02 -0.23507055861E+02  0.13092678519E+03  0.13559033359E+03  0.00000000000E+00 0.  1.
        -11    1    3    3    0    0  0.13168335084E+02  0.33599567137E+02  0.23232234313E+02  0.42919374085E+02  0.00000000000E+00 0. -1.
         22    1    1    2    0    0  0.13105869120E+02 -0.10092511275E+02  0.37908066578E+01  0.16970350743E+02  0.00000000000E+00 0. -1.
<mgrwt>
<rscale>  0 0.58930510E+02</rscale>
<asrwt>0</asrwt>
<pdfrwt beam="1">  1        4 0.27186913E-01 0.90003958E+02</pdfrwt>
<pdfrwt beam="2">  1       -4 0.28869410E-02 0.90003958E+02</pdfrwt>
<totfact> 0.10634331E+04</totfact>
</mgrwt>
</event>
<event>
 6    1  0.2852411E-002  0.1873501E+03  0.7546771E-02  0.1167409E+00
          2   -1    0    0  501    0  0.00000000000E+00  0.00000000000E+00  0.18197509090E+04  0.18197509090E+04  0.00000000000E+00 0. -1.
         -2   -1    0    0    0  501 -0.00000000000E+00 -0.00000000000E+00 -0.31032345883E+02  0.31032345883E+02  0.00000000000E+00 0.  1.
         23    2    1    2    0    0 -0.15444269140E+03 -0.45779979734E+02  0.15589848644E+04  0.15702018517E+04  0.95664498543E+02 0.  0.
         11    1    3    3    0    0 -0.10009407088E+03 -0.41904213040E+02  0.13456787141E+04  0.13500466613E+04  0.00000000000E+00 0. -1.
        -11    1    3    3    0    0 -0.54348620520E+02 -0.38757666936E+01  0.21330615032E+03  0.22015519045E+03  0.00000000000E+00 0.  1.
         22    1    1    2    0    0  0.15444269140E+03  0.45779979734E+02  0.22973369875E+03  0.28058140319E+03  0.00000000000E+00 0.  1.
<mgrwt>
<rscale>  0 0.18040730E+03</rscale>
<asrwt>0</asrwt>
<pdfrwt beam="1">  1        2 0.27996159E+00 0.18735007E+03</pdfrwt>
<pdfrwt beam="2">  1       -2 0.47742085E-02 0.18735007E+03</pdfrwt>
<totfact> 0.19499580E+03</totfact>
</mgrwt>
</event>
<event>
 6    1  0.2852411E-002  0.9396705E+02  0.7546771E-02  0.1392073E+00
         -2   -1    0    0    0  501 -0.00000000000E+00  0.00000000000E+00  0.82625976595E+01  0.82625976595E+01  0.00000000000E+00 0.  1.
          2   -1    0    0  501    0  0.00000000000E+00 -0.00000000000E+00 -0.37634507160E+03  0.37634507160E+03  0.00000000000E+00 0. -1.
         23    2    1    2    0    0 -0.17000038462E+02  0.20484426660E+01 -0.29802126879E+03  0.31248437280E+03  0.92393772343E+02 0.  0.
         13    1    3    3    0    0 -0.50626889527E+02  0.81120199032E+01 -0.23761354350E+03  0.24308246103E+03  0.00000000000E+00 0. -1.
        -13    1    3    3    0    0  0.33626851065E+02 -0.60635772372E+01 -0.60407725298E+02  0.69401911769E+02  0.00000000000E+00 0.  1.
         22    1    1    2    0    0  0.17000038462E+02 -0.20484426660E+01 -0.70061205141E+02  0.72123296451E+02  0.00000000000E+00 0.  1.
<mgrwt>
<rscale>  0 0.61394111E+02</rscale>
<asrwt>0</asrwt>
<pdfrwt beam="1">  1        2 0.57899230E-01 0.93967051E+02</pdfrwt>
<pdfrwt beam="2">  1       -2 0.12711691E-02 0.93967051E+02</pdfrwt>
<totfact> 0.11084540E+05</totfact>
</mgrwt>
</event>
<event>
 6    1  0.2852411E-002  0.7136535E+02  0.7546771E-02  0.1459431E+00
          2   -1    0    0  501    0  0.00000000000E+00  0.00000000000E+00  0.93779567517E+03  0.93779567517E+03  0.00000000000E+00 0. -1.
         -2   -1    0    0    0  501 -0.00000000000E+00 -0.00000000000E+00 -0.28865404381E+01  0.28865404381E+01  0.00000000000E+00 0.  1.
         23    2    1    2    0    0  0.47458248970E+01  0.13151647014E+02  0.90334998604E+03  0.90616456014E+03  0.69982312719E+02 0.  0.
         13    1    3    3    0    0 -0.10236555587E+02 -0.88766565354E+01  0.36962847089E+02  0.39367933225E+02  0.00000000000E+00 0.  1.
        -13    1    3    3    0    0  0.14982380484E+02  0.22028303550E+02  0.86638713895E+03  0.86679662691E+03  0.00000000000E+00 0. -1.
         22    1    1    2    0    0 -0.47458248970E+01 -0.13151647014E+02  0.31559148685E+02  0.34517655466E+02  0.00000000000E+00 0. -1.
<mgrwt>
<rscale>  0 0.47479456E+02</rscale>
<asrwt>0</asrwt>
<pdfrwt beam="1">  1        2 0.14427601E+00 0.71365347E+02</pdfrwt>
<pdfrwt beam="2">  1       -2 0.44408389E-03 0.71365347E+02</pdfrwt>
<totfact> 0.16583158E+05</totfact>
</mgrwt>
</event>
<event>
 6    1  0.2852411E-002  0.9124295E+02  0.7546771E-02  0.1401975E+00
          2   -1    0    0  501    0  0.00000000000E+00  0.00000000000E+00  0.36427200733E+03  0.36427200733E+03  0.00000000000E+00 0. -1.
         -2   -1    0    0    0  501 -0.00000000000E+00 -0.00000000000E+00 -0.17453282711E+02  0.17453282711E+02  0.00000000000E+00 0.  1.
         23    2    1    2    0    0 -0.55575758862E+01 -0.14979673129E+02  0.35299423830E+03  0.36459595188E+03  0.89833170893E+02 0.  0.
         13    1    3    3    0    0  0.41264160293E+02 -0.50591054651E+01  0.20060581822E+03  0.20486829861E+03  0.00000000000E+00 0. -1.
        -13    1    3    3    0    0 -0.46821736179E+02 -0.99205676636E+01  0.15238842008E+03  0.15972765326E+03  0.00000000000E+00 0.  1.
         22    1    1    2    0    0  0.55575758862E+01  0.14979673129E+02 -0.61755136821E+01  0.17129338166E+02  0.00000000000E+00 0.  1.
<mgrwt>
<rscale>  0 0.59023642E+02</rscale>
<asrwt>0</asrwt>
<pdfrwt beam="1">  1        2 0.56041842E-01 0.91242950E+02</pdfrwt>
<pdfrwt beam="2">  1       -2 0.26851207E-02 0.91242950E+02</pdfrwt>
<totfact> 0.39077280E+04</totfact>
</mgrwt>
</event>
<event>
 6    1  0.2852411E-002  0.9932775E+02  0.7546771E-02  0.1344871E+00
          2   -1    0    0  501    0  0.00000000000E+00  0.00000000000E+00  0.19506771500E+02  0.19506771500E+02  0.00000000000E+00 0. -1.
         -2   -1    0    0    0  501 -0.00000000000E+00 -0.00000000000E+00 -0.29306145859E+03  0.29306145859E+03  0.00000000000E+00 0.  1.
         23    2    1    2    0    0 -0.30988174617E+02  0.68507198488E+01 -0.12003474467E+03  0.15580225148E+03  0.94121210736E+02 0.  0.
         13    1    3    3    0    0  0.32976739610E+02  0.53814096545E+00 -0.26483628910E+02  0.42298197967E+02  0.00000000000E+00 0. -1.
        -13    1    3    3    0    0 -0.63964914228E+02  0.63125788834E+01 -0.93551115764E+02  0.11350405352E+03  0.00000000000E+00 0.  1.
         22    1    1    2    0    0  0.30988174617E+02 -0.68507198488E+01 -0.15351994242E+03  0.15676597861E+03  0.00000000000E+00 0. -1.
<mgrwt>
<rscale>  0 0.74677947E+02</rscale>
<asrwt>0</asrwt>
<pdfrwt beam="1">  1        2 0.30010419E-02 0.99327749E+02</pdfrwt>
<pdfrwt beam="2">  1       -2 0.45086377E-01 0.99327749E+02</pdfrwt>
<totfact> 0.13301817E+04</totfact>
</mgrwt>
</event>
<event>
 6    1  0.2852411E-002  0.9686649E+02  0.7546771E-02  0.1342862E+00
          1   -1    0    0  501    0  0.00000000000E+00  0.00000000000E+00  0.62570155913E+02  0.62570155913E+02  0.00000000000E+00 0. -1.
         -1   -1    0    0    0  501 -0.00000000000E+00 -0.00000000000E+00 -0.11540679204E+03  0.11540679204E+03  0.00000000000E+00 0.  1.
         23    2    1    2    0    0  0.12839007739E+02 -0.33013867903E+02  0.18234199137E+02  0.98567759451E+02  0.90157426712E+02 0.  0.
         13    1    3    3    0    0 -0.37437514115E+02 -0.67833208671E+01  0.17441760555E+02  0.41854461129E+02  0.00000000000E+00 0. -1.
        -13    1    3    3    0    0  0.50276521855E+02 -0.26230547036E+02  0.79243858153E+00  0.56713298322E+02  0.00000000000E+00 0.  1.
         22    1    1    2    0    0 -0.12839007739E+02  0.33013867903E+02 -0.71070835266E+02  0.79409188505E+02  0.00000000000E+00 0.  1.
<mgrwt>
<rscale>  0 0.75326896E+02</rscale>
<asrwt>0</asrwt>
<pdfrwt beam="1">  1        1 0.96261779E-02 0.96866492E+02</pdfrwt>
<pdfrwt beam="2">  1       -1 0.17754891E-01 0.96866492E+02</pdfrwt>
<totfact> 0.14885927E+04</totfact>
</mgrwt>
</event>
<event>
 6    1  0.2852411E-002  0.9717590E+02  0.7546771E-02  0.1363693E+00
          2   -1    0    0  501    0  0.00000000000E+00  0.00000000000E+00  0.34857892558E+03  0.34857892558E+03  0.00000000000E+00 0. -1.
         -2   -1    0    0    0  501 -0.00000000000E+00 -0.00000000000E+00 -0.11211258034E+02  0.11211258034E+02  0.00000000000E+00 0.  1.
         23    2    1    2    0    0 -0.22616319646E+02 -0.97609613022E+01  0.23100107053E+03  0.25060855860E+03  0.94002025390E+02 0.  0.
         13    1    3    3    0    0  0.11565137239E+02  0.19285430511E+02  0.18498583814E+03  0.18634763358E+03  0.00000000000E+00 0. -1.
        -13    1    3    3    0    0 -0.34181456886E+02 -0.29046391813E+02  0.46015232391E+02  0.64260925018E+02  0.00000000000E+00 0.  1.
         22    1    1    2    0    0  0.22616319646E+02  0.97609613022E+01  0.10636659701E+03  0.10918162501E+03  0.00000000000E+00 0. -1.
<mgrwt>
<rscale>  0 0.68952071E+02</rscale>
<asrwt>0</asrwt>
<pdfrwt beam="1">  1        2 0.53627519E-01 0.97175898E+02</pdfrwt>
<pdfrwt beam="2">  1       -2 0.17248092E-02 0.97175898E+02</pdfrwt>
<totfact> 0.78068968E+04</totfact>
</mgrwt>
</event>
<event>
 6    1  0.2852411E-002  0.9138906E+02  0.7546771E-02  0.1398590E+00
          2   -1    0    0  501    0  0.00000000000E+00  0.00000000000E+00  0.27522986543E+02  0.27522986543E+02  0.00000000000E+00 0. -1.
         -2   -1    0    0    0  501 -0.00000000000E+00 -0.00000000000E+00 -0.10826837388E+03  0.10826837388E+03  0.00000000000E+00 0.  1.
         23    2    1    2    0    0  0.31874987232E+01 -0.16470510748E+02 -0.60978140944E+02  0.10986488935E+03  0.89836086102E+02 0.  0.
         11    1    3    3    0    0  0.24304130338E+02 -0.50276521100E+01  0.15797709010E+02  0.29419987206E+02  0.00000000000E+00 0. -1.
        -11    1    3    3    0    0 -0.21116631615E+02 -0.11442858638E+02 -0.76775849954E+02  0.80444902143E+02  0.00000000000E+00 0.  1.
         22    1    1    2    0    0 -0.31874987232E+01  0.16470510748E+02 -0.19767246395E+02  0.25926471076E+02  0.00000000000E+00 0. -1.
<mgrwt>
<rscale>  0 0.59819596E+02</rscale>
<asrwt>0</asrwt>
<pdfrwt beam="1">  1        2 0.42343056E-02 0.91389060E+02</pdfrwt>
<pdfrwt beam="2">  1       -2 0.16656673E-01 0.91389060E+02</pdfrwt>
<totfact> 0.48486327E+04</totfact>
</mgrwt>
</event>
<event>
 6    1  0.2852411E-002  0.9790221E+02  0.7546771E-02  0.1402986E+00
          2   -1    0    0  501    0  0.00000000000E+00  0.00000000000E+00  0.90297308303E+02  0.90297308303E+02  0.00000000000E+00 0. -1.
         -2   -1    0    0    0  501 -0.00000000000E+00 -0.00000000000E+00 -0.34474549139E+02  0.34474549139E+02  0.00000000000E+00 0.  1.
         23    2    1    2    0    0 -0.71682267109E+01  0.10518893236E+02  0.43767180118E+02  0.10723995580E+03  0.97071167064E+02 0.  0.
         13    1    3    3    0    0  0.76056895107E+01 -0.31447932986E+02  0.52720301423E+02  0.61856682616E+02  0.00000000000E+00 0. -1.
        -13    1    3    3    0    0 -0.14773916222E+02  0.41966826222E+02 -0.89531213055E+01  0.45383273183E+02  0.00000000000E+00 0.  1.
         22    1    1    2    0    0  0.71682267109E+01 -0.10518893236E+02  0.12055579046E+02  0.17531901643E+02  0.00000000000E+00 0. -1.
<mgrwt>
<rscale>  0 0.58788718E+02</rscale>
<asrwt>0</asrwt>
<pdfrwt beam="1">  1        2 0.13891893E-01 0.97902207E+02</pdfrwt>
<pdfrwt beam="2">  1       -2 0.53037768E-02 0.97902207E+02</pdfrwt>
<totfact> 0.66201372E+04</totfact>
</mgrwt>
</event>
<event>
 6    1  0.2852411E-002  0.9495377E+02  0.7546771E-02  0.1356148E+00
         -2   -1    0    0    0  501 -0.00000000000E+00  0.00000000000E+00  0.99793783906E+02  0.99793783906E+02  0.00000000000E+00 0.  1.
          2   -1    0    0  501    0  0.00000000000E+00 -0.00000000000E+00 -0.42121323483E+02  0.42121323483E+02  0.00000000000E+00 0. -1.
         23    2    1    2    0    0  0.27819939859E+02  0.11154873937E+02  0.26305886318E+02  0.98530291642E+02  0.90099047996E+02 0.  0.
         13    1    3    3    0    0 -0.31891285268E+02 -0.40920811736E+01  0.17793864685E+01  0.32201947465E+02  0.00000000000E+00 0.  1.
        -13    1    3    3    0    0  0.59711225127E+02  0.15246955111E+02  0.24526499849E+02  0.66328344176E+02  0.00000000000E+00 0. -1.
         22    1    1    2    0    0 -0.27819939859E+02 -0.11154873937E+02  0.31366574105E+02  0.43384815747E+02  0.00000000000E+00 0.  1.
<mgrwt>
<rscale>  0 0.71173232E+02</rscale>
<asrwt>0</asrwt>
<pdfrwt beam="1">  1        2 0.64802037E-02 0.94953771E+02</pdfrwt>
<pdfrwt beam="2">  1       -2 0.15352890E-01 0.94953771E+02</pdfrwt>
<totfact> 0.32207345E+04</totfact>
</mgrwt>
</event>
<event>
 6    1  0.2852411E-002  0.9839639E+02  0.7546771E-02  0.1336204E+00
         -2   -1    0    0    0  501 -0.00000000000E+00  0.00000000000E+00  0.84766617683E+02  0.84766617683E+02  0.00000000000E+00 0.  1.
          2   -1    0    0  501    0  0.00000000000E+00 -0.00000000000E+00 -0.54875104285E+02  0.54875104285E+02  0.00000000000E+00 0. -1.
         23    2    1    2    0    0  0.36063340825E+02 -0.11754752697E+02  0.23681201231E+02  0.10120597377E+03  0.90791580404E+02 0.  0.
         11    1    3    3    0    0 -0.43969177721E+01  0.79069680656E+01 -0.29903498893E+02  0.31242155430E+02  0.00000000000E+00 0. -1.
        -11    1    3    3    0    0  0.40460258597E+02 -0.19661720763E+02  0.53584700124E+02  0.69963818338E+02  0.00000000000E+00 0.  1.
         22    1    1    2    0    0 -0.36063340825E+02  0.11754752697E+02  0.62103121678E+01  0.38435748199E+02  0.00000000000E+00 0. -1.
<mgrwt>
<rscale>  0 0.77532203E+02</rscale>
<asrwt>0</asrwt>
<pdfrwt beam="1">  1        2 0.84423238E-02 0.98396391E+02</pdfrwt>
<pdfrwt beam="2">  1       -2 0.13041018E-01 0.98396391E+02</pdfrwt>
<totfact> 0.30218672E+04</totfact>
</mgrwt>
</event>
<event>
 6    1  0.2852411E-002  0.9026755E+02  0.7546771E-02  0.1427800E+00
         -2   -1    0    0    0  501 -0.00000000000E+00  0.00000000000E+00  0.38163981954E+02  0.38163981954E+02  0.00000000000E+00 0.  1.
          2   -1    0    0  501    0  0.00000000000E+00 -0.00000000000E+00 -0.81505767357E+02  0.81505767357E+02  0.00000000000E+00 0. -1.
         23    2    1    2    0    0 -0.80517057598E+01  0.75806640375E+01 -0.53265269255E+02  0.10481135220E+03  0.89587578428E+02 0.  0.
         13    1    3    3    0    0 -0.72688080638E+01 -0.25323230782E+02 -0.64787625417E+02  0.69939530990E+02  0.00000000000E+00 0. -1.
        -13    1    3    3    0    0 -0.78289769599E+00  0.32903894820E+02  0.11522356162E+02  0.34871821212E+02  0.00000000000E+00 0.  1.
         22    1    1    2    0    0  0.80517057598E+01 -0.75806640375E+01  0.99234838520E+01  0.14858397109E+02  0.00000000000E+00 0. -1.
<mgrwt>
<rscale>  0 0.53404206E+02</rscale>
<asrwt>0</asrwt>
<pdfrwt beam="1">  1        2 0.12539349E-01 0.90267550E+02</pdfrwt>
<pdfrwt beam="2">  1       -2 0.58713819E-02 0.90267550E+02</pdfrwt>
<totfact> 0.63401206E+04</totfact>
</mgrwt>
</event>
<event>
 6    1  0.2852411E-002  0.9020024E+02  0.7546771E-02  0.1416797E+00
          2   -1    0    0  501    0  0.00000000000E+00  0.00000000000E+00  0.75131659922E+03  0.75131659922E+03  0.00000000000E+00 0. -1.
         -2   -1    0    0    0  501 -0.00000000000E+00 -0.00000000000E+00 -0.50531636818E+01  0.50531636818E+01  0.00000000000E+00 0.  1.
         23    2    1    2    0    0 -0.93092533993E+01 -0.92451821296E+01  0.72963172628E+03  0.73518605822E+03  0.89240958111E+02 0.  0.
         11    1    3    3    0    0  0.32943448360E+02 -0.27894145287E+02  0.40299326204E+03  0.40529856079E+03  0.00000000000E+00 0.  1.
        -11    1    3    3    0    0 -0.42252701760E+02  0.18648963158E+02  0.32663846425E+03  0.32988749743E+03  0.00000000000E+00 0. -1.
         22    1    1    2    0    0  0.93092533993E+01  0.92451821296E+01  0.16631709254E+02  0.21183704684E+02  0.00000000000E+00 0. -1.
<mgrwt>
<rscale>  0 0.55704416E+02</rscale>
<asrwt>0</asrwt>
<pdfrwt beam="1">  1        2 0.11558708E+00 0.90200245E+02</pdfrwt>
<pdfrwt beam="2">  1       -2 0.77741039E-03 0.90200245E+02</pdfrwt>
<totfact> 0.10320287E+05</totfact>
</mgrwt>
</event>
<event>
 6    1  0.2852411E-002  0.9253326E+02  0.7546771E-02  0.1385944E+00
         -2   -1    0    0    0  501 -0.00000000000E+00  0.00000000000E+00  0.67580063982E+01  0.67580063982E+01  0.00000000000E+00 0.  1.
          2   -1    0    0  501    0  0.00000000000E+00 -0.00000000000E+00 -0.59665290061E+03  0.59665290061E+03  0.00000000000E+00 0. -1.
         23    2    1    2    0    0  0.11825999471E+00  0.19789713152E+02 -0.55977332994E+03  0.56736988363E+03  0.90392240846E+02 0.  0.
         13    1    3    3    0    0  0.26995374785E+02 -0.19039409688E+02 -0.38218535429E+03  0.38361034190E+03  0.00000000000E+00 0. -1.
        -13    1    3    3    0    0 -0.26877114791E+02  0.38829122840E+02 -0.17758797565E+03  0.18375954172E+03  0.00000000000E+00 0.  1.
         22    1    1    2    0    0 -0.11825999471E+00 -0.19789713152E+02 -0.30121564275E+02  0.36041023382E+02  0.00000000000E+00 0.  1.
<mgrwt>
<rscale>  0 0.62926736E+02</rscale>
<asrwt>0</asrwt>
<pdfrwt beam="1">  1        2 0.91792749E-01 0.92533259E+02</pdfrwt>
<pdfrwt beam="2">  1       -2 0.10396933E-02 0.92533259E+02</pdfrwt>
<totfact> 0.89581419E+04</totfact>
</mgrwt>
</event>
<event>
 6    1  0.2852411E-002  0.9302126E+02  0.7546771E-02  0.1360794E+00
          2   -1    0    0  501    0  0.00000000000E+00  0.00000000000E+00  0.48765938922E+03  0.48765938922E+03  0.00000000000E+00 0. -1.
         -2   -1    0    0    0  501 -0.00000000000E+00 -0.00000000000E+00 -0.95717187981E+01  0.95717187981E+01  0.00000000000E+00 0.  1.
         23    2    1    2    0    0  0.92084172883E+01 -0.28005282624E+02  0.43620666153E+03  0.44601480485E+03  0.88226208038E+02 0.  0.
         11    1    3    3    0    0 -0.56949988418E+01 -0.15228470997E+02  0.94469434418E+01  0.18803831554E+02  0.00000000000E+00 0.  1.
        -11    1    3    3    0    0  0.14903416130E+02 -0.12776811626E+02  0.42675971808E+03  0.42721097330E+03  0.00000000000E+00 0. -1.
         22    1    1    2    0    0 -0.92084172883E+01  0.28005282624E+02  0.41881008898E+02  0.51216303167E+02  0.00000000000E+00 0.  1.
<mgrwt>
<rscale>  0 0.69794276E+02</rscale>
<asrwt>0</asrwt>
<pdfrwt beam="1">  1        2 0.75024502E-01 0.93021259E+02</pdfrwt>
<pdfrwt beam="2">  1       -2 0.14725725E-02 0.93021259E+02</pdfrwt>
<totfact> 0.68175060E+04</totfact>
</mgrwt>
</event>
<event>
 6    1  0.2852411E-002  0.9121320E+02  0.7546771E-02  0.1417950E+00
          2   -1    0    0  501    0  0.00000000000E+00  0.00000000000E+00  0.76966590371E+03  0.76966590371E+03  0.00000000000E+00 0. -1.
         -2   -1    0    0    0  501 -0.00000000000E+00 -0.00000000000E+00 -0.11745059394E+02  0.11745059394E+02  0.00000000000E+00 0.  1.
         23    2    1    2    0    0  0.12463401769E+02  0.10087531675E+00  0.76264622962E+03  0.76808145352E+03  0.90357629042E+02 0.  0.
         13    1    3    3    0    0  0.29370467254E+02  0.19976115834E+02  0.12627896319E+03  0.13117944235E+03  0.00000000000E+00 0.  1.
        -13    1    3    3    0    0 -0.16907065486E+02 -0.19875240517E+02  0.63636726643E+03  0.63690201117E+03  0.00000000000E+00 0. -1.
         22    1    1    2    0    0 -0.12463401769E+02 -0.10087531675E+00 -0.47253853045E+01  0.13329509584E+02  0.00000000000E+00 0.  1.
<mgrwt>
<rscale>  0 0.55456949E+02</rscale>
<asrwt>0</asrwt>
<pdfrwt beam="1">  1        2 0.11841010E+00 0.91213199E+02</pdfrwt>
<pdfrwt beam="2">  1       -2 0.18069328E-02 0.91213199E+02</pdfrwt>
<totfact> 0.30305648E+04</totfact>
</mgrwt>
</event>
<event>
 6    1  0.2852411E-002  0.9661955E+02  0.7546771E-02  0.1420042E+00
         -2   -1    0    0    0  501 -0.00000000000E+00  0.00000000000E+00  0.44397775245E+01  0.44397775245E+01  0.00000000000E+00 0.  1.
          2   -1    0    0  501    0  0.00000000000E+00 -0.00000000000E+00 -0.64669750497E+03  0.64669750497E+03  0.00000000000E+00 0. -1.
         23    2    1    2    0    0  0.90469341073E+01  0.46105968069E+01 -0.59574011916E+03  0.60352433783E+03  0.96084505248E+02 0.  0.
         11    1    3    3    0    0  0.27276303839E+02 -0.29515451085E+02 -0.12739461274E+03  0.13358347936E+03  0.00000000000E+00 0.  1.
        -11    1    3    3    0    0 -0.18229369732E+02  0.34126047892E+02 -0.46834550642E+03  0.46994085846E+03  0.00000000000E+00 0. -1.
         22    1    1    2    0    0 -0.90469341073E+01 -0.46105968069E+01 -0.46517608288E+02  0.47612944673E+02  0.00000000000E+00 0.  1.
<mgrwt>
<rscale>  0 0.55012136E+02</rscale>
<asrwt>0</asrwt>
<pdfrwt beam="1">  1        2 0.99492002E-01 0.96619547E+02</pdfrwt>
<pdfrwt beam="2">  1       -2 0.68304216E-03 0.96619547E+02</pdfrwt>
<totfact> 0.14899674E+05</totfact>
</mgrwt>
</event>
<event>
 6    1  0.2852411E-002  0.9168395E+02  0.7546771E-02  0.1423884E+00
         -3   -1    0    0    0  501 -0.00000000000E+00  0.00000000000E+00  0.23352278387E+03  0.23352278387E+03  0.00000000000E+00 0.  1.
          3   -1    0    0  501    0  0.00000000000E+00 -0.00000000000E+00 -0.12700797823E+02  0.12700797823E+02  0.00000000000E+00 0. -1.
         23    2    1    2    0    0 -0.68821844889E+01  0.88407250104E+01  0.16024828436E+03  0.18462247604E+03  0.90996830361E+02 0.  0.
         13    1    3    3    0    0  0.24780931126E+02 -0.47390668507E+01  0.14459708317E+03  0.14678170786E+03  0.00000000000E+00 0.  1.
        -13    1    3    3    0    0 -0.31663115615E+02  0.13579791861E+02  0.15651201193E+02  0.37840768177E+02  0.00000000000E+00 0. -1.
         22    1    1    2    0    0  0.68821844889E+01 -0.88407250104E+01  0.60573701687E+02  0.61601105656E+02  0.00000000000E+00 0.  1.
<mgrwt>
<rscale>  0 0.54207620E+02</rscale>
<asrwt>0</asrwt>
<pdfrwt beam="1">  1        3 0.19539691E-02 0.91683946E+02</pdfrwt>
<pdfrwt beam="2">  1       -3 0.35926579E-01 0.91683946E+02</pdfrwt>
<totfact> 0.15529109E+04</totfact>
</mgrwt>
</event>
<event>
 6    1  0.2852411E-002  0.9450136E+02  0.7546771E-02  0.1406267E+00
         -2   -1    0    0    0  501 -0.00000000000E+00  0.00000000000E+00  0.40410587585E+01  0.40410587585E+01  0.00000000000E+00 0.  1.
          2   -1    0    0  501    0  0.00000000000E+00 -0.00000000000E+00 -0.11901719407E+04  0.11901719407E+04  0.00000000000E+00 0. -1.
         23    2    1    2    0    0 -0.12657302237E+02  0.45243921411E+01 -0.11670673268E+04  0.11708871220E+04  0.93540524816E+02 0.  0.
         11    1    3    3    0    0 -0.32837190396E+01  0.31945894620E+01 -0.88453269288E+00  0.46658986966E+01  0.00000000000E+00 0.  1.
        -11    1    3    3    0    0 -0.93735831975E+01  0.13298026790E+01 -0.11661827941E+04  0.11662212233E+04  0.00000000000E+00 0. -1.
         22    1    1    2    0    0  0.12657302237E+02 -0.45243921411E+01 -0.19063555154E+02  0.23325877460E+02  0.00000000000E+00 0.  1.
<mgrwt>
<rscale>  0 0.58035206E+02</rscale>
<asrwt>0</asrwt>
<pdfrwt beam="1">  1        2 0.18310330E+00 0.94501361E+02</pdfrwt>
<pdfrwt beam="2">  1       -2 0.62170159E-03 0.94501361E+02</pdfrwt>
<totfact> 0.77347358E+04</totfact>
</mgrwt>
</event>
<event>
 6    1  0.2852411E-002  0.9955859E+02  0.7546771E-02  0.1345402E+00
         -2   -1    0    0    0  501 -0.00000000000E+00  0.00000000000E+00  0.58101166939E+01  0.58101166939E+01  0.00000000000E+00 0.  1.
          2   -1    0    0  501    0  0.00000000000E+00 -0.00000000000E+00 -0.73605885180E+03  0.73605885180E+03  0.00000000000E+00 0. -1.
         23    2    1    2    0    0 -0.17210739276E+02 -0.26059196670E+02 -0.55372704202E+03  0.56260603477E+03  0.94533708366E+02 0.  0.
         11    1    3    3    0    0  0.31083432495E+02 -0.36094794206E+02 -0.33612317277E+03  0.33948166551E+03  0.00000000000E+00 0. -1.
        -11    1    3    3    0    0 -0.48294171771E+02  0.10035597536E+02 -0.21760386925E+03  0.22312436926E+03  0.00000000000E+00 0.  1.
         22    1    1    2    0    0  0.17210739276E+02  0.26059196670E+02 -0.17652169309E+03  0.17926293372E+03  0.00000000000E+00 0.  1.
<mgrwt>
<rscale>  0 0.74507648E+02</rscale>
<asrwt>0</asrwt>
<pdfrwt beam="1">  1        2 0.11323981E+00 0.99558592E+02</pdfrwt>
<pdfrwt beam="2">  1       -2 0.89386424E-03 0.99558592E+02</pdfrwt>
<totfact> 0.87980059E+04</totfact>
</mgrwt>
</event>
<event>
 6    1  0.2852411E-002  0.9179562E+02  0.7546771E-02  0.1410077E+00
          2   -1    0    0  501    0  0.00000000000E+00  0.00000000000E+00  0.76892067573E+03  0.76892067573E+03  0.00000000000E+00 0. -1.
         -2   -1    0    0    0  501 -0.00000000000E+00 -0.00000000000E+00 -0.36831167965E+01  0.36831167965E+01  0.00000000000E+00 0.  1.
         23    2    1    2    0    0  0.11335067141E+02  0.79006201893E+01  0.69337886219E+03  0.69942882519E+03  0.90749828836E+02 0.  0.
         13    1    3    3    0    0  0.39544713949E+02  0.30136703661E+02  0.51979671202E+03  0.52216915567E+03  0.00000000000E+00 0. -1.
        -13    1    3    3    0    0 -0.28209646808E+02 -0.22236083472E+02  0.17358215017E+03  0.17725966952E+03  0.00000000000E+00 0.  1.
         22    1    1    2    0    0 -0.11335067141E+02 -0.79006201893E+01  0.71858696744E+02  0.73174967333E+02  0.00000000000E+00 0.  1.
<mgrwt>
<rscale>  0 0.57176584E+02</rscale>
<asrwt>0</asrwt>
<pdfrwt beam="1">  1        2 0.11829536E+00 0.91795615E+02</pdfrwt>
<pdfrwt beam="2">  1       -2 0.56663397E-03 0.91795615E+02</pdfrwt>
<totfact> 0.15700746E+05</totfact>
</mgrwt>
</event>
<event>
 6    1  0.2852411E-002  0.9178398E+02  0.7546771E-02  0.1385045E+00
         -2   -1    0    0    0  501 -0.00000000000E+00  0.00000000000E+00  0.15901225128E+03  0.15901225128E+03  0.00000000000E+00 0.  1.
          2   -1    0    0  501    0  0.00000000000E+00 -0.00000000000E+00 -0.21799415459E+02  0.21799415459E+02  0.00000000000E+00 0. -1.
         23    2    1    2    0    0  0.16277566720E+02 -0.12586068697E+02  0.86656321319E+02  0.12622843248E+03  0.89447922494E+02 0.  0.
         13    1    3    3    0    0 -0.11212191507E+02  0.34902176116E+02  0.30154544291E+02  0.47467585545E+02  0.00000000000E+00 0. -1.
        -13    1    3    3    0    0  0.27489758227E+02 -0.47488244813E+02  0.56501777028E+02  0.78760846936E+02  0.00000000000E+00 0.  1.
         22    1    1    2    0    0 -0.16277566720E+02  0.12586068697E+02  0.50556514506E+02  0.54583234263E+02  0.00000000000E+00 0. -1.
<mgrwt>
<rscale>  0 0.63156050E+02</rscale>
<asrwt>0</asrwt>
<pdfrwt beam="1">  1        2 0.33537563E-02 0.91783981E+02</pdfrwt>
<pdfrwt beam="2">  1       -2 0.24463423E-01 0.91783981E+02</pdfrwt>
<totfact> 0.34552365E+04</totfact>
</mgrwt>
</event>
<event>
 6    1  0.2852411E-002  0.9573343E+02  0.7546771E-02  0.1396461E+00
          2   -1    0    0  501    0  0.00000000000E+00  0.00000000000E+00  0.75848761336E+03  0.75848761336E+03  0.00000000000E+00 0. -1.
         -2   -1    0    0    0  501 -0.00000000000E+00 -0.00000000000E+00 -0.47266945040E+01  0.47266945040E+01  0.00000000000E+00 0.  1.
         23    2    1    2    0    0  0.13414245246E+02 -0.69258299772E+01  0.71860815866E+03  0.72495694719E+03  0.94535604351E+02 0.  0.
         11    1    3    3    0    0  0.35677345824E+02  0.14066555440E+02  0.63089571022E+03  0.63206023301E+03  0.00000000000E+00 0. -1.
        -11    1    3    3    0    0 -0.22263100579E+02 -0.20992385417E+02  0.87712448439E+02  0.92896714173E+02  0.00000000000E+00 0.  1.
         22    1    1    2    0    0 -0.13414245246E+02  0.69258299772E+01  0.35152760202E+02  0.38257360680E+02  0.00000000000E+00 0.  1.
<mgrwt>
<rscale>  0 0.60327860E+02</rscale>
<asrwt>0</asrwt>
<pdfrwt beam="1">  1        2 0.11669031E+00 0.95733430E+02</pdfrwt>
<pdfrwt beam="2">  1       -2 0.72718437E-03 0.95733430E+02</pdfrwt>
<totfact> 0.11303224E+05</totfact>
</mgrwt>
</event>
<event>
 6    1  0.2852411E-002  0.9304981E+02  0.7546771E-02  0.1421370E+00
          2   -1    0    0  501    0  0.00000000000E+00  0.00000000000E+00  0.44196266356E+03  0.44196266356E+03  0.00000000000E+00 0. -1.
         -2   -1    0    0    0  501 -0.00000000000E+00 -0.00000000000E+00 -0.61875038297E+01  0.61875038297E+01  0.00000000000E+00 0.  1.
         23    2    1    2    0    0 -0.74215155538E+01  0.83058178379E+01  0.40004660048E+03  0.41072563735E+03  0.92380739943E+02 0.  0.
         13    1    3    3    0    0 -0.49062468026E+02  0.10900342300E+02  0.24907763874E+03  0.25409764531E+03  0.00000000000E+00 0. -1.
        -13    1    3    3    0    0  0.41640952472E+02 -0.25945244622E+01  0.15096896174E+03  0.15662799203E+03  0.00000000000E+00 0.  1.
         22    1    1    2    0    0  0.74215155538E+01 -0.83058178379E+01  0.35728559244E+02  0.37424530040E+02  0.00000000000E+00 0. -1.
<mgrwt>
<rscale>  0 0.54732210E+02</rscale>
<asrwt>0</asrwt>
<pdfrwt beam="1">  1        2 0.67994231E-01 0.93049807E+02</pdfrwt>
<pdfrwt beam="2">  1       -2 0.95192401E-03 0.93049807E+02</pdfrwt>
<totfact> 0.14079615E+05</totfact>
</mgrwt>
</event>
<event>
 6    1  0.2852411E-002  0.9177514E+02  0.7546771E-02  0.1407033E+00
          2   -1    0    0  501    0  0.00000000000E+00  0.00000000000E+00  0.23032639973E+03  0.23032639973E+03  0.00000000000E+00 0. -1.
         -2   -1    0    0    0  501 -0.00000000000E+00 -0.00000000000E+00 -0.12454035789E+02  0.12454035789E+02  0.00000000000E+00 0.  1.
         23    2    1    2    0    0 -0.71763621450E+01  0.12599712950E+02  0.19742227740E+03  0.21771135138E+03  0.90622425291E+02 0.  0.
         13    1    3    3    0    0 -0.97243610986E+01 -0.34389128726E+02  0.13432952605E+03  0.13900214726E+03  0.00000000000E+00 0.  1.
        -13    1    3    3    0    0  0.25479989536E+01  0.46988841676E+02  0.63092751354E+02  0.78709204126E+02  0.00000000000E+00 0. -1.
         22    1    1    2    0    0  0.71763621450E+01 -0.12599712950E+02  0.20450086533E+02  0.25069084133E+02  0.00000000000E+00 0. -1.
<mgrwt>
<rscale>  0 0.57861084E+02</rscale>
<asrwt>0</asrwt>
<pdfrwt beam="1">  1        2 0.35434828E-01 0.91775143E+02</pdfrwt>
<pdfrwt beam="2">  1       -2 0.19160057E-02 0.91775143E+02</pdfrwt>
<totfact> 0.10284983E+05</totfact>
</mgrwt>
</event>
<event>
 6    1  0.2852411E-002  0.9327720E+02  0.7546771E-02  0.1401096E+00
         -2   -1    0    0    0  501 -0.00000000000E+00  0.00000000000E+00  0.19838271698E+01  0.19838271698E+01  0.00000000000E+00 0.  1.
          2   -1    0    0  501    0  0.00000000000E+00 -0.00000000000E+00 -0.20064715009E+04  0.20064715009E+04  0.00000000000E+00 0. -1.
         23    2    1    2    0    0  0.15141567995E+02  0.82271683114E+00 -0.19387003912E+04  0.19409430293E+04  0.92036363184E+02 0.  0.
         13    1    3    3    0    0  0.47222850730E+02 -0.91779879560E+00 -0.59964475954E+03  0.60150201797E+03  0.00000000000E+00 0.  1.
        -13    1    3    3    0    0 -0.32081282734E+02  0.17405156267E+01 -0.13390556317E+04  0.13394410113E+04  0.00000000000E+00 0. -1.
         22    1    1    2    0    0 -0.15141567995E+02 -0.82271683114E+00 -0.65787282502E+02  0.67512298757E+02  0.00000000000E+00 0. -1.
<mgrwt>
<rscale>  0 0.59228996E+02</rscale>
<asrwt>0</asrwt>
<pdfrwt beam="1">  1        2 0.30868737E+00 0.93277200E+02</pdfrwt>
<pdfrwt beam="2">  1       -2 0.30520472E-03 0.93277200E+02</pdfrwt>
<totfact> 0.79816559E+04</totfact>
</mgrwt>
</event>
<event>
 6    1  0.2852411E-002  0.9174100E+02  0.7546771E-02  0.1395691E+00
         -2   -1    0    0    0  501 -0.00000000000E+00  0.00000000000E+00  0.43329497073E+01  0.43329497073E+01  0.00000000000E+00 0.  1.
          2   -1    0    0  501    0  0.00000000000E+00 -0.00000000000E+00 -0.10760382695E+04  0.10760382695E+04  0.00000000000E+00 0. -1.
         23    2    1    2    0    0  0.11619332857E+02  0.12906702637E+02 -0.10414742187E+04  0.10455070350E+04  0.90082296149E+02 0.  0.
         11    1    3    3    0    0  0.15756585747E+02  0.26168674707E+02 -0.11679333234E+03  0.12072179591E+03  0.00000000000E+00 0.  1.
        -11    1    3    3    0    0 -0.41372528903E+01 -0.13261972070E+02 -0.92468088640E+03  0.92478523909E+03  0.00000000000E+00 0. -1.
         22    1    1    2    0    0 -0.11619332857E+02 -0.12906702637E+02 -0.30231101039E+02  0.34864184187E+02  0.00000000000E+00 0.  1.
<mgrwt>
<rscale>  0 0.60513193E+02</rscale>
<asrwt>0</asrwt>
<pdfrwt beam="1">  1        2 0.16554461E+00 0.91741005E+02</pdfrwt>
<pdfrwt beam="2">  1       -2 0.66660659E-03 0.91741005E+02</pdfrwt>
<totfact> 0.80863205E+04</totfact>
</mgrwt>
</event>
<event>
 6    1  0.2852411E-002  0.1021387E+03  0.7546771E-02  0.1319391E+00
         -4   -1    0    0    0  501 -0.00000000000E+00  0.00000000000E+00  0.27634289244E+03  0.27634289244E+03  0.00000000000E+00 0.  1.
          4   -1    0    0  501    0  0.00000000000E+00 -0.00000000000E+00 -0.25235310990E+02  0.25235310990E+02  0.00000000000E+00 0. -1.
         23    2    1    2    0    0 -0.23578923453E+02 -0.39067248184E+02  0.97008775509E+02  0.14086523723E+03  0.91378865295E+02 0.  0.
         13    1    3    3    0    0  0.30393691103E+02 -0.29508802727E+02  0.64408165544E+02  0.77090581046E+02  0.00000000000E+00 0.  1.
        -13    1    3    3    0    0 -0.53972614555E+02 -0.95584454566E+01  0.32600609965E+02  0.63774656185E+02  0.00000000000E+00 0. -1.
         22    1    1    2    0    0  0.23578923453E+02  0.39067248184E+02  0.15409880594E+03  0.16071296620E+03  0.00000000000E+00 0.  1.
<mgrwt>
<rscale>  0 0.83504221E+02</rscale>
<asrwt>0</asrwt>
<pdfrwt beam="1">  1        4 0.38823557E-02 0.10213869E+03</pdfrwt>
<pdfrwt beam="2">  1       -4 0.42514289E-01 0.10213869E+03</pdfrwt>
<totfact> 0.29533891E+03</totfact>
</mgrwt>
</event>
<event>
 6    1  0.2852411E-002  0.9195381E+02  0.7546771E-02  0.1424887E+00
          1   -1    0    0  501    0  0.00000000000E+00  0.00000000000E+00  0.85480022718E+02  0.85480022718E+02  0.00000000000E+00 0. -1.
         -1   -1    0    0    0  501 -0.00000000000E+00 -0.00000000000E+00 -0.38804170103E+02  0.38804170103E+02  0.00000000000E+00 0.  1.
         23    2    1    2    0    0 -0.14168345680E+01  0.10844127794E+02  0.57859026908E+02  0.10864239257E+03  0.91301149724E+02 0.  0.
         13    1    3    3    0    0 -0.10613568547E+02  0.10032532088E+02  0.81742291798E+02  0.83036749731E+02  0.00000000000E+00 0. -1.
        -13    1    3    3    0    0  0.91967339792E+01  0.81159570573E+00 -0.23883264890E+02  0.25605642840E+02  0.00000000000E+00 0.  1.
         22    1    1    2    0    0  0.14168345680E+01 -0.10844127794E+02 -0.11183174293E+02  0.15641800251E+02  0.00000000000E+00 0.  1.
<mgrwt>
<rscale>  0 0.54000133E+02</rscale>
<asrwt>0</asrwt>
<pdfrwt beam="1">  1        1 0.13150773E-01 0.91953806E+02</pdfrwt>
<pdfrwt beam="2">  1       -1 0.59698724E-02 0.91953806E+02</pdfrwt>
<totfact> 0.51488951E+04</totfact>
</mgrwt>
</event>
<event>
 6    1  0.2852411E-002  0.1011769E+03  0.7546771E-02  0.1347856E+00
         -3   -1    0    0    0  501 -0.00000000000E+00  0.00000000000E+00  0.99708089812E+01  0.99708089812E+01  0.00000000000E+00 0.  1.
          3   -1    0    0  501    0  0.00000000000E+00 -0.00000000000E+00 -0.46050680253E+03  0.46050680253E+03  0.00000000000E+00 0. -1.
         23    2    1    2    0    0  0.91227877699E+01 -0.27031170650E+02 -0.39839736914E+03  0.41104407217E+03  0.97071396841E+02 0.  0.
         11    1    3    3    0    0 -0.17913233526E+02 -0.30650224929E+01 -0.35088496289E+03  0.35135528384E+03  0.00000000000E+00 0. -1.
        -11    1    3    3    0    0  0.27036021296E+02 -0.23966148157E+02 -0.47512406256E+02  0.59688788338E+02  0.00000000000E+00 0.  1.
         22    1    1    2    0    0 -0.91227877699E+01  0.27031170650E+02 -0.52138624404E+02  0.59433539337E+02  0.00000000000E+00 0.  1.
<mgrwt>
<rscale>  0 0.73728100E+02</rscale>
<asrwt>0</asrwt>
<pdfrwt beam="1">  1        3 0.70847212E-01 0.10117690E+03</pdfrwt>
<pdfrwt beam="2">  1       -3 0.15339704E-02 0.10117690E+03</pdfrwt>
<totfact> 0.59402835E+03</totfact>
</mgrwt>
</event>
<event>
 6    1  0.2852411E-002  0.9196994E+02  0.7546771E-02  0.1409552E+00
         -2   -1    0    0    0  501 -0.00000000000E+00  0.00000000000E+00  0.62109108534E+01  0.62109108534E+01  0.00000000000E+00 0.  1.
          2   -1    0    0  501    0  0.00000000000E+00 -0.00000000000E+00 -0.13844128031E+04  0.13844128031E+04  0.00000000000E+00 0. -1.
         23    2    1    2    0    0 -0.49251539666E+01 -0.12946366780E+02 -0.13726072790E+04  0.13756849975E+04  0.90920867772E+02 0.  0.
         13    1    3    3    0    0 -0.15781312971E+02 -0.22798620311E+02 -0.12700840188E+03  0.12999985029E+03  0.00000000000E+00 0.  1.
        -13    1    3    3    0    0  0.10856159004E+02  0.98522535302E+01 -0.12455988772E+04  0.12456851472E+04  0.00000000000E+00 0. -1.
         22    1    1    2    0    0  0.49251539666E+01  0.12946366780E+02 -0.55946132458E+01  0.14938716537E+02  0.00000000000E+00 0.  1.
<mgrwt>
<rscale>  0 0.57293988E+02</rscale>
<asrwt>0</asrwt>
<pdfrwt beam="1">  1        2 0.21298628E+00 0.91969939E+02</pdfrwt>
<pdfrwt beam="2">  1       -2 0.95552610E-03 0.91969939E+02</pdfrwt>
<totfact> 0.33162011E+04</totfact>
</mgrwt>
</event>
<event>
 6    1  0.2852411E-002  0.9236230E+02  0.7546771E-02  0.1394841E+00
          2   -1    0    0  501    0  0.00000000000E+00  0.00000000000E+00  0.28460018806E+03  0.28460018806E+03  0.00000000000E+00 0. -1.
         -2   -1    0    0    0  501 -0.00000000000E+00 -0.00000000000E+00 -0.12023904947E+02  0.12023904947E+02  0.00000000000E+00 0.  1.
         23    2    1    2    0    0 -0.14799258153E+02 -0.88631821535E+01  0.25801919562E+03  0.27405236654E+03  0.90737094142E+02 0.  0.
         11    1    3    3    0    0 -0.30276404254E+02  0.11804357970E+02  0.28915863144E+02  0.43498628289E+02  0.00000000000E+00 0.  1.
        -11    1    3    3    0    0  0.15477146101E+02 -0.20667540123E+02  0.22910333248E+03  0.23055373825E+03  0.00000000000E+00 0. -1.
         22    1    1    2    0    0  0.14799258153E+02  0.88631821535E+01  0.14557087491E+02  0.22571726473E+02  0.00000000000E+00 0.  1.
<mgrwt>
<rscale>  0 0.60718416E+02</rscale>
<asrwt>0</asrwt>
<pdfrwt beam="1">  1        2 0.43784639E-01 0.92362299E+02</pdfrwt>
<pdfrwt beam="2">  1       -2 0.18498317E-02 0.92362299E+02</pdfrwt>
<totfact> 0.86691931E+04</totfact>
</mgrwt>
</event>
<event>
 6    1  0.2852411E-002  0.8397950E+02  0.7546771E-02  0.1357438E+00
          4   -1    0    0  501    0  0.00000000000E+00  0.00000000000E+00  0.90327537853E+02  0.90327537853E+02  0.00000000000E+00 0. -1.
         -4   -1    0    0    0  501 -0.00000000000E+00 -0.00000000000E+00 -0.61119646607E+02  0.61119646607E+02  0.00000000000E+00 0.  1.
         23    2    1    2    0    0 -0.30767123156E+02  0.29163092732E+02  0.56329367338E+02  0.10112148218E+03  0.72494514882E+02 0.  0.
         11    1    3    3    0    0 -0.22029620680E+02  0.53306915741E+02  0.33131465187E+02  0.66517858043E+02  0.00000000000E+00 0. -1.
        -11    1    3    3    0    0 -0.87375024755E+01 -0.24143823009E+02  0.23197902151E+02  0.34603624134E+02  0.00000000000E+00 0.  1.
         22    1    1    2    0    0  0.30767123156E+02 -0.29163092732E+02 -0.27121476092E+02  0.50325702284E+02  0.00000000000E+00 0.  1.
<mgrwt>
<rscale>  0 0.70786681E+02</rscale>
<asrwt>0</asrwt>
<pdfrwt beam="1">  1        4 0.13896544E-01 0.83979501E+02</pdfrwt>
<pdfrwt beam="2">  1       -4 0.94030226E-02 0.83979501E+02</pdfrwt>
<totfact> 0.51993150E+03</totfact>
</mgrwt>
</event>
<event>
 6    1  0.2852411E-002  0.9752293E+02  0.7546771E-02  0.1402944E+00
         -4   -1    0    0    0  501 -0.00000000000E+00  0.00000000000E+00  0.30303204091E+03  0.30303204091E+03  0.00000000000E+00 0.  1.
          4   -1    0    0  501    0  0.00000000000E+00 -0.00000000000E+00 -0.10522859215E+02  0.10522859215E+02  0.00000000000E+00 0. -1.
         23    2    1    2    0    0 -0.11498488056E+02  0.58186751490E+01  0.23156197304E+03  0.25126016158E+03  0.96667725893E+02 0.  0.
         11    1    3    3    0    0 -0.28732089759E+02 -0.20363250220E+02  0.27171436015E+02  0.44480129008E+02  0.00000000000E+00 0. -1.
        -11    1    3    3    0    0  0.17233601703E+02  0.26181925369E+02  0.20439053703E+03  0.20678003257E+03  0.00000000000E+00 0.  1.
         22    1    1    2    0    0  0.11498488056E+02 -0.58186751490E+01  0.60947208656E+02  0.62294738550E+02  0.00000000000E+00 0.  1.
<mgrwt>
<rscale>  0 0.58798625E+02</rscale>
<asrwt>0</asrwt>
<pdfrwt beam="1">  1        4 0.16189016E-02 0.97522928E+02</pdfrwt>
<pdfrwt beam="2">  1       -4 0.46620307E-01 0.97522928E+02</pdfrwt>
<totfact> 0.93802611E+03</totfact>
</mgrwt>
</event>
<event>
 6    1  0.2852411E-002  0.9213138E+02  0.7546771E-02  0.1408943E+00
          2   -1    0    0  501    0  0.00000000000E+00  0.00000000000E+00  0.17450799864E+03  0.17450799864E+03  0.00000000000E+00 0. -1.
         -2   -1    0    0    0  501 -0.00000000000E+00 -0.00000000000E+00 -0.23575334307E+02  0.23575334307E+02  0.00000000000E+00 0.  1.
         23    2    1    2    0    0  0.97205917813E+01 -0.99503683102E+01  0.15767986122E+03  0.18262291899E+03  0.91075200648E+02 0.  0.
         13    1    3    3    0    0 -0.32899718119E+02  0.19973811277E+02  0.50825025205E+02  0.63753649122E+02  0.00000000000E+00 0.  1.
        -13    1    3    3    0    0  0.42620309900E+02 -0.29924179588E+02  0.10685483601E+03  0.11886926987E+03  0.00000000000E+00 0. -1.
         22    1    1    2    0    0 -0.97205917813E+01  0.99503683102E+01 -0.67471968797E+01  0.15460413960E+02  0.00000000000E+00 0.  1.
<mgrwt>
<rscale>  0 0.57430255E+02</rscale>
<asrwt>0</asrwt>
<pdfrwt beam="1">  1        2 0.26847384E-01 0.92131384E+02</pdfrwt>
<pdfrwt beam="2">  1       -2 0.36269746E-02 0.92131384E+02</pdfrwt>
<totfact> 0.54901789E+04</totfact>
</mgrwt>
</event>
<event>
 6    1  0.2852411E-002  0.9348592E+02  0.7546771E-02  0.1358668E+00
         -2   -1    0    0    0  501 -0.00000000000E+00  0.00000000000E+00  0.33733298202E+02  0.33733298202E+02  0.00000000000E+00 0. -1.
          2   -1    0    0  501    0  0.00000000000E+00 -0.00000000000E+00 -0.12144561706E+03  0.12144561706E+03  0.00000000000E+00 0.  1.
         23    2    1    2    0    0 -0.14186339581E+01 -0.30066461286E+02 -0.47248411606E+02  0.10474745279E+03  0.88507693738E+02 0.  0.
         11    1    3    3    0    0 -0.31164746634E+01 -0.56564108943E+02 -0.77838851136E+01  0.57182162448E+02  0.00000000000E+00 0. -1.
        -11    1    3    3    0    0  0.16978407053E+01  0.26497647656E+02 -0.39464526492E+02  0.47565290345E+02  0.00000000000E+00 0.  1.
         22    1    1    2    0    0  0.14186339581E+01  0.30066461286E+02 -0.40463907256E+02  0.50431462472E+02  0.00000000000E+00 0.  1.
<mgrwt>
<rscale>  0 0.70420798E+02</rscale>
<asrwt>0</asrwt>
<pdfrwt beam="1">  1        2 0.18683941E-01 0.93485916E+02</pdfrwt>
<pdfrwt beam="2">  1       -2 0.51897382E-02 0.93485916E+02</pdfrwt>
<totfact> 0.48348567E+04</totfact>
</mgrwt>
</event>
<event>
 6    1  0.2852411E-002  0.9072050E+02  0.7546771E-02  0.1395865E+00
         -2   -1    0    0    0  501 -0.00000000000E+00  0.00000000000E+00  0.12589234950E+02  0.12589234950E+02  0.00000000000E+00 0. -1.
          2   -1    0    0  501    0  0.00000000000E+00 -0.00000000000E+00 -0.23434093565E+03  0.23434093565E+03  0.00000000000E+00 0.  1.
         23    2    1    2    0    0 -0.10779544751E+02  0.14301999095E+02 -0.18477557906E+03  0.20584514493E+03  0.88935163515E+02 0.  0.
         13    1    3    3    0    0  0.21817409166E+02 -0.13566878246E+02 -0.14530875000E+03  0.14756250322E+03  0.00000000000E+00 0.  1.
        -13    1    3    3    0    0 -0.32596953917E+02  0.27868877341E+02 -0.39466829060E+02  0.58282641712E+02  0.00000000000E+00 0. -1.
         22    1    1    2    0    0  0.10779544751E+02 -0.14301999095E+02 -0.36976121638E+02  0.41085025673E+02  0.00000000000E+00 0.  1.
<mgrwt>
<rscale>  0 0.60471284E+02</rscale>
<asrwt>0</asrwt>
<pdfrwt beam="1">  1        2 0.36052448E-01 0.90720500E+02</pdfrwt>
<pdfrwt beam="2">  1       -2 0.19368056E-02 0.90720500E+02</pdfrwt>
<totfact> 0.99263814E+04</totfact>
</mgrwt>
</event>
<event>
 6    1  0.2852411E-002  0.1137503E+03  0.7546771E-02  0.1279760E+00
         -2   -1    0    0    0  501 -0.00000000000E+00  0.00000000000E+00  0.22265774205E+03  0.22265774205E+03  0.00000000000E+00 0.  1.
          2   -1    0    0  501    0  0.00000000000E+00 -0.00000000000E+00 -0.37524330953E+02  0.37524330953E+02  0.00000000000E+00 0. -1.
         23    2    1    2    0    0  0.63847178348E+02  0.25195271970E+02  0.12393042886E+03  0.16821974948E+03  0.90707601699E+02 0.  0.
         13    1    3    3    0    0  0.40049887876E+01  0.76841316680E+01  0.10163212269E+03  0.10200085381E+03  0.00000000000E+00 0.  1.
        -13    1    3    3    0    0  0.59842189560E+02  0.17511140302E+02  0.22298306162E+02  0.66218895669E+02  0.00000000000E+00 0. -1.
         22    1    1    2    0    0 -0.63847178348E+02 -0.25195271970E+02  0.61202982242E+02  0.91962323524E+02  0.00000000000E+00 0.  1.
<mgrwt>
<rscale>  0 0.10025513E+03</rscale>
<asrwt>0</asrwt>
<pdfrwt beam="1">  1        2 0.57729741E-02 0.11375031E+03</pdfrwt>
<pdfrwt beam="2">  1       -2 0.34255036E-01 0.11375031E+03</pdfrwt>
<totfact> 0.95888393E+03</totfact>
</mgrwt>
</event>
<event>
 6    1  0.2852411E-002  0.9259982E+02  0.7546771E-02  0.1395898E+00
         -2   -1    0    0    0  501 -0.00000000000E+00  0.00000000000E+00  0.29705618753E+01  0.29705618753E+01  0.00000000000E+00 0.  1.
          2   -1    0    0  501    0  0.00000000000E+00 -0.00000000000E+00 -0.13166625648E+04  0.13166625648E+04  0.00000000000E+00 0. -1.
         23    2    1    2    0    0 -0.84844363050E+01  0.14537318795E+02 -0.12592109815E+04  0.12626111924E+04  0.91057168053E+02 0.  0.
         13    1    3    3    0    0 -0.38905671658E+02  0.33591002872E+02 -0.93660240200E+03  0.93801176229E+03  0.00000000000E+00 0. -1.
        -13    1    3    3    0    0  0.30421235353E+02 -0.19053684077E+02 -0.32260857951E+03  0.32459943008E+03  0.00000000000E+00 0.  1.
         22    1    1    2    0    0  0.84844363050E+01 -0.14537318795E+02 -0.54481021415E+02  0.57021934302E+02  0.00000000000E+00 0.  1.
<mgrwt>
<rscale>  0 0.60463340E+02</rscale>
<asrwt>0</asrwt>
<pdfrwt beam="1">  1        2 0.20256328E+00 0.92599823E+02</pdfrwt>
<pdfrwt beam="2">  1       -2 0.45700995E-03 0.92599823E+02</pdfrwt>
<totfact> 0.10166995E+05</totfact>
</mgrwt>
</event>
<event>
 6    1  0.2852411E-002  0.9365331E+02  0.7546771E-02  0.1392443E+00
          2   -1    0    0  501    0  0.00000000000E+00  0.00000000000E+00  0.15410704722E+03  0.15410704722E+03  0.00000000000E+00 0. -1.
         -2   -1    0    0    0  501 -0.00000000000E+00 -0.00000000000E+00 -0.20227069383E+02  0.20227069383E+02  0.00000000000E+00 0.  1.
         23    2    1    2    0    0  0.54332041757E+01 -0.16312455196E+02  0.10477658283E+03  0.14053140217E+03  0.92061538029E+02 0.  0.
         11    1    3    3    0    0  0.35183410302E+02  0.74973461345E+01  0.94425216176E+02  0.10104555413E+03  0.00000000000E+00 0. -1.
        -11    1    3    3    0    0 -0.29750206126E+02 -0.23809801330E+02  0.10351366656E+02  0.39485848042E+02  0.00000000000E+00 0.  1.
         22    1    1    2    0    0 -0.54332041757E+01  0.16312455196E+02  0.29103395006E+02  0.33802714432E+02  0.00000000000E+00 0. -1.
<mgrwt>
<rscale>  0 0.61303226E+02</rscale>
<asrwt>0</asrwt>
<pdfrwt beam="1">  1        2 0.23708776E-01 0.93653311E+02</pdfrwt>
<pdfrwt beam="2">  1       -2 0.31118569E-02 0.93653311E+02</pdfrwt>
<totfact> 0.78809112E+04</totfact>
</mgrwt>
</event>
<event>
 6    1  0.2852411E-002  0.9334414E+02  0.7546771E-02  0.1405486E+00
          1   -1    0    0  501    0  0.00000000000E+00  0.00000000000E+00  0.17670221448E+03  0.17670221448E+03  0.00000000000E+00 0. -1.
         -1   -1    0    0    0  501 -0.00000000000E+00 -0.00000000000E+00 -0.28459709175E+02  0.28459709175E+02  0.00000000000E+00 0.  1.
         23    2    1    2    0    0 -0.14043048159E+02 -0.14707044966E+01  0.16101947248E+03  0.18611931188E+03  0.92270025270E+02 0.  0.
         13    1    3    3    0    0  0.10042175322E+02 -0.14485604744E+02 -0.46290289334E+01  0.18223774002E+02  0.00000000000E+00 0.  1.
        -13    1    3    3    0    0 -0.24085223481E+02  0.13014900247E+02  0.16564850141E+03  0.16789553788E+03  0.00000000000E+00 0. -1.
         22    1    1    2    0    0  0.14043048159E+02  0.14707044966E+01 -0.12776967171E+02  0.19042611780E+02  0.00000000000E+00 0.  1.
<mgrwt>
<rscale>  0 0.58213378E+02</rscale>
<asrwt>0</asrwt>
<pdfrwt beam="1">  1        1 0.27184955E-01 0.93344136E+02</pdfrwt>
<pdfrwt beam="2">  1       -1 0.43784169E-02 0.93344136E+02</pdfrwt>
<totfact> 0.32514715E+04</totfact>
</mgrwt>
</event>
<event>
 6    1  0.2852411E-002  0.9489749E+02  0.7546771E-02  0.1377257E+00
          3   -1    0    0  501    0  0.00000000000E+00  0.00000000000E+00  0.20530746918E+02  0.20530746918E+02  0.00000000000E+00 0. -1.
         -3   -1    0    0    0  501 -0.00000000000E+00 -0.00000000000E+00 -0.16935875815E+03  0.16935875815E+03  0.00000000000E+00 0.  1.
         23    2    1    2    0    0 -0.74128159147E+01  0.19790793502E+02 -0.10695541358E+03  0.14298598941E+03  0.92514362807E+02 0.  0.
         13    1    3    3    0    0  0.53576385631E+00 -0.32905555819E+02 -0.13846184759E+02  0.35704054098E+02  0.00000000000E+00 0. -1.
        -13    1    3    3    0    0 -0.79485797710E+01  0.52696349321E+02 -0.93109228821E+02  0.10728193531E+03  0.00000000000E+00 0.  1.
         22    1    1    2    0    0  0.74128159147E+01 -0.19790793502E+02 -0.41872597649E+02  0.46903515659E+02  0.00000000000E+00 0.  1.
<mgrwt>
<rscale>  0 0.65190445E+02</rscale>
<asrwt>0</asrwt>
<pdfrwt beam="1">  1        3 0.31585764E-02 0.94897485E+02</pdfrwt>
<pdfrwt beam="2">  1       -3 0.26055194E-01 0.94897485E+02</pdfrwt>
<totfact> 0.13612357E+04</totfact>
</mgrwt>
</event>
<event>
 6    1  0.2852411E-002  0.9426726E+02  0.7546771E-02  0.1390312E+00
          2   -1    0    0  501    0  0.00000000000E+00  0.00000000000E+00  0.18498452106E+04  0.18498452106E+04  0.00000000000E+00 0.  1.
         -2   -1    0    0    0  501 -0.00000000000E+00 -0.00000000000E+00 -0.16874252655E+02  0.16874252655E+02  0.00000000000E+00 0. -1.
         23    2    1    2    0    0 -0.18932216145E+01  0.17342803652E+02  0.18437854089E+04  0.18461936386E+04  0.92638868518E+02 0.  0.
         11    1    3    3    0    0 -0.17084796341E+02 -0.74622954045E+01  0.16612967449E+04  0.16614013515E+04  0.00000000000E+00 0.  1.
        -11    1    3    3    0    0  0.15191574727E+02  0.24805099057E+02  0.18248866400E+03  0.18479228710E+03  0.00000000000E+00 0. -1.
         22    1    1    2    0    0  0.18932216145E+01 -0.17342803652E+02 -0.10814450990E+02  0.20525824632E+02  0.00000000000E+00 0. -1.
<mgrwt>
<rscale>  0 0.61829198E+02</rscale>
<asrwt>0</asrwt>
<pdfrwt beam="1">  1        2 0.28459141E+00 0.94267264E+02</pdfrwt>
<pdfrwt beam="2">  1       -2 0.25960403E-02 0.94267264E+02</pdfrwt>
<totfact> 0.46163938E+03</totfact>
</mgrwt>
</event>
<event>
 6    1  0.2852411E-002  0.8982542E+02  0.7546771E-02  0.1403779E+00
         -1   -1    0    0    0  501 -0.00000000000E+00  0.00000000000E+00  0.49026622890E+01  0.49026622890E+01  0.00000000000E+00 0.  1.
          1   -1    0    0  501    0  0.00000000000E+00 -0.00000000000E+00 -0.12427421456E+04  0.12427421456E+04  0.00000000000E+00 0. -1.
         23    2    1    2    0    0 -0.16183499704E+02  0.17351538849E+01 -0.12207293014E+04  0.12240296698E+04  0.88338490386E+02 0.  0.
         11    1    3    3    0    0 -0.13795085053E+02 -0.35188039711E+02 -0.27597184807E+03  0.27854795537E+03  0.00000000000E+00 0.  1.
        -11    1    3    3    0    0 -0.23884146515E+01  0.36923193596E+02 -0.94475745330E+03  0.94548171443E+03  0.00000000000E+00 0. -1.
         22    1    1    2    0    0  0.16183499704E+02 -0.17351538849E+01 -0.17110181968E+02  0.23615138125E+02  0.00000000000E+00 0.  1.
<mgrwt>
<rscale>  0 0.58605454E+02</rscale>
<asrwt>0</asrwt>
<pdfrwt beam="1">  1        1 0.19119105E+00 0.89825416E+02</pdfrwt>
<pdfrwt beam="2">  1       -1 0.75425593E-03 0.89825416E+02</pdfrwt>
<totfact> 0.27806738E+04</totfact>
</mgrwt>
</event>
<event>
 6    1  0.2852411E-002  0.9484134E+02  0.7546771E-02  0.1401439E+00
          2   -1    0    0  501    0  0.00000000000E+00  0.00000000000E+00  0.13705132225E+04  0.13705132225E+04  0.00000000000E+00 0. -1.
         -2   -1    0    0    0  501 -0.00000000000E+00 -0.00000000000E+00 -0.25713574276E+01  0.25713574276E+01  0.00000000000E+00 0.  1.
         23    2    1    2    0    0 -0.12018135145E+02  0.78378361229E+01  0.13086170149E+04  0.13120493025E+04  0.93749736806E+02 0.  0.
         11    1    3    3    0    0 -0.40321257858E+02 -0.27014629728E+02  0.79163250632E+03  0.79311891865E+03  0.00000000000E+00 0.  1.
        -11    1    3    3    0    0  0.28303122713E+02  0.34852465851E+02  0.51698450861E+03  0.51893038384E+03  0.00000000000E+00 0. -1.
         22    1    1    2    0    0  0.12018135145E+02 -0.78378361229E+01  0.59324850116E+02  0.61035277412E+02  0.00000000000E+00 0.  1.
<mgrwt>
<rscale>  0 0.59148901E+02</rscale>
<asrwt>0</asrwt>
<pdfrwt beam="1">  1        2 0.21084761E+00 0.94841343E+02</pdfrwt>
<pdfrwt beam="2">  1       -2 0.39559454E-03 0.94841343E+02</pdfrwt>
<totfact> 0.11692514E+05</totfact>
</mgrwt>
</event>
<event>
 6    1  0.2852411E-002  0.1285097E+03  0.7546771E-02  0.1315657E+00
          2   -1    0    0  501    0  0.00000000000E+00  0.00000000000E+00  0.26627222077E+03  0.26627222077E+03  0.00000000000E+00 0.  1.
         -2   -1    0    0    0  501 -0.00000000000E+00 -0.00000000000E+00 -0.11492298172E+03  0.11492298172E+03  0.00000000000E+00 0. -1.
         23    2    1    2    0    0  0.22352909223E+02  0.10022226839E+02  0.24916789025E+03  0.28035579499E+03  0.12615322694E+03 0.  0.
         13    1    3    3    0    0  0.33566149158E+02  0.27386786735E+02  0.25517818173E+03  0.25882933931E+03  0.00000000000E+00 0.  1.
        -13    1    3    3    0    0 -0.11213239935E+02 -0.17364559896E+02 -0.60102914775E+01  0.21526455674E+02  0.00000000000E+00 0. -1.
         22    1    1    2    0    0 -0.22352909223E+02 -0.10022226839E+02 -0.97818651208E+02  0.10083940750E+03  0.00000000000E+00 0. -1.
<mgrwt>
<rscale>  0 0.84914055E+02</rscale>
<asrwt>0</asrwt>
<pdfrwt beam="1">  1        2 0.40964957E-01 0.12850967E+03</pdfrwt>
<pdfrwt beam="2">  1       -2 0.17680459E-01 0.12850967E+03</pdfrwt>
<totfact> 0.31174082E+03</totfact>
</mgrwt>
</event>
<event>
 6    1  0.2852411E-002  0.9355501E+02  0.7546771E-02  0.1381004E+00
          1   -1    0    0  501    0  0.00000000000E+00  0.00000000000E+00  0.15164721128E+03  0.15164721128E+03  0.00000000000E+00 0. -1.
         -1   -1    0    0    0  501 -0.00000000000E+00 -0.00000000000E+00 -0.23450569399E+02  0.23450569399E+02  0.00000000000E+00 0.  1.
         23    2    1    2    0    0  0.56888756360E+01  0.19951897519E+02  0.12139933262E+03  0.15326558120E+03  0.91225538643E+02 0.  0.
         13    1    3    3    0    0 -0.89309913505E+01  0.24579532552E+02  0.13203726918E+03  0.13460221573E+03  0.00000000000E+00 0. -1.
        -13    1    3    3    0    0  0.14619866987E+02 -0.46276350329E+01 -0.10637936558E+02  0.18663365476E+02  0.00000000000E+00 0.  1.
         22    1    1    2    0    0 -0.56888756360E+01 -0.19951897519E+02  0.67973092589E+01  0.21832199472E+02  0.00000000000E+00 0.  1.
<mgrwt>
<rscale>  0 0.64200671E+02</rscale>
<asrwt>0</asrwt>
<pdfrwt beam="1">  1        1 0.23330340E-01 0.93555013E+02</pdfrwt>
<pdfrwt beam="2">  1       -1 0.36077800E-02 0.93555013E+02</pdfrwt>
<totfact> 0.52089314E+04</totfact>
</mgrwt>
</event>
<event>
 6    1  0.2852411E-002  0.1184925E+03  0.7546771E-02  0.1272208E+00
          2   -1    0    0  501    0  0.00000000000E+00  0.00000000000E+00  0.42280556257E+03  0.42280556257E+03  0.00000000000E+00 0. -1.
         -2   -1    0    0    0  501 -0.00000000000E+00 -0.00000000000E+00 -0.22484028118E+02  0.22484028118E+02  0.00000000000E+00 0.  1.
         23    2    1    2    0    0 -0.63882276579E+02  0.29043967895E+02  0.19361647765E+03  0.22699740613E+03  0.95477665661E+02 0.  0.
         13    1    3    3    0    0  0.19110301451E+02 -0.68430790890E+01  0.10683668549E+02  0.22938442115E+02  0.00000000000E+00 0. -1.
        -13    1    3    3    0    0 -0.82992578030E+02  0.35887046984E+02  0.18293280910E+03  0.20405896402E+03  0.00000000000E+00 0.  1.
         22    1    1    2    0    0  0.63882276579E+02 -0.29043967895E+02  0.20670505680E+03  0.21829218455E+03  0.00000000000E+00 0. -1.
<mgrwt>
<rscale>  0 0.10394737E+03</rscale>
<asrwt>0</asrwt>
<pdfrwt beam="1">  1        2 0.65047004E-01 0.11849254E+03</pdfrwt>
<pdfrwt beam="2">  1       -2 0.34590816E-02 0.11849254E+03</pdfrwt>
<totfact> 0.23726092E+04</totfact>
</mgrwt>
</event>
<event>
 6    1  0.2852411E-002  0.1902715E+03  0.7546771E-02  0.1163743E+00
          1   -1    0    0  501    0  0.00000000000E+00  0.00000000000E+00  0.58642028860E+03  0.58642028860E+03  0.00000000000E+00 0. -1.
         -1   -1    0    0    0  501 -0.00000000000E+00 -0.00000000000E+00 -0.71795309234E+02  0.71795309234E+02  0.00000000000E+00 0.  1.
         23    2    1    2    0    0  0.14122914406E+03  0.89759255890E+02  0.43102958313E+03  0.47115789171E+03  0.90558612144E+02 0.  0.
         11    1    3    3    0    0  0.12319554725E+03  0.95419227091E+02  0.29318223106E+03  0.33202077099E+03  0.00000000000E+00 0. -1.
        -11    1    3    3    0    0  0.18033596814E+02 -0.56599712017E+01  0.13784735207E+03  0.13913712071E+03  0.00000000000E+00 0.  1.
         22    1    1    2    0    0 -0.14122914406E+03 -0.89759255890E+02  0.83595396240E+02  0.18705770613E+03  0.00000000000E+00 0.  1.
<mgrwt>
<rscale>  0 0.18425945E+03</rscale>
<asrwt>0</asrwt>
<pdfrwt beam="1">  1        1 0.90218503E-01 0.19027154E+03</pdfrwt>
<pdfrwt beam="2">  1       -1 0.11045433E-01 0.19027154E+03</pdfrwt>
<totfact> 0.18814553E+03</totfact>
</mgrwt>
</event>
<event>
 6    1  0.2852411E-002  0.1050849E+03  0.7546771E-02  0.1305103E+00
         -1   -1    0    0    0  501 -0.00000000000E+00  0.00000000000E+00  0.31595589216E+02  0.31595589216E+02  0.00000000000E+00 0.  1.
          1   -1    0    0  501    0  0.00000000000E+00 -0.00000000000E+00 -0.32113821253E+03  0.32113821253E+03  0.00000000000E+00 0. -1.
         23    2    1    2    0    0  0.47424072964E+02  0.26353815303E+02 -0.27809145202E+03  0.29728386396E+03  0.89995965480E+02 0.  0.
         13    1    3    3    0    0  0.42231816484E+02  0.31938892307E+02 -0.64031922617E+02  0.83088544814E+02  0.00000000000E+00 0.  1.
        -13    1    3    3    0    0  0.51922564803E+01 -0.55850770048E+01 -0.21405952941E+03  0.21419531914E+03  0.00000000000E+00 0. -1.
         22    1    1    2    0    0 -0.47424072964E+02 -0.26353815303E+02 -0.11451171296E+02  0.55449937796E+02  0.00000000000E+00 0. -1.
<mgrwt>
<rscale>  0 0.89076782E+02</rscale>
<asrwt>0</asrwt>
<pdfrwt beam="1">  1        1 0.49405878E-01 0.10508492E+03</pdfrwt>
<pdfrwt beam="2">  1       -1 0.48608600E-02 0.10508492E+03</pdfrwt>
<totfact> 0.13577212E+04</totfact>
</mgrwt>
</event>
<event>
 6    1  0.2852411E-002  0.9703626E+02  0.7546771E-02  0.1353100E+00
          2   -1    0    0  501    0  0.00000000000E+00  0.00000000000E+00  0.10828085303E+04  0.10828085303E+04  0.00000000000E+00 0.  1.
         -2   -1    0    0    0  501 -0.00000000000E+00 -0.00000000000E+00 -0.10227166263E+02  0.10227166263E+02  0.00000000000E+00 0. -1.
         23    2    1    2    0    0 -0.15179525307E+02 -0.25380126259E+02  0.10532372466E+04  0.10576978461E+04  0.92420058323E+02 0.  0.
         11    1    3    3    0    0  0.33810586545E+02 -0.15965241608E+02  0.69484229531E+03  0.69584758393E+03  0.00000000000E+00 0. -1.
        -11    1    3    3    0    0 -0.48990111852E+02 -0.94148846517E+01  0.35839495132E+03  0.36185026219E+03  0.00000000000E+00 0.  1.
         22    1    1    2    0    0  0.15179525307E+02  0.25380126259E+02  0.19344117442E+02  0.35337850488E+02  0.00000000000E+00 0. -1.
<mgrwt>
<rscale>  0 0.72098261E+02</rscale>
<asrwt>0</asrwt>
<pdfrwt beam="1">  1        2 0.16658584E+00 0.97036261E+02</pdfrwt>
<pdfrwt beam="2">  1       -2 0.15734111E-02 0.97036261E+02</pdfrwt>
<totfact> 0.23854427E+04</totfact>
</mgrwt>
</event>
<event>
 6    1  0.2852411E-002  0.1039968E+03  0.7546771E-02  0.1310343E+00
         -2   -1    0    0    0  501 -0.00000000000E+00  0.00000000000E+00  0.21629281342E+02  0.21629281342E+02  0.00000000000E+00 0.  1.
          2   -1    0    0  501    0  0.00000000000E+00 -0.00000000000E+00 -0.27805501130E+03  0.27805501130E+03  0.00000000000E+00 0. -1.
         23    2    1    2    0    0  0.49957750577E+02 -0.96445734396E+01 -0.17963223934E+03  0.20756461591E+03  0.90700241066E+02 0.  0.
         11    1    3    3    0    0  0.42126768793E+02 -0.34464317820E+02 -0.45531628746E+02  0.70961842338E+02  0.00000000000E+00 0.  1.
        -11    1    3    3    0    0  0.78309817838E+01  0.24819744381E+02 -0.13410061059E+03  0.13660277357E+03  0.00000000000E+00 0. -1.
         22    1    1    2    0    0 -0.49957750577E+02  0.96445734396E+01 -0.76793490626E+02  0.92119676737E+02  0.00000000000E+00 0. -1.
<mgrwt>
<rscale>  0 0.86976533E+02</rscale>
<asrwt>0</asrwt>
<pdfrwt beam="1">  1        2 0.42777697E-01 0.10399677E+03</pdfrwt>
<pdfrwt beam="2">  1       -2 0.33275815E-02 0.10399677E+03</pdfrwt>
<totfact> 0.38545701E+04</totfact>
</mgrwt>
</event>
<event>
 6    1  0.2852411E-002  0.9791540E+02  0.7546771E-02  0.1378531E+00
         -2   -1    0    0    0  501 -0.00000000000E+00  0.00000000000E+00  0.14118769597E+03  0.14118769597E+03  0.00000000000E+00 0.  1.
          2   -1    0    0  501    0  0.00000000000E+00 -0.00000000000E+00 -0.44882905863E+02  0.44882905863E+02  0.00000000000E+00 0. -1.
         23    2    1    2    0    0  0.11494868046E+02  0.14929611577E+02  0.10794054941E+02  0.98508560274E+02  0.96085376265E+02 0.  0.
         13    1    3    3    0    0 -0.21080359801E+02 -0.10589819086E+02 -0.31489012379E+02  0.39345695294E+02  0.00000000000E+00 0. -1.
        -13    1    3    3    0    0  0.32575227847E+02  0.25519430663E+02  0.42283067320E+02  0.59162864980E+02  0.00000000000E+00 0.  1.
         22    1    1    2    0    0 -0.11494868046E+02 -0.14929611577E+02  0.85510735164E+02  0.87562041556E+02  0.00000000000E+00 0. -1.
<mgrwt>
<rscale>  0 0.64851593E+02</rscale>
<asrwt>0</asrwt>
<pdfrwt beam="1">  1        2 0.69050625E-02 0.97915396E+02</pdfrwt>
<pdfrwt beam="2">  1       -2 0.21721184E-01 0.97915396E+02</pdfrwt>
<totfact> 0.16775320E+04</totfact>
</mgrwt>
</event>
<event>
 6    1  0.2852411E-002  0.9223258E+02  0.7546771E-02  0.1392098E+00
          2   -1    0    0  501    0  0.00000000000E+00  0.00000000000E+00  0.34649164281E+03  0.34649164281E+03  0.00000000000E+00 0.  1.
         -2   -1    0    0    0  501 -0.00000000000E+00 -0.00000000000E+00 -0.96813706458E+01  0.96813706458E+01  0.00000000000E+00 0. -1.
         23    2    1    2    0    0  0.17632704309E+02 -0.40862590011E+01  0.31273870147E+03  0.32605573786E+03  0.90439145381E+02 0.  0.
         11    1    3    3    0    0 -0.15476671663E+02 -0.33900612651E+02  0.22041689683E+03  0.22354504537E+03  0.00000000000E+00 0. -1.
        -11    1    3    3    0    0  0.33109375972E+02  0.29814353650E+02  0.92321804648E+02  0.10251069249E+03  0.00000000000E+00 0.  1.
         22    1    1    2    0    0 -0.17632704309E+02  0.40862590011E+01  0.24071570690E+02  0.30117275597E+02  0.00000000000E+00 0.  1.
<mgrwt>
<rscale>  0 0.61387914E+02</rscale>
<asrwt>0</asrwt>
<pdfrwt beam="1">  1        2 0.53306397E-01 0.92232580E+02</pdfrwt>
<pdfrwt beam="2">  1       -2 0.14894419E-02 0.92232580E+02</pdfrwt>
<totfact> 0.96190698E+04</totfact>
</mgrwt>
</event>
<event>
 6    1  0.2852411E-002  0.9326947E+02  0.7546771E-02  0.1388746E+00
          2   -1    0    0  501    0  0.00000000000E+00  0.00000000000E+00  0.26122876060E+03  0.26122876060E+03  0.00000000000E+00 0. -1.
         -2   -1    0    0    0  501 -0.00000000000E+00 -0.00000000000E+00 -0.14603764985E+02  0.14603764985E+02  0.00000000000E+00 0.  1.
         23    2    1    2    0    0 -0.11457687051E+02 -0.14488165863E+02  0.23764798049E+03  0.25529542883E+03  0.91422140677E+02 0.  0.
         13    1    3    3    0    0 -0.50098219280E+02  0.20829060918E+01  0.14835215373E+03  0.15659671641E+03  0.00000000000E+00 0. -1.
        -13    1    3    3    0    0  0.38640532229E+02 -0.16571071955E+02  0.89295826760E+02  0.98698712421E+02  0.00000000000E+00 0.  1.
         22    1    1    2    0    0  0.11457687051E+02  0.14488165863E+02  0.89770151218E+01  0.20537096755E+02  0.00000000000E+00 0.  1.
<mgrwt>
<rscale>  0 0.62219776E+02</rscale>
<asrwt>0</asrwt>
<pdfrwt beam="1">  1        2 0.40189037E-01 0.93269466E+02</pdfrwt>
<pdfrwt beam="2">  1       -2 0.22467333E-02 0.93269466E+02</pdfrwt>
<totfact> 0.71805440E+04</totfact>
</mgrwt>
</event>
<event>
 6    1  0.2852411E-002  0.8585608E+02  0.7546771E-02  0.1379937E+00
         -2   -1    0    0    0  501 -0.00000000000E+00  0.00000000000E+00  0.28991132663E+02  0.28991132663E+02  0.00000000000E+00 0.  1.
          2   -1    0    0  501    0  0.00000000000E+00 -0.00000000000E+00 -0.11630487219E+03  0.11630487219E+03  0.00000000000E+00 0. -1.
         23    2    1    2    0    0  0.11793705750E+02 -0.24637459450E+02 -0.79186025144E+02  0.11679766026E+03  0.81395153176E+02 0.  0.
         13    1    3    3    0    0  0.26280120779E+02  0.42364521176E+01  0.45871863967E+01  0.27011748439E+02  0.00000000000E+00 0.  1.
        -13    1    3    3    0    0 -0.14486415029E+02 -0.28873911568E+02 -0.83773211541E+02  0.89785911821E+02  0.00000000000E+00 0. -1.
         22    1    1    2    0    0 -0.11793705750E+02  0.24637459450E+02 -0.81277143827E+01  0.28498344593E+02  0.00000000000E+00 0.  1.
<mgrwt>
<rscale>  0 0.64480387E+02</rscale>
<asrwt>0</asrwt>
<pdfrwt beam="1">  1        2 0.17893057E-01 0.85856082E+02</pdfrwt>
<pdfrwt beam="2">  1       -2 0.44601743E-02 0.85856082E+02</pdfrwt>
<totfact> 0.62794725E+04</totfact>
</mgrwt>
</event>
<event>
 6    1  0.2852411E-002  0.9325067E+02  0.7546771E-02  0.1385672E+00
         -2   -1    0    0    0  501 -0.00000000000E+00  0.00000000000E+00  0.52524974594E+01  0.52524974594E+01  0.00000000000E+00 0. -1.
          2   -1    0    0  501    0  0.00000000000E+00 -0.00000000000E+00 -0.60434607903E+03  0.60434607903E+03  0.00000000000E+00 0.  1.
         23    2    1    2    0    0  0.19024262492E+02  0.39109369217E+01 -0.49279299943E+03  0.50153826114E+03  0.91205641846E+02 0.  0.
         11    1    3    3    0    0 -0.16459498542E+02  0.19007256776E+00 -0.42144986922E+03  0.42177119803E+03  0.00000000000E+00 0.  1.
        -11    1    3    3    0    0  0.35483761034E+02  0.37208643539E+01 -0.71343130206E+02  0.79767063104E+02  0.00000000000E+00 0. -1.
         22    1    1    2    0    0 -0.19024262492E+02 -0.39109369217E+01 -0.10630058214E+03  0.10806031536E+03  0.00000000000E+00 0. -1.
<mgrwt>
<rscale>  0 0.62996006E+02</rscale>
<asrwt>0</asrwt>
<pdfrwt beam="1">  1        2 0.92976347E-01 0.93250668E+02</pdfrwt>
<pdfrwt beam="2">  1       -2 0.80807630E-03 0.93250668E+02</pdfrwt>
<totfact> 0.12625703E+05</totfact>
</mgrwt>
</event>
<event>
 6    1  0.2852411E-002  0.9918954E+02  0.7546771E-02  0.1339963E+00
         -2   -1    0    0    0  501 -0.00000000000E+00  0.00000000000E+00  0.51182272525E+01  0.51182272525E+01  0.00000000000E+00 0.  1.
          2   -1    0    0  501    0  0.00000000000E+00 -0.00000000000E+00 -0.11490921944E+04  0.11490921944E+04  0.00000000000E+00 0. -1.
         23    2    1    2    0    0 -0.22602488598E+02 -0.26312151043E+02 -0.10374552164E+04  0.10421861116E+04  0.92926655919E+02 0.  0.
         13    1    3    3    0    0  0.27670489615E+02  0.17219308859E+02 -0.36331714194E+03  0.36477596717E+03  0.00000000000E+00 0. -1.
        -13    1    3    3    0    0 -0.50272978213E+02 -0.43531459903E+02 -0.67413807448E+03  0.67741014445E+03  0.00000000000E+00 0.  1.
         22    1    1    2    0    0  0.22602488598E+02  0.26312151043E+02 -0.10651875075E+03  0.11202431007E+03  0.00000000000E+00 0. -1.
<mgrwt>
<rscale>  0 0.76276669E+02</rscale>
<asrwt>0</asrwt>
<pdfrwt beam="1">  1        2 0.17678367E+00 0.99189542E+02</pdfrwt>
<pdfrwt beam="2">  1       -2 0.78741846E-03 0.99189542E+02</pdfrwt>
<totfact> 0.58703931E+04</totfact>
</mgrwt>
</event>
<event>
 6    1  0.2852411E-002  0.9709381E+02  0.7546771E-02  0.1348330E+00
         -2   -1    0    0    0  501 -0.00000000000E+00  0.00000000000E+00  0.20574543412E+02  0.20574543412E+02  0.00000000000E+00 0.  1.
          2   -1    0    0  501    0  0.00000000000E+00 -0.00000000000E+00 -0.20592357262E+03  0.20592357262E+03  0.00000000000E+00 0. -1.
         23    2    1    2    0    0 -0.12143271300E+02 -0.29628934359E+02 -0.12609005934E+03  0.15914116910E+03  0.91661746936E+02 0.  0.
         11    1    3    3    0    0 -0.34860864210E+01  0.45068156340E+01 -0.12371351251E+03  0.12384465012E+03  0.00000000000E+00 0. -1.
        -11    1    3    3    0    0 -0.86571848787E+01 -0.34135749993E+02 -0.23765468257E+01  0.35296518984E+02  0.00000000000E+00 0.  1.
         22    1    1    2    0    0  0.12143271300E+02  0.29628934359E+02 -0.59258969869E+02  0.67356946925E+02  0.00000000000E+00 0. -1.
<mgrwt>
<rscale>  0 0.73578643E+02</rscale>
<asrwt>0</asrwt>
<pdfrwt beam="1">  1        2 0.31680551E-01 0.97093814E+02</pdfrwt>
<pdfrwt beam="2">  1       -2 0.31653143E-02 0.97093814E+02</pdfrwt>
<totfact> 0.56482423E+04</totfact>
</mgrwt>
</event>
<event>
 6    1  0.2852411E-002  0.2426302E+03  0.7546771E-02  0.1121025E+00
          2   -1    0    0  501    0  0.00000000000E+00  0.00000000000E+00  0.25721375800E+03  0.25721375800E+03  0.00000000000E+00 0. -1.
         -2   -1    0    0    0  501 -0.00000000000E+00 -0.00000000000E+00 -0.32900411268E+03  0.32900411268E+03  0.00000000000E+00 0.  1.
         23    2    1    2    0    0 -0.15118519501E+03  0.16695912000E+03  0.13738915095E+03  0.27882825389E+03  0.90205905742E+02 0.  0.
         13    1    3    3    0    0 -0.11890057789E+03  0.15619297114E+03  0.14488761331E+03  0.24397953223E+03  0.00000000000E+00 0. -1.
        -13    1    3    3    0    0 -0.32284617116E+02  0.10766148856E+02 -0.74984623652E+01  0.34848721660E+02  0.00000000000E+00 0.  1.
         22    1    1    2    0    0  0.15118519501E+03 -0.16695912000E+03 -0.20917950562E+03  0.30738961679E+03  0.00000000000E+00 0.  1.
<mgrwt>
<rscale>  0 0.23816022E+03</rscale>
<asrwt>0</asrwt>
<pdfrwt beam="1">  1        2 0.39571347E-01 0.24263020E+03</pdfrwt>
<pdfrwt beam="2">  1       -2 0.50616017E-01 0.24263020E+03</pdfrwt>
<totfact> 0.48649008E+02</totfact>
</mgrwt>
</event>
<event>
 6    1  0.2852411E-002  0.1142827E+03  0.7546771E-02  0.1372157E+00
         -2   -1    0    0    0  501 -0.00000000000E+00  0.00000000000E+00  0.10315294975E+02  0.10315294975E+02  0.00000000000E+00 0. -1.
          2   -1    0    0  501    0  0.00000000000E+00 -0.00000000000E+00 -0.77775366377E+03  0.77775366377E+03  0.00000000000E+00 0.  1.
         23    2    1    2    0    0  0.59825620172E+01  0.11719737957E+02 -0.76639539009E+03  0.77486929547E+03  0.11352263129E+03 0.  0.
         11    1    3    3    0    0  0.28110148183E+02  0.17933995101E+01 -0.45146688352E+02  0.53212970052E+02  0.00000000000E+00 0. -1.
        -11    1    3    3    0    0 -0.22127586166E+02  0.99263384466E+01 -0.72124870173E+03  0.72165632542E+03  0.00000000000E+00 0.  1.
         22    1    1    2    0    0 -0.59825620172E+01 -0.11719737957E+02 -0.10429787131E+01  0.13199663278E+02  0.00000000000E+00 0. -1.
<mgrwt>
<rscale>  0 0.66571145E+02</rscale>
<asrwt>0</asrwt>
<pdfrwt beam="1">  1        2 0.11965440E+00 0.11428268E+03</pdfrwt>
<pdfrwt beam="2">  1       -2 0.15869686E-02 0.11428268E+03</pdfrwt>
<totfact> 0.36883818E+04</totfact>
</mgrwt>
</event>
<event>
 6    1  0.2852411E-002  0.8814402E+02  0.7546771E-02  0.1429803E+00
          1   -1    0    0  501    0  0.00000000000E+00  0.00000000000E+00  0.64733731707E+01  0.64733731707E+01  0.00000000000E+00 0. -1.
         -1   -1    0    0    0  501 -0.00000000000E+00 -0.00000000000E+00 -0.39079623474E+03  0.39079623474E+03  0.00000000000E+00 0.  1.
         23    2    1    2    0    0 -0.95177380696E+01 -0.64929483839E+01 -0.31973880508E+03  0.33166590321E+03  0.87387768980E+02 0.  0.
         13    1    3    3    0    0 -0.41417765895E+02 -0.14977745893E+02 -0.97461469386E+02  0.10695093370E+03  0.00000000000E+00 0. -1.
        -13    1    3    3    0    0  0.31900027826E+02  0.84847975093E+01 -0.22227733569E+03  0.22471496952E+03  0.00000000000E+00 0.  1.
         22    1    1    2    0    0  0.95177380696E+01  0.64929483839E+01 -0.64584056492E+02  0.65603704694E+02  0.00000000000E+00 0.  1.
<mgrwt>
<rscale>  0 0.52999552E+02</rscale>
<asrwt>0</asrwt>
<pdfrwt beam="1">  1        1 0.99590370E-03 0.88144018E+02</pdfrwt>
<pdfrwt beam="2">  1       -1 0.60122490E-01 0.88144018E+02</pdfrwt>
<totfact> 0.40852497E+04</totfact>
</mgrwt>
</event>
<event>
 6    1  0.2852411E-002  0.1086872E+03  0.7546771E-02  0.1377411E+00
         -2   -1    0    0    0  501 -0.00000000000E+00  0.00000000000E+00  0.76098532307E+02  0.76098532307E+02  0.00000000000E+00 0.  1.
          2   -1    0    0  501    0  0.00000000000E+00 -0.00000000000E+00 -0.73427569256E+02  0.73427569256E+02  0.00000000000E+00 0. -1.
         23    2    1    2    0    0  0.10914849886E+02  0.88173469782E+01 -0.31022414019E+02  0.11302783840E+03  0.10777765318E+03 0.  0.
         11    1    3    3    0    0 -0.28012504301E+02 -0.21079576498E+01  0.29182666129E+02  0.40506442513E+02  0.00000000000E+00 0.  1.
        -11    1    3    3    0    0  0.38927354188E+02  0.10925304628E+02 -0.60205080147E+02  0.72521395883E+02  0.00000000000E+00 0. -1.
         22    1    1    2    0    0 -0.10914849886E+02 -0.88173469782E+01  0.33693377070E+02  0.36498263166E+02  0.00000000000E+00 0. -1.
<mgrwt>
<rscale>  0 0.65149158E+02</rscale>
<asrwt>0</asrwt>
<pdfrwt beam="1">  1        2 0.11296549E-01 0.10868718E+03</pdfrwt>
<pdfrwt beam="2">  1       -2 0.11707467E-01 0.10868718E+03</pdfrwt>
<totfact> 0.25450005E+04</totfact>
</mgrwt>
</event>
<event>
 6    1  0.2852411E-002  0.9382186E+02  0.7546771E-02  0.1404095E+00
         -2   -1    0    0    0  501 -0.00000000000E+00  0.00000000000E+00  0.39608361208E+01  0.39608361208E+01  0.00000000000E+00 0.  1.
          2   -1    0    0  501    0  0.00000000000E+00 -0.00000000000E+00 -0.11481365057E+04  0.11481365057E+04  0.00000000000E+00 0. -1.
         23    2    1    2    0    0 -0.10567469792E+02  0.95042628593E+01 -0.11209397585E+04  0.11248593170E+04  0.92739088421E+02 0.  0.
         13    1    3    3    0    0 -0.50823282660E+02 -0.22556777447E+01 -0.53133366937E+03  0.53376358282E+03  0.00000000000E+00 0. -1.
        -13    1    3    3    0    0  0.40255812869E+02  0.11759940604E+02 -0.58960608912E+03  0.59109573421E+03  0.00000000000E+00 0.  1.
         22    1    1    2    0    0  0.10567469792E+02 -0.95042628593E+01 -0.23235911099E+02  0.27238024798E+02  0.00000000000E+00 0. -1.
<mgrwt>
<rscale>  0 0.58532570E+02</rscale>
<asrwt>0</asrwt>
<pdfrwt beam="1">  1        2 0.17663633E+00 0.93821858E+02</pdfrwt>
<pdfrwt beam="2">  1       -2 0.60935961E-03 0.93821858E+02</pdfrwt>
<totfact> 0.83832038E+04</totfact>
</mgrwt>
</event>
<event>
 6    1  0.2852411E-002  0.9109979E+02  0.7546771E-02  0.1427804E+00
          2   -1    0    0  501    0  0.00000000000E+00  0.00000000000E+00  0.19684707913E+04  0.19684707913E+04  0.00000000000E+00 0. -1.
         -2   -1    0    0    0  501 -0.00000000000E+00 -0.00000000000E+00 -0.15455715251E+01  0.15455715251E+01  0.00000000000E+00 0.  1.
         23    2    1    2    0    0 -0.43067923646E+01  0.98581107116E+01  0.19040013432E+04  0.19061795000E+04  0.90462371473E+02 0.  0.
         11    1    3    3    0    0 -0.46214225492E+02  0.72932261272E+01  0.78710415327E+03  0.78849343300E+03  0.00000000000E+00 0.  1.
        -11    1    3    3    0    0  0.41907433128E+02  0.25648845844E+01  0.11168971899E+04  0.11176860670E+04  0.00000000000E+00 0. -1.
         22    1    1    2    0    0  0.43067923646E+01 -0.98581107116E+01  0.62923876600E+02  0.63836862811E+02  0.00000000000E+00 0.  1.
<mgrwt>
<rscale>  0 0.53403430E+02</rscale>
<asrwt>0</asrwt>
<pdfrwt beam="1">  1        2 0.30283965E+00 0.91099788E+02</pdfrwt>
<pdfrwt beam="2">  1       -2 0.23778181E-03 0.91099788E+02</pdfrwt>
<totfact> 0.11775129E+05</totfact>
</mgrwt>
</event>
<event>
 6    1  0.2852411E-002  0.1362564E+03  0.7546771E-02  0.1232780E+00
          2   -1    0    0  501    0  0.00000000000E+00  0.00000000000E+00  0.10642306422E+04  0.10642306422E+04  0.00000000000E+00 0. -1.
         -2   -1    0    0    0  501 -0.00000000000E+00 -0.00000000000E+00 -0.15214944801E+02  0.15214944801E+02  0.00000000000E+00 0.  1.
         23    2    1    2    0    0 -0.32516088923E+02 -0.95782067387E+02  0.78458721201E+03  0.79633090289E+03  0.91292459622E+02 0.  0.
         13    1    3    3    0    0  0.31954988574E+02 -0.32821488369E+02  0.29140585087E+03  0.29498430690E+03  0.00000000000E+00 0. -1.
        -13    1    3    3    0    0 -0.64471077497E+02 -0.62960579019E+02  0.49318136114E+03  0.50134659599E+03  0.00000000000E+00 0.  1.
         22    1    1    2    0    0  0.32516088923E+02  0.95782067387E+02  0.26442848539E+03  0.28311468411E+03  0.00000000000E+00 0.  1.
<mgrwt>
<rscale>  0 0.12647659E+03</rscale>
<asrwt>0</asrwt>
<pdfrwt beam="1">  1        2 0.16372773E+00 0.13625643E+03</pdfrwt>
<pdfrwt beam="2">  1       -2 0.23407616E-02 0.13625643E+03</pdfrwt>
<totfact> 0.14123299E+04</totfact>
</mgrwt>
</event>
<event>
 6    1  0.2852411E-002  0.8709862E+02  0.7546771E-02  0.1431091E+00
          2   -1    0    0  501    0  0.00000000000E+00  0.00000000000E+00  0.25485331486E+03  0.25485331486E+03  0.00000000000E+00 0. -1.
         -2   -1    0    0    0  501 -0.00000000000E+00 -0.00000000000E+00 -0.20483064284E+02  0.20483064284E+02  0.00000000000E+00 0.  1.
         23    2    1    2    0    0 -0.25463810038E+01  0.11430431118E+02  0.24468883093E+03  0.25972830712E+03  0.86307767448E+02 0.  0.
         13    1    3    3    0    0 -0.80000336172E+01 -0.37152052131E+02  0.11597817342E+03  0.12204594309E+03  0.00000000000E+00 0.  1.
        -13    1    3    3    0    0  0.54536526134E+01  0.48582483249E+02  0.12871065752E+03  0.13768236403E+03  0.00000000000E+00 0. -1.
         22    1    1    2    0    0  0.25463810038E+01 -0.11430431118E+02 -0.10318580359E+02  0.15608072026E+02  0.00000000000E+00 0.  1.
<mgrwt>
<rscale>  0 0.52741624E+02</rscale>
<asrwt>0</asrwt>
<pdfrwt beam="1">  1        2 0.39208200E-01 0.87098620E+02</pdfrwt>
<pdfrwt beam="2">  1       -2 0.31512408E-02 0.87098620E+02</pdfrwt>
<totfact> 0.44730077E+04</totfact>
</mgrwt>
</event>
<event>
 6    1  0.2852411E-002  0.9231414E+02  0.7546771E-02  0.1400597E+00
         -1   -1    0    0    0  501 -0.00000000000E+00  0.00000000000E+00  0.91195424975E+01  0.91195424975E+01  0.00000000000E+00 0.  1.
          1   -1    0    0  501    0  0.00000000000E+00 -0.00000000000E+00 -0.33781469135E+03  0.33781469135E+03  0.00000000000E+00 0. -1.
         23    2    1    2    0    0 -0.12794554867E+02  0.92145714941E+01 -0.30334533125E+03  0.31708088873E+03  0.90957633246E+02 0.  0.
         11    1    3    3    0    0 -0.24347212076E+02  0.27905641414E+02 -0.47198968528E+02  0.59993784584E+02  0.00000000000E+00 0.  1.
        -11    1    3    3    0    0  0.11552657209E+02 -0.18691069920E+02 -0.25614636272E+03  0.25708710415E+03  0.00000000000E+00 0. -1.
         22    1    1    2    0    0  0.12794554867E+02 -0.92145714941E+01 -0.25349817596E+02  0.29853345109E+02  0.00000000000E+00 0. -1.
<mgrwt>
<rscale>  0 0.59345905E+02</rscale>
<asrwt>0</asrwt>
<pdfrwt beam="1">  1        1 0.51971488E-01 0.92314138E+02</pdfrwt>
<pdfrwt beam="2">  1       -1 0.14030066E-02 0.92314138E+02</pdfrwt>
<totfact> 0.75227276E+04</totfact>
</mgrwt>
</event>
<event>
 6    1  0.2852411E-002  0.9149363E+02  0.7546771E-02  0.1393464E+00
         -2   -1    0    0    0  501 -0.00000000000E+00  0.00000000000E+00  0.14514799405E+01  0.14514799405E+01  0.00000000000E+00 0.  1.
          2   -1    0    0  501    0  0.00000000000E+00 -0.00000000000E+00 -0.32673147121E+04  0.32673147121E+04  0.00000000000E+00 0. -1.
         23    2    1    2    0    0 -0.43245426604E+01  0.17618003673E+02 -0.31624918608E+04  0.31638150790E+04  0.89677134345E+02 0.  0.
         13    1    3    3    0    0  0.42178383004E+02  0.11523111398E+02 -0.17442312558E+04  0.17447792043E+04  0.00000000000E+00 0.  1.
        -13    1    3    3    0    0 -0.46502925665E+02  0.60948922754E+01 -0.14182606050E+04  0.14190358746E+04  0.00000000000E+00 0. -1.
         22    1    1    2    0    0  0.43245426604E+01 -0.17618003673E+02 -0.10337137132E+03  0.10495111305E+03  0.00000000000E+00 0.  1.
<mgrwt>
<rscale>  0 0.61053198E+02</rscale>
<asrwt>0</asrwt>
<pdfrwt beam="1">  1        2 0.50266137E+00 0.91493629E+02</pdfrwt>
<pdfrwt beam="2">  1       -2 0.22330568E-03 0.91493629E+02</pdfrwt>
<totfact> 0.25580667E+04</totfact>
</mgrwt>
</event>
<event>
 6    1  0.2852411E-002  0.9205918E+02  0.7546771E-02  0.1412834E+00
          2   -1    0    0  501    0  0.00000000000E+00  0.00000000000E+00  0.36062978975E+03  0.36062978975E+03  0.00000000000E+00 0. -1.
         -2   -1    0    0    0  501 -0.00000000000E+00 -0.00000000000E+00 -0.10351117360E+02  0.10351117360E+02  0.00000000000E+00 0.  1.
         23    2    1    2    0    0 -0.10272874555E+02 -0.81655499207E+01  0.34459526474E+03  0.35668023301E+03  0.91119064889E+02 0.  0.
         13    1    3    3    0    0 -0.39418753563E+02  0.86324550736E+01  0.76572843853E+02  0.86554941100E+02  0.00000000000E+00 0. -1.
        -13    1    3    3    0    0  0.29145879008E+02 -0.16798004994E+02  0.26802242088E+03  0.27012529191E+03  0.00000000000E+00 0.  1.
         22    1    1    2    0    0  0.10272874555E+02  0.81655499207E+01  0.56834076567E+01  0.14300674100E+02  0.00000000000E+00 0.  1.
<mgrwt>
<rscale>  0 0.56566204E+02</rscale>
<asrwt>0</asrwt>
<pdfrwt beam="1">  1        2 0.55481496E-01 0.92059177E+02</pdfrwt>
<pdfrwt beam="2">  1       -2 0.15924799E-02 0.92059177E+02</pdfrwt>
<totfact> 0.83816156E+04</totfact>
</mgrwt>
</event>
<event>
 6    1  0.2852411E-002  0.9724766E+02  0.7546771E-02  0.1370769E+00
          2   -1    0    0  501    0  0.00000000000E+00  0.00000000000E+00  0.43179278345E+03  0.43179278345E+03  0.00000000000E+00 0. -1.
         -2   -1    0    0    0  501 -0.00000000000E+00 -0.00000000000E+00 -0.82764374235E+01  0.82764374235E+01  0.00000000000E+00 0.  1.
         23    2    1    2    0    0 -0.20304692619E+02  0.80726854937E+01  0.35978864940E+03  0.37269958297E+03  0.94761058027E+02 0.  0.
         11    1    3    3    0    0 -0.56446834815E+01  0.21018620729E+01  0.35647662037E+03  0.35652750405E+03  0.00000000000E+00 0. -1.
        -11    1    3    3    0    0 -0.14660009138E+02  0.59708234207E+01  0.33120290261E+01  0.16172078917E+02  0.00000000000E+00 0.  1.
         22    1    1    2    0    0  0.20304692619E+02 -0.80726854937E+01  0.63727696634E+02  0.67369637907E+02  0.00000000000E+00 0. -1.
<mgrwt>
<rscale>  0 0.66953797E+02</rscale>
<asrwt>0</asrwt>
<pdfrwt beam="1">  1        2 0.66429641E-01 0.97247658E+02</pdfrwt>
<pdfrwt beam="2">  1       -2 0.12732984E-02 0.97247658E+02</pdfrwt>
<totfact> 0.96120922E+04</totfact>
</mgrwt>
</event>
<event>
 6    1  0.2852411E-002  0.8828996E+02  0.7546771E-02  0.1417901E+00
         -2   -1    0    0    0  501 -0.00000000000E+00  0.00000000000E+00  0.36244766940E+02  0.36244766940E+02  0.00000000000E+00 0.  1.
          2   -1    0    0  501    0  0.00000000000E+00 -0.00000000000E+00 -0.72027011767E+02  0.72027011767E+02  0.00000000000E+00 0. -1.
         23    2    1    2    0    0 -0.10717030805E+02  0.86201676666E+01 -0.28953554045E+02  0.92916224087E+02  0.87212122821E+02 0.  0.
         13    1    3    3    0    0 -0.26401016982E+02 -0.23817755551E+02 -0.41604886127E+02  0.54729020883E+02  0.00000000000E+00 0. -1.
        -13    1    3    3    0    0  0.15683986176E+02  0.32437923218E+02  0.12651332082E+02  0.38187203204E+02  0.00000000000E+00 0.  1.
         22    1    1    2    0    0  0.10717030805E+02 -0.86201676666E+01 -0.68286907827E+01  0.15355554620E+02  0.00000000000E+00 0.  1.
<mgrwt>
<rscale>  0 0.55467389E+02</rscale>
<asrwt>0</asrwt>
<pdfrwt beam="1">  1        2 0.11081079E-01 0.88289956E+02</pdfrwt>
<pdfrwt beam="2">  1       -2 0.55761180E-02 0.88289956E+02</pdfrwt>
<totfact> 0.79069315E+04</totfact>
</mgrwt>
</event>
<event>
 6    1  0.2852411E-002  0.1005972E+03  0.7546771E-02  0.1325758E+00
         -2   -1    0    0    0  501 -0.00000000000E+00  0.00000000000E+00  0.14796887383E+03  0.14796887383E+03  0.00000000000E+00 0.  1.
          2   -1    0    0  501    0  0.00000000000E+00 -0.00000000000E+00 -0.38173755496E+02  0.38173755496E+02  0.00000000000E+00 0. -1.
         23    2    1    2    0    0  0.30495516780E+02  0.29809507455E+02  0.10109703199E+03  0.14261976195E+03  0.91110939760E+02 0.  0.
         13    1    3    3    0    0 -0.10784651910E+02  0.46891036492E+02  0.24615427723E+02  0.54046251508E+02  0.00000000000E+00 0. -1.
        -13    1    3    3    0    0  0.41280168690E+02 -0.17081529037E+02  0.76481604266E+02  0.88573510444E+02  0.00000000000E+00 0.  1.
         22    1    1    2    0    0 -0.30495516780E+02 -0.29809507455E+02  0.86980863447E+01  0.43522867374E+02  0.00000000000E+00 0.  1.
<mgrwt>
<rscale>  0 0.81171937E+02</rscale>
<asrwt>0</asrwt>
<pdfrwt beam="1">  1        2 0.58728855E-02 0.10059715E+03</pdfrwt>
<pdfrwt beam="2">  1       -2 0.22764442E-01 0.10059715E+03</pdfrwt>
<totfact> 0.19077279E+04</totfact>
</mgrwt>
</event>
<event>
 6    1  0.2852411E-002  0.1008166E+03  0.7546771E-02  0.1345226E+00
          2   -1    0    0  501    0  0.00000000000E+00  0.00000000000E+00  0.74339020674E+03  0.74339020674E+03  0.00000000000E+00 0.  1.
         -2   -1    0    0    0  501 -0.00000000000E+00 -0.00000000000E+00 -0.64504582410E+01  0.64504582410E+01  0.00000000000E+00 0. -1.
         23    2    1    2    0    0  0.20600243498E+02  0.22037474729E+02  0.65099916205E+03  0.65875935667E+03  0.96197508725E+02 0.  0.
         11    1    3    3    0    0  0.30287556812E+02  0.12991236460E+02  0.64175289505E+03  0.64259854235E+03  0.00000000000E+00 0.  1.
        -11    1    3    3    0    0 -0.96873133136E+01  0.90462382691E+01  0.92462669970E+01  0.16160814319E+02  0.00000000000E+00 0. -1.
         22    1    1    2    0    0 -0.20600243498E+02 -0.22037474729E+02  0.85940586452E+02  0.91081308315E+02  0.00000000000E+00 0. -1.
<mgrwt>
<rscale>  0 0.74564194E+02</rscale>
<asrwt>0</asrwt>
<pdfrwt beam="1">  1        2 0.11436766E+00 0.10081657E+03</pdfrwt>
<pdfrwt beam="2">  1       -2 0.99237878E-03 0.10081657E+03</pdfrwt>
<totfact> 0.75087397E+04</totfact>
</mgrwt>
</event>
<event>
 6    1  0.2852411E-002  0.9580953E+02  0.7546771E-02  0.1363043E+00
          2   -1    0    0  501    0  0.00000000000E+00  0.00000000000E+00  0.69609224059E+03  0.69609224059E+03  0.00000000000E+00 0. -1.
         -2   -1    0    0    0  501 -0.00000000000E+00 -0.00000000000E+00 -0.55607440472E+01  0.55607440472E+01  0.00000000000E+00 0.  1.
         23    2    1    2    0    0 -0.17303672666E+02 -0.19382680216E+02  0.59439550388E+03  0.60206767214E+03  0.92219094673E+02 0.  0.
         13    1    3    3    0    0 -0.19908328784E+02 -0.22585939723E+02  0.55368784655E+02  0.63025142144E+02  0.00000000000E+00 0.  1.
        -13    1    3    3    0    0  0.26046561172E+01  0.32032595070E+01  0.53902671922E+03  0.53904252999E+03  0.00000000000E+00 0. -1.
         22    1    1    2    0    0  0.17303672666E+02  0.19382680216E+02  0.96135992669E+02  0.99585312504E+02  0.00000000000E+00 0.  1.
<mgrwt>
<rscale>  0 0.69139780E+02</rscale>
<asrwt>0</asrwt>
<pdfrwt beam="1">  1        2 0.10709104E+00 0.95809534E+02</pdfrwt>
<pdfrwt beam="2">  1       -2 0.85549964E-03 0.95809534E+02</pdfrwt>
<totfact> 0.99474924E+04</totfact>
</mgrwt>
</event>
<event>
 6    1  0.2852411E-002  0.9162444E+02  0.7546771E-02  0.1419775E+00
         -2   -1    0    0    0  501 -0.00000000000E+00  0.00000000000E+00  0.59709161108E+02  0.59709161108E+02  0.00000000000E+00 0.  1.
          2   -1    0    0  501    0  0.00000000000E+00 -0.00000000000E+00 -0.49145133949E+02  0.49145133949E+02  0.00000000000E+00 0. -1.
         23    2    1    2    0    0 -0.41183129155E+01  0.11224106467E+02 -0.18176447826E+01  0.91642471582E+02  0.90841057336E+02 0.  0.
         11    1    3    3    0    0 -0.20094245324E+01 -0.47353268882E+01  0.43369463471E+02  0.43673464134E+02  0.00000000000E+00 0.  1.
        -11    1    3    3    0    0 -0.21088883831E+01  0.15959433355E+02 -0.45187108254E+02  0.47969007448E+02  0.00000000000E+00 0. -1.
         22    1    1    2    0    0  0.41183129155E+01 -0.11224106467E+02  0.12381671942E+02  0.17211823475E+02  0.00000000000E+00 0.  1.
<mgrwt>
<rscale>  0 0.55068487E+02</rscale>
<asrwt>0</asrwt>
<pdfrwt beam="1">  1        2 0.75607899E-02 0.91624444E+02</pdfrwt>
<pdfrwt beam="2">  1       -2 0.91860248E-02 0.91624444E+02</pdfrwt>
<totfact> 0.59498212E+04</totfact>
</mgrwt>
</event>
<event>
 6    1  0.2852411E-002  0.9055681E+02  0.7546771E-02  0.1406799E+00
         -2   -1    0    0    0  501 -0.00000000000E+00  0.00000000000E+00  0.66196846182E+01  0.66196846182E+01  0.00000000000E+00 0.  1.
          2   -1    0    0  501    0  0.00000000000E+00 -0.00000000000E+00 -0.44970655472E+03  0.44970655472E+03  0.00000000000E+00 0. -1.
         23    2    1    2    0    0 -0.56731186561E+01 -0.14046542242E+02 -0.41079027069E+03  0.42065328099E+03  0.89280718434E+02 0.  0.
         13    1    3    3    0    0  0.25785389471E+02 -0.35981303747E+02 -0.30357444085E+03  0.30678491108E+03  0.00000000000E+00 0. -1.
        -13    1    3    3    0    0 -0.31458508127E+02  0.21934761505E+02 -0.10721582984E+03  0.11386836990E+03  0.00000000000E+00 0.  1.
         22    1    1    2    0    0  0.56731186561E+01  0.14046542242E+02 -0.32296599412E+02  0.35672958355E+02  0.00000000000E+00 0.  1.
<mgrwt>
<rscale>  0 0.57914356E+02</rscale>
<asrwt>0</asrwt>
<pdfrwt beam="1">  1        2 0.69185618E-01 0.90556813E+02</pdfrwt>
<pdfrwt beam="2">  1       -2 0.10184131E-02 0.90556813E+02</pdfrwt>
<totfact> 0.12510036E+05</totfact>
</mgrwt>
</event>
<event>
 6    1  0.2852411E-002  0.9822203E+02  0.7546771E-02  0.1375279E+00
         -1   -1    0    0    0  501 -0.00000000000E+00  0.00000000000E+00  0.14141498338E+03  0.14141498338E+03  0.00000000000E+00 0.  1.
          1   -1    0    0  501    0  0.00000000000E+00 -0.00000000000E+00 -0.24579569970E+02  0.24579569970E+02  0.00000000000E+00 0. -1.
         23    2    1    2    0    0  0.17613893297E+02  0.87950034415E+01  0.96800000728E+02  0.13790506984E+03  0.96228721406E+02 0.  0.
         13    1    3    3    0    0 -0.10375980121E+01  0.14748499923E+02 -0.16944405912E+02  0.22487946801E+02  0.00000000000E+00 0. -1.
        -13    1    3    3    0    0  0.18651491309E+02 -0.59534964815E+01  0.11374440664E+03  0.11541712304E+03  0.00000000000E+00 0.  1.
         22    1    1    2    0    0 -0.17613893297E+02 -0.87950034415E+01  0.20035412679E+02  0.28089483510E+02  0.00000000000E+00 0.  1.
<mgrwt>
<rscale>  0 0.65721104E+02</rscale>
<asrwt>0</asrwt>
<pdfrwt beam="1">  1        1 0.37814724E-02 0.98222035E+02</pdfrwt>
<pdfrwt beam="2">  1       -1 0.21756151E-01 0.98222035E+02</pdfrwt>
<totfact> 0.37856677E+04</totfact>
</mgrwt>
</event>
<event>
 6    1  0.2852411E-002  0.9300369E+02  0.7546771E-02  0.1413178E+00
          3   -1    0    0  501    0  0.00000000000E+00  0.00000000000E+00  0.10830450250E+04  0.10830450250E+04  0.00000000000E+00 0. -1.
         -3   -1    0    0    0  501 -0.00000000000E+00 -0.00000000000E+00 -0.33458530055E+01  0.33458530055E+01  0.00000000000E+00 0.  1.
         23    2    1    2    0    0  0.85507683436E+01 -0.93348976059E+01  0.10499395782E+04  0.10540506650E+04  0.92138106221E+02 0.  0.
         13    1    3    3    0    0 -0.24507486818E+02 -0.15205777875E+02  0.89723732369E+03  0.89770075616E+03  0.00000000000E+00 0. -1.
        -13    1    3    3    0    0  0.33058255161E+02  0.58708802688E+01  0.15270225452E+03  0.15634990887E+03  0.00000000000E+00 0.  1.
         22    1    1    2    0    0 -0.85507683436E+01  0.93348976059E+01  0.29759593759E+02  0.32340212944E+02  0.00000000000E+00 0.  1.
<mgrwt>
<rscale>  0 0.56490694E+02</rscale>
<asrwt>0</asrwt>
<pdfrwt beam="1">  1        3 0.16662203E+00 0.93003691E+02</pdfrwt>
<pdfrwt beam="2">  1       -3 0.51474748E-03 0.93003691E+02</pdfrwt>
<totfact> 0.41172798E+03</totfact>
</mgrwt>
</event>
<event>
 6    1  0.2852411E-002  0.9205453E+02  0.7546771E-02  0.1415588E+00
         -2   -1    0    0    0  501 -0.00000000000E+00  0.00000000000E+00  0.18773722329E+02  0.18773722329E+02  0.00000000000E+00 0.  1.
          2   -1    0    0  501    0  0.00000000000E+00 -0.00000000000E+00 -0.15220936303E+03  0.15220936303E+03  0.00000000000E+00 0. -1.
         23    2    1    2    0    0 -0.50997202758E+01  0.11495552258E+02 -0.12700712814E+03  0.15685932374E+03  0.91191457801E+02 0.  0.
         13    1    3    3    0    0  0.86472438515E-01  0.26639399803E+02  0.21386956285E+01  0.26725252447E+02  0.00000000000E+00 0.  1.
        -13    1    3    3    0    0 -0.51861927143E+01 -0.15143847545E+02 -0.12914582377E+03  0.13013407129E+03  0.00000000000E+00 0. -1.
         22    1    1    2    0    0  0.50997202758E+01 -0.11495552258E+02 -0.64285125591E+01  0.14123761621E+02  0.00000000000E+00 0.  1.
<mgrwt>
<rscale>  0 0.55965347E+02</rscale>
<asrwt>0</asrwt>
<pdfrwt beam="1">  1        2 0.23416824E-01 0.92054532E+02</pdfrwt>
<pdfrwt beam="2">  1       -2 0.28882651E-02 0.92054532E+02</pdfrwt>
<totfact> 0.88817423E+04</totfact>
</mgrwt>
</event>
<event>
 6    1  0.2852411E-002  0.1009575E+03  0.7546771E-02  0.1336157E+00
         -2   -1    0    0    0  501 -0.00000000000E+00  0.00000000000E+00  0.37018582739E+02  0.37018582739E+02  0.00000000000E+00 0.  1.
          2   -1    0    0  501    0  0.00000000000E+00 -0.00000000000E+00 -0.14693349076E+03  0.14693349076E+03  0.00000000000E+00 0. -1.
         23    2    1    2    0    0 -0.23226017627E+02 -0.26376995709E+02 -0.10931373953E+03  0.14880160834E+03  0.94642649996E+02 0.  0.
         13    1    3    3    0    0 -0.11701138767E+01 -0.43215527017E+02 -0.82679059509E+01  0.44014874879E+02  0.00000000000E+00 0.  1.
        -13    1    3    3    0    0 -0.22055903751E+02  0.16838531307E+02 -0.10104583357E+03  0.10478673346E+03  0.00000000000E+00 0. -1.
         22    1    1    2    0    0  0.23226017627E+02  0.26376995709E+02 -0.60116849906E+00  0.35150465161E+02  0.00000000000E+00 0.  1.
<mgrwt>
<rscale>  0 0.77548064E+02</rscale>
<asrwt>0</asrwt>
<pdfrwt beam="1">  1        2 0.22605152E-01 0.10095754E+03</pdfrwt>
<pdfrwt beam="2">  1       -2 0.56951666E-02 0.10095754E+03</pdfrwt>
<totfact> 0.34354392E+04</totfact>
</mgrwt>
</event>
<event>
 6    1  0.2852411E-002  0.9390669E+02  0.7546771E-02  0.1378751E+00
         -2   -1    0    0    0  501 -0.00000000000E+00  0.00000000000E+00  0.11252627852E+03  0.11252627852E+03  0.00000000000E+00 0.  1.
          2   -1    0    0  501    0  0.00000000000E+00 -0.00000000000E+00 -0.29663494835E+02  0.29663494835E+02  0.00000000000E+00 0. -1.
         23    2    1    2    0    0 -0.81909791471E+01 -0.19643634896E+02  0.63029404144E+02  0.11309806534E+03  0.91463118607E+02 0.  0.
         13    1    3    3    0    0  0.14940488116E+02  0.14361990108E+02 -0.14529226818E+02  0.25309748654E+02  0.00000000000E+00 0. -1.
        -13    1    3    3    0    0 -0.23131467263E+02 -0.34005625004E+02  0.77558630962E+02  0.87788316685E+02  0.00000000000E+00 0.  1.
         22    1    1    2    0    0  0.81909791471E+01  0.19643634896E+02  0.19833379544E+02  0.29091708019E+02  0.00000000000E+00 0. -1.
<mgrwt>
<rscale>  0 0.64793349E+02</rscale>
<asrwt>0</asrwt>
<pdfrwt beam="1">  1        2 0.45636146E-02 0.93906691E+02</pdfrwt>
<pdfrwt beam="2">  1       -2 0.17311735E-01 0.93906691E+02</pdfrwt>
<totfact> 0.41440871E+04</totfact>
</mgrwt>
</event>
<event>
 6    1  0.2852411E-002  0.9285969E+02  0.7546771E-02  0.1409706E+00
         -2   -1    0    0    0  501 -0.00000000000E+00  0.00000000000E+00  0.26410282303E+01  0.26410282303E+01  0.00000000000E+00 0. -1.
          2   -1    0    0  501    0  0.00000000000E+00 -0.00000000000E+00 -0.12191689670E+04  0.12191689670E+04  0.00000000000E+00 0.  1.
         23    2    1    2    0    0  0.13316878489E+02  0.16995782379E+01 -0.11599552728E+04  0.11636662565E+04  0.91884132435E+02 0.  0.
         11    1    3    3    0    0 -0.17492605510E+02  0.34916243183E+02 -0.78715415180E+03  0.78812232172E+03  0.00000000000E+00 0. -1.
        -11    1    3    3    0    0  0.30809483999E+02 -0.33216664945E+02 -0.37280112103E+03  0.37554393482E+03  0.00000000000E+00 0.  1.
         22    1    1    2    0    0 -0.13316878489E+02 -0.16995782379E+01 -0.56572665922E+02  0.58143738687E+02  0.00000000000E+00 0. -1.
<mgrwt>
<rscale>  0 0.57259578E+02</rscale>
<asrwt>0</asrwt>
<pdfrwt beam="1">  1        2 0.18756472E+00 0.92859688E+02</pdfrwt>
<pdfrwt beam="2">  1       -2 0.40631147E-03 0.92859688E+02</pdfrwt>
<totfact> 0.13515648E+05</totfact>
</mgrwt>
</event>
<event>
 6    1  0.2852411E-002  0.9547684E+02  0.7546771E-02  0.1419347E+00
          1   -1    0    0  501    0  0.00000000000E+00  0.00000000000E+00  0.71068250723E+02  0.71068250723E+02  0.00000000000E+00 0. -1.
         -1   -1    0    0    0  501 -0.00000000000E+00 -0.00000000000E+00 -0.39830268813E+02  0.39830268813E+02  0.00000000000E+00 0.  1.
         23    2    1    2    0    0  0.43108079620E+01  0.97232942192E+01  0.25546770918E+02  0.98835543191E+02  0.94882567302E+02 0.  0.
         11    1    3    3    0    0  0.22489539653E+02 -0.13997950684E+02 -0.27352845496E+02  0.38077554726E+02  0.00000000000E+00 0.  1.
        -11    1    3    3    0    0 -0.18178731691E+02  0.23721244903E+02  0.52899616413E+02  0.60757988465E+02  0.00000000000E+00 0. -1.
         22    1    1    2    0    0 -0.43108079620E+01 -0.97232942192E+01  0.56912109921E+01  0.12062976346E+02  0.00000000000E+00 0. -1.
<mgrwt>
<rscale>  0 0.55159282E+02</rscale>
<asrwt>0</asrwt>
<pdfrwt beam="1">  1        1 0.10933577E-01 0.95476841E+02</pdfrwt>
<pdfrwt beam="2">  1       -1 0.61277337E-02 0.95476841E+02</pdfrwt>
<totfact> 0.63290698E+04</totfact>
</mgrwt>
</event>
<event>
 6    1  0.2852411E-002  0.1032727E+03  0.7546771E-02  0.1308402E+00
          2   -1    0    0  501    0  0.00000000000E+00  0.00000000000E+00  0.45754444170E+03  0.45754444170E+03  0.00000000000E+00 0. -1.
         -2   -1    0    0    0  501 -0.00000000000E+00 -0.00000000000E+00 -0.23542637908E+02  0.23542637908E+02  0.00000000000E+00 0.  1.
         23    2    1    2    0    0  0.30650492476E+02 -0.44243303350E+02  0.40882411877E+03  0.42166622129E+03  0.88138070704E+02 0.  0.
         11    1    3    3    0    0  0.21069514818E+02 -0.15379741807E+02  0.37605717443E+03  0.37696081939E+03  0.00000000000E+00 0. -1.
        -11    1    3    3    0    0  0.95809776577E+01 -0.28863561543E+02  0.32766944342E+02  0.44705401903E+02  0.00000000000E+00 0.  1.
         22    1    1    2    0    0 -0.30650492476E+02  0.44243303350E+02  0.25177685020E+02  0.59420858318E+02  0.00000000000E+00 0.  1.
<mgrwt>
<rscale>  0 0.87746768E+02</rscale>
<asrwt>0</asrwt>
<pdfrwt beam="1">  1        2 0.70391446E-01 0.10327266E+03</pdfrwt>
<pdfrwt beam="2">  1       -2 0.36219446E-02 0.10327266E+03</pdfrwt>
<totfact> 0.20107172E+04</totfact>
</mgrwt>
</event>
<event>
 6    1  0.2852411E-002  0.9591553E+02  0.7546771E-02  0.1339724E+00
         -4   -1    0    0    0  501 -0.00000000000E+00  0.00000000000E+00  0.28799043935E+02  0.28799043935E+02  0.00000000000E+00 0. -1.
          4   -1    0    0  501    0  0.00000000000E+00 -0.00000000000E+00 -0.16525990338E+03  0.16525990338E+03  0.00000000000E+00 0.  1.
         23    2    1    2    0    0  0.36159470010E+02 -0.13279625149E+02 -0.11574195292E+03  0.15031961944E+03  0.87840381414E+02 0.  0.
         11    1    3    3    0    0  0.50938354662E+02  0.32224408131E+01 -0.24852031171E+02  0.56769036928E+02  0.00000000000E+00 0. -1.
        -11    1    3    3    0    0 -0.14778884652E+02 -0.16502065962E+02 -0.90889921749E+02  0.93550582511E+02  0.00000000000E+00 0.  1.
         22    1    1    2    0    0 -0.36159470010E+02  0.13279625149E+02 -0.20718906524E+02  0.43739327876E+02  0.00000000000E+00 0. -1.
<mgrwt>
<rscale>  0 0.76355557E+02</rscale>
<asrwt>0</asrwt>
<pdfrwt beam="1">  1        4 0.25424601E-01 0.95915527E+02</pdfrwt>
<pdfrwt beam="2">  1       -4 0.44306221E-02 0.95915527E+02</pdfrwt>
<totfact> 0.62645300E+03</totfact>
</mgrwt>
</event>
<event>
 6    1  0.2852411E-002  0.9247857E+02  0.7546771E-02  0.1406670E+00
         -2   -1    0    0    0  501 -0.00000000000E+00  0.00000000000E+00  0.11312519042E+03  0.11312519042E+03  0.00000000000E+00 0.  1.
          2   -1    0    0  501    0  0.00000000000E+00 -0.00000000000E+00 -0.25191545161E+02  0.25191545161E+02  0.00000000000E+00 0. -1.
         23    2    1    2    0    0 -0.13938205294E+02 -0.29774745305E+01  0.74951510909E+02  0.11903786804E+03  0.91373662063E+02 0.  0.
         11    1    3    3    0    0  0.89578237259E+00 -0.46027209800E+02  0.29353519892E+02  0.54597944999E+02  0.00000000000E+00 0. -1.
        -11    1    3    3    0    0 -0.14833987666E+02  0.43049735270E+02  0.45597991017E+02  0.64439923042E+02  0.00000000000E+00 0.  1.
         22    1    1    2    0    0  0.13938205294E+02  0.29774745305E+01  0.12982134354E+02  0.19278867544E+02  0.00000000000E+00 0.  1.
<mgrwt>
<rscale>  0 0.57943531E+02</rscale>
<asrwt>0</asrwt>
<pdfrwt beam="1">  1        2 0.38756224E-02 0.92478565E+02</pdfrwt>
<pdfrwt beam="2">  1       -2 0.17403875E-01 0.92478565E+02</pdfrwt>
<totfact> 0.50737371E+04</totfact>
</mgrwt>
</event>
<event>
 6    1  0.2852411E-002  0.9498917E+02  0.7546771E-02  0.1350147E+00
          2   -1    0    0  501    0  0.00000000000E+00  0.00000000000E+00  0.27467817619E+04  0.27467817619E+04  0.00000000000E+00 0.  1.
         -2   -1    0    0    0  501 -0.00000000000E+00 -0.00000000000E+00 -0.27712115506E+01  0.27712115506E+01  0.00000000000E+00 0. -1.
         23    2    1    2    0    0  0.52998112581E+00  0.33147482256E+02  0.26016434419E+04  0.26033769493E+04  0.89016319050E+02 0.  0.
         13    1    3    3    0    0  0.31698419092E+02  0.45176243731E+02  0.20359383202E+04  0.20366861629E+04  0.00000000000E+00 0.  1.
        -13    1    3    3    0    0 -0.31168437967E+02 -0.12028761476E+02  0.56570512173E+03  0.56669078639E+03  0.00000000000E+00 0. -1.
         22    1    1    2    0    0 -0.52998112581E+00 -0.33147482256E+02  0.14236710847E+03  0.14617602414E+03  0.00000000000E+00 0. -1.
<mgrwt>
<rscale>  0 0.73009953E+02</rscale>
<asrwt>0</asrwt>
<pdfrwt beam="1">  1        2 0.42257963E+00 0.94989165E+02</pdfrwt>
<pdfrwt beam="2">  1       -2 0.42634244E-03 0.94989165E+02</pdfrwt>
<totfact> 0.20644410E+04</totfact>
</mgrwt>
</event>
<event>
 6    1  0.2852411E-002  0.8945624E+02  0.7546771E-02  0.1413339E+00
          1   -1    0    0  501    0  0.00000000000E+00  0.00000000000E+00  0.75367504544E+02  0.75367504544E+02  0.00000000000E+00 0. -1.
         -1   -1    0    0    0  501 -0.00000000000E+00 -0.00000000000E+00 -0.48307448273E+02  0.48307448273E+02  0.00000000000E+00 0.  1.
         23    2    1    2    0    0 -0.10119300098E+02  0.99478726888E+01  0.45535652387E+02  0.10037885749E+03  0.88323603797E+02 0.  0.
         11    1    3    3    0    0 -0.39737264457E+02  0.11380641767E+02  0.55406646486E+02  0.69126446954E+02  0.00000000000E+00 0. -1.
        -11    1    3    3    0    0  0.29617964359E+02 -0.14327690784E+01 -0.98709940988E+01  0.31252410539E+02  0.00000000000E+00 0.  1.
         22    1    1    2    0    0  0.10119300098E+02 -0.99478726888E+01 -0.18475596117E+02  0.23296095325E+02  0.00000000000E+00 0.  1.
<mgrwt>
<rscale>  0 0.56455304E+02</rscale>
<asrwt>0</asrwt>
<pdfrwt beam="1">  1        1 0.11595001E-01 0.89456243E+02</pdfrwt>
<pdfrwt beam="2">  1       -1 0.74319151E-02 0.89456243E+02</pdfrwt>
<totfact> 0.43652194E+04</totfact>
</mgrwt>
</event>
<event>
 6    1  0.2852411E-002  0.9723953E+02  0.7546771E-02  0.1340868E+00
          3   -1    0    0  501    0  0.00000000000E+00  0.00000000000E+00  0.24687395346E+03  0.24687395346E+03  0.00000000000E+00 0. -1.
         -3   -1    0    0    0  501 -0.00000000000E+00 -0.00000000000E+00 -0.27298299546E+02  0.27298299546E+02  0.00000000000E+00 0.  1.
         23    2    1    2    0    0 -0.36239412755E+02 -0.53817030439E+00  0.21705520813E+03  0.23784131149E+03  0.90232707008E+02 0.  0.
         13    1    3    3    0    0 -0.23768804092E+02 -0.15954292364E+02  0.10739620415E+02  0.30575070555E+02  0.00000000000E+00 0.  1.
        -13    1    3    3    0    0 -0.12470608663E+02  0.15416122059E+02  0.20631558771E+03  0.20726624094E+03  0.00000000000E+00 0. -1.
         22    1    1    2    0    0  0.36239412755E+02  0.53817030439E+00  0.25204457852E+01  0.36330941511E+02  0.00000000000E+00 0.  1.
<mgrwt>
<rscale>  0 0.75978269E+02</rscale>
<asrwt>0</asrwt>
<pdfrwt beam="1">  1        3 0.37980607E-01 0.97239529E+02</pdfrwt>
<pdfrwt beam="2">  1       -3 0.41997386E-02 0.97239529E+02</pdfrwt>
<totfact> 0.43936427E+03</totfact>
</mgrwt>
</event>
<event>
 6    1  0.2852411E-002  0.9303492E+02  0.7546771E-02  0.1374567E+00
         -2   -1    0    0    0  501 -0.00000000000E+00  0.00000000000E+00  0.33056147192E+03  0.33056147192E+03  0.00000000000E+00 0.  1.
          2   -1    0    0  501    0  0.00000000000E+00 -0.00000000000E+00 -0.12371258507E+02  0.12371258507E+02  0.00000000000E+00 0. -1.
         23    2    1    2    0    0 -0.59082412167E+01 -0.22683471185E+02  0.17850703648E+03  0.20129644589E+03  0.90033604149E+02 0.  0.
         11    1    3    3    0    0  0.24958418430E+02  0.23606839154E+02  0.94357750055E+02  0.10041708271E+03  0.00000000000E+00 0. -1.
        -11    1    3    3    0    0 -0.30866659647E+02 -0.46290310339E+02  0.84149286427E+02  0.10087936318E+03  0.00000000000E+00 0.  1.
         22    1    1    2    0    0  0.59082412167E+01  0.22683471185E+02  0.13968317693E+03  0.14163628453E+03  0.00000000000E+00 0. -1.
<mgrwt>
<rscale>  0 0.65913633E+02</rscale>
<asrwt>0</asrwt>
<pdfrwt beam="1">  1        2 0.19032708E-02 0.93034924E+02</pdfrwt>
<pdfrwt beam="2">  1       -2 0.50855604E-01 0.93034924E+02</pdfrwt>
<totfact> 0.19234722E+04</totfact>
</mgrwt>
</event>
<event>
 6    1  0.2852411E-002  0.9354228E+02  0.7546771E-02  0.1391624E+00
         -1   -1    0    0    0  501 -0.00000000000E+00  0.00000000000E+00  0.54651002106E+02  0.54651002106E+02  0.00000000000E+00 0.  1.
          1   -1    0    0  501    0  0.00000000000E+00 -0.00000000000E+00 -0.62348149622E+02  0.62348149622E+02  0.00000000000E+00 0. -1.
         23    2    1    2    0    0 -0.40463511265E+01 -0.17007780274E+02 -0.19955581137E+02  0.95647178935E+02  0.91894069843E+02 0.  0.
         11    1    3    3    0    0  0.99422426943E+01 -0.44784663268E+02  0.15557394737E+02  0.48441168285E+02  0.00000000000E+00 0.  1.
        -11    1    3    3    0    0 -0.13988593821E+02  0.27776882995E+02 -0.35512975874E+02  0.47206010649E+02  0.00000000000E+00 0. -1.
         22    1    1    2    0    0  0.40463511265E+01  0.17007780274E+02  0.12258433622E+02  0.21351972793E+02  0.00000000000E+00 0.  1.
<mgrwt>
<rscale>  0 0.61504486E+02</rscale>
<asrwt>0</asrwt>
<pdfrwt beam="1">  1        1 0.95920230E-02 0.93542277E+02</pdfrwt>
<pdfrwt beam="2">  1       -1 0.84078465E-02 0.93542277E+02</pdfrwt>
<totfact> 0.46807050E+04</totfact>
</mgrwt>
</event>
<event>
 6    1  0.2852411E-002  0.9323592E+02  0.7546771E-02  0.1395987E+00
          2   -1    0    0  501    0  0.00000000000E+00  0.00000000000E+00  0.14109775460E+03  0.14109775460E+03  0.00000000000E+00 0. -1.
         -2   -1    0    0    0  501 -0.00000000000E+00 -0.00000000000E+00 -0.21332710817E+02  0.21332710817E+02  0.00000000000E+00 0.  1.
         23    2    1    2    0    0 -0.41545346613E+00 -0.16461141286E+02  0.10054108439E+03  0.13711836576E+03  0.91770337288E+02 0.  0.
         11    1    3    3    0    0 -0.17166975425E+01 -0.26762787036E+02  0.11568713289E+03  0.11875481690E+03  0.00000000000E+00 0. -1.
        -11    1    3    3    0    0  0.13012440764E+01  0.10301645751E+02 -0.15146048508E+02  0.18363548860E+02  0.00000000000E+00 0.  1.
         22    1    1    2    0    0  0.41545346613E+00  0.16461141286E+02  0.19223959402E+02  0.25312099658E+02  0.00000000000E+00 0. -1.
<mgrwt>
<rscale>  0 0.60441745E+02</rscale>
<asrwt>0</asrwt>
<pdfrwt beam="1">  1        2 0.21707346E-01 0.93235919E+02</pdfrwt>
<pdfrwt beam="2">  1       -2 0.32819556E-02 0.93235919E+02</pdfrwt>
<totfact> 0.80312778E+04</totfact>
</mgrwt>
</event>
<event>
 6    1  0.2852411E-002  0.1094622E+03  0.7546771E-02  0.1293289E+00
         -2   -1    0    0    0  501 -0.00000000000E+00  0.00000000000E+00  0.49608708904E+02  0.49608708904E+02  0.00000000000E+00 0. -1.
          2   -1    0    0  501    0  0.00000000000E+00 -0.00000000000E+00 -0.54105957467E+03  0.54105957467E+03  0.00000000000E+00 0.  1.
         23    2    1    2    0    0 -0.58507010377E+02 -0.11878464536E+02 -0.51498994204E+03  0.52649464183E+03  0.91748565621E+02 0.  0.
         13    1    3    3    0    0  0.17169652198E+02 -0.39530366757E+01 -0.25475909704E+03  0.25536761929E+03  0.00000000000E+00 0.  1.
        -13    1    3    3    0    0 -0.75676662575E+02 -0.79254278607E+01 -0.26023084500E+03  0.27112702254E+03  0.00000000000E+00 0. -1.
         22    1    1    2    0    0  0.58507010377E+02  0.11878464536E+02  0.23539076271E+02  0.64173641744E+02  0.00000000000E+00 0. -1.
<mgrwt>
<rscale>  0 0.94068198E+02</rscale>
<asrwt>0</asrwt>
<pdfrwt beam="1">  1        2 0.83239930E-01 0.10946217E+03</pdfrwt>
<pdfrwt beam="2">  1       -2 0.76321095E-02 0.10946217E+03</pdfrwt>
<totfact> 0.55143135E+03</totfact>
</mgrwt>
</event>
<event>
 6    1  0.2852411E-002  0.9328484E+02  0.7546771E-02  0.1388754E+00
          1   -1    0    0  501    0  0.00000000000E+00  0.00000000000E+00  0.73253237243E+01  0.73253237243E+01  0.00000000000E+00 0. -1.
         -1   -1    0    0    0  501 -0.00000000000E+00 -0.00000000000E+00 -0.43027079397E+03  0.43027079397E+03  0.00000000000E+00 0.  1.
         23    2    1    2    0    0 -0.11466955270E+02 -0.14466151823E+02 -0.33576314845E+03  0.34848092345E+03  0.91440152772E+02 0.  0.
         13    1    3    3    0    0  0.64546980383E+01 -0.21618224593E+01  0.40846334796E+01  0.79385662291E+01  0.00000000000E+00 0. -1.
        -13    1    3    3    0    0 -0.17921653308E+02 -0.12304329364E+02 -0.33984778193E+03  0.34054235722E+03  0.00000000000E+00 0.  1.
         22    1    1    2    0    0  0.11466955270E+02  0.14466151823E+02 -0.87182321800E+02  0.89115194250E+02  0.00000000000E+00 0.  1.
<mgrwt>
<rscale>  0 0.62217777E+02</rscale>
<asrwt>0</asrwt>
<pdfrwt beam="1">  1        1 0.11269730E-02 0.93284844E+02</pdfrwt>
<pdfrwt beam="2">  1       -1 0.66195500E-01 0.93284844E+02</pdfrwt>
<totfact> 0.28892753E+04</totfact>
</mgrwt>
</event>
<event>
 6    1  0.2852411E-002  0.9114529E+02  0.7546771E-02  0.1428717E+00
         -1   -1    0    0    0  501 -0.00000000000E+00  0.00000000000E+00  0.14452253668E+02  0.14452253668E+02  0.00000000000E+00 0.  1.
          1   -1    0    0  501    0  0.00000000000E+00 -0.00000000000E+00 -0.17930203948E+03  0.17930203948E+03  0.00000000000E+00 0. -1.
         23    2    1    2    0    0 -0.13695638313E+01 -0.10504721649E+02 -0.14538023517E+03  0.17158926926E+03  0.90527563001E+02 0.  0.
         13    1    3    3    0    0  0.16852908493E+02 -0.24407369833E+01 -0.15013923740E+03  0.15110184754E+03  0.00000000000E+00 0. -1.
        -13    1    3    3    0    0 -0.18222472324E+02 -0.80639846656E+01  0.47590022324E+01  0.20487421715E+02  0.00000000000E+00 0.  1.
         22    1    1    2    0    0  0.13695638313E+01  0.10504721649E+02 -0.19469550642E+02  0.22165023894E+02  0.00000000000E+00 0. -1.
<mgrwt>
<rscale>  0 0.53218402E+02</rscale>
<asrwt>0</asrwt>
<pdfrwt beam="1">  1        1 0.27584930E-01 0.91145294E+02</pdfrwt>
<pdfrwt beam="2">  1       -1 0.22234235E-02 0.91145294E+02</pdfrwt>
<totfact> 0.84625214E+04</totfact>
</mgrwt>
</event>
<event>
 6    1  0.2852411E-002  0.1013935E+03  0.7546771E-02  0.1357539E+00
          2   -1    0    0  501    0  0.00000000000E+00  0.00000000000E+00  0.13579752758E+03  0.13579752758E+03  0.00000000000E+00 0. -1.
         -2   -1    0    0    0  501 -0.00000000000E+00 -0.00000000000E+00 -0.29374361167E+02  0.29374361167E+02  0.00000000000E+00 0.  1.
         23    2    1    2    0    0 -0.20510731916E+02 -0.12550284197E+02  0.93249881877E+02  0.13775409922E+03  0.98501023469E+02 0.  0.
         11    1    3    3    0    0 -0.47350707345E+02 -0.33667116887E+02  0.28870320743E+02  0.64877266167E+02  0.00000000000E+00 0.  1.
        -11    1    3    3    0    0  0.26839975429E+02  0.21116832690E+02  0.64379561134E+02  0.72876833052E+02  0.00000000000E+00 0. -1.
         22    1    1    2    0    0  0.20510731916E+02  0.12550284197E+02  0.13173284539E+02  0.27417789530E+02  0.00000000000E+00 0.  1.
<mgrwt>
<rscale>  0 0.70756685E+02</rscale>
<asrwt>0</asrwt>
<pdfrwt beam="1">  1        2 0.20891927E-01 0.10139355E+03</pdfrwt>
<pdfrwt beam="2">  1       -2 0.45191326E-02 0.10139355E+03</pdfrwt>
<totfact> 0.52966484E+04</totfact>
</mgrwt>
</event>
<event>
 6    1  0.2852411E-002  0.9029432E+02  0.7546771E-02  0.1400083E+00
          2   -1    0    0  501    0  0.00000000000E+00  0.00000000000E+00  0.38647140579E+03  0.38647140579E+03  0.00000000000E+00 0. -1.
         -2   -1    0    0    0  501 -0.00000000000E+00 -0.00000000000E+00 -0.78341980326E+01  0.78341980326E+01  0.00000000000E+00 0.  1.
         23    2    1    2    0    0  0.15721430914E+02  0.64339363971E+01  0.34502812513E+03  0.35664754542E+03  0.88682047766E+02 0.  0.
         13    1    3    3    0    0  0.31324067735E+02 -0.33873204565E+02  0.15242876186E+03  0.15925802538E+03  0.00000000000E+00 0.  1.
        -13    1    3    3    0    0 -0.15602636820E+02  0.40307140962E+02  0.19259936327E+03  0.19738952004E+03  0.00000000000E+00 0. -1.
         22    1    1    2    0    0 -0.15721430914E+02 -0.64339363971E+01  0.33609082624E+02  0.37658058399E+02  0.00000000000E+00 0.  1.
<mgrwt>
<rscale>  0 0.59466810E+02</rscale>
<asrwt>0</asrwt>
<pdfrwt beam="1">  1        2 0.59457125E-01 0.90294322E+02</pdfrwt>
<pdfrwt beam="2">  1       -2 0.12052615E-02 0.90294322E+02</pdfrwt>
<totfact> 0.11558073E+05</totfact>
</mgrwt>
</event>
<event>
 6    1  0.2852411E-002  0.1153148E+03  0.7546771E-02  0.1329528E+00
          2   -1    0    0  501    0  0.00000000000E+00  0.00000000000E+00  0.22799295696E+03  0.22799295696E+03  0.00000000000E+00 0. -1.
         -2   -1    0    0    0  501 -0.00000000000E+00 -0.00000000000E+00 -0.22837812802E+02  0.22837812802E+02  0.00000000000E+00 0.  1.
         23    2    1    2    0    0  0.18560502211E+02 -0.18898510887E+02  0.14624496970E+03  0.18623932598E+03  0.11223123193E+03 0.  0.
         11    1    3    3    0    0  0.60762811961E+02 -0.33262292983E+02  0.74133656704E+02  0.10146082253E+03  0.00000000000E+00 0.  1.
        -11    1    3    3    0    0 -0.42202309750E+02  0.14363782096E+02  0.72111312999E+02  0.84778503448E+02  0.00000000000E+00 0. -1.
         22    1    1    2    0    0 -0.18560502211E+02  0.18898510887E+02  0.58910174455E+02  0.64591443787E+02  0.00000000000E+00 0.  1.
<mgrwt>
<rscale>  0 0.79832264E+02</rscale>
<asrwt>0</asrwt>
<pdfrwt beam="1">  1        2 0.35075838E-01 0.11531477E+03</pdfrwt>
<pdfrwt beam="2">  1       -2 0.35135098E-02 0.11531477E+03</pdfrwt>
<totfact> 0.44446721E+04</totfact>
</mgrwt>
</event>
<event>
 6    1  0.2852411E-002  0.9408512E+02  0.7546771E-02  0.1415154E+00
          2   -1    0    0  501    0  0.00000000000E+00  0.00000000000E+00  0.25961198826E+02  0.25961198826E+02  0.00000000000E+00 0. -1.
         -2   -1    0    0    0  501 -0.00000000000E+00 -0.00000000000E+00 -0.10853176631E+03  0.10853176631E+03  0.00000000000E+00 0.  1.
         23    2    1    2    0    0  0.55324347390E+01 -0.10488933389E+02 -0.70467264080E+02  0.11754848193E+03  0.93334799189E+02 0.  0.
         11    1    3    3    0    0  0.34365551580E+02 -0.97994220081E+01  0.56234213190E+01  0.36175166543E+02  0.00000000000E+00 0. -1.
        -11    1    3    3    0    0 -0.28833116841E+02 -0.68951138127E+00 -0.76090685399E+02  0.81373315388E+02  0.00000000000E+00 0.  1.
         22    1    1    2    0    0 -0.55324347390E+01  0.10488933389E+02 -0.12103303401E+02  0.16944483203E+02  0.00000000000E+00 0.  1.
<mgrwt>
<rscale>  0 0.56059439E+02</rscale>
<asrwt>0</asrwt>
<pdfrwt beam="1">  1        2 0.39940305E-02 0.94085123E+02</pdfrwt>
<pdfrwt beam="2">  1       -2 0.16697195E-01 0.94085123E+02</pdfrwt>
<totfact> 0.52342171E+04</totfact>
</mgrwt>
</event>
<event>
 6    1  0.2852411E-002  0.1006856E+03  0.7546771E-02  0.1330822E+00
          1   -1    0    0  501    0  0.00000000000E+00  0.00000000000E+00  0.17992529947E+04  0.17992529947E+04  0.00000000000E+00 0. -1.
         -1   -1    0    0    0  501 -0.00000000000E+00 -0.00000000000E+00 -0.17720220620E+02  0.17720220620E+02  0.00000000000E+00 0.  1.
         23    2    1    2    0    0  0.31078887331E+01  0.38773610180E+02  0.17746100351E+04  0.17774640248E+04  0.92868354406E+02 0.  0.
         11    1    3    3    0    0  0.26860730879E+02  0.53867611859E+01  0.14525067436E+04  0.14527650726E+04  0.00000000000E+00 0. -1.
        -11    1    3    3    0    0 -0.23752842146E+02  0.33386848994E+02  0.32210329150E+03  0.32469895225E+03  0.00000000000E+00 0.  1.
         22    1    1    2    0    0 -0.31078887331E+01 -0.38773610180E+02  0.69227390506E+01  0.39509190509E+02  0.00000000000E+00 0.  1.
<mgrwt>
<rscale>  0 0.79379276E+02</rscale>
<asrwt>0</asrwt>
<pdfrwt beam="1">  1        1 0.27680801E+00 0.10068557E+03</pdfrwt>
<pdfrwt beam="2">  1       -1 0.27261892E-02 0.10068557E+03</pdfrwt>
<totfact> 0.19808637E+03</totfact>
</mgrwt>
</event>
<event>
 6    1  0.2852411E-002  0.9440839E+02  0.7546771E-02  0.1369512E+00
          2   -1    0    0  501    0  0.00000000000E+00  0.00000000000E+00  0.31852536140E+02  0.31852536140E+02  0.00000000000E+00 0. -1.
         -2   -1    0    0    0  501 -0.00000000000E+00 -0.00000000000E+00 -0.11098993029E+03  0.11098993029E+03  0.00000000000E+00 0.  1.
         23    2    1    2    0    0 -0.22847661027E+02 -0.85183651910E+01 -0.60202595584E+02  0.11197007169E+03  0.91205078150E+02 0.  0.
         11    1    3    3    0    0  0.24315398893E+02 -0.30832975145E+02 -0.12323648602E+02  0.41155598580E+02  0.00000000000E+00 0. -1.
        -11    1    3    3    0    0 -0.47163059920E+02  0.22314609954E+02 -0.47878946981E+02  0.70814473114E+02  0.00000000000E+00 0.  1.
         22    1    1    2    0    0  0.22847661027E+02  0.85183651910E+01 -0.18934798568E+02  0.30872394736E+02  0.00000000000E+00 0. -1.
<mgrwt>
<rscale>  0 0.67302945E+02</rscale>
<asrwt>0</asrwt>
<pdfrwt beam="1">  1        2 0.49003903E-02 0.94408392E+02</pdfrwt>
<pdfrwt beam="2">  1       -2 0.17075373E-01 0.94408392E+02</pdfrwt>
<totfact> 0.38680335E+04</totfact>
</mgrwt>
</event>
<event>
 6    1  0.2852411E-002  0.9456623E+02  0.7546771E-02  0.1384753E+00
          2   -1    0    0  501    0  0.00000000000E+00  0.00000000000E+00  0.34861674818E+02  0.34861674818E+02  0.00000000000E+00 0. -1.
         -2   -1    0    0    0  501 -0.00000000000E+00 -0.00000000000E+00 -0.16589499621E+03  0.16589499621E+03  0.00000000000E+00 0.  1.
         23    2    1    2    0    0 -0.18549101886E+02 -0.36355117012E+01 -0.31846181639E+02  0.99784522301E+02  0.92657894859E+02 0.  0.
         13    1    3    3    0    0 -0.28384405123E+02 -0.44111055727E+02 -0.12857957205E+02  0.54007284277E+02  0.00000000000E+00 0.  1.
        -13    1    3    3    0    0  0.98353032363E+01  0.40475544026E+02 -0.18988224434E+02  0.45777238024E+02  0.00000000000E+00 0. -1.
         22    1    1    2    0    0  0.18549101886E+02  0.36355117012E+01 -0.99187139751E+02  0.10097214873E+03  0.00000000000E+00 0.  1.
<mgrwt>
<rscale>  0 0.63230857E+02</rscale>
<asrwt>0</asrwt>
<pdfrwt beam="1">  1        2 0.53633346E-02 0.94566229E+02</pdfrwt>
<pdfrwt beam="2">  1       -2 0.25522307E-01 0.94566229E+02</pdfrwt>
<totfact> 0.17471990E+04</totfact>
</mgrwt>
</event>
<event>
 6    1  0.2852411E-002  0.9193082E+02  0.7546771E-02  0.1408026E+00
          1   -1    0    0  501    0  0.00000000000E+00  0.00000000000E+00  0.12217626366E+03  0.12217626366E+03  0.00000000000E+00 0. -1.
         -1   -1    0    0    0  501 -0.00000000000E+00 -0.00000000000E+00 -0.24988194640E+02  0.24988194640E+02  0.00000000000E+00 0.  1.
         23    2    1    2    0    0 -0.63385954277E+01 -0.12711174528E+02  0.95988438349E+02  0.13290995503E+03  0.90826890834E+02 0.  0.
         13    1    3    3    0    0 -0.26704689613E+02  0.15835892042E+02  0.92615515587E+02  0.97680856116E+02  0.00000000000E+00 0. -1.
        -13    1    3    3    0    0  0.20366094185E+02 -0.28547066570E+02  0.33729227625E+01  0.35229098911E+02  0.00000000000E+00 0.  1.
         22    1    1    2    0    0  0.63385954277E+01  0.12711174528E+02  0.11996306722E+01  0.14254503276E+02  0.00000000000E+00 0. -1.
<mgrwt>
<rscale>  0 0.57636555E+02</rscale>
<asrwt>0</asrwt>
<pdfrwt beam="1">  1        1 0.18796348E-01 0.91930821E+02</pdfrwt>
<pdfrwt beam="2">  1       -1 0.38443377E-02 0.91930821E+02</pdfrwt>
<totfact> 0.62126837E+04</totfact>
</mgrwt>
</event>
<event>
 6    1  0.2852411E-002  0.9303353E+02  0.7546771E-02  0.1425401E+00
         -2   -1    0    0    0  501 -0.00000000000E+00  0.00000000000E+00  0.41275344329E+01  0.41275344329E+01  0.00000000000E+00 0.  1.
          2   -1    0    0  501    0  0.00000000000E+00 -0.00000000000E+00 -0.67266571815E+03  0.67266571815E+03  0.00000000000E+00 0. -1.
         23    2    1    2    0    0  0.11033291576E+01  0.10419150553E+02 -0.63095468507E+03  0.63777664837E+03  0.92441671151E+02 0.  0.
         13    1    3    3    0    0  0.95594459566E-01  0.51706258812E+02 -0.35850063523E+03  0.36221023149E+03  0.00000000000E+00 0. -1.
        -13    1    3    3    0    0  0.10077346980E+01 -0.41287108259E+02 -0.27245404984E+03  0.27556641688E+03  0.00000000000E+00 0.  1.
         22    1    1    2    0    0 -0.11033291576E+01 -0.10419150553E+02 -0.37583498648E+02  0.39016604210E+02  0.00000000000E+00 0.  1.
<mgrwt>
<rscale>  0 0.53894331E+02</rscale>
<asrwt>0</asrwt>
<pdfrwt beam="1">  1        2 0.10348703E+00 0.93033535E+02</pdfrwt>
<pdfrwt beam="2">  1       -2 0.63500530E-03 0.93033535E+02</pdfrwt>
<totfact> 0.15692332E+05</totfact>
</mgrwt>
</event>
<event>
 6    1  0.2852411E-002  0.9189463E+02  0.7546771E-02  0.1406435E+00
          2   -1    0    0  501    0  0.00000000000E+00  0.00000000000E+00  0.83497861193E+02  0.83497861193E+02  0.00000000000E+00 0. -1.
         -2   -1    0    0    0  501 -0.00000000000E+00 -0.00000000000E+00 -0.37560696774E+02  0.37560696774E+02  0.00000000000E+00 0.  1.
         23    2    1    2    0    0 -0.13077981314E+02  0.64446399916E+01  0.51631819093E+02  0.10540620761E+03  0.90730683232E+02 0.  0.
         11    1    3    3    0    0  0.73221354460E+01 -0.24676024248E+02  0.61702971754E+02  0.66856387604E+02  0.00000000000E+00 0. -1.
        -11    1    3    3    0    0 -0.20400116760E+02  0.31120664239E+02 -0.10071152660E+02  0.38549820005E+02  0.00000000000E+00 0.  1.
         22    1    1    2    0    0  0.13077981314E+02 -0.64446399916E+01 -0.56946546745E+01  0.15652350358E+02  0.00000000000E+00 0.  1.
<mgrwt>
<rscale>  0 0.57996875E+02</rscale>
<asrwt>0</asrwt>
<pdfrwt beam="1">  1        2 0.12845825E-01 0.91894635E+02</pdfrwt>
<pdfrwt beam="2">  1       -2 0.57785687E-02 0.91894635E+02</pdfrwt>
<totfact> 0.63271689E+04</totfact>
</mgrwt>
</event>
<event>
 6    1  0.2852411E-002  0.9176602E+02  0.7546771E-02  0.1417689E+00
         -2   -1    0    0    0  501 -0.00000000000E+00  0.00000000000E+00  0.46212075654E+01  0.46212075654E+01  0.00000000000E+00 0.  1.
          2   -1    0    0  501    0  0.00000000000E+00 -0.00000000000E+00 -0.65943077290E+03  0.65943077290E+03  0.00000000000E+00 0. -1.
         23    2    1    2    0    0  0.12029961860E+02 -0.25113241265E+01 -0.62656984900E+03  0.63325411837E+03  0.90939408514E+02 0.  0.
         11    1    3    3    0    0 -0.12486520410E+01  0.86746794792E+01 -0.27395901418E+01  0.91822954718E+01  0.00000000000E+00 0.  1.
        -11    1    3    3    0    0  0.13278613901E+02 -0.11186003606E+02 -0.62383025886E+03  0.62407182290E+03  0.00000000000E+00 0. -1.
         22    1    1    2    0    0 -0.12029961860E+02  0.25113241265E+01 -0.28239716335E+02  0.30797862100E+02  0.00000000000E+00 0.  1.
<mgrwt>
<rscale>  0 0.55512803E+02</rscale>
<asrwt>0</asrwt>
<pdfrwt beam="1">  1        2 0.10145088E+00 0.91766022E+02</pdfrwt>
<pdfrwt beam="2">  1       -2 0.71095508E-03 0.91766022E+02</pdfrwt>
<totfact> 0.13667141E+05</totfact>
</mgrwt>
</event>
<event>
 6    1  0.2852411E-002  0.1002350E+03  0.7546771E-02  0.1333794E+00
         -4   -1    0    0    0  501 -0.00000000000E+00  0.00000000000E+00  0.21793778692E+03  0.21793778692E+03  0.00000000000E+00 0. -1.
          4   -1    0    0  501    0  0.00000000000E+00 -0.00000000000E+00 -0.28345212049E+02  0.28345212049E+02  0.00000000000E+00 0.  1.
         23    2    1    2    0    0  0.37256537747E+02 -0.35335166162E+01  0.73465927924E+02  0.12427507514E+03  0.92986646309E+02 0.  0.
         11    1    3    3    0    0  0.47233793228E+02  0.34583314781E+02  0.30614701139E+02  0.66062824718E+02  0.00000000000E+00 0. -1.
        -11    1    3    3    0    0 -0.99772554807E+01 -0.38116831397E+02  0.42851226785E+02  0.58212250426E+02  0.00000000000E+00 0.  1.
         22    1    1    2    0    0 -0.37256537747E+02  0.35335166162E+01  0.11612664695E+03  0.12200792383E+03  0.00000000000E+00 0. -1.
<mgrwt>
<rscale>  0 0.78352210E+02</rscale>
<asrwt>0</asrwt>
<pdfrwt beam="1">  1        4 0.43608020E-02 0.10023498E+03</pdfrwt>
<pdfrwt beam="2">  1       -4 0.33528889E-01 0.10023498E+03</pdfrwt>
<totfact> 0.38755645E+03</totfact>
</mgrwt>
</event>
<event>
 6    1  0.2852411E-002  0.9131965E+02  0.7546771E-02  0.1428195E+00
         -2   -1    0    0    0  501 -0.00000000000E+00  0.00000000000E+00  0.87965774753E+01  0.87965774753E+01  0.00000000000E+00 0.  1.
          2   -1    0    0  501    0  0.00000000000E+00 -0.00000000000E+00 -0.29798827978E+03  0.29798827978E+03  0.00000000000E+00 0. -1.
         23    2    1    2    0    0  0.26301659848E+01  0.10286018962E+02 -0.26698604580E+03  0.28217162626E+03  0.90700375168E+02 0.  0.
         13    1    3    3    0    0 -0.10414149416E+02  0.46126625705E+02 -0.96397664422E+02  0.10737145716E+03  0.00000000000E+00 0. -1.
        -13    1    3    3    0    0  0.13044315401E+02 -0.35840606743E+02 -0.17058838137E+03  0.17480016910E+03  0.00000000000E+00 0.  1.
         22    1    1    2    0    0 -0.26301659848E+01 -0.10286018962E+02 -0.22205656510E+02  0.24613231000E+02  0.00000000000E+00 0. -1.
<mgrwt>
<rscale>  0 0.53324068E+02</rscale>
<asrwt>0</asrwt>
<pdfrwt beam="1">  1        2 0.45844356E-01 0.91319647E+02</pdfrwt>
<pdfrwt beam="2">  1       -2 0.13533195E-02 0.91319647E+02</pdfrwt>
<totfact> 0.12891193E+05</totfact>
</mgrwt>
</event>
<event>
 6    1  0.2852411E-002  0.9203275E+02  0.7546771E-02  0.1407724E+00
         -1   -1    0    0    0  501 -0.00000000000E+00  0.00000000000E+00  0.28086587009E+02  0.28086587009E+02  0.00000000000E+00 0.  1.
          1   -1    0    0  501    0  0.00000000000E+00 -0.00000000000E+00 -0.10183391635E+03  0.10183391635E+03  0.00000000000E+00 0. -1.
         23    2    1    2    0    0  0.95924445477E+01 -0.10502782450E+02 -0.68627316233E+02  0.11480303116E+03  0.90926915693E+02 0.  0.
         11    1    3    3    0    0  0.39794896708E+02  0.10366667122E+02 -0.66300137625E+02  0.78018009717E+02  0.00000000000E+00 0.  1.
        -11    1    3    3    0    0 -0.30202452160E+02 -0.20869449572E+02 -0.23271786085E+01  0.36785021438E+02  0.00000000000E+00 0. -1.
         22    1    1    2    0    0 -0.95924445477E+01  0.10502782450E+02 -0.51200131078E+01  0.15117472203E+02  0.00000000000E+00 0. -1.
<mgrwt>
<rscale>  0 0.57704885E+02</rscale>
<asrwt>0</asrwt>
<pdfrwt beam="1">  1        1 0.15666756E-01 0.92032752E+02</pdfrwt>
<pdfrwt beam="2">  1       -1 0.43210135E-02 0.92032752E+02</pdfrwt>
<totfact> 0.66051170E+04</totfact>
</mgrwt>
</event>
<event>
 6    1  0.2852411E-002  0.1005557E+03  0.7546771E-02  0.1349291E+00
          1   -1    0    0  501    0  0.00000000000E+00  0.00000000000E+00  0.94590918344E+03  0.94590918344E+03  0.00000000000E+00 0. -1.
         -1   -1    0    0    0  501 -0.00000000000E+00 -0.00000000000E+00 -0.17940506154E+02  0.17940506154E+02  0.00000000000E+00 0.  1.
         23    2    1    2    0    0  0.15762604179E+02 -0.23571759066E+02  0.93000011050E+03  0.93542058062E+03  0.96474709590E+02 0.  0.
         11    1    3    3    0    0  0.41175750400E+02  0.10887114365E+02  0.71098402915E+03  0.71225856357E+03  0.00000000000E+00 0. -1.
        -11    1    3    3    0    0 -0.25413146220E+02 -0.34458873430E+02  0.21901608136E+03  0.22316201705E+03  0.00000000000E+00 0.  1.
         22    1    1    2    0    0 -0.15762604179E+02  0.23571759066E+02 -0.20314332233E+01  0.28429108971E+02  0.00000000000E+00 0.  1.
<mgrwt>
<rscale>  0 0.73277065E+02</rscale>
<asrwt>0</asrwt>
<pdfrwt beam="1">  1        1 0.14552445E+00 0.10055574E+03</pdfrwt>
<pdfrwt beam="2">  1       -1 0.27600786E-02 0.10055574E+03</pdfrwt>
<totfact> 0.71522167E+03</totfact>
</mgrwt>
</event>
<event>
 6    1  0.2852411E-002  0.9369127E+02  0.7546771E-02  0.1398923E+00
          2   -1    0    0  501    0  0.00000000000E+00  0.00000000000E+00  0.61866663086E+03  0.61866663086E+03  0.00000000000E+00 0. -1.
         -2   -1    0    0    0  501 -0.00000000000E+00 -0.00000000000E+00 -0.55725833849E+01  0.55725833849E+01  0.00000000000E+00 0.  1.
         23    2    1    2    0    0  0.13885340335E+02 -0.68602723231E+01  0.58209189429E+03  0.58958377434E+03  0.92402313613E+02 0.  0.
         11    1    3    3    0    0  0.43082824882E+02 -0.45392517718E+01  0.50902248908E+03  0.51086263221E+03  0.00000000000E+00 0. -1.
        -11    1    3    3    0    0 -0.29197484547E+02 -0.23210205512E+01  0.73069405209E+02  0.78721142128E+02  0.00000000000E+00 0.  1.
         22    1    1    2    0    0 -0.13885340335E+02  0.68602723231E+01  0.31002153193E+02  0.34655439907E+02  0.00000000000E+00 0.  1.
<mgrwt>
<rscale>  0 0.59740716E+02</rscale>
<asrwt>0</asrwt>
<pdfrwt beam="1">  1        2 0.95179427E-01 0.93691267E+02</pdfrwt>
<pdfrwt beam="2">  1       -2 0.85732101E-03 0.93691267E+02</pdfrwt>
<totfact> 0.11319291E+05</totfact>
</mgrwt>
</event>
<event>
 6    1  0.2852411E-002  0.9111088E+02  0.7546771E-02  0.1427148E+00
         -2   -1    0    0    0  501 -0.00000000000E+00  0.00000000000E+00  0.32181049242E+01  0.32181049242E+01  0.00000000000E+00 0.  1.
          2   -1    0    0  501    0  0.00000000000E+00 -0.00000000000E+00 -0.82906258573E+03  0.82906258573E+03  0.00000000000E+00 0. -1.
         23    2    1    2    0    0  0.47399830621E+01 -0.97728765303E+01 -0.77150895145E+03  0.77687016544E+03  0.90461125433E+02 0.  0.
         11    1    3    3    0    0  0.12188354311E+02 -0.30214336831E+02 -0.72267578353E+03  0.72340980794E+03  0.00000000000E+00 0. -1.
        -11    1    3    3    0    0 -0.74483712485E+01  0.20441460301E+02 -0.48833167928E+02  0.53460357494E+02  0.00000000000E+00 0.  1.
         22    1    1    2    0    0 -0.47399830621E+01  0.97728765303E+01 -0.54335529354E+02  0.55410525221E+02  0.00000000000E+00 0.  1.
<mgrwt>
<rscale>  0 0.53536766E+02</rscale>
<asrwt>0</asrwt>
<pdfrwt beam="1">  1        2 0.12754781E+00 0.91110876E+02</pdfrwt>
<pdfrwt beam="2">  1       -2 0.49509414E-03 0.91110876E+02</pdfrwt>
<totfact> 0.17286446E+05</totfact>
</mgrwt>
</event>
<event>
 6    1  0.2852411E-002  0.9549881E+02  0.7546771E-02  0.1356802E+00
         -1   -1    0    0    0  501 -0.00000000000E+00  0.00000000000E+00  0.36729924849E+02  0.36729924849E+02  0.00000000000E+00 0.  1.
          1   -1    0    0  501    0  0.00000000000E+00 -0.00000000000E+00 -0.11787096595E+03  0.11787096595E+03  0.00000000000E+00 0. -1.
         23    2    1    2    0    0  0.28218880512E+02 -0.72649060855E+01 -0.81366050923E+02  0.12546097475E+03  0.90944696740E+02 0.  0.
         11    1    3    3    0    0  0.38049892017E+02  0.16323792122E+02 -0.13093026563E+01  0.41424325524E+02  0.00000000000E+00 0.  1.
        -11    1    3    3    0    0 -0.98310115044E+01 -0.23588698207E+02 -0.80056748267E+02  0.84036649228E+02  0.00000000000E+00 0. -1.
         22    1    1    2    0    0 -0.28218880512E+02  0.72649060855E+01  0.22500982337E+00  0.29139916047E+02  0.00000000000E+00 0.  1.
<mgrwt>
<rscale>  0 0.70976944E+02</rscale>
<asrwt>0</asrwt>
<pdfrwt beam="1">  1        1 0.18133995E-01 0.95498806E+02</pdfrwt>
<pdfrwt beam="2">  1       -1 0.56507577E-02 0.95498806E+02</pdfrwt>
<totfact> 0.37218177E+04</totfact>
</mgrwt>
</event>
<event>
 6    1  0.2852411E-002  0.9291831E+02  0.7546771E-02  0.1425931E+00
         -2   -1    0    0    0  501 -0.00000000000E+00  0.00000000000E+00  0.27519194955E+01  0.27519194955E+01  0.00000000000E+00 0. -1.
          2   -1    0    0  501    0  0.00000000000E+00 -0.00000000000E+00 -0.17691445258E+04  0.17691445258E+04  0.00000000000E+00 0.  1.
         23    2    1    2    0    0  0.10340831616E+02  0.13750163053E+01 -0.17500062150E+04  0.17524712738E+04  0.92330869333E+02 0.  0.
         11    1    3    3    0    0  0.16482580990E+02 -0.18074164920E+02 -0.12685276331E+03  0.12918968409E+03  0.00000000000E+00 0. -1.
        -11    1    3    3    0    0 -0.61417493737E+01  0.19449181225E+02 -0.16231534517E+04  0.16232815897E+04  0.00000000000E+00 0.  1.
         22    1    1    2    0    0 -0.10340831616E+02 -0.13750163053E+01 -0.16386391320E+02  0.19425171527E+02  0.00000000000E+00 0. -1.
<mgrwt>
<rscale>  0 0.53785636E+02</rscale>
<asrwt>0</asrwt>
<pdfrwt beam="1">  1        2 0.27217700E+00 0.92918313E+02</pdfrwt>
<pdfrwt beam="2">  1       -2 0.42337080E-03 0.92918313E+02</pdfrwt>
<totfact> 0.66470596E+04</totfact>
</mgrwt>
</event>
<event>
 6    1  0.2852411E-002  0.9728094E+02  0.7546771E-02  0.1385473E+00
         -4   -1    0    0    0  501 -0.00000000000E+00  0.00000000000E+00  0.10405450925E+03  0.10405450925E+03  0.00000000000E+00 0.  1.
          4   -1    0    0  501    0  0.00000000000E+00 -0.00000000000E+00 -0.58637910940E+02  0.58637910940E+02  0.00000000000E+00 0. -1.
         23    2    1    2    0    0 -0.12396308352E+02  0.11868680191E+02 -0.16297344025E+02  0.98636626474E+02  0.95755138920E+02 0.  0.
         13    1    3    3    0    0 -0.24805630591E+02 -0.10664097539E+02 -0.49649650129E+02  0.56516635102E+02  0.00000000000E+00 0. -1.
        -13    1    3    3    0    0  0.12409322239E+02  0.22532777730E+02  0.33352306105E+02  0.42119991372E+02  0.00000000000E+00 0.  1.
         22    1    1    2    0    0  0.12396308352E+02 -0.11868680191E+02  0.61713942334E+02  0.64055793716E+02  0.00000000000E+00 0.  1.
<mgrwt>
<rscale>  0 0.63046756E+02</rscale>
<asrwt>0</asrwt>
<pdfrwt beam="1">  1        4 0.90212171E-02 0.97280937E+02</pdfrwt>
<pdfrwt beam="2">  1       -4 0.16008386E-01 0.97280937E+02</pdfrwt>
<totfact> 0.45466463E+03</totfact>
</mgrwt>
</event>
<event>
 6    1  0.2852411E-002  0.9373887E+02  0.7546771E-02  0.1396653E+00
         -2   -1    0    0    0  501 -0.00000000000E+00  0.00000000000E+00  0.23359964914E+02  0.23359964914E+02  0.00000000000E+00 0. -1.
          2   -1    0    0  501    0  0.00000000000E+00 -0.00000000000E+00 -0.13251465008E+03  0.13251465008E+03  0.00000000000E+00 0.  1.
         23    2    1    2    0    0  0.11195485853E+02 -0.11475416478E+02 -0.83033474374E+02  0.12522593247E+03  0.92357740394E+02 0.  0.
         11    1    3    3    0    0  0.41169290857E+02 -0.13017902504E+02 -0.73382121195E+01  0.43797553041E+02  0.00000000000E+00 0. -1.
        -11    1    3    3    0    0 -0.29973805004E+02  0.15424860261E+01 -0.75695262254E+02  0.81428379434E+02  0.00000000000E+00 0.  1.
         22    1    1    2    0    0 -0.11195485853E+02  0.11475416478E+02 -0.26121210788E+02  0.30648682514E+02  0.00000000000E+00 0.  1.
<mgrwt>
<rscale>  0 0.60281843E+02</rscale>
<asrwt>0</asrwt>
<pdfrwt beam="1">  1        2 0.20386869E-01 0.93738873E+02</pdfrwt>
<pdfrwt beam="2">  1       -2 0.35938407E-02 0.93738873E+02</pdfrwt>
<totfact> 0.75466033E+04</totfact>
</mgrwt>
</event>
<event>
 6    1  0.2852411E-002  0.9575930E+02  0.7546771E-02  0.1370200E+00
         -2   -1    0    0    0  501 -0.00000000000E+00  0.00000000000E+00  0.56976254411E+01  0.56976254411E+01  0.00000000000E+00 0.  1.
          2   -1    0    0  501    0  0.00000000000E+00 -0.00000000000E+00 -0.15413830805E+04  0.15413830805E+04  0.00000000000E+00 0. -1.
         23    2    1    2    0    0 -0.10379243110E+02  0.20638894530E+02 -0.15079364615E+04  0.15109739296E+04  0.92930895445E+02 0.  0.
         11    1    3    3    0    0 -0.31674198228E+02  0.39281644802E+02 -0.47945128198E+03  0.48209940286E+03  0.00000000000E+00 0.  1.
        -11    1    3    3    0    0  0.21294955118E+02 -0.18642750272E+02 -0.10284851795E+04  0.10288745267E+04  0.00000000000E+00 0. -1.
         22    1    1    2    0    0  0.10379243110E+02 -0.20638894530E+02 -0.27748993566E+02  0.36106776357E+02  0.00000000000E+00 0. -1.
<mgrwt>
<rscale>  0 0.67111529E+02</rscale>
<asrwt>0</asrwt>
<pdfrwt beam="1">  1        2 0.23713575E+00 0.95759302E+02</pdfrwt>
<pdfrwt beam="2">  1       -2 0.87655815E-03 0.95759302E+02</pdfrwt>
<totfact> 0.31214058E+04</totfact>
</mgrwt>
</event>
<event>
 6    1  0.2852411E-002  0.8541525E+02  0.7546771E-02  0.1434698E+00
          2   -1    0    0  501    0  0.00000000000E+00  0.00000000000E+00  0.84922937581E+03  0.84922937581E+03  0.00000000000E+00 0. -1.
         -2   -1    0    0    0  501 -0.00000000000E+00 -0.00000000000E+00 -0.31523610225E+01  0.31523610225E+01  0.00000000000E+00 0.  1.
         23    2    1    2    0    0 -0.88916045306E+01  0.76944166733E+01  0.80871155775E+03  0.81320978183E+03  0.84602015027E+02 0.  0.
         11    1    3    3    0    0 -0.17921975788E+02  0.12954586135E+02  0.79777998586E+03  0.79808641409E+03  0.00000000000E+00 0. -1.
        -11    1    3    3    0    0  0.90303712577E+01 -0.52601694617E+01  0.10931571894E+02  0.15123367743E+02  0.00000000000E+00 0.  1.
         22    1    1    2    0    0  0.88916045306E+01 -0.76944166733E+01  0.37365457035E+02  0.39171954999E+02  0.00000000000E+00 0.  1.
<mgrwt>
<rscale>  0 0.52028402E+02</rscale>
<asrwt>0</asrwt>
<pdfrwt beam="1">  1        2 0.13065049E+00 0.85415254E+02</pdfrwt>
<pdfrwt beam="2">  1       -2 0.48497930E-03 0.85415254E+02</pdfrwt>
<totfact> 0.17102109E+05</totfact>
</mgrwt>
</event>
<event>
 6    1  0.2852411E-002  0.9293063E+02  0.7546771E-02  0.1409032E+00
         -2   -1    0    0    0  501 -0.00000000000E+00  0.00000000000E+00  0.41936505251E+01  0.41936505251E+01  0.00000000000E+00 0. -1.
          2   -1    0    0  501    0  0.00000000000E+00 -0.00000000000E+00 -0.13219348328E+04  0.13219348328E+04  0.00000000000E+00 0.  1.
         23    2    1    2    0    0  0.99794126401E+01 -0.91450066606E+01 -0.13022299927E+04  0.13055416714E+04  0.91939556115E+02 0.  0.
         11    1    3    3    0    0  0.39566917765E+02 -0.35350809905E+02 -0.68977164927E+03  0.69180932986E+03  0.00000000000E+00 0. -1.
        -11    1    3    3    0    0 -0.29587505125E+02  0.26205803244E+02 -0.61245834347E+03  0.61373234155E+03  0.00000000000E+00 0.  1.
         22    1    1    2    0    0 -0.99794126401E+01  0.91450066606E+01 -0.15511189487E+02  0.20586811865E+02  0.00000000000E+00 0. -1.
<mgrwt>
<rscale>  0 0.57410419E+02</rscale>
<asrwt>0</asrwt>
<pdfrwt beam="1">  1        2 0.20337441E+00 0.92930629E+02</pdfrwt>
<pdfrwt beam="2">  1       -2 0.64517757E-03 0.92930629E+02</pdfrwt>
<totfact> 0.62287853E+04</totfact>
</mgrwt>
</event>
<event>
 6    1  0.2852411E-002  0.9390005E+02  0.7546771E-02  0.1382720E+00
          2   -1    0    0  501    0  0.00000000000E+00  0.00000000000E+00  0.14151994051E+03  0.14151994051E+03  0.00000000000E+00 0. -1.
         -2   -1    0    0    0  501 -0.00000000000E+00 -0.00000000000E+00 -0.30615180093E+02  0.30615180093E+02  0.00000000000E+00 0.  1.
         23    2    1    2    0    0  0.14492450406E+01  0.19901529080E+02  0.11813837369E+03  0.15091022174E+03  0.91755373238E+02 0.  0.
         11    1    3    3    0    0 -0.43175725542E+01 -0.16770510264E+02 -0.82504797262E+01  0.19182332053E+02  0.00000000000E+00 0.  1.
        -11    1    3    3    0    0  0.57668175948E+01  0.36672039344E+02  0.12638885341E+03  0.13172788969E+03  0.00000000000E+00 0. -1.
         22    1    1    2    0    0 -0.14492450406E+01 -0.19901529080E+02 -0.72336132663E+01  0.21224898864E+02  0.00000000000E+00 0.  1.
<mgrwt>
<rscale>  0 0.63754097E+02</rscale>
<asrwt>0</asrwt>
<pdfrwt beam="1">  1        2 0.21772298E-01 0.93900052E+02</pdfrwt>
<pdfrwt beam="2">  1       -2 0.47100278E-02 0.93900052E+02</pdfrwt>
<totfact> 0.47102610E+04</totfact>
</mgrwt>
</event>
<event>
 6    1  0.2852411E-002  0.9138898E+02  0.7546771E-02  0.1426574E+00
          2   -1    0    0  501    0  0.00000000000E+00  0.00000000000E+00  0.51556619615E+03  0.51556619615E+03  0.00000000000E+00 0.  1.
         -2   -1    0    0    0  501 -0.00000000000E+00 -0.00000000000E+00 -0.50949770683E+01  0.50949770683E+01  0.00000000000E+00 0. -1.
         23    2    1    2    0    0 -0.98687217517E+01 -0.45268052793E+01  0.46667796444E+03  0.47554207763E+03  0.90741729446E+02 0.  0.
         11    1    3    3    0    0 -0.32442457458E+02 -0.19050667092E+02  0.85393615965E+02  0.93314042942E+02  0.00000000000E+00 0. -1.
        -11    1    3    3    0    0  0.22573735706E+02  0.14523861813E+02  0.38128434848E+03  0.38222803468E+03  0.00000000000E+00 0.  1.
         22    1    1    2    0    0  0.98687217517E+01  0.45268052793E+01  0.43793254638E+02  0.45119095589E+02  0.00000000000E+00 0.  1.
<mgrwt>
<rscale>  0 0.53653993E+02</rscale>
<asrwt>0</asrwt>
<pdfrwt beam="1">  1        2 0.79317836E-01 0.91388977E+02</pdfrwt>
<pdfrwt beam="2">  1       -2 0.78384303E-03 0.91388977E+02</pdfrwt>
<totfact> 0.15656631E+05</totfact>
</mgrwt>
</event>
<event>
 6    1  0.2852411E-002  0.1044800E+03  0.7546771E-02  0.1398614E+00
          3   -1    0    0  501    0  0.00000000000E+00  0.00000000000E+00  0.20608416541E+02  0.20608416541E+02  0.00000000000E+00 0. -1.
         -3   -1    0    0    0  501 -0.00000000000E+00 -0.00000000000E+00 -0.16735205196E+03  0.16735205196E+03  0.00000000000E+00 0.  1.
         23    2    1    2    0    0 -0.98927027984E+01  0.53002788553E+01 -0.12093121453E+03  0.15981371741E+03  0.10387544032E+03 0.  0.
         11    1    3    3    0    0 -0.10109339533E+02 -0.98923231756E+01 -0.13698294007E+03  0.13771122930E+03  0.00000000000E+00 0.  1.
        -11    1    3    3    0    0  0.21663673459E+00  0.15192602031E+02  0.16051725545E+02  0.22102488116E+02  0.00000000000E+00 0. -1.
         22    1    1    2    0    0  0.98927027984E+01 -0.53002788553E+01 -0.25812420896E+02  0.28146751094E+02  0.00000000000E+00 0. -1.
<mgrwt>
<rscale>  0 0.59814055E+02</rscale>
<asrwt>0</asrwt>
<pdfrwt beam="1">  1        3 0.31705257E-02 0.10447998E+03</pdfrwt>
<pdfrwt beam="2">  1       -3 0.25746469E-01 0.10447998E+03</pdfrwt>
<totfact> 0.14151493E+04</totfact>
</mgrwt>
</event>
<event>
 6    1  0.2852411E-002  0.9232602E+02  0.7546771E-02  0.1423124E+00
         -2   -1    0    0    0  501 -0.00000000000E+00  0.00000000000E+00  0.75563631071E+02  0.75563631071E+02  0.00000000000E+00 0.  1.
          2   -1    0    0  501    0  0.00000000000E+00 -0.00000000000E+00 -0.36674813335E+02  0.36674813335E+02  0.00000000000E+00 0. -1.
         23    2    1    2    0    0  0.38190990119E+01 -0.10422090282E+02  0.27498280529E+02  0.96334048127E+02  0.91656357736E+02 0.  0.
         11    1    3    3    0    0 -0.80816399963E+01  0.85492272502E+01  0.57614715996E+02  0.58803551686E+02  0.00000000000E+00 0.  1.
        -11    1    3    3    0    0  0.11900739008E+02 -0.18971317532E+02 -0.30116435467E+02  0.37530496441E+02  0.00000000000E+00 0. -1.
         22    1    1    2    0    0 -0.38190990119E+01  0.10422090282E+02  0.11390537207E+02  0.15904396278E+02  0.00000000000E+00 0.  1.
<mgrwt>
<rscale>  0 0.54365305E+02</rscale>
<asrwt>0</asrwt>
<pdfrwt beam="1">  1        2 0.56422790E-02 0.92326017E+02</pdfrwt>
<pdfrwt beam="2">  1       -2 0.11625174E-01 0.92326017E+02</pdfrwt>
<totfact> 0.59702762E+04</totfact>
</mgrwt>
</event>
<event>
 6    1  0.2852411E-002  0.9435338E+02  0.7546771E-02  0.1379647E+00
         -2   -1    0    0    0  501 -0.00000000000E+00  0.00000000000E+00  0.22615141399E+01  0.22615141399E+01  0.00000000000E+00 0.  1.
          2   -1    0    0  501    0  0.00000000000E+00 -0.00000000000E+00 -0.23606361015E+04  0.23606361015E+04  0.00000000000E+00 0. -1.
         23    2    1    2    0    0 -0.27463488431E+01  0.20493903298E+02 -0.22764304644E+04  0.22783850024E+04  0.92059858422E+02 0.  0.
         13    1    3    3    0    0 -0.42202768920E+02 -0.50809622751E+01 -0.14458135142E+04  0.14464382488E+04  0.00000000000E+00 0. -1.
        -13    1    3    3    0    0  0.39456420077E+02  0.25574865573E+02 -0.83061695016E+03  0.83194675354E+03  0.00000000000E+00 0.  1.
         22    1    1    2    0    0  0.27463488431E+01 -0.20493903298E+02 -0.81944122972E+02  0.84512613224E+02  0.00000000000E+00 0. -1.
<mgrwt>
<rscale>  0 0.64556578E+02</rscale>
<asrwt>0</asrwt>
<pdfrwt beam="1">  1        2 0.36317399E+00 0.94353379E+02</pdfrwt>
<pdfrwt beam="2">  1       -2 0.34792602E-03 0.94353379E+02</pdfrwt>
<totfact> 0.43930484E+04</totfact>
</mgrwt>
</event>
<event>
 6    1  0.2852411E-002  0.9982000E+02  0.7546771E-02  0.1393232E+00
         -2   -1    0    0    0  501 -0.00000000000E+00  0.00000000000E+00  0.39052878809E+02  0.39052878809E+02  0.00000000000E+00 0.  1.
          2   -1    0    0  501    0  0.00000000000E+00 -0.00000000000E+00 -0.87675150598E+02  0.87675150598E+02  0.00000000000E+00 0. -1.
         23    2    1    2    0    0  0.10986663890E+02 -0.87117513808E+01 -0.51638528220E+02  0.11238581206E+03  0.98830318022E+02 0.  0.
         13    1    3    3    0    0  0.10459034906E+02 -0.68117512940E+00  0.29263807392E+02  0.31084173365E+02  0.00000000000E+00 0.  1.
        -13    1    3    3    0    0  0.52762898385E+00 -0.80305762514E+01 -0.80902335612E+02  0.81301638696E+02  0.00000000000E+00 0. -1.
         22    1    1    2    0    0 -0.10986663890E+02  0.87117513808E+01  0.30162564306E+01  0.14342217346E+02  0.00000000000E+00 0.  1.
<mgrwt>
<rscale>  0 0.61109891E+02</rscale>
<asrwt>0</asrwt>
<pdfrwt beam="1">  1        2 0.13488485E-01 0.99820004E+02</pdfrwt>
<pdfrwt beam="2">  1       -2 0.60081352E-02 0.99820004E+02</pdfrwt>
<totfact> 0.57002264E+04</totfact>
</mgrwt>
</event>
<event>
 6    1  0.2852411E-002  0.6170670E+02  0.7546771E-02  0.1478183E+00
          2   -1    0    0  501    0  0.00000000000E+00  0.00000000000E+00  0.43950332940E+02  0.43950332940E+02  0.00000000000E+00 0. -1.
         -2   -1    0    0    0  501 -0.00000000000E+00 -0.00000000000E+00 -0.44922949644E+02  0.44922949644E+02  0.00000000000E+00 0.  1.
         23    2    1    2    0    0 -0.63365424459E+01  0.15262772993E+02  0.17448052868E+02  0.64126058961E+02  0.59452610366E+02 0.  0.
         11    1    3    3    0    0  0.13208980322E+02 -0.58778520943E+01  0.29547859852E+02  0.32895323804E+02  0.00000000000E+00 0. -1.
        -11    1    3    3    0    0 -0.19545522768E+02  0.21140625088E+02 -0.12099806984E+02  0.31230735156E+02  0.00000000000E+00 0.  1.
         22    1    1    2    0    0  0.63365424459E+01 -0.15262772993E+02 -0.18420669571E+02  0.24747223623E+02  0.00000000000E+00 0. -1.
<mgrwt>
<rscale>  0 0.44390522E+02</rscale>
<asrwt>0</asrwt>
<pdfrwt beam="1">  1        2 0.67615897E-02 0.61706701E+02</pdfrwt>
<pdfrwt beam="2">  1       -2 0.69112230E-02 0.61706701E+02</pdfrwt>
<totfact> 0.98813933E+04</totfact>
</mgrwt>
</event>
<event>
 6    1  0.2852411E-002  0.9267097E+02  0.7546771E-02  0.1419538E+00
         -4   -1    0    0    0  501 -0.00000000000E+00  0.00000000000E+00  0.32191546470E+03  0.32191546470E+03  0.00000000000E+00 0.  1.
          4   -1    0    0  501    0  0.00000000000E+00 -0.00000000000E+00 -0.84982524012E+01  0.84982524012E+01  0.00000000000E+00 0. -1.
         23    2    1    2    0    0  0.11283494128E+02 -0.26811496884E+01  0.26936131747E+03  0.28485685514E+03  0.91942388280E+02 0.  0.
         11    1    3    3    0    0 -0.23566459910E+02  0.28350334671E+02  0.18318353461E+03  0.18685643383E+03  0.00000000000E+00 0.  1.
        -11    1    3    3    0    0  0.34849954038E+02 -0.31031484359E+02  0.86177782861E+02  0.98000421310E+02  0.00000000000E+00 0. -1.
         22    1    1    2    0    0 -0.11283494128E+02  0.26811496884E+01  0.44055894823E+02  0.45556861965E+02  0.00000000000E+00 0.  1.
<mgrwt>
<rscale>  0 0.55118883E+02</rscale>
<asrwt>0</asrwt>
<pdfrwt beam="1">  1        4 0.13074237E-02 0.92670969E+02</pdfrwt>
<pdfrwt beam="2">  1       -4 0.49525447E-01 0.92670969E+02</pdfrwt>
<totfact> 0.11306431E+04</totfact>
</mgrwt>
</event>
<event>
 6    1  0.2852411E-002  0.9137720E+02  0.7546771E-02  0.1418042E+00
          1   -1    0    0  501    0  0.00000000000E+00  0.00000000000E+00  0.11211387739E+04  0.11211387739E+04  0.00000000000E+00 0. -1.
         -1   -1    0    0    0  501 -0.00000000000E+00 -0.00000000000E+00 -0.35097166932E+01  0.35097166932E+01  0.00000000000E+00 0.  1.
         23    2    1    2    0    0  0.28749435308E+00 -0.12376041669E+02  0.10954011046E+04  0.10992057915E+04  0.90534761455E+02 0.  0.
         13    1    3    3    0    0  0.20039990081E+01 -0.26128507812E+02  0.10695751437E+04  0.10698961179E+04  0.00000000000E+00 0. -1.
        -13    1    3    3    0    0 -0.17165046550E+01  0.13752466143E+02  0.25825960841E+02  0.29309673601E+02  0.00000000000E+00 0.  1.
         22    1    1    2    0    0 -0.28749435308E+00  0.12376041669E+02  0.22227952603E+02  0.25442699097E+02  0.00000000000E+00 0.  1.
<mgrwt>
<rscale>  0 0.55437432E+02</rscale>
<asrwt>0</asrwt>
<pdfrwt beam="1">  1        1 0.17248260E+00 0.91377197E+02</pdfrwt>
<pdfrwt beam="2">  1       -1 0.53995731E-03 0.91377197E+02</pdfrwt>
<totfact> 0.53798121E+04</totfact>
</mgrwt>
</event>
<event>
 6    1  0.2852411E-002  0.9273631E+02  0.7546771E-02  0.1364327E+00
          2   -1    0    0  501    0  0.00000000000E+00  0.00000000000E+00  0.26215943720E+04  0.26215943720E+04  0.00000000000E+00 0. -1.
         -2   -1    0    0    0  501 -0.00000000000E+00 -0.00000000000E+00 -0.27965627732E+01  0.27965627732E+01  0.00000000000E+00 0.  1.
         23    2    1    2    0    0 -0.94269955647E+00 -0.28028454452E+02  0.25195745585E+04  0.25212806228E+04  0.88394232519E+02 0.  0.
         13    1    3    3    0    0  0.25453161217E+01 -0.17043423522E+02  0.24800509535E+04  0.24801108219E+04  0.00000000000E+00 0. -1.
        -13    1    3    3    0    0 -0.34880156781E+01 -0.10985030930E+02  0.39523604974E+02  0.41169800923E+02  0.00000000000E+00 0.  1.
         22    1    1    2    0    0  0.94269955647E+00  0.28028454452E+02  0.99223250718E+02  0.10311031192E+03  0.00000000000E+00 0.  1.
<mgrwt>
<rscale>  0 0.68769921E+02</rscale>
<asrwt>0</asrwt>
<pdfrwt beam="1">  1        2 0.40332025E+00 0.92736310E+02</pdfrwt>
<pdfrwt beam="2">  1       -2 0.43024252E-03 0.92736310E+02</pdfrwt>
<totfact> 0.23785055E+04</totfact>
</mgrwt>
</event>
<event>
 6    1  0.2852411E-002  0.9332682E+02  0.7546771E-02  0.1402458E+00
          2   -1    0    0  501    0  0.00000000000E+00  0.00000000000E+00  0.74176937391E+03  0.74176937391E+03  0.00000000000E+00 0. -1.
         -2   -1    0    0    0  501 -0.00000000000E+00 -0.00000000000E+00 -0.69472271992E+01  0.69472271992E+01  0.00000000000E+00 0.  1.
         23    2    1    2    0    0 -0.10650380647E+02 -0.10301956488E+02  0.72490184950E+03  0.73088479772E+03  0.92143014985E+02 0.  0.
         13    1    3    3    0    0 -0.22502334100E+02 -0.12349900467E+01  0.70791797598E+03  0.70827659919E+03  0.00000000000E+00 0. -1.
        -13    1    3    3    0    0  0.11851953453E+02 -0.90669664411E+01  0.16983873525E+02  0.22608198535E+02  0.00000000000E+00 0.  1.
         22    1    1    2    0    0  0.10650380647E+02  0.10301956488E+02  0.99202972074E+01  0.17831803388E+02  0.00000000000E+00 0.  1.
<mgrwt>
<rscale>  0 0.58911387E+02</rscale>
<asrwt>0</asrwt>
<pdfrwt beam="1">  1        2 0.11411830E+00 0.93326824E+02</pdfrwt>
<pdfrwt beam="2">  1       -2 0.10688048E-02 0.93326824E+02</pdfrwt>
<totfact> 0.67113397E+04</totfact>
</mgrwt>
</event>
<event>
 6    1  0.2852411E-002  0.9252608E+02  0.7546771E-02  0.1423051E+00
          4   -1    0    0  501    0  0.00000000000E+00  0.00000000000E+00  0.29182939980E+03  0.29182939980E+03  0.00000000000E+00 0. -1.
         -4   -1    0    0    0  501 -0.00000000000E+00 -0.00000000000E+00 -0.19946694419E+02  0.19946694419E+02  0.00000000000E+00 0.  1.
         23    2    1    2    0    0 -0.10542567749E+02 -0.32779495544E+01  0.28200603077E+03  0.29679702866E+03  0.91865032201E+02 0.  0.
         11    1    3    3    0    0 -0.35033505119E+02  0.19358576660E+02  0.23923715549E+03  0.24256239927E+03  0.00000000000E+00 0. -1.
        -11    1    3    3    0    0  0.24490937370E+02 -0.22636526215E+02  0.42768875274E+02  0.54234629385E+02  0.00000000000E+00 0.  1.
         22    1    1    2    0    0  0.10542567749E+02  0.32779495544E+01 -0.10123325392E+02  0.14979065559E+02  0.00000000000E+00 0.  1.
<mgrwt>
<rscale>  0 0.54380654E+02</rscale>
<asrwt>0</asrwt>
<pdfrwt beam="1">  1        4 0.44896828E-01 0.92526076E+02</pdfrwt>
<pdfrwt beam="2">  1       -4 0.30687224E-02 0.92526076E+02</pdfrwt>
<totfact> 0.37319520E+03</totfact>
</mgrwt>
</event>
<event>
 6    1  0.2852411E-002  0.9049064E+02  0.7546771E-02  0.1425443E+00
          2   -1    0    0  501    0  0.00000000000E+00  0.00000000000E+00  0.29818647683E+03  0.29818647683E+03  0.00000000000E+00 0. -1.
         -2   -1    0    0    0  501 -0.00000000000E+00 -0.00000000000E+00 -0.92951077762E+01  0.92951077762E+01  0.00000000000E+00 0.  1.
         23    2    1    2    0    0  0.11318875601E+02 -0.11637329536E+01  0.27510828875E+03  0.28960857361E+03  0.89772401958E+02 0.  0.
         11    1    3    3    0    0  0.12195981212E+02 -0.39692739588E+02  0.20901587146E+03  0.21310065709E+03  0.00000000000E+00 0. -1.
        -11    1    3    3    0    0 -0.87710561118E+00  0.38529006635E+02  0.66092417292E+02  0.76507916519E+02  0.00000000000E+00 0.  1.
         22    1    1    2    0    0 -0.11318875601E+02  0.11637329536E+01  0.13783080310E+02  0.17873010997E+02  0.00000000000E+00 0.  1.
<mgrwt>
<rscale>  0 0.53885807E+02</rscale>
<asrwt>0</asrwt>
<pdfrwt beam="1">  1        2 0.45874835E-01 0.90490637E+02</pdfrwt>
<pdfrwt beam="2">  1       -2 0.14300168E-02 0.90490637E+02</pdfrwt>
<totfact> 0.11892509E+05</totfact>
</mgrwt>
</event>
<event>
 6    1  0.2852411E-002  0.9387113E+02  0.7546771E-02  0.1409781E+00
         -2   -1    0    0    0  501 -0.00000000000E+00  0.00000000000E+00  0.68986307851E+01  0.68986307851E+01  0.00000000000E+00 0. -1.
          2   -1    0    0  501    0  0.00000000000E+00 -0.00000000000E+00 -0.78004425956E+03  0.78004425956E+03  0.00000000000E+00 0.  1.
         23    2    1    2    0    0  0.12975590504E+02  0.35329499986E+00 -0.76674561428E+03  0.77247046996E+03  0.92969345357E+02 0.  0.
         13    1    3    3    0    0  0.37973003331E+02  0.34653624605E+02 -0.41203758823E+03  0.41523222032E+03  0.00000000000E+00 0. -1.
        -13    1    3    3    0    0 -0.24997412827E+02 -0.34300329606E+02 -0.35470802605E+03  0.35723824964E+03  0.00000000000E+00 0.  1.
         22    1    1    2    0    0 -0.12975590504E+02 -0.35329499986E+00 -0.64000144960E+01  0.14472420386E+02  0.00000000000E+00 0. -1.
<mgrwt>
<rscale>  0 0.57242826E+02</rscale>
<asrwt>0</asrwt>
<pdfrwt beam="1">  1        2 0.12000679E+00 0.93871135E+02</pdfrwt>
<pdfrwt beam="2">  1       -2 0.10613280E-02 0.93871135E+02</pdfrwt>
<totfact> 0.63856455E+04</totfact>
</mgrwt>
</event>
<event>
 6    1  0.2852411E-002  0.9112917E+02  0.7546771E-02  0.1418772E+00
          2   -1    0    0  501    0  0.00000000000E+00  0.00000000000E+00  0.14136705804E+03  0.14136705804E+03  0.00000000000E+00 0. -1.
         -2   -1    0    0    0  501 -0.00000000000E+00 -0.00000000000E+00 -0.31391466715E+02  0.31391466715E+02  0.00000000000E+00 0.  1.
         23    2    1    2    0    0 -0.44766810257E+01 -0.11500426472E+02  0.12412362301E+03  0.15398441272E+03  0.90289673223E+02 0.  0.
         13    1    3    3    0    0  0.30547255659E+02  0.57972751009E+01  0.10683394698E+03  0.11126650643E+03  0.00000000000E+00 0. -1.
        -13    1    3    3    0    0 -0.35023936685E+02 -0.17297701572E+02  0.17289676032E+02  0.42717906291E+02  0.00000000000E+00 0.  1.
         22    1    1    2    0    0  0.44766810257E+01  0.11500426472E+02 -0.14148031685E+02  0.18774112032E+02  0.00000000000E+00 0.  1.
<mgrwt>
<rscale>  0 0.55281615E+02</rscale>
<asrwt>0</asrwt>
<pdfrwt beam="1">  1        2 0.21748778E-01 0.91129170E+02</pdfrwt>
<pdfrwt beam="2">  1       -2 0.48294565E-02 0.91129170E+02</pdfrwt>
<totfact> 0.45262743E+04</totfact>
</mgrwt>
</event>
<event>
 6    1  0.2852411E-002  0.9369187E+02  0.7546771E-02  0.1376405E+00
          2   -1    0    0  501    0  0.00000000000E+00  0.00000000000E+00  0.13114775353E+04  0.13114775353E+04  0.00000000000E+00 0. -1.
         -2   -1    0    0    0  501 -0.00000000000E+00 -0.00000000000E+00 -0.39071873275E+01  0.39071873275E+01  0.00000000000E+00 0.  1.
         23    2    1    2    0    0 -0.21261828210E+02  0.66191230239E+01  0.12522588279E+04  0.12557588693E+04  0.91007075073E+02 0.  0.
         11    1    3    3    0    0 -0.67672939823E+01  0.96966531525E+01  0.12220933595E+04  0.12221505639E+04  0.00000000000E+00 0. -1.
        -11    1    3    3    0    0 -0.14494534228E+02 -0.30775301286E+01  0.30165468391E+02  0.33608305483E+02  0.00000000000E+00 0.  1.
         22    1    1    2    0    0  0.21261828210E+02 -0.66191230239E+01  0.55311520010E+02  0.59625853238E+02  0.00000000000E+00 0.  1.
<mgrwt>
<rscale>  0 0.65418154E+02</rscale>
<asrwt>0</asrwt>
<pdfrwt beam="1">  1        2 0.20176542E+00 0.93691866E+02</pdfrwt>
<pdfrwt beam="2">  1       -2 0.60110679E-03 0.93691866E+02</pdfrwt>
<totfact> 0.69745802E+04</totfact>
</mgrwt>
</event>
<event>
 6    1  0.2852411E-002  0.9322324E+02  0.7546771E-02  0.1423277E+00
          4   -1    0    0  501    0  0.00000000000E+00  0.00000000000E+00  0.63841524748E+02  0.63841524748E+02  0.00000000000E+00 0. -1.
         -4   -1    0    0    0  501 -0.00000000000E+00 -0.00000000000E+00 -0.44084071845E+02  0.44084071845E+02  0.00000000000E+00 0.  1.
         23    2    1    2    0    0 -0.96973804668E+01 -0.46559214033E+01  0.24158934247E+02  0.96302781528E+02  0.92600512061E+02 0.  0.
         13    1    3    3    0    0 -0.19503221454E+02 -0.39566072926E+02  0.37265399200E+02  0.57745647034E+02  0.00000000000E+00 0. -1.
        -13    1    3    3    0    0  0.98058409876E+01  0.34910151522E+02 -0.13106464953E+02  0.38557134493E+02  0.00000000000E+00 0.  1.
         22    1    1    2    0    0  0.96973804668E+01  0.46559214033E+01 -0.44014813443E+01  0.11622815066E+02  0.00000000000E+00 0.  1.
<mgrwt>
<rscale>  0 0.54333499E+02</rscale>
<asrwt>0</asrwt>
<pdfrwt beam="1">  1        4 0.98217730E-02 0.93223235E+02</pdfrwt>
<pdfrwt beam="2">  1       -4 0.67821649E-02 0.93223235E+02</pdfrwt>
<totfact> 0.16496702E+04</totfact>
</mgrwt>
</event>
<event>
 6    1  0.2852411E-002  0.1000553E+03  0.7546771E-02  0.1344099E+00
          2   -1    0    0  501    0  0.00000000000E+00  0.00000000000E+00  0.43587959800E+03  0.43587959800E+03  0.00000000000E+00 0. -1.
         -2   -1    0    0    0  501 -0.00000000000E+00 -0.00000000000E+00 -0.99225112438E+01  0.99225112438E+01  0.00000000000E+00 0.  1.
         23    2    1    2    0    0 -0.27723173170E+02 -0.14880311013E+02  0.32165963140E+03  0.33686195512E+03  0.94979262734E+02 0.  0.
         11    1    3    3    0    0 -0.58459416842E+01 -0.54193060599E+02  0.15836377481E+03  0.16748178415E+03  0.00000000000E+00 0.  1.
        -11    1    3    3    0    0 -0.21877231485E+02  0.39312749587E+02  0.16329585659E+03  0.16938017097E+03  0.00000000000E+00 0. -1.
         22    1    1    2    0    0  0.27723173170E+02  0.14880311013E+02  0.10429745535E+03  0.10894015412E+03  0.00000000000E+00 0. -1.
<mgrwt>
<rscale>  0 0.74926300E+02</rscale>
<asrwt>0</asrwt>
<pdfrwt beam="1">  1        2 0.67058385E-01 0.10005528E+03</pdfrwt>
<pdfrwt beam="2">  1       -2 0.15265405E-02 0.10005528E+03</pdfrwt>
<totfact> 0.73739910E+04</totfact>
</mgrwt>
</event>
<event>
 6    1  0.2852411E-002  0.8990428E+02  0.7546771E-02  0.1420204E+00
         -1   -1    0    0    0  501 -0.00000000000E+00  0.00000000000E+00  0.36428831703E+02  0.36428831703E+02  0.00000000000E+00 0.  1.
          1   -1    0    0  501    0  0.00000000000E+00 -0.00000000000E+00 -0.72634753426E+02  0.72634753426E+02  0.00000000000E+00 0. -1.
         23    2    1    2    0    0  0.37723488911E+01  0.11992882018E+02 -0.28480817217E+02  0.94307668523E+02  0.89020893939E+02 0.  0.
         11    1    3    3    0    0 -0.27200839735E+02 -0.26389187301E+02 -0.23831386579E+02  0.44768402641E+02  0.00000000000E+00 0. -1.
        -11    1    3    3    0    0  0.30973188626E+02  0.38382069319E+02 -0.46494306380E+01  0.49539265882E+02  0.00000000000E+00 0.  1.
         22    1    1    2    0    0 -0.37723488911E+01 -0.11992882018E+02 -0.77251045059E+01  0.14755916606E+02  0.00000000000E+00 0.  1.
<mgrwt>
<rscale>  0 0.54977877E+02</rscale>
<asrwt>0</asrwt>
<pdfrwt beam="1">  1        1 0.11174577E-01 0.89904279E+02</pdfrwt>
<pdfrwt beam="2">  1       -1 0.56044357E-02 0.89904279E+02</pdfrwt>
<totfact> 0.69545246E+04</totfact>
</mgrwt>
</event>
<event>
 6    1  0.2852411E-002  0.7772156E+02  0.7546771E-02  0.1398719E+00
         -4   -1    0    0    0  501 -0.00000000000E+00  0.00000000000E+00  0.21150637218E+03  0.21150637218E+03  0.00000000000E+00 0.  1.
          4   -1    0    0  501    0  0.00000000000E+00 -0.00000000000E+00 -0.13525549965E+02  0.13525549965E+02  0.00000000000E+00 0. -1.
         23    2    1    2    0    0  0.20256564223E+02 -0.18179996863E+02  0.16407778936E+03  0.18155484408E+03  0.72799723685E+02 0.  0.
         11    1    3    3    0    0  0.10561151412E+02 -0.27489875627E+02  0.16544360623E+03  0.16804409548E+03  0.00000000000E+00 0.  1.
        -11    1    3    3    0    0  0.96954128104E+01  0.93098787635E+01 -0.13658168738E+01  0.13510748606E+02  0.00000000000E+00 0. -1.
         22    1    1    2    0    0 -0.20256564223E+02  0.18179996863E+02  0.33903032852E+02  0.43477078060E+02  0.00000000000E+00 0. -1.
<mgrwt>
<rscale>  0 0.59789060E+02</rscale>
<asrwt>0</asrwt>
<pdfrwt beam="1">  1        4 0.20808540E-02 0.77721557E+02</pdfrwt>
<pdfrwt beam="2">  1       -4 0.32539439E-01 0.77721557E+02</pdfrwt>
<totfact> 0.12008499E+04</totfact>
</mgrwt>
</event>
<event>
 6    1  0.2852411E-002  0.9549937E+02  0.7546771E-02  0.1355270E+00
          2   -1    0    0  501    0  0.00000000000E+00  0.00000000000E+00  0.22601376868E+03  0.22601376868E+03  0.00000000000E+00 0. -1.
         -2   -1    0    0    0  501 -0.00000000000E+00 -0.00000000000E+00 -0.30560913360E+02  0.30560913360E+02  0.00000000000E+00 0.  1.
         23    2    1    2    0    0 -0.18271637896E+02 -0.23671919103E+02  0.20419178341E+03  0.22542052710E+03  0.90696841855E+02 0.  0.
         13    1    3    3    0    0  0.15507692606E+02 -0.13825254172E+02  0.18335513179E+03  0.18452840036E+03  0.00000000000E+00 0.  1.
        -13    1    3    3    0    0 -0.33779330501E+02 -0.98466649315E+01  0.20836651615E+02  0.40892126747E+02  0.00000000000E+00 0. -1.
         22    1    1    2    0    0  0.18271637896E+02  0.23671919103E+02 -0.87389280921E+01  0.31154154933E+02  0.00000000000E+00 0.  1.
<mgrwt>
<rscale>  0 0.71438195E+02</rscale>
<asrwt>0</asrwt>
<pdfrwt beam="1">  1        2 0.34771348E-01 0.95499370E+02</pdfrwt>
<pdfrwt beam="2">  1       -2 0.47016791E-02 0.95499370E+02</pdfrwt>
<totfact> 0.28532020E+04</totfact>
</mgrwt>
</event>
<event>
 6    1  0.2852411E-002  0.9510062E+02  0.7546771E-02  0.1363650E+00
          1   -1    0    0  501    0  0.00000000000E+00  0.00000000000E+00  0.46171960821E+03  0.46171960821E+03  0.00000000000E+00 0. -1.
         -1   -1    0    0    0  501 -0.00000000000E+00 -0.00000000000E+00 -0.13172719810E+02  0.13172719810E+02  0.00000000000E+00 0.  1.
         23    2    1    2    0    0 -0.29613715174E+00 -0.26298044022E+02  0.43506626464E+03  0.44533895201E+03  0.91391754179E+02 0.  0.
         13    1    3    3    0    0 -0.13297546728E+02 -0.18313690803E+02  0.20635515979E+02  0.30627447486E+02  0.00000000000E+00 0.  1.
        -13    1    3    3    0    0  0.13001409577E+02 -0.79843532188E+01  0.41443074866E+03  0.41471150452E+03  0.00000000000E+00 0. -1.
         22    1    1    2    0    0  0.29613715174E+00  0.26298044022E+02  0.13480623756E+02  0.29553376007E+02  0.00000000000E+00 0.  1.
<mgrwt>
<rscale>  0 0.68964446E+02</rscale>
<asrwt>0</asrwt>
<pdfrwt beam="1">  1        1 0.71033774E-01 0.95100618E+02</pdfrwt>
<pdfrwt beam="2">  1       -1 0.20265726E-02 0.95100618E+02</pdfrwt>
<totfact> 0.30323087E+04</totfact>
</mgrwt>
</event>
<event>
 6    1  0.2852411E-002  0.9191934E+02  0.7546771E-02  0.1422759E+00
         -1   -1    0    0    0  501 -0.00000000000E+00  0.00000000000E+00  0.13953131409E+03  0.13953131409E+03  0.00000000000E+00 0.  1.
          1   -1    0    0  501    0  0.00000000000E+00 -0.00000000000E+00 -0.19600738475E+02  0.19600738475E+02  0.00000000000E+00 0. -1.
         23    2    1    2    0    0 -0.71002356879E+01 -0.88046405495E+01  0.97420294562E+02  0.13393983561E+03  0.91220780136E+02 0.  0.
         13    1    3    3    0    0  0.11527839381E+02  0.28625874917E+02  0.84840421938E+02  0.90278618677E+02  0.00000000000E+00 0.  1.
        -13    1    3    3    0    0 -0.18628075069E+02 -0.37430515467E+02  0.12579872624E+02  0.43661216933E+02  0.00000000000E+00 0. -1.
         22    1    1    2    0    0  0.71002356879E+01  0.88046405495E+01  0.22510281055E+02  0.25192216957E+02  0.00000000000E+00 0.  1.
<mgrwt>
<rscale>  0 0.54441349E+02</rscale>
<asrwt>0</asrwt>
<pdfrwt beam="1">  1        1 0.30154983E-02 0.91919344E+02</pdfrwt>
<pdfrwt beam="2">  1       -1 0.21466355E-01 0.91919344E+02</pdfrwt>
<totfact> 0.52224860E+04</totfact>
</mgrwt>
</event>
<event>
 6    1  0.2852411E-002  0.9692829E+02  0.7546771E-02  0.1343676E+00
         -2   -1    0    0    0  501 -0.00000000000E+00  0.00000000000E+00  0.19869098660E+02  0.19869098660E+02  0.00000000000E+00 0.  1.
          2   -1    0    0  501    0  0.00000000000E+00 -0.00000000000E+00 -0.48035760715E+03  0.48035760715E+03  0.00000000000E+00 0. -1.
         23    2    1    2    0    0 -0.70086359835E+00 -0.34854880979E+02 -0.45466456221E+03  0.46488165965E+03  0.90441911806E+02 0.  0.
         11    1    3    3    0    0 -0.15123219443E+02 -0.43148168239E+02 -0.44096861326E+03  0.44333259982E+03  0.00000000000E+00 0. -1.
        -11    1    3    3    0    0  0.14422355845E+02  0.82932872600E+01 -0.13695948955E+02  0.21549059828E+02  0.00000000000E+00 0.  1.
         22    1    1    2    0    0  0.70086359835E+00  0.34854880979E+02 -0.58239462794E+01  0.35345046161E+02  0.00000000000E+00 0.  1.
<mgrwt>
<rscale>  0 0.75062973E+02</rscale>
<asrwt>0</asrwt>
<pdfrwt beam="1">  1        2 0.73901169E-01 0.96928290E+02</pdfrwt>
<pdfrwt beam="2">  1       -2 0.30567845E-02 0.96928290E+02</pdfrwt>
<totfact> 0.24306166E+04</totfact>
</mgrwt>
</event>
<event>
 6    1  0.2852411E-002  0.9660891E+02  0.7546771E-02  0.1356679E+00
          2   -1    0    0  501    0  0.00000000000E+00  0.00000000000E+00  0.10300789182E+03  0.10300789182E+03  0.00000000000E+00 0.  1.
         -2   -1    0    0    0  501 -0.00000000000E+00 -0.00000000000E+00 -0.43720351999E+02  0.43720351999E+02  0.00000000000E+00 0. -1.
         23    2    1    2    0    0  0.25538186626E+02  0.11970561928E+02  0.66903926083E+02  0.11751347583E+03  0.92400153389E+02 0.  0.
         13    1    3    3    0    0  0.11259067805E+01  0.31345552778E+02  0.78284387593E+02  0.84334196420E+02  0.00000000000E+00 0.  1.
        -13    1    3    3    0    0  0.24412279846E+02 -0.19374990850E+02 -0.11380461509E+02  0.33179279406E+02  0.00000000000E+00 0. -1.
         22    1    1    2    0    0 -0.25538186626E+02 -0.11970561928E+02 -0.76163862653E+01  0.29214767991E+02  0.00000000000E+00 0. -1.
<mgrwt>
<rscale>  0 0.71013752E+02</rscale>
<asrwt>0</asrwt>
<pdfrwt beam="1">  1        2 0.15847368E-01 0.96608911E+02</pdfrwt>
<pdfrwt beam="2">  1       -2 0.67262080E-02 0.96608911E+02</pdfrwt>
<totfact> 0.39687323E+04</totfact>
</mgrwt>
</event>
<event>
 6    1  0.2852411E-002  0.9785421E+02  0.7546771E-02  0.1338781E+00
         -1   -1    0    0    0  501 -0.00000000000E+00  0.00000000000E+00  0.22551006882E+02  0.22551006882E+02  0.00000000000E+00 0.  1.
          1   -1    0    0  501    0  0.00000000000E+00 -0.00000000000E+00 -0.95039569149E+03  0.95039569149E+03  0.00000000000E+00 0. -1.
         23    2    1    2    0    0  0.12606707862E+01 -0.36853095031E+02 -0.93082259128E+03  0.93595199831E+03  0.90640536186E+02 0.  0.
         13    1    3    3    0    0  0.27825658771E+02 -0.29366034167E+02 -0.84128405888E+03  0.84225619557E+03  0.00000000000E+00 0. -1.
        -13    1    3    3    0    0 -0.26564987985E+02 -0.74870608640E+01 -0.89538532402E+02  0.93695802743E+02  0.00000000000E+00 0.  1.
         22    1    1    2    0    0 -0.12606707862E+01  0.36853095031E+02  0.29779066745E+01  0.36994700058E+02  0.00000000000E+00 0.  1.
<mgrwt>
<rscale>  0 0.76668439E+02</rscale>
<asrwt>0</asrwt>
<pdfrwt beam="1">  1        1 0.14621471E+00 0.97854211E+02</pdfrwt>
<pdfrwt beam="2">  1       -1 0.34693860E-02 0.97854211E+02</pdfrwt>
<totfact> 0.50926607E+03</totfact>
</mgrwt>
</event>
<event>
 6    1  0.2852411E-002  0.9043267E+02  0.7546771E-02  0.1431515E+00
         -1   -1    0    0    0  501 -0.00000000000E+00  0.00000000000E+00  0.22422976565E+01  0.22422976565E+01  0.00000000000E+00 0.  1.
          1   -1    0    0  501    0  0.00000000000E+00 -0.00000000000E+00 -0.14505108819E+04  0.14505108819E+04  0.00000000000E+00 0. -1.
         23    2    1    2    0    0 -0.41082159463E+01  0.95495256763E+01 -0.14152594865E+04  0.14181457899E+04  0.89833160135E+02 0.  0.
         11    1    3    3    0    0 -0.25388064850E+02 -0.31431660803E+02 -0.86870326425E+03  0.86964237733E+03  0.00000000000E+00 0. -1.
        -11    1    3    3    0    0  0.21279848903E+02  0.40981186479E+02 -0.54655622221E+03  0.54850341261E+03  0.00000000000E+00 0.  1.
         22    1    1    2    0    0  0.41082159463E+01 -0.95495256763E+01 -0.33009097794E+02  0.34607389617E+02  0.00000000000E+00 0.  1.
<mgrwt>
<rscale>  0 0.52657180E+02</rscale>
<asrwt>0</asrwt>
<pdfrwt beam="1">  1        1 0.22315589E+00 0.90432669E+02</pdfrwt>
<pdfrwt beam="2">  1       -1 0.34496829E-03 0.90432669E+02</pdfrwt>
<totfact> 0.60832499E+04</totfact>
</mgrwt>
</event>
<event>
 6    1  0.2852411E-002  0.1116053E+03  0.7546771E-02  0.1375210E+00
         -2   -1    0    0    0  501 -0.00000000000E+00  0.00000000000E+00  0.88055258455E+01  0.88055258455E+01  0.00000000000E+00 0. -1.
          2   -1    0    0  501    0  0.00000000000E+00 -0.00000000000E+00 -0.51625747181E+03  0.51625747181E+03  0.00000000000E+00 0.  1.
         23    2    1    2    0    0  0.13435527471E+02  0.77629614216E-01 -0.49238764249E+03  0.50487754091E+03  0.11079359826E+03 0.  0.
         11    1    3    3    0    0 -0.36987619081E+02  0.33776938757E+02 -0.25436748455E+03  0.25925235342E+03  0.00000000000E+00 0. -1.
        -11    1    3    3    0    0  0.50423146551E+02 -0.33699309143E+02 -0.23802015793E+03  0.24562518749E+03  0.00000000000E+00 0.  1.
         22    1    1    2    0    0 -0.13435527471E+02 -0.77629614216E-01 -0.15064303472E+02  0.20185456742E+02  0.00000000000E+00 0.  1.
<mgrwt>
<rscale>  0 0.65739906E+02</rscale>
<asrwt>0</asrwt>
<pdfrwt beam="1">  1        2 0.79424233E-01 0.11160529E+03</pdfrwt>
<pdfrwt beam="2">  1       -2 0.13546962E-02 0.11160529E+03</pdfrwt>
<totfact> 0.73925524E+04</totfact>
</mgrwt>
</event>
<event>
 6    1  0.2852411E-002  0.1064354E+03  0.7546771E-02  0.1353260E+00
         -2   -1    0    0    0  501 -0.00000000000E+00  0.00000000000E+00  0.26849636146E+02  0.26849636146E+02  0.00000000000E+00 0. -1.
          2   -1    0    0  501    0  0.00000000000E+00 -0.00000000000E+00 -0.31666137817E+03  0.31666137817E+03  0.00000000000E+00 0.  1.
         23    2    1    2    0    0 -0.41495611533E+01 -0.21960360520E+02 -0.30046002885E+03  0.31875495841E+03  0.10406256907E+03 0.  0.
         13    1    3    3    0    0 -0.35948234151E+02 -0.50131799954E+02 -0.20892328197E+03  0.21784033294E+03  0.00000000000E+00 0. -1.
        -13    1    3    3    0    0  0.31798672998E+02  0.28171439434E+02 -0.91536746877E+02  0.10091462547E+03  0.00000000000E+00 0.  1.
         22    1    1    2    0    0  0.41495611533E+01  0.21960360520E+02  0.10648286825E+02  0.24756055911E+02  0.00000000000E+00 0. -1.
<mgrwt>
<rscale>  0 0.72049162E+02</rscale>
<asrwt>0</asrwt>
<pdfrwt beam="1">  1        2 0.48717135E-01 0.10643540E+03</pdfrwt>
<pdfrwt beam="2">  1       -2 0.41307133E-02 0.10643540E+03</pdfrwt>
<totfact> 0.24526076E+04</totfact>
</mgrwt>
</event>
<event>
 6    1  0.2852411E-002  0.9649579E+02  0.7546771E-02  0.1376449E+00
         -2   -1    0    0    0  501 -0.00000000000E+00  0.00000000000E+00  0.84285947250E+02  0.84285947250E+02  0.00000000000E+00 0.  1.
          2   -1    0    0  501    0  0.00000000000E+00 -0.00000000000E+00 -0.19636769774E+03  0.19636769774E+03  0.00000000000E+00 0. -1.
         23    2    1    2    0    0 -0.20368355794E+02  0.31225532907E-01 -0.18299224681E+03  0.20687580697E+03  0.94321610578E+02 0.  0.
         11    1    3    3    0    0 -0.31483869606E+02 -0.30782883469E+02 -0.16221434661E+03  0.16808424735E+03  0.00000000000E+00 0. -1.
        -11    1    3    3    0    0  0.11115513813E+02  0.30814109002E+02 -0.20777900202E+02  0.38791559619E+02  0.00000000000E+00 0.  1.
         22    1    1    2    0    0  0.20368355794E+02 -0.31225532907E-01  0.70910496328E+02  0.73777838016E+02  0.00000000000E+00 0.  1.
<mgrwt>
<rscale>  0 0.65406421E+02</rscale>
<asrwt>0</asrwt>
<pdfrwt beam="1">  1        2 0.30210415E-01 0.96495788E+02</pdfrwt>
<pdfrwt beam="2">  1       -2 0.12967069E-01 0.96495788E+02</pdfrwt>
<totfact> 0.70134839E+03</totfact>
</mgrwt>
</event>
<event>
 6    1  0.2852411E-002  0.9196377E+02  0.7546771E-02  0.1420356E+00
          1   -1    0    0  501    0  0.00000000000E+00  0.00000000000E+00  0.19484158527E+02  0.19484158527E+02  0.00000000000E+00 0. -1.
         -1   -1    0    0    0  501 -0.00000000000E+00 -0.00000000000E+00 -0.13795617351E+03  0.13795617351E+03  0.00000000000E+00 0.  1.
         23    2    1    2    0    0  0.81210507898E+01  0.84485360993E+01 -0.10443384001E+03  0.13915373627E+03  0.91214067724E+02 0.  0.
         11    1    3    3    0    0 -0.87401630809E+01 -0.99569338394E+01 -0.11222539575E+03  0.11300473633E+03  0.00000000000E+00 0.  1.
        -11    1    3    3    0    0  0.16861213871E+02  0.18405469939E+02  0.77915557419E+01  0.26148999938E+02  0.00000000000E+00 0. -1.
         22    1    1    2    0    0 -0.81210507898E+01 -0.84485360993E+01 -0.14038174972E+02  0.18286595766E+02  0.00000000000E+00 0. -1.
<mgrwt>
<rscale>  0 0.54945604E+02</rscale>
<asrwt>0</asrwt>
<pdfrwt beam="1">  1        1 0.29975629E-02 0.91963772E+02</pdfrwt>
<pdfrwt beam="2">  1       -1 0.21224026E-01 0.91963772E+02</pdfrwt>
<totfact> 0.53621637E+04</totfact>
</mgrwt>
</event>
<event>
 6    1  0.2852411E-002  0.9489427E+02  0.7546771E-02  0.1358690E+00
         -2   -1    0    0    0  501 -0.00000000000E+00  0.00000000000E+00  0.47563970504E+01  0.47563970504E+01  0.00000000000E+00 0.  1.
          2   -1    0    0  501    0  0.00000000000E+00 -0.00000000000E+00 -0.83186820310E+03  0.83186820310E+03  0.00000000000E+00 0. -1.
         23    2    1    2    0    0  0.20989822091E+02  0.19674468108E+02 -0.69260670371E+03  0.69907722692E+03  0.90428235909E+02 0.  0.
         13    1    3    3    0    0  0.37079391279E+02 -0.23348221488E+02 -0.45248963964E+03  0.45460630736E+03  0.00000000000E+00 0. -1.
        -13    1    3    3    0    0 -0.16089569188E+02  0.43022689596E+02 -0.24011706407E+03  0.24447091957E+03  0.00000000000E+00 0.  1.
         22    1    1    2    0    0 -0.20989822091E+02 -0.19674468108E+02 -0.13450510234E+03  0.13754737323E+03  0.00000000000E+00 0.  1.
<mgrwt>
<rscale>  0 0.70414374E+02</rscale>
<asrwt>0</asrwt>
<pdfrwt beam="1">  1        2 0.12797972E+00 0.94894274E+02</pdfrwt>
<pdfrwt beam="2">  1       -2 0.73175341E-03 0.94894274E+02</pdfrwt>
<totfact> 0.99970297E+04</totfact>
</mgrwt>
</event>
<event>
 6    1  0.2852411E-002  0.9156176E+02  0.7546771E-02  0.1385768E+00
         -3   -1    0    0    0  501 -0.00000000000E+00  0.00000000000E+00  0.96373893406E+02  0.96373893406E+02  0.00000000000E+00 0.  1.
          3   -1    0    0  501    0  0.00000000000E+00 -0.00000000000E+00 -0.38520992889E+02  0.38520992889E+02  0.00000000000E+00 0. -1.
         23    2    1    2    0    0 -0.15187148822E+02 -0.13747137708E+02  0.22900916418E+02  0.94382240406E+02  0.89240809313E+02 0.  0.
         11    1    3    3    0    0 -0.47030382528E+02  0.74951163666E+01  0.28795736011E+02  0.55652745327E+02  0.00000000000E+00 0. -1.
        -11    1    3    3    0    0  0.31843233706E+02 -0.21242254075E+02 -0.58948195926E+01  0.38729495079E+02  0.00000000000E+00 0.  1.
         22    1    1    2    0    0  0.15187148822E+02  0.13747137708E+02  0.34951984098E+02  0.40512645889E+02  0.00000000000E+00 0.  1.
<mgrwt>
<rscale>  0 0.62971542E+02</rscale>
<asrwt>0</asrwt>
<pdfrwt beam="1">  1        3 0.59263066E-02 0.91561757E+02</pdfrwt>
<pdfrwt beam="2">  1       -3 0.14826753E-01 0.91561757E+02</pdfrwt>
<totfact> 0.13532081E+04</totfact>
</mgrwt>
</event>
<event>
 6    1  0.2852411E-002  0.1019483E+03  0.7546771E-02  0.1320084E+00
          1   -1    0    0  501    0  0.00000000000E+00  0.00000000000E+00  0.35120412014E+03  0.35120412014E+03  0.00000000000E+00 0. -1.
         -1   -1    0    0    0  501 -0.00000000000E+00 -0.00000000000E+00 -0.20775458915E+02  0.20775458915E+02  0.00000000000E+00 0.  1.
         23    2    1    2    0    0 -0.43523306732E+02 -0.12642979247E+02  0.30135743268E+03  0.31813480696E+03  0.91319932187E+02 0.  0.
         13    1    3    3    0    0 -0.45184801276E+02  0.16268017618E+02  0.69513388997E+02  0.84489205899E+02  0.00000000000E+00 0.  1.
        -13    1    3    3    0    0  0.16614945444E+01 -0.28910996865E+02  0.23184404368E+03  0.23364560106E+03  0.00000000000E+00 0. -1.
         22    1    1    2    0    0  0.43523306732E+02  0.12642979247E+02  0.29071228547E+02  0.53844772099E+02  0.00000000000E+00 0.  1.
<mgrwt>
<rscale>  0 0.83245978E+02</rscale>
<asrwt>0</asrwt>
<pdfrwt beam="1">  1        1 0.54031399E-01 0.10194829E+03</pdfrwt>
<pdfrwt beam="2">  1       -1 0.31962247E-02 0.10194829E+03</pdfrwt>
<totfact> 0.22331658E+04</totfact>
</mgrwt>
</event>
<event>
 6    1  0.2852411E-002  0.1130720E+03  0.7546771E-02  0.1344661E+00
          3   -1    0    0  501    0  0.00000000000E+00  0.00000000000E+00  0.12504995673E+03  0.12504995673E+03  0.00000000000E+00 0. -1.
         -3   -1    0    0    0  501 -0.00000000000E+00 -0.00000000000E+00 -0.52318085400E+02  0.52318085400E+02  0.00000000000E+00 0.  1.
         23    2    1    2    0    0 -0.21483782083E+02 -0.21509725829E+01  0.94014405167E+02  0.14705095418E+03  0.11099141935E+03 0.  0.
         13    1    3    3    0    0  0.18836027691E+02 -0.36221636161E+02  0.83896334538E+02  0.93302721366E+02  0.00000000000E+00 0. -1.
        -13    1    3    3    0    0 -0.40319809774E+02  0.34070663578E+02  0.10118070630E+02  0.53748232810E+02  0.00000000000E+00 0.  1.
         22    1    1    2    0    0  0.21483782083E+02  0.21509725829E+01 -0.21282533836E+02  0.30317087956E+02  0.00000000000E+00 0.  1.
<mgrwt>
<rscale>  0 0.74745565E+02</rscale>
<asrwt>0</asrwt>
<pdfrwt beam="1">  1        3 0.19238455E-01 0.11307199E+03</pdfrwt>
<pdfrwt beam="2">  1       -3 0.80489362E-02 0.11307199E+03</pdfrwt>
<totfact> 0.55594810E+03</totfact>
</mgrwt>
</event>
<event>
 6    1  0.2852411E-002  0.1000790E+03  0.7546771E-02  0.1365085E+00
         -2   -1    0    0    0  501 -0.00000000000E+00  0.00000000000E+00  0.78018077989E+01  0.78018077989E+01  0.00000000000E+00 0.  1.
          2   -1    0    0  501    0  0.00000000000E+00 -0.00000000000E+00 -0.51228892087E+03  0.51228892087E+03  0.00000000000E+00 0. -1.
         23    2    1    2    0    0  0.11455995148E+02  0.18820096618E+02 -0.45568747523E+03  0.46654784384E+03  0.97623663402E+02 0.  0.
         11    1    3    3    0    0  0.15745189475E+02 -0.31969791428E+02 -0.31314612236E+03  0.31516737221E+03  0.00000000000E+00 0. -1.
        -11    1    3    3    0    0 -0.42891943271E+01  0.50789888046E+02 -0.14254135286E+03  0.15138047163E+03  0.00000000000E+00 0.  1.
         22    1    1    2    0    0 -0.11455995148E+02 -0.18820096618E+02 -0.48799637841E+02  0.53542884821E+02  0.00000000000E+00 0.  1.
<mgrwt>
<rscale>  0 0.68552587E+02</rscale>
<asrwt>0</asrwt>
<pdfrwt beam="1">  1        2 0.78813711E-01 0.10007905E+03</pdfrwt>
<pdfrwt beam="2">  1       -2 0.12002777E-02 0.10007905E+03</pdfrwt>
<totfact> 0.87347797E+04</totfact>
</mgrwt>
</event>
<event>
 6    1  0.2852411E-002  0.1056794E+03  0.7546771E-02  0.1305446E+00
         -2   -1    0    0    0  501 -0.00000000000E+00  0.00000000000E+00  0.85511652403E+02  0.85511652403E+02  0.00000000000E+00 0.  1.
          2   -1    0    0  501    0  0.00000000000E+00 -0.00000000000E+00 -0.20138932799E+03  0.20138932799E+03  0.00000000000E+00 0. -1.
         23    2    1    2    0    0  0.48748516927E+02 -0.20826050089E+02 -0.17690382658E+03  0.20606575683E+03  0.91422043378E+02 0.  0.
         13    1    3    3    0    0  0.48384632450E+02  0.24531786092E+02 -0.12976345462E+03  0.14064649069E+03  0.00000000000E+00 0. -1.
        -13    1    3    3    0    0  0.36388447674E+00 -0.45357836181E+02 -0.47140371951E+02  0.65419266142E+02  0.00000000000E+00 0.  1.
         22    1    1    2    0    0 -0.48748516927E+02  0.20826050089E+02  0.61026150986E+02  0.80835223567E+02  0.00000000000E+00 0.  1.
<mgrwt>
<rscale>  0 0.88937260E+02</rscale>
<asrwt>0</asrwt>
<pdfrwt beam="1">  1        2 0.30982973E-01 0.10567938E+03</pdfrwt>
<pdfrwt beam="2">  1       -2 0.13155639E-01 0.10567938E+03</pdfrwt>
<totfact> 0.67172626E+03</totfact>
</mgrwt>
</event>
<event>
 6    1  0.2852411E-002  0.9978882E+02  0.7546771E-02  0.1335213E+00
         -3   -1    0    0    0  501 -0.00000000000E+00  0.00000000000E+00  0.73379247923E+01  0.73379247923E+01  0.00000000000E+00 0.  1.
          3   -1    0    0  501    0  0.00000000000E+00 -0.00000000000E+00 -0.67949420651E+03  0.67949420651E+03  0.00000000000E+00 0. -1.
         23    2    1    2    0    0  0.22516011202E+02 -0.29358680421E+02 -0.55730665911E+03  0.56617004658E+03  0.92676353398E+02 0.  0.
         13    1    3    3    0    0  0.33531217197E+02 -0.45981021530E+02 -0.52588368161E+03  0.52895391429E+03  0.00000000000E+00 0. -1.
        -13    1    3    3    0    0 -0.11015205995E+02  0.16622341109E+02 -0.31422977501E+02  0.37216132283E+02  0.00000000000E+00 0.  1.
         22    1    1    2    0    0 -0.22516011202E+02  0.29358680421E+02 -0.11484962261E+03  0.12066208473E+03  0.00000000000E+00 0.  1.
<mgrwt>
<rscale>  0 0.77867818E+02</rscale>
<asrwt>0</asrwt>
<pdfrwt beam="1">  1        3 0.10453759E+00 0.99788824E+02</pdfrwt>
<pdfrwt beam="2">  1       -3 0.11289113E-02 0.99788824E+02</pdfrwt>
<totfact> 0.40022418E+03</totfact>
</mgrwt>
</event>
<event>
 6    1  0.2852411E-002  0.9262363E+02  0.7546771E-02  0.1428304E+00
         -2   -1    0    0    0  501 -0.00000000000E+00  0.00000000000E+00  0.20619084503E+02  0.20619084503E+02  0.00000000000E+00 0.  1.
          2   -1    0    0  501    0  0.00000000000E+00 -0.00000000000E+00 -0.13731519265E+03  0.13731519265E+03  0.00000000000E+00 0. -1.
         23    2    1    2    0    0  0.10050342538E+02 -0.14748125222E+01 -0.11495659729E+03  0.14762843633E+03  0.92064930867E+02 0.  0.
         11    1    3    3    0    0 -0.43294893805E+01 -0.38943518009E+02 -0.95090834483E+02  0.10284750301E+03  0.00000000000E+00 0. -1.
        -11    1    3    3    0    0  0.14379831918E+02  0.37468705487E+02 -0.19865762806E+02  0.44780933317E+02  0.00000000000E+00 0.  1.
         22    1    1    2    0    0 -0.10050342538E+02  0.14748125222E+01 -0.17395108593E+01  0.10305840826E+02  0.00000000000E+00 0.  1.
<mgrwt>
<rscale>  0 0.53301952E+02</rscale>
<asrwt>0</asrwt>
<pdfrwt beam="1">  1        2 0.21125414E-01 0.92623625E+02</pdfrwt>
<pdfrwt beam="2">  1       -2 0.31721669E-02 0.92623625E+02</pdfrwt>
<totfact> 0.86896811E+04</totfact>
</mgrwt>
</event>
<event>
 6    1  0.2852411E-002  0.9215706E+02  0.7546771E-02  0.1417714E+00
          2   -1    0    0  501    0  0.00000000000E+00  0.00000000000E+00  0.47238229747E+03  0.47238229747E+03  0.00000000000E+00 0. -1.
         -2   -1    0    0    0  501 -0.00000000000E+00 -0.00000000000E+00 -0.67062614379E+01  0.67062614379E+01  0.00000000000E+00 0.  1.
         23    2    1    2    0    0  0.10861502663E+02 -0.53979761112E+01  0.44961379262E+03  0.45896131246E+03  0.91355423674E+02 0.  0.
         11    1    3    3    0    0  0.38534269115E+02 -0.13228590588E+02  0.97431711707E+02  0.10560693136E+03  0.00000000000E+00 0.  1.
        -11    1    3    3    0    0 -0.27672766452E+02  0.78306144766E+01  0.35218208091E+03  0.35335438110E+03  0.00000000000E+00 0. -1.
         22    1    1    2    0    0 -0.10861502663E+02  0.53979761112E+01  0.16062243419E+02  0.20127246455E+02  0.00000000000E+00 0.  1.
<mgrwt>
<rscale>  0 0.55507527E+02</rscale>
<asrwt>0</asrwt>
<pdfrwt beam="1">  1        2 0.72674174E-01 0.92157061E+02</pdfrwt>
<pdfrwt beam="2">  1       -2 0.10317329E-02 0.92157061E+02</pdfrwt>
<totfact> 0.11683581E+05</totfact>
</mgrwt>
</event>
<event>
 6    1  0.2852411E-002  0.9273709E+02  0.7546771E-02  0.1426989E+00
          2   -1    0    0  501    0  0.00000000000E+00  0.00000000000E+00  0.33398743345E+03  0.33398743345E+03  0.00000000000E+00 0. -1.
         -2   -1    0    0    0  501 -0.00000000000E+00 -0.00000000000E+00 -0.92308404488E+01  0.92308404488E+01  0.00000000000E+00 0.  1.
         23    2    1    2    0    0  0.53593877293E+01 -0.88254075753E+01  0.31704888937E+03  0.33033341647E+03  0.92160495493E+02 0.  0.
         11    1    3    3    0    0  0.36144896894E+02  0.63802630165E+01  0.26775958289E+03  0.27026349283E+03  0.00000000000E+00 0. -1.
        -11    1    3    3    0    0 -0.30785509165E+02 -0.15205670592E+02  0.49289306482E+02  0.60069923640E+02  0.00000000000E+00 0.  1.
         22    1    1    2    0    0 -0.53593877293E+01  0.88254075753E+01  0.77077036297E+01  0.12884857428E+02  0.00000000000E+00 0. -1.
<mgrwt>
<rscale>  0 0.53569214E+02</rscale>
<asrwt>0</asrwt>
<pdfrwt beam="1">  1        2 0.51382673E-01 0.92737090E+02</pdfrwt>
<pdfrwt beam="2">  1       -2 0.14201296E-02 0.92737090E+02</pdfrwt>
<totfact> 0.10708106E+05</totfact>
</mgrwt>
</event>
<event>
 6    1  0.2852411E-002  0.9779324E+02  0.7546771E-02  0.1329568E+00
          4   -1    0    0  501    0  0.00000000000E+00  0.00000000000E+00  0.15374982289E+03  0.15374982289E+03  0.00000000000E+00 0. -1.
         -4   -1    0    0    0  501 -0.00000000000E+00 -0.00000000000E+00 -0.35341993529E+02  0.35341993529E+02  0.00000000000E+00 0.  1.
         23    2    1    2    0    0 -0.42985693085E+02 -0.59783058308E+01  0.10541113876E+03  0.14378813095E+03  0.87635657560E+02 0.  0.
         13    1    3    3    0    0  0.17409407185E+02 -0.23169553931E+02  0.58902601010E+02  0.65646264887E+02  0.00000000000E+00 0. -1.
        -13    1    3    3    0    0 -0.60395100269E+02  0.17191248100E+02  0.46508537754E+02  0.78141866063E+02  0.00000000000E+00 0.  1.
         22    1    1    2    0    0  0.42985693085E+02  0.59783058308E+01  0.12996690597E+02  0.45303685469E+02  0.00000000000E+00 0. -1.
<mgrwt>
<rscale>  0 0.79818328E+02</rscale>
<asrwt>0</asrwt>
<pdfrwt beam="1">  1        4 0.23653818E-01 0.97793243E+02</pdfrwt>
<pdfrwt beam="2">  1       -4 0.54372299E-02 0.97793243E+02</pdfrwt>
<totfact> 0.51855471E+03</totfact>
</mgrwt>
</event>
<event>
 6    1  0.2852411E-002  0.9407335E+02  0.7546771E-02  0.1377297E+00
          2   -1    0    0  501    0  0.00000000000E+00  0.00000000000E+00  0.19816252691E+04  0.19816252691E+04  0.00000000000E+00 0. -1.
         -2   -1    0    0    0  501 -0.00000000000E+00 -0.00000000000E+00 -0.72666821756E+01  0.72666821756E+01  0.00000000000E+00 0.  1.
         23    2    1    2    0    0 -0.21340558373E+02  0.38178092789E+01  0.19613591461E+04  0.19636138865E+04  0.91541246854E+02 0.  0.
         13    1    3    3    0    0  0.31813645656E+02 -0.15082332276E+02  0.98230114902E+03  0.98293190616E+03  0.00000000000E+00 0. -1.
        -13    1    3    3    0    0 -0.53154204029E+02  0.18900141555E+02  0.97905799712E+03  0.98068198030E+03  0.00000000000E+00 0.  1.
         22    1    1    2    0    0  0.21340558373E+02 -0.38178092789E+01  0.12999440766E+02  0.25278064791E+02  0.00000000000E+00 0.  1.
<mgrwt>
<rscale>  0 0.65179589E+02</rscale>
<asrwt>0</asrwt>
<pdfrwt beam="1">  1        2 0.30486500E+00 0.94073349E+02</pdfrwt>
<pdfrwt beam="2">  1       -2 0.11179527E-02 0.94073349E+02</pdfrwt>
<totfact> 0.13251818E+04</totfact>
</mgrwt>
</event>
<event>
 6    1  0.2852411E-002  0.9415008E+02  0.7546771E-02  0.1380369E+00
         -2   -1    0    0    0  501 -0.00000000000E+00  0.00000000000E+00  0.40120713602E+02  0.40120713602E+02  0.00000000000E+00 0.  1.
          2   -1    0    0  501    0  0.00000000000E+00 -0.00000000000E+00 -0.82217979057E+02  0.82217979057E+02  0.00000000000E+00 0. -1.
         23    2    1    2    0    0  0.53134553153E+01  0.19869622433E+02 -0.32116676652E+02  0.99477221668E+02  0.91876014327E+02 0.  0.
         13    1    3    3    0    0  0.47276755940E+02  0.19246770432E+02 -0.99144535785E+01  0.51998328954E+02  0.00000000000E+00 0. -1.
        -13    1    3    3    0    0 -0.41963300625E+02  0.62285200071E+00 -0.22202223073E+02  0.47478892714E+02  0.00000000000E+00 0.  1.
         22    1    1    2    0    0 -0.53134553153E+01 -0.19869622433E+02 -0.99805888029E+01  0.22861470991E+02  0.00000000000E+00 0.  1.
<mgrwt>
<rscale>  0 0.64366887E+02</rscale>
<asrwt>0</asrwt>
<pdfrwt beam="1">  1        2 0.12648920E-01 0.94150075E+02</pdfrwt>
<pdfrwt beam="2">  1       -2 0.61724175E-02 0.94150075E+02</pdfrwt>
<totfact> 0.58564223E+04</totfact>
</mgrwt>
</event>
<event>
 6    1  0.2852411E-002  0.1256709E+03  0.7546771E-02  0.1251566E+00
         -2   -1    0    0    0  501 -0.00000000000E+00  0.00000000000E+00  0.56769888111E+02  0.56769888111E+02  0.00000000000E+00 0.  1.
          2   -1    0    0  501    0  0.00000000000E+00 -0.00000000000E+00 -0.20969022452E+04  0.20969022452E+04  0.00000000000E+00 0. -1.
         23    2    1    2    0    0 -0.50069179786E+02  0.72548979312E+02 -0.20595739378E+04  0.20634044634E+04  0.89570627061E+02 0.  0.
         11    1    3    3    0    0 -0.43630643707E+02  0.66550590280E+02 -0.20437471540E+04  0.20452958328E+04  0.00000000000E+00 0. -1.
        -11    1    3    3    0    0 -0.64385360784E+01  0.59983890316E+01 -0.15826783778E+02  0.18108630610E+02  0.00000000000E+00 0.  1.
         22    1    1    2    0    0  0.50069179786E+02 -0.72548979312E+02  0.19441580728E+02  0.90267669875E+02  0.00000000000E+00 0.  1.
<mgrwt>
<rscale>  0 0.11500868E+03</rscale>
<asrwt>0</asrwt>
<pdfrwt beam="1">  1        2 0.32260035E+00 0.12567090E+03</pdfrwt>
<pdfrwt beam="2">  1       -2 0.87338289E-02 0.12567090E+03</pdfrwt>
<totfact> 0.56381686E+02</totfact>
</mgrwt>
</event>
<event>
 6    1  0.2852411E-002  0.8672314E+02  0.7546771E-02  0.1367954E+00
          1   -1    0    0  501    0  0.00000000000E+00  0.00000000000E+00  0.14796801918E+03  0.14796801918E+03  0.00000000000E+00 0. -1.
         -1   -1    0    0    0  501 -0.00000000000E+00 -0.00000000000E+00 -0.24219140112E+02  0.24219140112E+02  0.00000000000E+00 0.  1.
         23    2    1    2    0    0  0.26351304891E+02  0.18647670458E+02  0.81430230433E+02  0.11896127362E+03  0.80490839916E+02 0.  0.
         11    1    3    3    0    0 -0.72961204150E+01 -0.25484070289E+02  0.96050972327E+01  0.28194487129E+02  0.00000000000E+00 0.  1.
        -11    1    3    3    0    0  0.33647425306E+02  0.44131740747E+02  0.71825133200E+02  0.90766786493E+02  0.00000000000E+00 0. -1.
         22    1    1    2    0    0 -0.26351304891E+02 -0.18647670458E+02  0.42318648632E+02  0.53225885667E+02  0.00000000000E+00 0.  1.
<mgrwt>
<rscale>  0 0.67739393E+02</rscale>
<asrwt>0</asrwt>
<pdfrwt beam="1">  1        1 0.22764310E-01 0.86723135E+02</pdfrwt>
<pdfrwt beam="2">  1       -1 0.37260216E-02 0.86723135E+02</pdfrwt>
<totfact> 0.50719203E+04</totfact>
</mgrwt>
</event>
<event>
 6    1  0.2852411E-002  0.9189717E+02  0.7546771E-02  0.1426783E+00
          4   -1    0    0  501    0  0.00000000000E+00  0.00000000000E+00  0.14949561786E+04  0.14949561786E+04  0.00000000000E+00 0. -1.
         -4   -1    0    0    0  501 -0.00000000000E+00 -0.00000000000E+00 -0.51079779936E+01  0.51079779936E+01  0.00000000000E+00 0.  1.
         23    2    1    2    0    0  0.10369340305E+02  0.24037640865E+01  0.14858570984E+04  0.14886962106E+04  0.91278635142E+02 0.  0.
         13    1    3    3    0    0 -0.40108589440E+02  0.84798795415E+01  0.63671195975E+03  0.63803034958E+03  0.00000000000E+00 0.  1.
        -13    1    3    3    0    0  0.50477929744E+02 -0.60761154550E+01  0.84914513867E+03  0.85066586101E+03  0.00000000000E+00 0. -1.
         22    1    1    2    0    0 -0.10369340305E+02 -0.24037640865E+01  0.39911022349E+01  0.11367946041E+02  0.00000000000E+00 0.  1.
<mgrwt>
<rscale>  0 0.53611255E+02</rscale>
<asrwt>0</asrwt>
<pdfrwt beam="1">  1        4 0.22999291E+00 0.91897174E+02</pdfrwt>
<pdfrwt beam="2">  1       -4 0.78584396E-03 0.91897174E+02</pdfrwt>
<totfact> 0.62831262E+02</totfact>
</mgrwt>
</event>
<event>
 6    1  0.2852411E-002  0.9208702E+02  0.7546771E-02  0.1391320E+00
         -2   -1    0    0    0  501 -0.00000000000E+00  0.00000000000E+00  0.31596284861E+02  0.31596284861E+02  0.00000000000E+00 0. -1.
          2   -1    0    0  501    0  0.00000000000E+00 -0.00000000000E+00 -0.29429534312E+03  0.29429534312E+03  0.00000000000E+00 0.  1.
         23    2    1    2    0    0  0.18116309091E+02  0.32992799586E+01 -0.28351764172E+03  0.29809775598E+03  0.90227119256E+02 0.  0.
         13    1    3    3    0    0 -0.33400549922E+02 -0.14027587139E+02 -0.14064820857E+03  0.14523872937E+03  0.00000000000E+00 0.  1.
        -13    1    3    3    0    0  0.51516859013E+02  0.17326867097E+02 -0.14286943315E+03  0.15285902661E+03  0.00000000000E+00 0. -1.
         22    1    1    2    0    0 -0.18116309091E+02 -0.32992799586E+01  0.20818583464E+02  0.27793872001E+02  0.00000000000E+00 0. -1.
<mgrwt>
<rscale>  0 0.61579694E+02</rscale>
<asrwt>0</asrwt>
<pdfrwt beam="1">  1        2 0.45276206E-01 0.92087018E+02</pdfrwt>
<pdfrwt beam="2">  1       -2 0.48609669E-02 0.92087018E+02</pdfrwt>
<totfact> 0.20494963E+04</totfact>
</mgrwt>
</event>
<event>
 6    1  0.2852411E-002  0.9894327E+02  0.7546771E-02  0.1346596E+00
          2   -1    0    0  501    0  0.00000000000E+00  0.00000000000E+00  0.44891459748E+02  0.44891459748E+02  0.00000000000E+00 0. -1.
         -2   -1    0    0    0  501 -0.00000000000E+00 -0.00000000000E+00 -0.10827190770E+03  0.10827190770E+03  0.00000000000E+00 0.  1.
         23    2    1    2    0    0  0.29911235307E+02  0.87716798502E+01 -0.22005594057E+02  0.10136082987E+03  0.93904990798E+02 0.  0.
         13    1    3    3    0    0 -0.21205459666E+02  0.20266304264E+02  0.18896771786E+02  0.34892443195E+02  0.00000000000E+00 0. -1.
        -13    1    3    3    0    0  0.51116694973E+02 -0.11494624414E+02 -0.40902365843E+02  0.66468386673E+02  0.00000000000E+00 0.  1.
         22    1    1    2    0    0 -0.29911235307E+02 -0.87716798502E+01 -0.41374853897E+02  0.51802537582E+02  0.00000000000E+00 0.  1.
<mgrwt>
<rscale>  0 0.74127100E+02</rscale>
<asrwt>0</asrwt>
<pdfrwt beam="1">  1        2 0.69063786E-02 0.98943275E+02</pdfrwt>
<pdfrwt beam="2">  1       -2 0.16657216E-01 0.98943275E+02</pdfrwt>
<totfact> 0.26148466E+04</totfact>
</mgrwt>
</event>
<event>
 6    1  0.2852411E-002  0.9435860E+02  0.7546771E-02  0.1361950E+00
         -2   -1    0    0    0  501 -0.00000000000E+00  0.00000000000E+00  0.66368812980E+01  0.66368812980E+01  0.00000000000E+00 0.  1.
          2   -1    0    0  501    0  0.00000000000E+00 -0.00000000000E+00 -0.58500468298E+03  0.58500468298E+03  0.00000000000E+00 0. -1.
         23    2    1    2    0    0 -0.10287064201E+02  0.25721302267E+02 -0.49108834846E+03  0.50007130691E+03  0.90200537243E+02 0.  0.
         11    1    3    3    0    0  0.16557255381E+02  0.43099270211E+02 -0.13759929082E+03  0.14513874270E+03  0.00000000000E+00 0.  1.
        -11    1    3    3    0    0 -0.26844319581E+02 -0.17377967944E+02 -0.35348905764E+03  0.35493256420E+03  0.00000000000E+00 0. -1.
         22    1    1    2    0    0  0.10287064201E+02 -0.25721302267E+02 -0.87279453226E+02  0.91570257374E+02  0.00000000000E+00 0.  1.
<mgrwt>
<rscale>  0 0.69456756E+02</rscale>
<asrwt>0</asrwt>
<pdfrwt beam="1">  1        2 0.90000726E-01 0.94358603E+02</pdfrwt>
<pdfrwt beam="2">  1       -2 0.10210586E-02 0.94358603E+02</pdfrwt>
<totfact> 0.94204226E+04</totfact>
</mgrwt>
</event>
<event>
 6    1  0.2852411E-002  0.9148917E+02  0.7546771E-02  0.1404406E+00
          2   -1    0    0  501    0  0.00000000000E+00  0.00000000000E+00  0.16977304062E+04  0.16977304062E+04  0.00000000000E+00 0. -1.
         -2   -1    0    0    0  501 -0.00000000000E+00 -0.00000000000E+00 -0.20932627104E+01  0.20932627104E+01  0.00000000000E+00 0.  1.
         23    2    1    2    0    0  0.22678660025E+01 -0.15083414851E+02  0.16242783665E+04  0.16268529373E+04  0.90208730549E+02 0.  0.
         11    1    3    3    0    0  0.14665934884E+02  0.35285023420E+02  0.83319397344E+03  0.83406973324E+03  0.00000000000E+00 0. -1.
        -11    1    3    3    0    0 -0.12398068881E+02 -0.50368438271E+02  0.79108439309E+03  0.79278320408E+03  0.00000000000E+00 0.  1.
         22    1    1    2    0    0 -0.22678660025E+01  0.15083414851E+02  0.71358776960E+02  0.72970731591E+02  0.00000000000E+00 0.  1.
<mgrwt>
<rscale>  0 0.58460934E+02</rscale>
<asrwt>0</asrwt>
<pdfrwt beam="1">  1        2 0.26118819E+00 0.91489167E+02</pdfrwt>
<pdfrwt beam="2">  1       -2 0.32204177E-03 0.91489167E+02</pdfrwt>
<totfact> 0.10561634E+05</totfact>
</mgrwt>
</event>
<event>
 6    1  0.2852411E-002  0.1679599E+03  0.7546771E-02  0.1188420E+00
          2   -1    0    0  501    0  0.00000000000E+00  0.00000000000E+00  0.27344498422E+02  0.27344498422E+02  0.00000000000E+00 0. -1.
         -2   -1    0    0    0  501 -0.00000000000E+00 -0.00000000000E+00 -0.10769481700E+04  0.10769481700E+04  0.00000000000E+00 0.  1.
         23    2    1    2    0    0  0.11975631991E+03 -0.70885670508E+02 -0.31861315194E+03  0.36017339422E+03  0.94043494585E+02 0.  0.
         11    1    3    3    0    0  0.10880838703E+03 -0.28004470904E+02 -0.16004635300E+03  0.19554628758E+03  0.00000000000E+00 0. -1.
        -11    1    3    3    0    0  0.10947932878E+02 -0.42881199604E+02 -0.15856679895E+03  0.16462710664E+03  0.00000000000E+00 0.  1.
         22    1    1    2    0    0 -0.11975631991E+03  0.70885670508E+02 -0.73099051966E+03  0.74411927423E+03  0.00000000000E+00 0. -1.
<mgrwt>
<rscale>  0 0.16024527E+03</rscale>
<asrwt>0</asrwt>
<pdfrwt beam="1">  1        2 0.42068467E-02 0.16795992E+03</pdfrwt>
<pdfrwt beam="2">  1       -2 0.16568430E+00 0.16795992E+03</pdfrwt>
<totfact> 0.47683850E+02</totfact>
</mgrwt>
</event>
<event>
 6    1  0.2852411E-002  0.9193979E+02  0.7546771E-02  0.1416870E+00
          2   -1    0    0  501    0  0.00000000000E+00  0.00000000000E+00  0.52538074877E+02  0.52538074877E+02  0.00000000000E+00 0. -1.
         -2   -1    0    0    0  501 -0.00000000000E+00 -0.00000000000E+00 -0.68705169791E+02  0.68705169791E+02  0.00000000000E+00 0.  1.
         23    2    1    2    0    0  0.11442956254E+02 -0.47123152356E+01  0.98172736966E+01  0.92462442475E+02  0.91103113245E+02 0.  0.
         13    1    3    3    0    0 -0.32942241888E+02 -0.22559676600E+02  0.18226308845E+02  0.43889960617E+02  0.00000000000E+00 0.  1.
        -13    1    3    3    0    0  0.44385198142E+02  0.17847361364E+02 -0.84090351483E+01  0.48572481858E+02  0.00000000000E+00 0. -1.
         22    1    1    2    0    0 -0.11442956254E+02  0.47123152356E+01 -0.25984368611E+02  0.28780802192E+02  0.00000000000E+00 0.  1.
<mgrwt>
<rscale>  0 0.55688592E+02</rscale>
<asrwt>0</asrwt>
<pdfrwt beam="1">  1        2 0.80827807E-02 0.91939787E+02</pdfrwt>
<pdfrwt beam="2">  1       -2 0.10570026E-01 0.91939787E+02</pdfrwt>
<totfact> 0.44052224E+04</totfact>
</mgrwt>
</event>
<event>
 6    1  0.2852411E-002  0.8682218E+02  0.7546771E-02  0.1434590E+00
         -1   -1    0    0    0  501 -0.00000000000E+00  0.00000000000E+00  0.15709992584E+01  0.15709992584E+01  0.00000000000E+00 0.  1.
          1   -1    0    0  501    0  0.00000000000E+00 -0.00000000000E+00 -0.19710117140E+04  0.19710117140E+04  0.00000000000E+00 0. -1.
         23    2    1    2    0    0 -0.10258176878E+02 -0.45313540367E+01 -0.19165789398E+04  0.19185444804E+04  0.86094874186E+02 0.  0.
         11    1    3    3    0    0 -0.32325676168E+01 -0.45308791076E+02 -0.10234906280E+04  0.10244981219E+04  0.00000000000E+00 0. -1.
        -11    1    3    3    0    0 -0.70256092615E+01  0.40777437039E+02 -0.89308831180E+03  0.89404635855E+03  0.00000000000E+00 0.  1.
         22    1    1    2    0    0  0.10258176878E+02  0.45313540367E+01 -0.52861774918E+02  0.54038232852E+02  0.00000000000E+00 0.  1.
<mgrwt>
<rscale>  0 0.52049586E+02</rscale>
<asrwt>0</asrwt>
<pdfrwt beam="1">  1        1 0.30323284E+00 0.86822179E+02</pdfrwt>
<pdfrwt beam="2">  1       -1 0.24169198E-03 0.86822179E+02</pdfrwt>
<totfact> 0.46697555E+04</totfact>
</mgrwt>
</event>
<event>
 6    1  0.2852411E-002  0.1041010E+03  0.7546771E-02  0.1374316E+00
         -2   -1    0    0    0  501 -0.00000000000E+00  0.00000000000E+00  0.84496909425E+01  0.84496909425E+01  0.00000000000E+00 0. -1.
          2   -1    0    0  501    0  0.00000000000E+00 -0.00000000000E+00 -0.72114994274E+03  0.72114994274E+03  0.00000000000E+00 0.  1.
         23    2    1    2    0    0 -0.12621750424E+02 -0.11088734675E+02 -0.70200884916E+03  0.70968545002E+03  0.10273628890E+03 0.  0.
         13    1    3    3    0    0 -0.14673369934E+02 -0.57678084393E+01 -0.70359073644E+03  0.70376736199E+03  0.00000000000E+00 0.  1.
        -13    1    3    3    0    0  0.20516195094E+01 -0.53209262353E+01  0.15818872794E+01  0.59180880340E+01  0.00000000000E+00 0. -1.
         22    1    1    2    0    0  0.12621750424E+02  0.11088734675E+02 -0.10691402640E+02  0.19914183661E+02  0.00000000000E+00 0. -1.
<mgrwt>
<rscale>  0 0.65981766E+02</rscale>
<asrwt>0</asrwt>
<pdfrwt beam="1">  1        2 0.11094617E+00 0.10410098E+03</pdfrwt>
<pdfrwt beam="2">  1       -2 0.12999522E-02 0.10410098E+03</pdfrwt>
<totfact> 0.53216444E+04</totfact>
</mgrwt>
</event>
<event>
 6    1  0.2852411E-002  0.1662003E+03  0.7546771E-02  0.1191796E+00
         -2   -1    0    0    0  501 -0.00000000000E+00  0.00000000000E+00  0.52210959640E+02  0.52210959640E+02  0.00000000000E+00 0.  1.
          2   -1    0    0  501    0  0.00000000000E+00 -0.00000000000E+00 -0.99665422699E+03  0.99665422699E+03  0.00000000000E+00 0. -1.
         23    2    1    2    0    0  0.12602799316E+02 -0.13271059202E+03 -0.88914228474E+03  0.90454217924E+03  0.99255325879E+02 0.  0.
         11    1    3    3    0    0  0.46574437210E+02 -0.63809098577E+02 -0.60735121689E+03  0.61246737050E+03  0.00000000000E+00 0. -1.
        -11    1    3    3    0    0 -0.33971637894E+02 -0.68901493445E+02 -0.28179106785E+03  0.29207480874E+03  0.00000000000E+00 0.  1.
         22    1    1    2    0    0 -0.12602799316E+02  0.13271059202E+03 -0.55300982607E+02  0.14432300739E+03  0.00000000000E+00 0.  1.
<mgrwt>
<rscale>  0 0.15728514E+03</rscale>
<asrwt>0</asrwt>
<pdfrwt beam="1">  1        2 0.15333141E+00 0.16620034E+03</pdfrwt>
<pdfrwt beam="2">  1       -2 0.80324556E-02 0.16620034E+03</pdfrwt>
<totfact> 0.24595113E+03</totfact>
</mgrwt>
</event>
<event>
 6    1  0.2852411E-002  0.9589499E+02  0.7546771E-02  0.1335945E+00
         -2   -1    0    0    0  501 -0.00000000000E+00  0.00000000000E+00  0.17310565869E+02  0.17310565869E+02  0.00000000000E+00 0.  1.
          2   -1    0    0  501    0  0.00000000000E+00 -0.00000000000E+00 -0.33059937241E+03  0.33059937241E+03  0.00000000000E+00 0. -1.
         23    2    1    2    0    0 -0.26039064085E+02 -0.31879628295E+02 -0.27666633267E+03  0.29281412037E+03  0.86611234236E+02 0.  0.
         11    1    3    3    0    0  0.24929688594E+02 -0.14762850047E+02 -0.17897107140E+03  0.18130106319E+03  0.00000000000E+00 0. -1.
        -11    1    3    3    0    0 -0.50968752679E+02 -0.17116778248E+02 -0.97695261266E+02  0.11151305718E+03  0.00000000000E+00 0.  1.
         22    1    1    2    0    0  0.26039064085E+02  0.31879628295E+02 -0.36622473872E+02  0.55095817910E+02  0.00000000000E+00 0.  1.
<mgrwt>
<rscale>  0 0.77619730E+02</rscale>
<asrwt>0</asrwt>
<pdfrwt beam="1">  1        2 0.50861442E-01 0.95894992E+02</pdfrwt>
<pdfrwt beam="2">  1       -2 0.26631640E-02 0.95894992E+02</pdfrwt>
<totfact> 0.44042324E+04</totfact>
</mgrwt>
</event>
<event>
 6    1  0.2852411E-002  0.8090278E+02  0.7546771E-02  0.1376819E+00
          2   -1    0    0  501    0  0.00000000000E+00  0.00000000000E+00  0.37535985634E+03  0.37535985634E+03  0.00000000000E+00 0. -1.
         -2   -1    0    0    0  501 -0.00000000000E+00 -0.00000000000E+00 -0.11234771548E+02  0.11234771548E+02  0.00000000000E+00 0.  1.
         23    2    1    2    0    0  0.24824701842E+02  0.23745126688E+02  0.32315553523E+03  0.33312874293E+03  0.73247269938E+02 0.  0.
         11    1    3    3    0    0 -0.25078099930E+02 -0.33763311605E+00  0.85741132353E+02  0.89334018545E+02  0.00000000000E+00 0. -1.
        -11    1    3    3    0    0  0.49902801772E+02  0.24082759804E+02  0.23741440288E+03  0.24379472439E+03  0.00000000000E+00 0.  1.
         22    1    1    2    0    0 -0.24824701842E+02 -0.23745126688E+02  0.40969549555E+02  0.53465884952E+02  0.00000000000E+00 0. -1.
<mgrwt>
<rscale>  0 0.65307383E+02</rscale>
<asrwt>0</asrwt>
<pdfrwt beam="1">  1        2 0.57747661E-01 0.80902778E+02</pdfrwt>
<pdfrwt beam="2">  1       -2 0.17284267E-02 0.80902778E+02</pdfrwt>
<totfact> 0.70192034E+04</totfact>
</mgrwt>
</event>
<event>
 6    1  0.2852411E-002  0.1049960E+03  0.7546771E-02  0.1306803E+00
         -2   -1    0    0    0  501 -0.00000000000E+00  0.00000000000E+00  0.63098522938E+02  0.63098522938E+02  0.00000000000E+00 0.  1.
          2   -1    0    0  501    0  0.00000000000E+00 -0.00000000000E+00 -0.20509631245E+04  0.20509631245E+04  0.00000000000E+00 0. -1.
         23    2    1    2    0    0 -0.31217173057E+02 -0.42496129477E+02 -0.20383546296E+04  0.20410570186E+04  0.90794956483E+02 0.  0.
         13    1    3    3    0    0  0.14471993400E+02 -0.62360669387E+01 -0.13886236116E+04  0.13887130236E+04  0.00000000000E+00 0. -1.
        -13    1    3    3    0    0 -0.45689166457E+02 -0.36260062538E+02 -0.64973101793E+03  0.65234399494E+03  0.00000000000E+00 0.  1.
         22    1    1    2    0    0  0.31217173057E+02  0.42496129477E+02  0.50490028001E+02  0.73004628906E+02  0.00000000000E+00 0.  1.
<mgrwt>
<rscale>  0 0.88388054E+02</rscale>
<asrwt>0</asrwt>
<pdfrwt beam="1">  1        2 0.31553276E+00 0.10499599E+03</pdfrwt>
<pdfrwt beam="2">  1       -2 0.97074660E-02 0.10499599E+03</pdfrwt>
<totfact> 0.50889164E+02</totfact>
</mgrwt>
</event>
<event>
 6    1  0.2852411E-002  0.9229923E+02  0.7546771E-02  0.1428238E+00
          2   -1    0    0  501    0  0.00000000000E+00  0.00000000000E+00  0.47755252436E+03  0.47755252436E+03  0.00000000000E+00 0. -1.
         -2   -1    0    0    0  501 -0.00000000000E+00 -0.00000000000E+00 -0.69311435912E+01  0.69311435912E+01  0.00000000000E+00 0.  1.
         23    2    1    2    0    0 -0.79251329708E+01  0.65410135071E+01  0.46182204958E+03  0.47095514920E+03  0.91725429880E+02 0.  0.
         13    1    3    3    0    0  0.15155399752E+02 -0.37257709968E+02  0.15343560387E+03  0.15862001018E+03  0.00000000000E+00 0. -1.
        -13    1    3    3    0    0 -0.23080532723E+02  0.43798723475E+02  0.30838644571E+03  0.31233513902E+03  0.00000000000E+00 0.  1.
         22    1    1    2    0    0  0.79251329708E+01 -0.65410135071E+01  0.87993311885E+01  0.13528518754E+02  0.00000000000E+00 0.  1.
<mgrwt>
<rscale>  0 0.53315406E+02</rscale>
<asrwt>0</asrwt>
<pdfrwt beam="1">  1        2 0.73469593E-01 0.92299226E+02</pdfrwt>
<pdfrwt beam="2">  1       -2 0.10663302E-02 0.92299226E+02</pdfrwt>
<totfact> 0.11022983E+05</totfact>
</mgrwt>
</event>
<event>
 6    1  0.2852411E-002  0.8026666E+02  0.7546771E-02  0.1447242E+00
          4   -1    0    0  501    0  0.00000000000E+00  0.00000000000E+00  0.11293165597E+02  0.11293165597E+02  0.00000000000E+00 0. -1.
         -4   -1    0    0    0  501 -0.00000000000E+00 -0.00000000000E+00 -0.19002720181E+03  0.19002720181E+03  0.00000000000E+00 0.  1.
         23    2    1    2    0    0  0.11609881101E+02 -0.18116582512E+01 -0.16291107866E+03  0.18161155135E+03  0.79401918034E+02 0.  0.
         13    1    3    3    0    0  0.33295760511E+02 -0.29773049258E+02 -0.97453302198E+02  0.10720162424E+03  0.00000000000E+00 0.  1.
        -13    1    3    3    0    0 -0.21685879410E+02  0.27961391007E+02 -0.65457776463E+02  0.74409927108E+02  0.00000000000E+00 0. -1.
         22    1    1    2    0    0 -0.11609881101E+02  0.18116582512E+01 -0.15822957552E+02  0.19708816060E+02  0.00000000000E+00 0.  1.
<mgrwt>
<rscale>  0 0.49649441E+02</rscale>
<asrwt>0</asrwt>
<pdfrwt beam="1">  1        4 0.17374101E-02 0.80266656E+02</pdfrwt>
<pdfrwt beam="2">  1       -4 0.29234955E-01 0.80266656E+02</pdfrwt>
<totfact> 0.19508203E+04</totfact>
</mgrwt>
</event>
<event>
 6    1  0.2852411E-002  0.1198375E+03  0.7546771E-02  0.1265127E+00
         -2   -1    0    0    0  501 -0.00000000000E+00  0.00000000000E+00  0.82725022094E+03  0.82725022094E+03  0.00000000000E+00 0. -1.
          2   -1    0    0  501    0  0.00000000000E+00 -0.00000000000E+00 -0.12659865339E+02  0.12659865339E+02  0.00000000000E+00 0.  1.
         23    2    1    2    0    0 -0.14665788094E+02 -0.76422916163E+02  0.38133126933E+03  0.39971810170E+03  0.91134386480E+02 0.  0.
         13    1    3    3    0    0 -0.97651454691E+01 -0.92522715178E+02  0.24022559560E+03  0.25761239813E+03  0.00000000000E+00 0.  1.
        -13    1    3    3    0    0 -0.49006426247E+01  0.16099799015E+02  0.14110567373E+03  0.14210570357E+03  0.00000000000E+00 0. -1.
         22    1    1    2    0    0  0.14665788094E+02  0.76422916163E+02  0.43325908627E+03  0.44019198458E+03  0.00000000000E+00 0. -1.
<mgrwt>
<rscale>  0 0.10757558E+03</rscale>
<asrwt>0</asrwt>
<pdfrwt beam="1">  1        2 0.19476722E-02 0.11983749E+03</pdfrwt>
<pdfrwt beam="2">  1       -2 0.12726922E+00 0.11983749E+03</pdfrwt>
<totfact> 0.25773457E+03</totfact>
</mgrwt>
</event>
<event>
 6    1  0.2852411E-002  0.1150064E+03  0.7546771E-02  0.1347578E+00
         -2   -1    0    0    0  501 -0.00000000000E+00  0.00000000000E+00  0.67732635589E+01  0.67732635589E+01  0.00000000000E+00 0.  1.
          2   -1    0    0  501    0  0.00000000000E+00 -0.00000000000E+00 -0.15910259767E+04  0.15910259767E+04  0.00000000000E+00 0. -1.
         23    2    1    2    0    0 -0.43083971707E+01  0.19036262936E+02 -0.15685188227E+04  0.15727293998E+04  0.11333810569E+03 0.  0.
         13    1    3    3    0    0  0.10459783014E+02  0.54234817966E+02 -0.42506482729E+03  0.42863846064E+03  0.00000000000E+00 0.  1.
        -13    1    3    3    0    0 -0.14768180185E+02 -0.35198555030E+02 -0.11434539954E+04  0.11440909392E+04  0.00000000000E+00 0. -1.
         22    1    1    2    0    0  0.43083971707E+01 -0.19036262936E+02 -0.15733890438E+02  0.25069840468E+02  0.00000000000E+00 0.  1.
<mgrwt>
<rscale>  0 0.73815702E+02</rscale>
<asrwt>0</asrwt>
<pdfrwt beam="1">  1        2 0.24477367E+00 0.11500638E+03</pdfrwt>
<pdfrwt beam="2">  1       -2 0.10420387E-02 0.11500638E+03</pdfrwt>
<totfact> 0.23345821E+04</totfact>
</mgrwt>
</event>
<event>
 6    1  0.2852411E-002  0.9324075E+02  0.7546771E-02  0.1405626E+00
          2   -1    0    0  501    0  0.00000000000E+00  0.00000000000E+00  0.11739083230E+03  0.11739083230E+03  0.00000000000E+00 0. -1.
         -2   -1    0    0    0  501 -0.00000000000E+00 -0.00000000000E+00 -0.24555348028E+02  0.24555348028E+02  0.00000000000E+00 0.  1.
         23    2    1    2    0    0 -0.64612373285E+01 -0.12572689874E+02  0.80274025393E+02  0.12303559156E+03  0.92162994303E+02 0.  0.
         13    1    3    3    0    0 -0.20502963715E+01 -0.15129567582E+02  0.10076741743E+03  0.10191751540E+03  0.00000000000E+00 0. -1.
        -13    1    3    3    0    0 -0.44109409570E+01  0.25568777081E+01 -0.20493392032E+02  0.21118076160E+02  0.00000000000E+00 0.  1.
         22    1    1    2    0    0  0.64612373285E+01  0.12572689874E+02  0.12561458879E+02  0.18910588770E+02  0.00000000000E+00 0.  1.
<mgrwt>
<rscale>  0 0.58181408E+02</rscale>
<asrwt>0</asrwt>
<pdfrwt beam="1">  1        2 0.18060128E-01 0.93240751E+02</pdfrwt>
<pdfrwt beam="2">  1       -2 0.37777459E-02 0.93240751E+02</pdfrwt>
<totfact> 0.80307123E+04</totfact>
</mgrwt>
</event>
<event>
 6    1  0.2852411E-002  0.1001262E+03  0.7546771E-02  0.1322941E+00
          2   -1    0    0  501    0  0.00000000000E+00  0.00000000000E+00  0.10732066481E+04  0.10732066481E+04  0.00000000000E+00 0. -1.
         -2   -1    0    0    0  501 -0.00000000000E+00 -0.00000000000E+00 -0.50932353800E+01  0.50932353800E+01  0.00000000000E+00 0.  1.
         23    2    1    2    0    0 -0.34384923693E+02  0.29747077255E+02  0.81594393560E+03  0.82206433409E+03  0.89207913052E+02 0.  0.
         13    1    3    3    0    0 -0.34283195514E+02  0.53514396839E+01  0.76279580591E+03  0.76358458399E+03  0.00000000000E+00 0. -1.
        -13    1    3    3    0    0 -0.10172817925E+00  0.24395637571E+02  0.53148129691E+02  0.58479750092E+02  0.00000000000E+00 0.  1.
         22    1    1    2    0    0  0.34384923693E+02 -0.29747077255E+02  0.25216947717E+03  0.25623554944E+03  0.00000000000E+00 0.  1.
<mgrwt>
<rscale>  0 0.82192850E+02</rscale>
<asrwt>0</asrwt>
<pdfrwt beam="1">  1        2 0.16510854E+00 0.10012624E+03</pdfrwt>
<pdfrwt beam="2">  1       -2 0.78357553E-03 0.10012624E+03</pdfrwt>
<totfact> 0.65277318E+04</totfact>
</mgrwt>
</event>
<event>
 6    1  0.2852411E-002  0.9750798E+02  0.7546771E-02  0.1387376E+00
          2   -1    0    0  501    0  0.00000000000E+00  0.00000000000E+00  0.10811213371E+04  0.10811213371E+04  0.00000000000E+00 0. -1.
         -2   -1    0    0    0  501 -0.00000000000E+00 -0.00000000000E+00 -0.32541615505E+01  0.32541615505E+01  0.00000000000E+00 0.  1.
         23    2    1    2    0    0 -0.44843821624E+00 -0.16520376819E+02  0.10017760298E+04  0.10065103177E+04  0.96097251552E+02 0.  0.
         11    1    3    3    0    0  0.16824342334E+02 -0.51760194102E+02  0.71387866993E+03  0.71595036949E+03  0.00000000000E+00 0. -1.
        -11    1    3    3    0    0 -0.17272780550E+02  0.35239817283E+02  0.28789735985E+03  0.29055994817E+03  0.00000000000E+00 0.  1.
         22    1    1    2    0    0  0.44843821624E+00  0.16520376819E+02  0.76091145777E+02  0.77865181004E+02  0.00000000000E+00 0.  1.
<mgrwt>
<rscale>  0 0.62564083E+02</rscale>
<asrwt>0</asrwt>
<pdfrwt beam="1">  1        2 0.16632607E+00 0.97507978E+02</pdfrwt>
<pdfrwt beam="2">  1       -2 0.50064110E-03 0.97507978E+02</pdfrwt>
<totfact> 0.12104260E+05</totfact>
</mgrwt>
</event>
<event>
 6    1  0.2852411E-002  0.1006775E+03  0.7546771E-02  0.1326969E+00
         -1   -1    0    0    0  501 -0.00000000000E+00  0.00000000000E+00  0.34940487454E+02  0.34940487454E+02  0.00000000000E+00 0.  1.
          1   -1    0    0  501    0  0.00000000000E+00 -0.00000000000E+00 -0.17599420312E+03  0.17599420312E+03  0.00000000000E+00 0. -1.
         23    2    1    2    0    0  0.45594216544E+01 -0.41390964181E+02 -0.13567311879E+03  0.16894717976E+03  0.91662174017E+02 0.  0.
         13    1    3    3    0    0 -0.65948525079E+01 -0.54767489978E+01 -0.13073742411E+03  0.13101817020E+03  0.00000000000E+00 0. -1.
        -13    1    3    3    0    0  0.11154274162E+02 -0.35914215183E+02 -0.49356946775E+01  0.37929009561E+02  0.00000000000E+00 0.  1.
         22    1    1    2    0    0 -0.45594216544E+01  0.41390964181E+02 -0.53805968782E+01  0.41987510815E+02  0.00000000000E+00 0.  1.
<mgrwt>
<rscale>  0 0.80738446E+02</rscale>
<asrwt>0</asrwt>
<pdfrwt beam="1">  1        1 0.27076031E-01 0.10067748E+03</pdfrwt>
<pdfrwt beam="2">  1       -1 0.53754597E-02 0.10067748E+03</pdfrwt>
<totfact> 0.24411327E+04</totfact>
</mgrwt>
</event>
<event>
 6    1  0.2852411E-002  0.9111547E+02  0.7546771E-02  0.1394004E+00
         -2   -1    0    0    0  501 -0.00000000000E+00  0.00000000000E+00  0.91206265099E+02  0.91206265099E+02  0.00000000000E+00 0.  1.
          2   -1    0    0  501    0  0.00000000000E+00 -0.00000000000E+00 -0.85830282727E+02  0.85830282727E+02  0.00000000000E+00 0. -1.
         23    2    1    2    0    0  0.15000674401E+02 -0.10324232503E+02 -0.60049778917E+02  0.10912380786E+03  0.89277205854E+02 0.  0.
         13    1    3    3    0    0  0.54654313535E+01  0.39394547436E+02 -0.33267714826E+02  0.51851153867E+02  0.00000000000E+00 0.  1.
        -13    1    3    3    0    0  0.95352430475E+01 -0.49718779939E+02 -0.26782064090E+02  0.57272653994E+02  0.00000000000E+00 0. -1.
         22    1    1    2    0    0 -0.15000674401E+02  0.10324232503E+02  0.65425761289E+02  0.67912739965E+02  0.00000000000E+00 0.  1.
<mgrwt>
<rscale>  0 0.60921776E+02</rscale>
<asrwt>0</asrwt>
<pdfrwt beam="1">  1        2 0.13204659E-01 0.91115473E+02</pdfrwt>
<pdfrwt beam="2">  1       -2 0.14031733E-01 0.91115473E+02</pdfrwt>
<totfact> 0.15532758E+04</totfact>
</mgrwt>
</event>
<event>
 6    1  0.2852411E-002  0.9360227E+02  0.7546771E-02  0.1372969E+00
          2   -1    0    0  501    0  0.00000000000E+00  0.00000000000E+00  0.35232167342E+03  0.35232167342E+03  0.00000000000E+00 0. -1.
         -2   -1    0    0    0  501 -0.00000000000E+00 -0.00000000000E+00 -0.16919829864E+02  0.16919829864E+02  0.00000000000E+00 0.  1.
         23    2    1    2    0    0 -0.16992982524E+02 -0.16420648627E+02  0.33251150540E+03  0.34543492413E+03  0.90570339665E+02 0.  0.
         13    1    3    3    0    0 -0.45955135697E+02 -0.10020232381E+02  0.28883127912E+03  0.29263592970E+03  0.00000000000E+00 0. -1.
        -13    1    3    3    0    0  0.28962153173E+02 -0.64004162465E+01  0.43680226281E+02  0.52798994427E+02  0.00000000000E+00 0.  1.
         22    1    1    2    0    0  0.16992982524E+02  0.16420648627E+02  0.28903381540E+01  0.23806579155E+02  0.00000000000E+00 0.  1.
<mgrwt>
<rscale>  0 0.66348772E+02</rscale>
<asrwt>0</asrwt>
<pdfrwt beam="1">  1        2 0.54203329E-01 0.93602273E+02</pdfrwt>
<pdfrwt beam="2">  1       -2 0.26030510E-02 0.93602273E+02</pdfrwt>
<totfact> 0.42460746E+04</totfact>
</mgrwt>
</event>
<event>
 6    1  0.2852411E-002  0.1026671E+03  0.7546771E-02  0.1322427E+00
         -4   -1    0    0    0  501 -0.00000000000E+00  0.00000000000E+00  0.66175407686E+02  0.66175407686E+02  0.00000000000E+00 0.  1.
          4   -1    0    0  501    0  0.00000000000E+00 -0.00000000000E+00 -0.80549392022E+02  0.80549392022E+02  0.00000000000E+00 0. -1.
         23    2    1    2    0    0 -0.39096781555E+02  0.16820315505E+02 -0.17076745748E+02  0.10407756931E+03  0.93429352164E+02 0.  0.
         11    1    3    3    0    0 -0.90891927435E+01 -0.16587114189E+02 -0.46629807070E+02  0.50319824018E+02  0.00000000000E+00 0. -1.
        -11    1    3    3    0    0 -0.30007588811E+02  0.33407429694E+02  0.29553061322E+02  0.53757745289E+02  0.00000000000E+00 0.  1.
         22    1    1    2    0    0  0.39096781555E+02 -0.16820315505E+02  0.27027614116E+01  0.42647230401E+02  0.00000000000E+00 0.  1.
<mgrwt>
<rscale>  0 0.82381098E+02</rscale>
<asrwt>0</asrwt>
<pdfrwt beam="1">  1        4 0.12392214E-01 0.10266706E+03</pdfrwt>
<pdfrwt beam="2">  1       -4 0.10180832E-01 0.10266706E+03</pdfrwt>
<totfact> 0.58645014E+03</totfact>
</mgrwt>
</event>
<event>
 6    1  0.2852411E-002  0.1010543E+03  0.7546771E-02  0.1321238E+00
          2   -1    0    0  501    0  0.00000000000E+00  0.00000000000E+00  0.77696477597E+03  0.77696477597E+03  0.00000000000E+00 0. -1.
         -2   -1    0    0    0  501 -0.00000000000E+00 -0.00000000000E+00 -0.10452180890E+02  0.10452180890E+02  0.00000000000E+00 0.  1.
         23    2    1    2    0    0 -0.45269538836E+02  0.53768538418E+01  0.69700998370E+03  0.70429743634E+03  0.90187137360E+02 0.  0.
         11    1    3    3    0    0 -0.22627513100E+02  0.29773217491E+02  0.10694899259E+03  0.11329843708E+03  0.00000000000E+00 0.  1.
        -11    1    3    3    0    0 -0.22642025736E+02 -0.24396363650E+02  0.59006099111E+03  0.59099899925E+03  0.00000000000E+00 0. -1.
         22    1    1    2    0    0  0.45269538836E+02 -0.53768538418E+01  0.69502611376E+02  0.83119520522E+02  0.00000000000E+00 0.  1.
<mgrwt>
<rscale>  0 0.82818611E+02</rscale>
<asrwt>0</asrwt>
<pdfrwt beam="1">  1        2 0.11953300E+00 0.10105425E+03</pdfrwt>
<pdfrwt beam="2">  1       -2 0.16080284E-02 0.10105425E+03</pdfrwt>
<totfact> 0.35785559E+04</totfact>
</mgrwt>
</event>
<event>
 6    1  0.2852411E-002  0.1196450E+03  0.7546771E-02  0.1264072E+00
         -2   -1    0    0    0  501 -0.00000000000E+00  0.00000000000E+00  0.32186351884E+02  0.32186351884E+02  0.00000000000E+00 0. -1.
          2   -1    0    0  501    0  0.00000000000E+00 -0.00000000000E+00 -0.31210790477E+03  0.31210790477E+03  0.00000000000E+00 0.  1.
         23    2    1    2    0    0 -0.54566462640E+02  0.58254274913E+02 -0.18439175554E+03  0.21980730323E+03  0.89128399813E+02 0.  0.
         11    1    3    3    0    0 -0.20073845522E+02  0.26658941665E+02 -0.16636298541E+03  0.16967705018E+03  0.00000000000E+00 0.  1.
        -11    1    3    3    0    0 -0.34492617118E+02  0.31595333248E+02 -0.18028770134E+02  0.50130253054E+02  0.00000000000E+00 0. -1.
         22    1    1    2    0    0  0.54566462640E+02 -0.58254274913E+02 -0.95529797347E+02  0.12448695342E+03  0.00000000000E+00 0. -1.
<mgrwt>
<rscale>  0 0.10813031E+03</rscale>
<asrwt>0</asrwt>
<pdfrwt beam="1">  1        2 0.48016602E-01 0.11964502E+03</pdfrwt>
<pdfrwt beam="2">  1       -2 0.49517463E-02 0.11964502E+03</pdfrwt>
<totfact> 0.19239779E+04</totfact>
</mgrwt>
</event>
<event>
 6    1  0.2852411E-002  0.8870489E+02  0.7546771E-02  0.1413267E+00
          2   -1    0    0  501    0  0.00000000000E+00  0.00000000000E+00  0.58821894952E+02  0.58821894952E+02  0.00000000000E+00 0. -1.
         -2   -1    0    0    0  501 -0.00000000000E+00 -0.00000000000E+00 -0.46796258477E+02  0.46796258477E+02  0.00000000000E+00 0.  1.
         23    2    1    2    0    0  0.69110401183E+01 -0.12826845944E+02  0.16807846203E+02  0.90283226554E+02  0.87500096289E+02 0.  0.
         11    1    3    3    0    0 -0.11040350844E+02  0.10130054152E+02  0.46394724860E+02  0.48754259698E+02  0.00000000000E+00 0. -1.
        -11    1    3    3    0    0  0.17951390962E+02 -0.22956900095E+02 -0.29586878657E+02  0.41528966856E+02  0.00000000000E+00 0.  1.
         22    1    1    2    0    0 -0.69110401183E+01  0.12826845944E+02 -0.47822097277E+01  0.15334926875E+02  0.00000000000E+00 0. -1.
<mgrwt>
<rscale>  0 0.56471195E+02</rscale>
<asrwt>0</asrwt>
<pdfrwt beam="1">  1        2 0.90495223E-02 0.88704889E+02</pdfrwt>
<pdfrwt beam="2">  1       -2 0.71994244E-02 0.88704889E+02</pdfrwt>
<totfact> 0.68845925E+04</totfact>
</mgrwt>
</event>
<event>
 6    1  0.2852411E-002  0.9245606E+02  0.7546771E-02  0.1406778E+00
         -2   -1    0    0    0  501 -0.00000000000E+00  0.00000000000E+00  0.43461425141E+01  0.43461425141E+01  0.00000000000E+00 0.  1.
          2   -1    0    0  501    0  0.00000000000E+00 -0.00000000000E+00 -0.10438955162E+04  0.10438955162E+04  0.00000000000E+00 0. -1.
         23    2    1    2    0    0 -0.98148808161E+01  0.10315756890E+02 -0.10193148444E+04  0.10234993286E+04  0.91353034135E+02 0.  0.
         11    1    3    3    0    0 -0.17133868957E+01 -0.39873459303E+02 -0.54772125982E+03  0.54917338511E+03  0.00000000000E+00 0. -1.
        -11    1    3    3    0    0 -0.81014939205E+01  0.50189216193E+02 -0.47159358456E+03  0.47432594345E+03  0.00000000000E+00 0.  1.
         22    1    1    2    0    0  0.98148808161E+01 -0.10315756890E+02 -0.20234529304E+02  0.24742330161E+02  0.00000000000E+00 0.  1.
<mgrwt>
<rscale>  0 0.57918963E+02</rscale>
<asrwt>0</asrwt>
<pdfrwt beam="1">  1        2 0.16059914E+00 0.92456063E+02</pdfrwt>
<pdfrwt beam="2">  1       -2 0.66863804E-03 0.92456063E+02</pdfrwt>
<totfact> 0.84073619E+04</totfact>
</mgrwt>
</event>
<event>
 6    1  0.2852411E-002  0.1106648E+03  0.7546771E-02  0.1290875E+00
         -2   -1    0    0    0  501 -0.00000000000E+00  0.00000000000E+00  0.10022760508E+03  0.10022760508E+03  0.00000000000E+00 0.  1.
          2   -1    0    0  501    0  0.00000000000E+00 -0.00000000000E+00 -0.73602660991E+02  0.73602660991E+02  0.00000000000E+00 0. -1.
         23    2    1    2    0    0  0.28202371594E+02 -0.53454536537E+02  0.24557846132E+02  0.11335684932E+03  0.92703431655E+02 0.  0.
         13    1    3    3    0    0 -0.34345901277E+02 -0.18550528802E+02  0.89256006549E+01  0.40042844559E+02  0.00000000000E+00 0. -1.
        -13    1    3    3    0    0  0.62548272870E+02 -0.34904007735E+02  0.15632245477E+02  0.73314004758E+02  0.00000000000E+00 0.  1.
         22    1    1    2    0    0 -0.28202371594E+02  0.53454536537E+02  0.20670979572E+01  0.60473416753E+02  0.00000000000E+00 0. -1.
<mgrwt>
<rscale>  0 0.95133757E+02</rscale>
<asrwt>0</asrwt>
<pdfrwt beam="1">  1        2 0.11323486E-01 0.11066475E+03</pdfrwt>
<pdfrwt beam="2">  1       -2 0.15419632E-01 0.11066475E+03</pdfrwt>
<totfact> 0.16334446E+04</totfact>
</mgrwt>
</event>
<event>
 6    1  0.2852411E-002  0.9441167E+02  0.7546771E-02  0.1413479E+00
         -2   -1    0    0    0  501 -0.00000000000E+00  0.00000000000E+00  0.65995629229E+01  0.65995629229E+01  0.00000000000E+00 0.  1.
          2   -1    0    0  501    0  0.00000000000E+00 -0.00000000000E+00 -0.44576585772E+03  0.44576585772E+03  0.00000000000E+00 0. -1.
         23    2    1    2    0    0  0.11341350305E+02 -0.40559503696E+01 -0.41148676072E+03  0.42217877514E+03  0.93640199532E+02 0.  0.
         11    1    3    3    0    0  0.22950483009E+02  0.19033102144E+02 -0.40492293494E+02  0.50285280948E+02  0.00000000000E+00 0.  1.
        -11    1    3    3    0    0 -0.11609132705E+02 -0.23089052514E+02 -0.37099446723E+03  0.37189349419E+03  0.00000000000E+00 0. -1.
         22    1    1    2    0    0 -0.11341350305E+02  0.40559503696E+01 -0.27679534071E+02  0.30186645500E+02  0.00000000000E+00 0. -1.
<mgrwt>
<rscale>  0 0.56424676E+02</rscale>
<asrwt>0</asrwt>
<pdfrwt beam="1">  1        2 0.68579366E-01 0.94411673E+02</pdfrwt>
<pdfrwt beam="2">  1       -2 0.10153173E-02 0.94411673E+02</pdfrwt>
<totfact> 0.12762282E+05</totfact>
</mgrwt>
</event>
<event>
 6    1  0.2852411E-002  0.8994986E+02  0.7546771E-02  0.1420383E+00
          1   -1    0    0  501    0  0.00000000000E+00  0.00000000000E+00  0.10749301559E+03  0.10749301559E+03  0.00000000000E+00 0. -1.
         -1   -1    0    0    0  501 -0.00000000000E+00 -0.00000000000E+00 -0.27964677174E+02  0.27964677174E+02  0.00000000000E+00 0.  1.
         23    2    1    2    0    0 -0.12204288699E+02  0.27874883805E+01  0.83077962354E+02  0.12244559900E+03  0.89074475199E+02 0.  0.
         13    1    3    3    0    0 -0.15570313202E+02  0.15967335136E+01  0.10199783652E+03  0.10319177713E+03  0.00000000000E+00 0. -1.
        -13    1    3    3    0    0  0.33660245038E+01  0.11907548669E+01 -0.18919874171E+02  0.19253821874E+02  0.00000000000E+00 0.  1.
         22    1    1    2    0    0  0.12204288699E+02 -0.27874883805E+01 -0.35496239331E+01  0.13012093766E+02  0.00000000000E+00 0. -1.
<mgrwt>
<rscale>  0 0.54940056E+02</rscale>
<asrwt>0</asrwt>
<pdfrwt beam="1">  1        1 0.16537387E-01 0.89949858E+02</pdfrwt>
<pdfrwt beam="2">  1       -1 0.43022581E-02 0.89949858E+02</pdfrwt>
<totfact> 0.61841309E+04</totfact>
</mgrwt>
</event>
<event>
 6    1  0.2852411E-002  0.9343106E+02  0.7546771E-02  0.1410786E+00
          2   -1    0    0  501    0  0.00000000000E+00  0.00000000000E+00  0.11899630325E+04  0.11899630325E+04  0.00000000000E+00 0. -1.
         -2   -1    0    0    0  501 -0.00000000000E+00 -0.00000000000E+00 -0.27385557323E+01  0.27385557323E+01  0.00000000000E+00 0.  1.
         23    2    1    2    0    0  0.73502424035E+01 -0.10673774261E+02  0.11369892016E+04  0.11408215498E+04  0.92527878682E+02 0.  0.
         13    1    3    3    0    0  0.39740682180E+02  0.69933783208E+01  0.26522713889E+03  0.26827907925E+03  0.00000000000E+00 0.  1.
        -13    1    3    3    0    0 -0.32390439776E+02 -0.17667152582E+02  0.87176206269E+03  0.87254247050E+03  0.00000000000E+00 0. -1.
         22    1    1    2    0    0 -0.73502424035E+01  0.10673774261E+02  0.50235275226E+02  0.51880038526E+02  0.00000000000E+00 0. -1.
<mgrwt>
<rscale>  0 0.57018759E+02</rscale>
<asrwt>0</asrwt>
<pdfrwt beam="1">  1        2 0.18307082E+00 0.93431065E+02</pdfrwt>
<pdfrwt beam="2">  1       -2 0.42131722E-03 0.93431065E+02</pdfrwt>
<totfact> 0.13335624E+05</totfact>
</mgrwt>
</event>
<event>
 6    1  0.2852411E-002  0.9093244E+02  0.7546771E-02  0.1413822E+00
         -2   -1    0    0    0  501 -0.00000000000E+00  0.00000000000E+00  0.19855136879E+02  0.19855136879E+02  0.00000000000E+00 0.  1.
          2   -1    0    0  501    0  0.00000000000E+00 -0.00000000000E+00 -0.16790886272E+03  0.16790886272E+03  0.00000000000E+00 0. -1.
         23    2    1    2    0    0  0.21923359910E+01  0.13228904091E+02 -0.14874359212E+03  0.17433693156E+03  0.89938308121E+02 0.  0.
         13    1    3    3    0    0 -0.33444699028E+02  0.35184963091E+02 -0.89186482622E+02  0.10154190368E+03  0.00000000000E+00 0. -1.
        -13    1    3    3    0    0  0.35637035019E+02 -0.21956058999E+02 -0.59557109500E+02  0.72795027878E+02  0.00000000000E+00 0.  1.
         22    1    1    2    0    0 -0.21923359910E+01 -0.13228904091E+02  0.68986628332E+00  0.13427068036E+02  0.00000000000E+00 0.  1.
<mgrwt>
<rscale>  0 0.56349615E+02</rscale>
<asrwt>0</asrwt>
<pdfrwt beam="1">  1        2 0.25832134E-01 0.90932445E+02</pdfrwt>
<pdfrwt beam="2">  1       -2 0.30546363E-02 0.90932445E+02</pdfrwt>
<totfact> 0.73421891E+04</totfact>
</mgrwt>
</event>
<event>
 6    1  0.2852411E-002  0.9702268E+02  0.7546771E-02  0.1345421E+00
          2   -1    0    0  501    0  0.00000000000E+00  0.00000000000E+00  0.11829574770E+03  0.11829574770E+03  0.00000000000E+00 0. -1.
         -2   -1    0    0    0  501 -0.00000000000E+00 -0.00000000000E+00 -0.75600129526E+02  0.75600129526E+02  0.00000000000E+00 0.  1.
         23    2    1    2    0    0  0.30766626870E+02 -0.13830865649E+02  0.92297105236E+02  0.13391099835E+03  0.90969894314E+02 0.  0.
         11    1    3    3    0    0 -0.18757920281E+02 -0.36814811786E+02  0.29915701785E+02  0.51011166948E+02  0.00000000000E+00 0.  1.
        -11    1    3    3    0    0  0.49524547151E+02  0.22983946137E+02  0.62381403451E+02  0.82899831406E+02  0.00000000000E+00 0. -1.
         22    1    1    2    0    0 -0.30766626870E+02  0.13830865649E+02 -0.49601487067E+02  0.59984878868E+02  0.00000000000E+00 0.  1.
<mgrwt>
<rscale>  0 0.74501825E+02</rscale>
<asrwt>0</asrwt>
<pdfrwt beam="1">  1        2 0.18199346E-01 0.97022677E+02</pdfrwt>
<pdfrwt beam="2">  1       -2 0.11630789E-01 0.97022677E+02</pdfrwt>
<totfact> 0.14558801E+04</totfact>
</mgrwt>
</event>
<event>
 6    1  0.2852411E-002  0.9920758E+02  0.7546771E-02  0.1362687E+00
         -2   -1    0    0    0  501 -0.00000000000E+00  0.00000000000E+00  0.10173705971E+02  0.10173705971E+02  0.00000000000E+00 0.  1.
          2   -1    0    0  501    0  0.00000000000E+00 -0.00000000000E+00 -0.42288423598E+03  0.42288423598E+03  0.00000000000E+00 0. -1.
         23    2    1    2    0    0  0.12325977638E+02  0.20058619715E+02 -0.38012231681E+03  0.39285508647E+03  0.96373571460E+02 0.  0.
         11    1    3    3    0    0 -0.23639795824E+02  0.29937803863E+02 -0.31884793984E+03  0.32112166042E+03  0.00000000000E+00 0. -1.
        -11    1    3    3    0    0  0.35965773462E+02 -0.98791841481E+01 -0.61274376971E+02  0.71733426053E+02  0.00000000000E+00 0.  1.
         22    1    1    2    0    0 -0.12325977638E+02 -0.20058619715E+02 -0.32588213197E+02  0.40202855482E+02  0.00000000000E+00 0.  1.
<mgrwt>
<rscale>  0 0.69242793E+02</rscale>
<asrwt>0</asrwt>
<pdfrwt beam="1">  1        2 0.65059096E-01 0.99207576E+02</pdfrwt>
<pdfrwt beam="2">  1       -2 0.15651859E-02 0.99207576E+02</pdfrwt>
<totfact> 0.73391989E+04</totfact>
</mgrwt>
</event>
<event>
 6    1  0.2852411E-002  0.9522141E+02  0.7546771E-02  0.1362246E+00
          2   -1    0    0  501    0  0.00000000000E+00  0.00000000000E+00  0.52195146416E+03  0.52195146416E+03  0.00000000000E+00 0. -1.
         -2   -1    0    0    0  501 -0.00000000000E+00 -0.00000000000E+00 -0.71789253997E+01  0.71789253997E+01  0.00000000000E+00 0.  1.
         23    2    1    2    0    0  0.26545717592E+02 -0.38435232561E+01  0.38340856063E+03  0.39505599774E+03  0.91365579880E+02 0.  0.
         11    1    3    3    0    0 -0.26297883573E+02 -0.31589340647E+01  0.25245603009E+03  0.25384169215E+03  0.00000000000E+00 0. -1.
        -11    1    3    3    0    0  0.52843601166E+02 -0.68458919135E+00  0.13095253055E+03  0.14121430559E+03  0.00000000000E+00 0.  1.
         22    1    1    2    0    0 -0.26545717592E+02  0.38435232561E+01  0.13136397813E+03  0.13407439182E+03  0.00000000000E+00 0. -1.
<mgrwt>
<rscale>  0 0.69370667E+02</rscale>
<asrwt>0</asrwt>
<pdfrwt beam="1">  1        2 0.80300196E-01 0.95221410E+02</pdfrwt>
<pdfrwt beam="2">  1       -2 0.11044505E-02 0.95221410E+02</pdfrwt>
<totfact> 0.95677429E+04</totfact>
</mgrwt>
</event>
<event>
 6    1  0.2852411E-002  0.9164491E+02  0.7546771E-02  0.1402262E+00
         -1   -1    0    0    0  501 -0.00000000000E+00  0.00000000000E+00  0.76738315377E+02  0.76738315377E+02  0.00000000000E+00 0.  1.
          1   -1    0    0  501    0  0.00000000000E+00 -0.00000000000E+00 -0.41539676083E+02  0.41539676083E+02  0.00000000000E+00 0. -1.
         23    2    1    2    0    0  0.13571051773E+01 -0.15638162537E+02  0.15267655653E+02  0.92907970355E+02  0.90290618473E+02 0.  0.
         11    1    3    3    0    0 -0.30252274677E+02  0.14301714235E+02 -0.18109255783E+02  0.38048446725E+02  0.00000000000E+00 0. -1.
        -11    1    3    3    0    0  0.31609379854E+02 -0.29939876772E+02  0.33376911436E+02  0.54859523630E+02  0.00000000000E+00 0.  1.
         22    1    1    2    0    0 -0.13571051773E+01  0.15638162537E+02  0.19930983640E+02  0.25370021105E+02  0.00000000000E+00 0.  1.
<mgrwt>
<rscale>  0 0.58956949E+02</rscale>
<asrwt>0</asrwt>
<pdfrwt beam="1">  1        1 0.63907194E-02 0.91644911E+02</pdfrwt>
<pdfrwt beam="2">  1       -1 0.11805895E-01 0.91644911E+02</pdfrwt>
<totfact> 0.47906281E+04</totfact>
</mgrwt>
</event>
<event>
 6    1  0.2852411E-002  0.1040988E+03  0.7546771E-02  0.1317078E+00
          2   -1    0    0  501    0  0.00000000000E+00  0.00000000000E+00  0.12675436852E+03  0.12675436852E+03  0.00000000000E+00 0. -1.
         -2   -1    0    0    0  501 -0.00000000000E+00 -0.00000000000E+00 -0.44063438273E+02  0.44063438273E+02  0.00000000000E+00 0.  1.
         23    2    1    2    0    0  0.39654009917E+02 -0.21116216187E+02  0.51622880168E+02  0.11619584396E+03  0.93905363572E+02 0.  0.
         11    1    3    3    0    0  0.42214015899E+02  0.70913912671E+01  0.70272837501E+02  0.82283550354E+02  0.00000000000E+00 0. -1.
        -11    1    3    3    0    0 -0.25600059823E+01 -0.28207607454E+02 -0.18649957333E+02  0.33912293603E+02  0.00000000000E+00 0.  1.
         22    1    1    2    0    0 -0.39654009917E+02  0.21116216187E+02  0.31068050081E+02  0.54621962839E+02  0.00000000000E+00 0. -1.
<mgrwt>
<rscale>  0 0.84373941E+02</rscale>
<asrwt>0</asrwt>
<pdfrwt beam="1">  1        2 0.19500672E-01 0.10409876E+03</pdfrwt>
<pdfrwt beam="2">  1       -2 0.67789906E-02 0.10409876E+03</pdfrwt>
<totfact> 0.31258762E+04</totfact>
</mgrwt>
</event>
<event>
 6    1  0.2852411E-002  0.9617577E+02  0.7546771E-02  0.1406004E+00
         -3   -1    0    0    0  501 -0.00000000000E+00  0.00000000000E+00  0.31913769654E+02  0.31913769654E+02  0.00000000000E+00 0.  1.
          3   -1    0    0  501    0  0.00000000000E+00 -0.00000000000E+00 -0.10231556231E+03  0.10231556231E+03  0.00000000000E+00 0. -1.
         23    2    1    2    0    0  0.11951528923E+02 -0.45952625520E+01 -0.73511582330E+02  0.12105259970E+03  0.95319587048E+02 0.  0.
         11    1    3    3    0    0  0.24064437474E+02 -0.41731410657E+02 -0.65284905245E+02  0.81134004211E+02  0.00000000000E+00 0. -1.
        -11    1    3    3    0    0 -0.12112908551E+02  0.37136148105E+02 -0.82266770846E+01  0.39918595485E+02  0.00000000000E+00 0.  1.
         22    1    1    2    0    0 -0.11951528923E+02  0.45952625520E+01  0.31097896722E+01  0.13176732270E+02  0.00000000000E+00 0.  1.
<mgrwt>
<rscale>  0 0.58095167E+02</rscale>
<asrwt>0</asrwt>
<pdfrwt beam="1">  1        3 0.15740856E-01 0.96175772E+02</pdfrwt>
<pdfrwt beam="2">  1       -3 0.49098107E-02 0.96175772E+02</pdfrwt>
<totfact> 0.16639935E+04</totfact>
</mgrwt>
</event>
<event>
 6    1  0.2852411E-002  0.9900672E+02  0.7546771E-02  0.1334021E+00
         -2   -1    0    0    0  501 -0.00000000000E+00  0.00000000000E+00  0.28305355850E+01  0.28305355850E+01  0.00000000000E+00 0.  1.
          2   -1    0    0  501    0  0.00000000000E+00 -0.00000000000E+00 -0.23473351442E+04  0.23473351442E+04  0.00000000000E+00 0. -1.
         23    2    1    2    0    0  0.16271354697E+02 -0.35090923522E+02 -0.21231362093E+04  0.21254434110E+04  0.91138356297E+02 0.  0.
         11    1    3    3    0    0 -0.33207936786E+02 -0.81446592575E+01 -0.12636775534E+04  0.12641400482E+04  0.00000000000E+00 0. -1.
        -11    1    3    3    0    0  0.49479291483E+02 -0.26946264265E+02 -0.85945865596E+03  0.86130336279E+03  0.00000000000E+00 0.  1.
         22    1    1    2    0    0 -0.16271354697E+02  0.35090923522E+02 -0.22136839927E+03  0.22472226879E+03  0.00000000000E+00 0.  1.
<mgrwt>
<rscale>  0 0.78274383E+02</rscale>
<asrwt>0</asrwt>
<pdfrwt beam="1">  1        2 0.36112806E+00 0.99006716E+02</pdfrwt>
<pdfrwt beam="2">  1       -2 0.43546753E-03 0.99006716E+02</pdfrwt>
<totfact> 0.32711153E+04</totfact>
</mgrwt>
</event>
<event>
 6    1  0.2852411E-002  0.9466852E+02  0.7546771E-02  0.1363979E+00
          2   -1    0    0  501    0  0.00000000000E+00  0.00000000000E+00  0.42709663489E+03  0.42709663489E+03  0.00000000000E+00 0. -1.
         -2   -1    0    0    0  501 -0.00000000000E+00 -0.00000000000E+00 -0.36149551056E+02  0.36149551056E+02  0.00000000000E+00 0.  1.
         23    2    1    2    0    0  0.12959960959E+02  0.23132385937E+02  0.41607902466E+03  0.42671288173E+03  0.90879375028E+02 0.  0.
         13    1    3    3    0    0  0.42158580019E+02 -0.81979292609E+01  0.11799871626E+03  0.12557168850E+03  0.00000000000E+00 0.  1.
        -13    1    3    3    0    0 -0.29198619059E+02  0.31330315198E+02  0.29808030840E+03  0.30114119323E+03  0.00000000000E+00 0. -1.
         22    1    1    2    0    0 -0.12959960959E+02 -0.23132385937E+02 -0.25131940826E+02  0.36533304216E+02  0.00000000000E+00 0.  1.
<mgrwt>
<rscale>  0 0.68869804E+02</rscale>
<asrwt>0</asrwt>
<pdfrwt beam="1">  1        2 0.65707171E-01 0.94668520E+02</pdfrwt>
<pdfrwt beam="2">  1       -2 0.55614697E-02 0.94668520E+02</pdfrwt>
<totfact> 0.11373227E+04</totfact>
</mgrwt>
</event>
<event>
 6    1  0.2852411E-002  0.1060343E+03  0.7546771E-02  0.1302516E+00
          2   -1    0    0  501    0  0.00000000000E+00  0.00000000000E+00  0.10823713138E+04  0.10823713138E+04  0.00000000000E+00 0.  1.
         -2   -1    0    0    0  501 -0.00000000000E+00 -0.00000000000E+00 -0.80340678884E+01  0.80340678884E+01  0.00000000000E+00 0. -1.
         23    2    1    2    0    0 -0.10307246071E+02  0.54406439220E+02  0.92632449414E+03  0.93237350314E+03  0.90426660700E+02 0.  0.
         13    1    3    3    0    0 -0.23872401169E+02  0.71619189006E+02  0.83708799751E+03  0.84048528562E+03  0.00000000000E+00 0.  1.
        -13    1    3    3    0    0  0.13565155098E+02 -0.17212749786E+02  0.89236496628E+02  0.91888217517E+02  0.00000000000E+00 0. -1.
         22    1    1    2    0    0  0.10307246071E+02 -0.54406439220E+02  0.14801275177E+03  0.15803187854E+03  0.00000000000E+00 0. -1.
<mgrwt>
<rscale>  0 0.90138791E+02</rscale>
<asrwt>0</asrwt>
<pdfrwt beam="1">  1        2 0.16651855E+00 0.10603434E+03</pdfrwt>
<pdfrwt beam="2">  1       -2 0.12360113E-02 0.10603434E+03</pdfrwt>
<totfact> 0.33962008E+04</totfact>
</mgrwt>
</event>
<event>
 6    1  0.2852411E-002  0.9274878E+02  0.7546771E-02  0.1382093E+00
         -2   -1    0    0    0  501 -0.00000000000E+00  0.00000000000E+00  0.70877324766E+01  0.70877324766E+01  0.00000000000E+00 0.  1.
          2   -1    0    0  501    0  0.00000000000E+00 -0.00000000000E+00 -0.58307162039E+03  0.58307162039E+03  0.00000000000E+00 0. -1.
         23    2    1    2    0    0  0.11729786235E+02  0.17320583071E+02 -0.54460908824E+03  0.55245035476E+03  0.90358978569E+02 0.  0.
         11    1    3    3    0    0  0.10736372878E+01 -0.32822761833E+02 -0.33739071591E+03  0.33898522324E+03  0.00000000000E+00 0. -1.
        -11    1    3    3    0    0  0.10656148947E+02  0.50143344904E+02 -0.20721837232E+03  0.21346513152E+03  0.00000000000E+00 0.  1.
         22    1    1    2    0    0 -0.11729786235E+02 -0.17320583071E+02 -0.31374799682E+02  0.37708998106E+02  0.00000000000E+00 0.  1.
<mgrwt>
<rscale>  0 0.63916741E+02</rscale>
<asrwt>0</asrwt>
<pdfrwt beam="1">  1        2 0.89703335E-01 0.92748776E+02</pdfrwt>
<pdfrwt beam="2">  1       -2 0.10904203E-02 0.92748776E+02</pdfrwt>
<totfact> 0.85936453E+04</totfact>
</mgrwt>
</event>
<event>
 6    1  0.2852411E-002  0.9456702E+02  0.7546771E-02  0.1375504E+00
         -2   -1    0    0    0  501 -0.00000000000E+00  0.00000000000E+00  0.24438076528E+03  0.24438076528E+03  0.00000000000E+00 0.  1.
          2   -1    0    0  501    0  0.00000000000E+00 -0.00000000000E+00 -0.14560412043E+02  0.14560412043E+02  0.00000000000E+00 0. -1.
         23    2    1    2    0    0 -0.67416778439E+01 -0.20918955071E+02  0.16124809101E+03  0.18693278859E+03  0.91977539069E+02 0.  0.
         11    1    3    3    0    0  0.13976593448E+01  0.36206574516E+02  0.51944754568E+02  0.63333458905E+02  0.00000000000E+00 0.  1.
        -11    1    3    3    0    0 -0.81393371887E+01 -0.57125529587E+02  0.10930333644E+03  0.12359932968E+03  0.00000000000E+00 0. -1.
         22    1    1    2    0    0  0.67416778439E+01  0.20918955071E+02  0.68572262233E+02  0.72008388742E+02  0.00000000000E+00 0. -1.
<mgrwt>
<rscale>  0 0.65660487E+02</rscale>
<asrwt>0</asrwt>
<pdfrwt beam="1">  1        2 0.22400636E-02 0.94567016E+02</pdfrwt>
<pdfrwt beam="2">  1       -2 0.37597038E-01 0.94567016E+02</pdfrwt>
<totfact> 0.27565320E+04</totfact>
</mgrwt>
</event>
<event>
 6    1  0.2852411E-002  0.9410932E+02  0.7546771E-02  0.1400376E+00
         -2   -1    0    0    0  501 -0.00000000000E+00  0.00000000000E+00  0.32596165543E+01  0.32596165543E+01  0.00000000000E+00 0.  1.
          2   -1    0    0  501    0  0.00000000000E+00 -0.00000000000E+00 -0.11642023429E+04  0.11642023429E+04  0.00000000000E+00 0. -1.
         23    2    1    2    0    0 -0.11549839959E+02  0.94675518399E+01 -0.11188040096E+04  0.11227550832E+04  0.92916798663E+02 0.  0.
         13    1    3    3    0    0  0.71153368510E+01 -0.94579386486E+01 -0.17477863060E+02  0.21108205019E+02  0.00000000000E+00 0.  1.
        -13    1    3    3    0    0 -0.18665176810E+02  0.18925490489E+02 -0.11013261466E+04  0.11016468781E+04  0.00000000000E+00 0. -1.
         22    1    1    2    0    0  0.11549839959E+02 -0.94675518399E+01 -0.42138716726E+02  0.44706876296E+02  0.00000000000E+00 0.  1.
<mgrwt>
<rscale>  0 0.59397848E+02</rscale>
<asrwt>0</asrwt>
<pdfrwt beam="1">  1        2 0.17910797E+00 0.94109324E+02</pdfrwt>
<pdfrwt beam="2">  1       -2 0.50147969E-03 0.94109324E+02</pdfrwt>
<totfact> 0.10803141E+05</totfact>
</mgrwt>
</event>
<event>
 6    1  0.2852411E-002  0.9327546E+02  0.7546771E-02  0.1398039E+00
          2   -1    0    0  501    0  0.00000000000E+00  0.00000000000E+00  0.39908972953E+03  0.39908972953E+03  0.00000000000E+00 0. -1.
         -2   -1    0    0    0  501 -0.00000000000E+00 -0.00000000000E+00 -0.80317478825E+01  0.80317478825E+01  0.00000000000E+00 0.  1.
         23    2    1    2    0    0  0.13350282173E+02 -0.86681258243E+01  0.36369495841E+03  0.37546549093E+03  0.91907266679E+02 0.  0.
         13    1    3    3    0    0 -0.89918988717E+01 -0.46695143723E+02  0.15366535121E+03  0.16085499947E+03  0.00000000000E+00 0.  1.
        -13    1    3    3    0    0  0.22342181045E+02  0.38027017899E+02  0.21002960719E+03  0.21461049145E+03  0.00000000000E+00 0. -1.
         22    1    1    2    0    0 -0.13350282173E+02  0.86681258243E+01  0.27363023242E+02  0.31655986485E+02  0.00000000000E+00 0. -1.
<mgrwt>
<rscale>  0 0.59950692E+02</rscale>
<asrwt>0</asrwt>
<pdfrwt beam="1">  1        2 0.61398405E-01 0.93275464E+02</pdfrwt>
<pdfrwt beam="2">  1       -2 0.12356538E-02 0.93275464E+02</pdfrwt>
<totfact> 0.10837963E+05</totfact>
</mgrwt>
</event>
<event>
 6    1  0.2852411E-002  0.9660050E+02  0.7546771E-02  0.1390445E+00
         -2   -1    0    0    0  501 -0.00000000000E+00  0.00000000000E+00  0.22700176306E+03  0.22700176306E+03  0.00000000000E+00 0.  1.
          2   -1    0    0  501    0  0.00000000000E+00 -0.00000000000E+00 -0.16583438616E+02  0.16583438616E+02  0.00000000000E+00 0. -1.
         23    2    1    2    0    0 -0.14188329619E+02 -0.77718161766E+01  0.13232552796E+03  0.16383437293E+03  0.95236267132E+02 0.  0.
         13    1    3    3    0    0 -0.48910683163E+02  0.25009892710E+01  0.35580567988E+02  0.60535003867E+02  0.00000000000E+00 0. -1.
        -13    1    3    3    0    0  0.34722353544E+02 -0.10272805448E+02  0.96744959975E+02  0.10329936906E+03  0.00000000000E+00 0.  1.
         22    1    1    2    0    0  0.14188329619E+02  0.77718161766E+01  0.78092796478E+02  0.79750828747E+02  0.00000000000E+00 0. -1.
<mgrwt>
<rscale>  0 0.61796237E+02</rscale>
<asrwt>0</asrwt>
<pdfrwt beam="1">  1        2 0.25512984E-02 0.96600499E+02</pdfrwt>
<pdfrwt beam="2">  1       -2 0.34923346E-01 0.96600499E+02</pdfrwt>
<totfact> 0.26596926E+04</totfact>
</mgrwt>
</event>
<event>
 6    1  0.2852411E-002  0.9325773E+02  0.7546771E-02  0.1364573E+00
          1   -1    0    0  501    0  0.00000000000E+00  0.00000000000E+00  0.85379155811E+03  0.85379155811E+03  0.00000000000E+00 0. -1.
         -1   -1    0    0    0  501 -0.00000000000E+00 -0.00000000000E+00 -0.70663291037E+01  0.70663291037E+01  0.00000000000E+00 0.  1.
         23    2    1    2    0    0  0.25756624656E+02  0.95304338274E+01  0.80810599724E+03  0.81346930267E+03  0.89122223563E+02 0.  0.
         11    1    3    3    0    0  0.35285088426E+02 -0.24301337776E+02  0.65417647229E+03  0.65557795066E+03  0.00000000000E+00 0. -1.
        -11    1    3    3    0    0 -0.95284637700E+01  0.33831771603E+02  0.15392952495E+03  0.15789135202E+03  0.00000000000E+00 0.  1.
         22    1    1    2    0    0 -0.25756624656E+02 -0.95304338274E+01  0.38619231768E+02  0.47388584543E+02  0.00000000000E+00 0.  1.
<mgrwt>
<rscale>  0 0.68699219E+02</rscale>
<asrwt>0</asrwt>
<pdfrwt beam="1">  1        1 0.13135247E+00 0.93257727E+02</pdfrwt>
<pdfrwt beam="2">  1       -1 0.10871282E-02 0.93257727E+02</pdfrwt>
<totfact> 0.31528704E+04</totfact>
</mgrwt>
</event>
<event>
 6    1  0.2852411E-002  0.9443081E+02  0.7546771E-02  0.1384267E+00
         -2   -1    0    0    0  501 -0.00000000000E+00  0.00000000000E+00  0.34721910752E+02  0.34721910752E+02  0.00000000000E+00 0.  1.
          2   -1    0    0  501    0  0.00000000000E+00 -0.00000000000E+00 -0.95573429505E+02  0.95573429505E+02  0.00000000000E+00 0. -1.
         23    2    1    2    0    0 -0.11040865314E+02 -0.15626555843E+02 -0.58337291686E+02  0.11099737943E+03  0.92472096788E+02 0.  0.
         13    1    3    3    0    0  0.28880213756E+02 -0.38722167229E+02 -0.29315021010E+02  0.56505251423E+02  0.00000000000E+00 0.  1.
        -13    1    3    3    0    0 -0.39921079071E+02  0.23095611386E+02 -0.29022270676E+02  0.54492128006E+02  0.00000000000E+00 0. -1.
         22    1    1    2    0    0  0.11040865314E+02  0.15626555843E+02 -0.25142270661E+01  0.19297960828E+02  0.00000000000E+00 0. -1.
<mgrwt>
<rscale>  0 0.63355420E+02</rscale>
<asrwt>0</asrwt>
<pdfrwt beam="1">  1        2 0.14703605E-01 0.94430814E+02</pdfrwt>
<pdfrwt beam="2">  1       -2 0.53418324E-02 0.94430814E+02</pdfrwt>
<totfact> 0.60994635E+04</totfact>
</mgrwt>
</event>
<event>
 6    1  0.2852411E-002  0.1316066E+03  0.7546771E-02  0.1248195E+00
         -2   -1    0    0    0  501 -0.00000000000E+00  0.00000000000E+00  0.45041474530E+02  0.45041474530E+02  0.00000000000E+00 0.  1.
          2   -1    0    0  501    0  0.00000000000E+00 -0.00000000000E+00 -0.47626224527E+03  0.47626224527E+03  0.00000000000E+00 0. -1.
         23    2    1    2    0    0  0.18449866266E+02 -0.79999642163E+02 -0.41789658014E+03  0.43812995972E+03  0.10285897919E+03 0.  0.
         13    1    3    3    0    0 -0.20918553673E+02 -0.14348301558E+02 -0.18328971647E+02  0.31295540369E+02  0.00000000000E+00 0. -1.
        -13    1    3    3    0    0  0.39368419938E+02 -0.65651340605E+02 -0.39956760849E+03  0.40683441935E+03  0.00000000000E+00 0.  1.
         22    1    1    2    0    0 -0.18449866266E+02  0.79999642163E+02 -0.13324190604E+02  0.83173760085E+02  0.00000000000E+00 0. -1.
<mgrwt>
<rscale>  0 0.11696168E+03</rscale>
<asrwt>0</asrwt>
<pdfrwt beam="1">  1        2 0.73271112E-01 0.13160665E+03</pdfrwt>
<pdfrwt beam="2">  1       -2 0.69294579E-02 0.13160665E+03</pdfrwt>
<totfact> 0.74332715E+03</totfact>
</mgrwt>
</event>
<event>
 6    1  0.2852411E-002  0.8936286E+02  0.7546771E-02  0.1403172E+00
          2   -1    0    0  501    0  0.00000000000E+00  0.00000000000E+00  0.29327767093E+03  0.29327767093E+03  0.00000000000E+00 0. -1.
         -2   -1    0    0    0  501 -0.00000000000E+00 -0.00000000000E+00 -0.12349483561E+02  0.12349483561E+02  0.00000000000E+00 0.  1.
         23    2    1    2    0    0  0.12152101920E+02 -0.11439263828E+02  0.27280023962E+03  0.28706391467E+03  0.87790603330E+02 0.  0.
         13    1    3    3    0    0  0.22287268289E+02  0.14739022419E+02  0.24850881628E+03  0.24994117883E+03  0.00000000000E+00 0. -1.
        -13    1    3    3    0    0 -0.10135166369E+02 -0.26178286247E+02  0.24291423342E+02  0.37122735838E+02  0.00000000000E+00 0.  1.
         22    1    1    2    0    0 -0.12152101920E+02  0.11439263828E+02  0.81279477520E+01  0.18563239821E+02  0.00000000000E+00 0.  1.
<mgrwt>
<rscale>  0 0.58745804E+02</rscale>
<asrwt>0</asrwt>
<pdfrwt beam="1">  1        2 0.45119637E-01 0.89362858E+02</pdfrwt>
<pdfrwt beam="2">  1       -2 0.18999208E-02 0.89362858E+02</pdfrwt>
<totfact> 0.80468145E+04</totfact>
</mgrwt>
</event>
<event>
 6    1  0.2852411E-002  0.9270400E+02  0.7546771E-02  0.1407858E+00
          2   -1    0    0  501    0  0.00000000000E+00  0.00000000000E+00  0.12159753663E+04  0.12159753663E+04  0.00000000000E+00 0. -1.
         -2   -1    0    0    0  501 -0.00000000000E+00 -0.00000000000E+00 -0.11456556280E+02  0.11456556280E+02  0.00000000000E+00 0.  1.
         23    2    1    2    0    0 -0.60933885849E+01  0.12479936288E+02  0.12092210701E+04  0.12127694042E+04  0.91657804912E+02 0.  0.
         13    1    3    3    0    0  0.24823935485E+02  0.31705403401E+01  0.10504684060E+04  0.10507664594E+04  0.00000000000E+00 0. -1.
        -13    1    3    3    0    0 -0.30917324070E+02  0.93093959475E+01  0.15875266407E+03  0.16200294482E+03  0.00000000000E+00 0.  1.
         22    1    1    2    0    0  0.60933885849E+01 -0.12479936288E+02 -0.47022601088E+01  0.14662518348E+02  0.00000000000E+00 0.  1.
<mgrwt>
<rscale>  0 0.57674554E+02</rscale>
<asrwt>0</asrwt>
<pdfrwt beam="1">  1        2 0.18707303E+00 0.92703999E+02</pdfrwt>
<pdfrwt beam="2">  1       -2 0.17625481E-02 0.92703999E+02</pdfrwt>
<totfact> 0.17050501E+04</totfact>
</mgrwt>
</event>
<event>
 6    1  0.2852411E-002  0.9068278E+02  0.7546771E-02  0.1433151E+00
         -2   -1    0    0    0  501 -0.00000000000E+00  0.00000000000E+00  0.19592620367E+01  0.19592620367E+01  0.00000000000E+00 0. -1.
          2   -1    0    0  501    0  0.00000000000E+00 -0.00000000000E+00 -0.18329227135E+04  0.18329227135E+04  0.00000000000E+00 0.  1.
         23    2    1    2    0    0  0.76460681818E+01 -0.65348902382E+01 -0.18008782024E+04  0.18031599113E+04  0.90123241426E+02 0.  0.
         13    1    3    3    0    0 -0.15540496181E+02 -0.43331484576E+02 -0.78189574257E+03  0.78324968997E+03  0.00000000000E+00 0. -1.
        -13    1    3    3    0    0  0.23186564363E+02  0.36796594338E+02 -0.10189824598E+04  0.10199102213E+04  0.00000000000E+00 0.  1.
         22    1    1    2    0    0 -0.76460681818E+01  0.65348902382E+01 -0.30085249072E+02  0.31722064258E+02  0.00000000000E+00 0. -1.
<mgrwt>
<rscale>  0 0.52332748E+02</rscale>
<asrwt>0</asrwt>
<pdfrwt beam="1">  1        2 0.28198938E+00 0.90682776E+02</pdfrwt>
<pdfrwt beam="2">  1       -2 0.30142357E-03 0.90682776E+02</pdfrwt>
<totfact> 0.98966652E+04</totfact>
</mgrwt>
</event>
<event>
 6    1  0.2852411E-002  0.9426343E+02  0.7546771E-02  0.1368697E+00
          2   -1    0    0  501    0  0.00000000000E+00  0.00000000000E+00  0.53081210108E+03  0.53081210108E+03  0.00000000000E+00 0. -1.
         -2   -1    0    0    0  501 -0.00000000000E+00 -0.00000000000E+00 -0.67964851614E+01  0.67964851614E+01  0.00000000000E+00 0.  1.
         23    2    1    2    0    0 -0.42909160424E+00  0.24826166175E+02  0.38342230335E+03  0.39483953432E+03  0.90934440735E+02 0.  0.
         11    1    3    3    0    0 -0.12201176327E+02  0.33432087032E+02  0.51519515241E+02  0.62616560092E+02  0.00000000000E+00 0.  1.
        -11    1    3    3    0    0  0.11772084723E+02 -0.86059208570E+01  0.33190278810E+03  0.33222297423E+03  0.00000000000E+00 0. -1.
         22    1    1    2    0    0  0.42909160424E+00 -0.24826166175E+02  0.14059331257E+03  0.14276905192E+03  0.00000000000E+00 0. -1.
<mgrwt>
<rscale>  0 0.67530673E+02</rscale>
<asrwt>0</asrwt>
<pdfrwt beam="1">  1        2 0.81663368E-01 0.94263435E+02</pdfrwt>
<pdfrwt beam="2">  1       -2 0.10456135E-02 0.94263435E+02</pdfrwt>
<totfact> 0.10137820E+05</totfact>
</mgrwt>
</event>
<event>
 6    1  0.2852411E-002  0.9401743E+02  0.7546771E-02  0.1421273E+00
          1   -1    0    0  501    0  0.00000000000E+00  0.00000000000E+00  0.58163609114E+02  0.58163609114E+02  0.00000000000E+00 0. -1.
         -1   -1    0    0    0  501 -0.00000000000E+00 -0.00000000000E+00 -0.49633566037E+02  0.49633566037E+02  0.00000000000E+00 0.  1.
         23    2    1    2    0    0  0.86243061715E+00  0.10779710766E+02  0.14983361738E+02  0.95203872467E+02  0.93393416540E+02 0.  0.
         11    1    3    3    0    0  0.35020149507E+02 -0.25991490580E+02  0.37406693953E+01  0.43771692469E+02  0.00000000000E+00 0. -1.
        -11    1    3    3    0    0 -0.34157718890E+02  0.36771201346E+02  0.11242692342E+02  0.51432179998E+02  0.00000000000E+00 0.  1.
         22    1    1    2    0    0 -0.86243061715E+00 -0.10779710766E+02 -0.64533186612E+01  0.12593302685E+02  0.00000000000E+00 0. -1.
<mgrwt>
<rscale>  0 0.54752558E+02</rscale>
<asrwt>0</asrwt>
<pdfrwt beam="1">  1        1 0.89482476E-02 0.94017425E+02</pdfrwt>
<pdfrwt beam="2">  1       -1 0.76359332E-02 0.94017425E+02</pdfrwt>
<totfact> 0.59266376E+04</totfact>
</mgrwt>
</event>
<event>
 6    1  0.2852411E-002  0.9138047E+02  0.7546771E-02  0.1417731E+00
          2   -1    0    0  501    0  0.00000000000E+00  0.00000000000E+00  0.36082857586E+04  0.36082857586E+04  0.00000000000E+00 0. -1.
         -2   -1    0    0    0  501 -0.00000000000E+00 -0.00000000000E+00 -0.15337354985E+01  0.15337354985E+01  0.00000000000E+00 0.  1.
         23    2    1    2    0    0  0.12432922080E+02  0.33581125504E+00  0.35669311232E+04  0.35681014598E+04  0.90530100491E+02 0.  0.
         11    1    3    3    0    0 -0.19242783785E+02 -0.30312047693E+02  0.25033639735E+04  0.25036214348E+04  0.00000000000E+00 0. -1.
        -11    1    3    3    0    0  0.31675705864E+02  0.30647858948E+02  0.10635671498E+04  0.10644800250E+04  0.00000000000E+00 0.  1.
         22    1    1    2    0    0 -0.12432922080E+02 -0.33581125504E+00  0.39820899817E+02  0.41718034264E+02  0.00000000000E+00 0.  1.
<mgrwt>
<rscale>  0 0.55503825E+02</rscale>
<asrwt>0</asrwt>
<pdfrwt beam="1">  1        2 0.55511409E+00 0.91380465E+02</pdfrwt>
<pdfrwt beam="2">  1       -2 0.23596220E-03 0.91380465E+02</pdfrwt>
<totfact> 0.14466864E+04</totfact>
</mgrwt>
</event>
<event>
 6    1  0.2852411E-002  0.1177266E+03  0.7546771E-02  0.1273848E+00
          2   -1    0    0  501    0  0.00000000000E+00  0.00000000000E+00  0.84570363497E+03  0.84570363497E+03  0.00000000000E+00 0. -1.
         -2   -1    0    0    0  501 -0.00000000000E+00 -0.00000000000E+00 -0.67921819970E+02  0.67921819970E+02  0.00000000000E+00 0.  1.
         23    2    1    2    0    0 -0.66086345228E+01  0.69013962322E+02  0.82265822962E+03  0.83103917500E+03  0.95146973539E+02 0.  0.
         13    1    3    3    0    0  0.31191191164E+02  0.13126152064E+02  0.51303559246E+03  0.51415046961E+03  0.00000000000E+00 0.  1.
        -13    1    3    3    0    0 -0.37799825687E+02  0.55887810258E+02  0.30962263716E+03  0.31688870538E+03  0.00000000000E+00 0. -1.
         22    1    1    2    0    0  0.66086345228E+01 -0.69013962322E+02 -0.44876414620E+02  0.82586279943E+02  0.00000000000E+00 0.  1.
<mgrwt>
<rscale>  0 0.10313015E+03</rscale>
<asrwt>0</asrwt>
<pdfrwt beam="1">  1        2 0.13010824E+00 0.11772658E+03</pdfrwt>
<pdfrwt beam="2">  1       -2 0.10449511E-01 0.11772658E+03</pdfrwt>
<totfact> 0.20131565E+03</totfact>
</mgrwt>
</event>
<event>
 6    1  0.2852411E-002  0.9108691E+02  0.7546771E-02  0.1397276E+00
         -2   -1    0    0    0  501 -0.00000000000E+00  0.00000000000E+00  0.21464141994E+02  0.21464141994E+02  0.00000000000E+00 0.  1.
          2   -1    0    0  501    0  0.00000000000E+00 -0.00000000000E+00 -0.22341230536E+03  0.22341230536E+03  0.00000000000E+00 0. -1.
         23    2    1    2    0    0 -0.17297011032E+02  0.37343685406E+00 -0.20757707674E+03  0.22668274758E+03  0.89428738198E+02 0.  0.
         11    1    3    3    0    0 -0.62591667148E+01 -0.17654356932E+02 -0.20445938077E+03  0.20531559091E+03  0.00000000000E+00 0. -1.
        -11    1    3    3    0    0 -0.11037844317E+02  0.18027793786E+02 -0.31176959739E+01  0.21367156669E+02  0.00000000000E+00 0.  1.
         22    1    1    2    0    0  0.17297011032E+02 -0.37343685406E+00  0.56289133764E+01  0.18193699775E+02  0.00000000000E+00 0.  1.
<mgrwt>
<rscale>  0 0.60132608E+02</rscale>
<asrwt>0</asrwt>
<pdfrwt beam="1">  1        2 0.34371122E-01 0.91086910E+02</pdfrwt>
<pdfrwt beam="2">  1       -2 0.33021758E-02 0.91086910E+02</pdfrwt>
<totfact> 0.48286517E+04</totfact>
</mgrwt>
</event>
<event>
 6    1  0.2852411E-002  0.9037058E+02  0.7546771E-02  0.1428730E+00
          2   -1    0    0  501    0  0.00000000000E+00  0.00000000000E+00  0.95996466207E+02  0.95996466207E+02  0.00000000000E+00 0. -1.
         -2   -1    0    0    0  501 -0.00000000000E+00 -0.00000000000E+00 -0.29102905678E+02  0.29102905678E+02  0.00000000000E+00 0.  1.
         23    2    1    2    0    0  0.46595841281E+01  0.98164996688E+01  0.69404728226E+02  0.11394673304E+03  0.89714916712E+02 0.  0.
         11    1    3    3    0    0  0.17007217581E+01 -0.31412965434E+02 -0.19117254027E+01  0.31517004076E+02  0.00000000000E+00 0.  1.
        -11    1    3    3    0    0  0.29588623700E+01  0.41229465103E+02  0.71316453628E+02  0.82429728966E+02  0.00000000000E+00 0. -1.
         22    1    1    2    0    0 -0.46595841281E+01 -0.98164996688E+01 -0.25111676963E+01  0.11152638844E+02  0.00000000000E+00 0. -1.
<mgrwt>
<rscale>  0 0.53215755E+02</rscale>
<asrwt>0</asrwt>
<pdfrwt beam="1">  1        2 0.14768687E-01 0.90370580E+02</pdfrwt>
<pdfrwt beam="2">  1       -2 0.44773702E-02 0.90370580E+02</pdfrwt>
<totfact> 0.78368723E+04</totfact>
</mgrwt>
</event>
<event>
 6    1  0.2852411E-002  0.9792186E+02  0.7546771E-02  0.1391765E+00
         -2   -1    0    0    0  501 -0.00000000000E+00  0.00000000000E+00  0.52319394344E+01  0.52319394344E+01  0.00000000000E+00 0. -1.
          2   -1    0    0  501    0  0.00000000000E+00 -0.00000000000E+00 -0.75260165947E+03  0.75260165947E+03  0.00000000000E+00 0.  1.
         23    2    1    2    0    0 -0.12516491443E+02 -0.86344657139E+01 -0.71907575705E+03  0.72571250152E+03  0.96734037015E+02 0.  0.
         11    1    3    3    0    0  0.27283698905E+02 -0.32870973967E+02 -0.49515853542E+03  0.49699786353E+03  0.00000000000E+00 0. -1.
        -11    1    3    3    0    0 -0.39800190349E+02  0.24236508253E+02 -0.22391722164E+03  0.22871463799E+03  0.00000000000E+00 0.  1.
         22    1    1    2    0    0  0.12516491443E+02  0.86344657139E+01 -0.28293962978E+02  0.32121097385E+02  0.00000000000E+00 0. -1.
<mgrwt>
<rscale>  0 0.61469843E+02</rscale>
<asrwt>0</asrwt>
<pdfrwt beam="1">  1        2 0.11578480E+00 0.97921859E+02</pdfrwt>
<pdfrwt beam="2">  1       -2 0.80491425E-03 0.97921859E+02</pdfrwt>
<totfact> 0.99155143E+04</totfact>
</mgrwt>
</event>
<event>
 6    1  0.2852411E-002  0.9419853E+02  0.7546771E-02  0.1349289E+00
         -2   -1    0    0    0  501 -0.00000000000E+00  0.00000000000E+00  0.55328658062E+01  0.55328658062E+01  0.00000000000E+00 0.  1.
          2   -1    0    0  501    0  0.00000000000E+00 -0.00000000000E+00 -0.11297252627E+04  0.11297252627E+04  0.00000000000E+00 0. -1.
         23    2    1    2    0    0  0.33324845974E+02 -0.89084115932E+01 -0.10402237572E+04  0.10444801708E+04  0.87655330467E+02 0.  0.
         11    1    3    3    0    0  0.16266517770E+02 -0.47698338873E+02 -0.65397787078E+03  0.65591675280E+03  0.00000000000E+00 0. -1.
        -11    1    3    3    0    0  0.17058328203E+02  0.38789927280E+02 -0.38624588641E+03  0.38856341797E+03  0.00000000000E+00 0.  1.
         22    1    1    2    0    0 -0.33324845974E+02  0.89084115932E+01 -0.83968639689E+02  0.90777957718E+02  0.00000000000E+00 0.  1.
<mgrwt>
<rscale>  0 0.73277749E+02</rscale>
<asrwt>0</asrwt>
<pdfrwt beam="1">  1        2 0.17380404E+00 0.94198525E+02</pdfrwt>
<pdfrwt beam="2">  1       -2 0.85120935E-03 0.94198525E+02</pdfrwt>
<totfact> 0.53604898E+04</totfact>
</mgrwt>
</event>
<event>
 6    1  0.2852411E-002  0.9777034E+02  0.7546771E-02  0.1356439E+00
         -2   -1    0    0    0  501 -0.00000000000E+00  0.00000000000E+00  0.89157164602E+01  0.89157164602E+01  0.00000000000E+00 0.  1.
          2   -1    0    0  501    0  0.00000000000E+00 -0.00000000000E+00 -0.57982849009E+03  0.57982849009E+03  0.00000000000E+00 0. -1.
         23    2    1    2    0    0  0.16080323773E+02 -0.22088675054E+02 -0.53368259549E+03  0.54256442155E+03  0.93875196010E+02 0.  0.
         11    1    3    3    0    0  0.45463759002E+02  0.10192879825E+01 -0.14204389024E+03  0.14914576455E+03  0.00000000000E+00 0.  1.
        -11    1    3    3    0    0 -0.29383435229E+02 -0.23107963037E+02 -0.39163870525E+03  0.39341865700E+03  0.00000000000E+00 0. -1.
         22    1    1    2    0    0 -0.16080323773E+02  0.22088675054E+02 -0.37230178142E+02  0.46179785001E+02  0.00000000000E+00 0. -1.
<mgrwt>
<rscale>  0 0.71085835E+02</rscale>
<asrwt>0</asrwt>
<pdfrwt beam="1">  1        2 0.89204414E-01 0.97770337E+02</pdfrwt>
<pdfrwt beam="2">  1       -2 0.13716482E-02 0.97770337E+02</pdfrwt>
<totfact> 0.62822748E+04</totfact>
</mgrwt>
</event>
<event>
 6    1  0.2852411E-002  0.9163381E+02  0.7546771E-02  0.1427511E+00
          1   -1    0    0  501    0  0.00000000000E+00  0.00000000000E+00  0.13232636801E+04  0.13232636801E+04  0.00000000000E+00 0. -1.
         -1   -1    0    0    0  501 -0.00000000000E+00 -0.00000000000E+00 -0.30807123970E+01  0.30807123970E+01  0.00000000000E+00 0.  1.
         23    2    1    2    0    0 -0.26087669980E+01  0.10292566170E+02  0.13024935513E+04  0.13057129108E+04  0.91016546336E+02 0.  0.
         13    1    3    3    0    0 -0.24246802004E+02  0.20493490566E+02  0.16836104987E+03  0.17132814619E+03  0.00000000000E+00 0.  1.
        -13    1    3    3    0    0  0.21638035006E+02 -0.10200924396E+02  0.11341325014E+04  0.11343847646E+04  0.00000000000E+00 0. -1.
         22    1    1    2    0    0  0.26087669980E+01 -0.10292566170E+02  0.17689416383E+02  0.20631481663E+02  0.00000000000E+00 0.  1.
<mgrwt>
<rscale>  0 0.53462934E+02</rscale>
<asrwt>0</asrwt>
<pdfrwt beam="1">  1        1 0.20357857E+00 0.91633805E+02</pdfrwt>
<pdfrwt beam="2">  1       -1 0.47395681E-03 0.91633805E+02</pdfrwt>
<totfact> 0.47278100E+04</totfact>
</mgrwt>
</event>
<event>
 6    1  0.2852411E-002  0.9178642E+02  0.7546771E-02  0.1394032E+00
          2   -1    0    0  501    0  0.00000000000E+00  0.00000000000E+00  0.17156117204E+04  0.17156117204E+04  0.00000000000E+00 0. -1.
         -2   -1    0    0    0  501 -0.00000000000E+00 -0.00000000000E+00 -0.23758990551E+01  0.23758990551E+01  0.00000000000E+00 0.  1.
         23    2    1    2    0    0 -0.16713086684E+02  0.61409610500E+01  0.16418882368E+04  0.16444518017E+04  0.90042808573E+02 0.  0.
         11    1    3    3    0    0 -0.18864440977E+02 -0.16951072473E+02  0.15287806337E+04  0.15289909849E+04  0.00000000000E+00 0. -1.
        -11    1    3    3    0    0  0.21513542937E+01  0.23092033523E+02  0.11310760310E+03  0.11546081680E+03  0.00000000000E+00 0.  1.
         22    1    1    2    0    0  0.16713086684E+02 -0.61409610500E+01  0.71347584507E+02  0.73535817695E+02  0.00000000000E+00 0. -1.
<mgrwt>
<rscale>  0 0.60914802E+02</rscale>
<asrwt>0</asrwt>
<pdfrwt beam="1">  1        2 0.26393928E+00 0.91786415E+02</pdfrwt>
<pdfrwt beam="2">  1       -2 0.36552430E-03 0.91786415E+02</pdfrwt>
<totfact> 0.86728153E+04</totfact>
</mgrwt>
</event>
<event>
 6    1  0.2852411E-002  0.9250487E+02  0.7546771E-02  0.1381507E+00
          2   -1    0    0  501    0  0.00000000000E+00  0.00000000000E+00  0.86003803084E+03  0.86003803084E+03  0.00000000000E+00 0. -1.
         -2   -1    0    0    0  501 -0.00000000000E+00 -0.00000000000E+00 -0.41896261096E+01  0.41896261096E+01  0.00000000000E+00 0.  1.
         23    2    1    2    0    0 -0.48621623894E+01  0.20723902861E+02  0.77942087871E+03  0.78489111110E+03  0.90022382499E+02 0.  0.
         11    1    3    3    0    0 -0.36615914996E+02 -0.16014741100E+02  0.24167211321E+03  0.24495429669E+03  0.00000000000E+00 0. -1.
        -11    1    3    3    0    0  0.31753752606E+02  0.36738643961E+02  0.53774876550E+03  0.53993681441E+03  0.00000000000E+00 0.  1.
         22    1    1    2    0    0  0.48621623894E+01 -0.20723902861E+02  0.76427526025E+02  0.79336545849E+02  0.00000000000E+00 0.  1.
<mgrwt>
<rscale>  0 0.64069329E+02</rscale>
<asrwt>0</asrwt>
<pdfrwt beam="1">  1        2 0.13231340E+00 0.92504865E+02</pdfrwt>
<pdfrwt beam="2">  1       -2 0.64455855E-03 0.92504865E+02</pdfrwt>
<totfact> 0.11426307E+05</totfact>
</mgrwt>
</event>
<event>
 6    1  0.2852411E-002  0.1058479E+03  0.7546771E-02  0.1316921E+00
          2   -1    0    0  501    0  0.00000000000E+00  0.00000000000E+00  0.10816537279E+04  0.10816537279E+04  0.00000000000E+00 0. -1.
         -2   -1    0    0    0  501 -0.00000000000E+00 -0.00000000000E+00 -0.74939770597E+01  0.74939770597E+01  0.00000000000E+00 0.  1.
         23    2    1    2    0    0  0.15954358884E+02 -0.39775293838E+02  0.97993256747E+03  0.98563259663E+03  0.96784106034E+02 0.  0.
         11    1    3    3    0    0  0.80251876721E+01 -0.43645543584E+02  0.97397696883E+03  0.97498742193E+03  0.00000000000E+00 0. -1.
        -11    1    3    3    0    0  0.79291712119E+01  0.38702497459E+01  0.59555986421E+01  0.10645174700E+02  0.00000000000E+00 0.  1.
         22    1    1    2    0    0 -0.15954358884E+02  0.39775293838E+02  0.94227183390E+02  0.10351510835E+03  0.00000000000E+00 0.  1.
<mgrwt>
<rscale>  0 0.84433342E+02</rscale>
<asrwt>0</asrwt>
<pdfrwt beam="1">  1        2 0.16640814E+00 0.10584790E+03</pdfrwt>
<pdfrwt beam="2">  1       -2 0.11529204E-02 0.10584790E+03</pdfrwt>
<totfact> 0.37534094E+04</totfact>
</mgrwt>
</event>
<event>
 6    1  0.2852411E-002  0.9232995E+02  0.7546771E-02  0.1396080E+00
          1   -1    0    0  501    0  0.00000000000E+00  0.00000000000E+00  0.23082010689E+03  0.23082010689E+03  0.00000000000E+00 0. -1.
         -1   -1    0    0    0  501 -0.00000000000E+00 -0.00000000000E+00 -0.12942210057E+02  0.12942210057E+02  0.00000000000E+00 0.  1.
         23    2    1    2    0    0  0.16526041408E+02 -0.36806663070E+01  0.18676331556E+03  0.20833952037E+03  0.90764323183E+02 0.  0.
         13    1    3    3    0    0 -0.58627313561E+01  0.13496839374E+02  0.17826092830E+03  0.17886725483E+03  0.00000000000E+00 0. -1.
        -13    1    3    3    0    0  0.22388772764E+02 -0.17177505681E+02  0.85023872581E+01  0.29472265545E+02  0.00000000000E+00 0.  1.
         22    1    1    2    0    0 -0.16526041408E+02  0.36806663070E+01  0.31114581279E+02  0.35422796575E+02  0.00000000000E+00 0.  1.
<mgrwt>
<rscale>  0 0.60419529E+02</rscale>
<asrwt>0</asrwt>
<pdfrwt beam="1">  1        1 0.35510783E-01 0.92329950E+02</pdfrwt>
<pdfrwt beam="2">  1       -1 0.19911094E-02 0.92329950E+02</pdfrwt>
<totfact> 0.72814633E+04</totfact>
</mgrwt>
</event>
<event>
 6    1  0.2852411E-002  0.9205276E+02  0.7546771E-02  0.1424990E+00
          2   -1    0    0  501    0  0.00000000000E+00  0.00000000000E+00  0.68065880470E+03  0.68065880470E+03  0.00000000000E+00 0. -1.
         -2   -1    0    0    0  501 -0.00000000000E+00 -0.00000000000E+00 -0.54764022962E+01  0.54764022962E+01  0.00000000000E+00 0.  1.
         23    2    1    2    0    0 -0.10672331653E+02 -0.21363500940E+01  0.66463357437E+03  0.67097801638E+03  0.91407043622E+02 0.  0.
         13    1    3    3    0    0  0.36562274375E+02 -0.18183073543E+02  0.24350671351E+03  0.24690675081E+03  0.00000000000E+00 0. -1.
        -13    1    3    3    0    0 -0.47234606028E+02  0.16046723449E+02  0.42112686086E+03  0.42407126557E+03  0.00000000000E+00 0.  1.
         22    1    1    2    0    0  0.10672331653E+02  0.21363500940E+01  0.10548828032E+02  0.15157190620E+02  0.00000000000E+00 0. -1.
<mgrwt>
<rscale>  0 0.53979056E+02</rscale>
<asrwt>0</asrwt>
<pdfrwt beam="1">  1        2 0.10471667E+00 0.92052758E+02</pdfrwt>
<pdfrwt beam="2">  1       -2 0.84252397E-03 0.92052758E+02</pdfrwt>
<totfact> 0.10376072E+05</totfact>
</mgrwt>
</event>
<event>
 6    1  0.2852411E-002  0.9520152E+02  0.7546771E-02  0.1414309E+00
          1   -1    0    0  501    0  0.00000000000E+00  0.00000000000E+00  0.58821862456E+03  0.58821862456E+03  0.00000000000E+00 0. -1.
         -1   -1    0    0    0  501 -0.00000000000E+00 -0.00000000000E+00 -0.98921648629E+01  0.98921648629E+01  0.00000000000E+00 0.  1.
         23    2    1    2    0    0  0.42000115519E+01 -0.10809838766E+02  0.57872860842E+03  0.58650671967E+03  0.94492525145E+02 0.  0.
         11    1    3    3    0    0 -0.32397486760E+01 -0.52146041040E+02  0.27901242258E+03  0.28386200437E+03  0.00000000000E+00 0. -1.
        -11    1    3    3    0    0  0.74397602280E+01  0.41336202274E+02  0.29971618584E+03  0.30264471531E+03  0.00000000000E+00 0.  1.
         22    1    1    2    0    0 -0.42000115519E+01  0.10809838766E+02 -0.40214872050E+00  0.11604069751E+02  0.00000000000E+00 0.  1.
<mgrwt>
<rscale>  0 0.56243232E+02</rscale>
<asrwt>0</asrwt>
<pdfrwt beam="1">  1        1 0.90495146E-01 0.95201523E+02</pdfrwt>
<pdfrwt beam="2">  1       -1 0.15218720E-02 0.95201523E+02</pdfrwt>
<totfact> 0.33302046E+04</totfact>
</mgrwt>
</event>
<event>
 6    1  0.2852411E-002  0.9209556E+02  0.7546771E-02  0.1393737E+00
         -2   -1    0    0    0  501 -0.00000000000E+00  0.00000000000E+00  0.59738097880E+01  0.59738097880E+01  0.00000000000E+00 0.  1.
          2   -1    0    0  501    0  0.00000000000E+00 -0.00000000000E+00 -0.50889781014E+03  0.50889781014E+03  0.00000000000E+00 0. -1.
         23    2    1    2    0    0 -0.17452521003E+02 -0.30110776075E+01 -0.40288538490E+03  0.41327741902E+03  0.90376626534E+02 0.  0.
         11    1    3    3    0    0  0.34947254035E+02  0.94231896392E+01 -0.20617705487E+03  0.20933008628E+03  0.00000000000E+00 0.  1.
        -11    1    3    3    0    0 -0.52399775038E+02 -0.12434267247E+02 -0.19670833004E+03  0.20394733274E+03  0.00000000000E+00 0. -1.
         22    1    1    2    0    0  0.17452521003E+02  0.30110776075E+01 -0.10003861545E+03  0.10159420092E+03  0.00000000000E+00 0.  1.
<mgrwt>
<rscale>  0 0.60986807E+02</rscale>
<asrwt>0</asrwt>
<pdfrwt beam="1">  1        2 0.78291958E-01 0.92095557E+02</pdfrwt>
<pdfrwt beam="2">  1       -2 0.91904781E-03 0.92095557E+02</pdfrwt>
<totfact> 0.12698687E+05</totfact>
</mgrwt>
</event>
<event>
 6    1  0.2852411E-002  0.9245485E+02  0.7546771E-02  0.1429023E+00
          2   -1    0    0  501    0  0.00000000000E+00  0.00000000000E+00  0.98245604571E+03  0.98245604571E+03  0.00000000000E+00 0. -1.
         -2   -1    0    0    0  501 -0.00000000000E+00 -0.00000000000E+00 -0.34835637789E+01  0.34835637789E+01  0.00000000000E+00 0.  1.
         23    2    1    2    0    0  0.11124644814E+01  0.10041356471E+02  0.96002807533E+03  0.96446970128E+03  0.91901212450E+02 0.  0.
         13    1    3    3    0    0  0.37857543489E+02  0.15575354158E+02  0.75448014267E+03  0.75558988276E+03  0.00000000000E+00 0. -1.
        -13    1    3    3    0    0 -0.36745079007E+02 -0.55339976870E+01  0.20554793266E+03  0.20887981851E+03  0.00000000000E+00 0.  1.
         22    1    1    2    0    0 -0.11124644814E+01 -0.10041356471E+02  0.18944406601E+02  0.21469908208E+02  0.00000000000E+00 0.  1.
<mgrwt>
<rscale>  0 0.53156654E+02</rscale>
<asrwt>0</asrwt>
<pdfrwt beam="1">  1        2 0.15114686E+00 0.92454850E+02</pdfrwt>
<pdfrwt beam="2">  1       -2 0.53593367E-03 0.92454850E+02</pdfrwt>
<totfact> 0.12459627E+05</totfact>
</mgrwt>
</event>
<event>
 6    1  0.2852411E-002  0.9406762E+02  0.7546771E-02  0.1392194E+00
          2   -1    0    0  501    0  0.00000000000E+00  0.00000000000E+00  0.10154108251E+04  0.10154108251E+04  0.00000000000E+00 0. -1.
         -2   -1    0    0    0  501 -0.00000000000E+00 -0.00000000000E+00 -0.37795719343E+01  0.37795719343E+01  0.00000000000E+00 0.  1.
         23    2    1    2    0    0  0.13311851230E+02 -0.10629622477E+02  0.96447609310E+03  0.96905255326E+03  0.92512283316E+02 0.  0.
         13    1    3    3    0    0  0.52120486597E+02 -0.45560677156E+00  0.44837048471E+03  0.45138990270E+03  0.00000000000E+00 0. -1.
        -13    1    3    3    0    0 -0.38808635367E+02 -0.10174015705E+02  0.51610560839E+03  0.51766265056E+03  0.00000000000E+00 0.  1.
         22    1    1    2    0    0 -0.13311851230E+02  0.10629622477E+02  0.47155160034E+02  0.50137843741E+02  0.00000000000E+00 0.  1.
<mgrwt>
<rscale>  0 0.61364361E+02</rscale>
<asrwt>0</asrwt>
<pdfrwt beam="1">  1        2 0.15621683E+00 0.94067618E+02</pdfrwt>
<pdfrwt beam="2">  1       -2 0.58147341E-03 0.94067618E+02</pdfrwt>
<totfact> 0.10651356E+05</totfact>
</mgrwt>
</event>
<event>
 6    1  0.2852411E-002  0.7054862E+02  0.7546771E-02  0.1482707E+00
          2   -1    0    0  501    0  0.00000000000E+00  0.00000000000E+00  0.84746827380E+03  0.84746827380E+03  0.00000000000E+00 0. -1.
         -2   -1    0    0    0  501 -0.00000000000E+00 -0.00000000000E+00 -0.21689119085E+01  0.21689119085E+01  0.00000000000E+00 0.  1.
         23    2    1    2    0    0 -0.82341811331E+01  0.63104231428E+01  0.80264085980E+03  0.80573535226E+03  0.69781694496E+02 0.  0.
         11    1    3    3    0    0  0.15173435625E+02 -0.12443386446E+02  0.64311480483E+03  0.64341411486E+03  0.00000000000E+00 0. -1.
        -11    1    3    3    0    0 -0.23407616758E+02  0.18753809589E+02  0.15952605497E+03  0.16232123740E+03  0.00000000000E+00 0.  1.
         22    1    1    2    0    0  0.82341811331E+01 -0.63104231428E+01  0.42658502087E+02  0.43901833441E+02  0.00000000000E+00 0. -1.
<mgrwt>
<rscale>  0 0.43687242E+02</rscale>
<asrwt>0</asrwt>
<pdfrwt beam="1">  1        2 0.13037947E+00 0.70548622E+02</pdfrwt>
<pdfrwt beam="2">  1       -2 0.33367943E-03 0.70548622E+02</pdfrwt>
<totfact> 0.27960576E+05</totfact>
</mgrwt>
</event>
<event>
 6    1  0.2852411E-002  0.9873283E+02  0.7546771E-02  0.1331037E+00
          2   -1    0    0  501    0  0.00000000000E+00  0.00000000000E+00  0.10476719965E+03  0.10476719965E+03  0.00000000000E+00 0.  1.
         -2   -1    0    0    0  501 -0.00000000000E+00 -0.00000000000E+00 -0.46796325057E+02  0.46796325057E+02  0.00000000000E+00 0. -1.
         23    2    1    2    0    0  0.40091863680E+02  0.90303780396E+01  0.44675752233E+02  0.10837017407E+03  0.89773417719E+02 0.  0.
         11    1    3    3    0    0  0.34908471261E+02  0.25863118257E+02  0.67050238923E+02  0.79895161252E+02  0.00000000000E+00 0.  1.
        -11    1    3    3    0    0  0.51833924195E+01 -0.16832740218E+02 -0.22374486690E+02  0.28475012816E+02  0.00000000000E+00 0. -1.
         22    1    1    2    0    0 -0.40091863680E+02 -0.90303780396E+01  0.13295122361E+02  0.43193350640E+02  0.00000000000E+00 0.  1.
<mgrwt>
<rscale>  0 0.79304321E+02</rscale>
<asrwt>0</asrwt>
<pdfrwt beam="1">  1        2 0.16118031E-01 0.98732830E+02</pdfrwt>
<pdfrwt beam="2">  1       -2 0.71994346E-02 0.98732830E+02</pdfrwt>
<totfact> 0.35203347E+04</totfact>
</mgrwt>
</event>
<event>
 6    1  0.2852411E-002  0.1007364E+03  0.7546771E-02  0.1391903E+00
          2   -1    0    0  501    0  0.00000000000E+00  0.00000000000E+00  0.22313120792E+02  0.22313120792E+02  0.00000000000E+00 0.  1.
         -2   -1    0    0    0  501 -0.00000000000E+00 -0.00000000000E+00 -0.15399000848E+03  0.15399000848E+03  0.00000000000E+00 0. -1.
         23    2    1    2    0    0  0.13861965428E+02  0.14314440774E+01 -0.10119860164E+03  0.14279001186E+03  0.99767867560E+02 0.  0.
         11    1    3    3    0    0 -0.25488220354E+01  0.83379586301E+01 -0.11799270425E+03  0.11831439602E+03  0.00000000000E+00 0. -1.
        -11    1    3    3    0    0  0.16410787463E+02 -0.69065145527E+01  0.16794102617E+02  0.24475615848E+02  0.00000000000E+00 0.  1.
         22    1    1    2    0    0 -0.13861965428E+02 -0.14314440774E+01 -0.30478286050E+02  0.33513117405E+02  0.00000000000E+00 0. -1.
<mgrwt>
<rscale>  0 0.61435865E+02</rscale>
<asrwt>0</asrwt>
<pdfrwt beam="1">  1        2 0.34327879E-02 0.10073644E+03</pdfrwt>
<pdfrwt beam="2">  1       -2 0.23690770E-01 0.10073644E+03</pdfrwt>
<totfact> 0.35858472E+04</totfact>
</mgrwt>
</event>
<event>
 6    1  0.2852411E-002  0.9426405E+02  0.7546771E-02  0.1365140E+00
          1   -1    0    0  501    0  0.00000000000E+00  0.00000000000E+00  0.61034371686E+03  0.61034371686E+03  0.00000000000E+00 0. -1.
         -1   -1    0    0    0  501 -0.00000000000E+00 -0.00000000000E+00 -0.59740188737E+01  0.59740188737E+01  0.00000000000E+00 0.  1.
         23    2    1    2    0    0  0.14811688773E+02 -0.21784356568E+02  0.48505390201E+03  0.49412852392E+03  0.90508375172E+02 0.  0.
         13    1    3    3    0    0  0.14868701784E+02  0.86303219602E+00  0.87243155779E+01  0.17260845855E+02  0.00000000000E+00 0.  1.
        -13    1    3    3    0    0 -0.57013011528E-01 -0.22647388764E+02  0.47632958644E+03  0.47686767806E+03  0.00000000000E+00 0. -1.
         22    1    1    2    0    0 -0.14811688773E+02  0.21784356568E+02  0.11931579598E+03  0.12218921182E+03  0.00000000000E+00 0.  1.
<mgrwt>
<rscale>  0 0.68537007E+02</rscale>
<asrwt>0</asrwt>
<pdfrwt beam="1">  1        1 0.93898984E-01 0.94264046E+02</pdfrwt>
<pdfrwt beam="2">  1       -1 0.91908031E-03 0.94264046E+02</pdfrwt>
<totfact> 0.64640372E+04</totfact>
</mgrwt>
</event>
<event>
 6    1  0.2852411E-002  0.9306083E+02  0.7546771E-02  0.1412906E+00
         -4   -1    0    0    0  501 -0.00000000000E+00  0.00000000000E+00  0.33640993111E+02  0.33640993111E+02  0.00000000000E+00 0.  1.
          4   -1    0    0  501    0  0.00000000000E+00 -0.00000000000E+00 -0.10976522461E+03  0.10976522461E+03  0.00000000000E+00 0. -1.
         23    2    1    2    0    0  0.12561523152E+01  0.12627050179E+02 -0.86470642523E+02  0.12703341906E+03  0.92191633161E+02 0.  0.
         11    1    3    3    0    0  0.33963645964E+01 -0.19870967928E+02  0.11901487741E+02  0.23410170211E+02  0.00000000000E+00 0.  1.
        -11    1    3    3    0    0 -0.21402122811E+01  0.32498018107E+02 -0.98372130264E+02  0.10362324885E+03  0.00000000000E+00 0. -1.
         22    1    1    2    0    0 -0.12561523152E+01 -0.12627050179E+02  0.10346411025E+02  0.16372798660E+02  0.00000000000E+00 0.  1.
<mgrwt>
<rscale>  0 0.56550346E+02</rscale>
<asrwt>0</asrwt>
<pdfrwt beam="1">  1        4 0.16886957E-01 0.93060827E+02</pdfrwt>
<pdfrwt beam="2">  1       -4 0.51755375E-02 0.93060827E+02</pdfrwt>
<totfact> 0.10098571E+04</totfact>
</mgrwt>
</event>
<event>
 6    1  0.2852411E-002  0.9431689E+02  0.7546771E-02  0.1361784E+00
          4   -1    0    0  501    0  0.00000000000E+00  0.00000000000E+00  0.65523902637E+03  0.65523902637E+03  0.00000000000E+00 0. -1.
         -4   -1    0    0    0  501 -0.00000000000E+00 -0.00000000000E+00 -0.56929154156E+01  0.56929154156E+01  0.00000000000E+00 0.  1.
         23    2    1    2    0    0 -0.17298476498E+02  0.21782939191E+02  0.49678612313E+03  0.50566009112E+03  0.90121816937E+02 0.  0.
         11    1    3    3    0    0  0.28046289000E+02 -0.17918002777E+02  0.14706719265E+03  0.15078596852E+03  0.00000000000E+00 0.  1.
        -11    1    3    3    0    0 -0.45344765497E+02  0.39700941969E+02  0.34971893049E+03  0.35487412260E+03  0.00000000000E+00 0. -1.
         22    1    1    2    0    0  0.17298476498E+02 -0.21782939191E+02  0.15275998782E+03  0.15527185066E+03  0.00000000000E+00 0.  1.
<mgrwt>
<rscale>  0 0.69504999E+02</rscale>
<asrwt>0</asrwt>
<pdfrwt beam="1">  1        4 0.10080594E+00 0.94316889E+02</pdfrwt>
<pdfrwt beam="2">  1       -4 0.87583366E-03 0.94316889E+02</pdfrwt>
<totfact> 0.45028235E+03</totfact>
</mgrwt>
</event>
<event>
 6    1  0.2852411E-002  0.9337446E+02  0.7546771E-02  0.1387639E+00
          4   -1    0    0  501    0  0.00000000000E+00  0.00000000000E+00  0.15667322938E+03  0.15667322938E+03  0.00000000000E+00 0. -1.
         -4   -1    0    0    0  501 -0.00000000000E+00 -0.00000000000E+00 -0.49099909386E+02  0.49099909386E+02  0.00000000000E+00 0.  1.
         23    2    1    2    0    0  0.43718890548E+01  0.18222924032E+02 -0.31966289267E+01  0.93429158250E+02  0.91474591011E+02 0.  0.
         13    1    3    3    0    0 -0.17206386664E+01  0.35317388001E+02  0.35860837995E+02  0.50361475299E+02  0.00000000000E+00 0. -1.
        -13    1    3    3    0    0  0.60925277213E+01 -0.17094463969E+02 -0.39057466921E+02  0.43067682951E+02  0.00000000000E+00 0.  1.
         22    1    1    2    0    0 -0.43718890548E+01 -0.18222924032E+02  0.11076994892E+03  0.11234398051E+03  0.00000000000E+00 0. -1.
<mgrwt>
<rscale>  0 0.62497635E+02</rscale>
<asrwt>0</asrwt>
<pdfrwt beam="1">  1        4 0.24103574E-01 0.93374457E+02</pdfrwt>
<pdfrwt beam="2">  1       -4 0.75538323E-02 0.93374457E+02</pdfrwt>
<totfact> 0.29052904E+03</totfact>
</mgrwt>
</event>
<event>
 6    1  0.2852411E-002  0.9284544E+02  0.7546771E-02  0.1369108E+00
          3   -1    0    0  501    0  0.00000000000E+00  0.00000000000E+00  0.52851601995E+03  0.52851601995E+03  0.00000000000E+00 0. -1.
         -3   -1    0    0    0  501 -0.00000000000E+00 -0.00000000000E+00 -0.80260094663E+01  0.80260094663E+01  0.00000000000E+00 0.  1.
         23    2    1    2    0    0  0.25463538563E+02 -0.42051157448E+01  0.47715414818E+03  0.48610323724E+03  0.89186329305E+02 0.  0.
         13    1    3    3    0    0 -0.27189574732E+02 -0.12926934276E+02  0.81825357204E+02  0.87188116653E+02  0.00000000000E+00 0.  1.
        -13    1    3    3    0    0  0.52653113296E+02  0.87218185315E+01  0.39532879098E+03  0.39891512059E+03  0.00000000000E+00 0. -1.
         22    1    1    2    0    0 -0.25463538563E+02  0.42051157448E+01  0.43335862300E+02  0.50438792173E+02  0.00000000000E+00 0.  1.
<mgrwt>
<rscale>  0 0.67415664E+02</rscale>
<asrwt>0</asrwt>
<pdfrwt beam="1">  1        3 0.81310130E-01 0.92845442E+02</pdfrwt>
<pdfrwt beam="2">  1       -3 0.12347711E-02 0.92845442E+02</pdfrwt>
<totfact> 0.60105774E+03</totfact>
</mgrwt>
</event>
<event>
 6    1  0.2852411E-002  0.9243285E+02  0.7546771E-02  0.1411201E+00
         -2   -1    0    0    0  501 -0.00000000000E+00  0.00000000000E+00  0.85009706161E+02  0.85009706161E+02  0.00000000000E+00 0. -1.
          2   -1    0    0  501    0  0.00000000000E+00 -0.00000000000E+00 -0.33305195443E+02  0.33305195443E+02  0.00000000000E+00 0.  1.
         23    2    1    2    0    0 -0.76726172409E+01 -0.10861346601E+02  0.40460444926E+02  0.10090034100E+03  0.91471270386E+02 0.  0.
         11    1    3    3    0    0  0.27867379593E+02  0.28171964451E+02  0.16382546646E+02  0.42879345389E+02  0.00000000000E+00 0. -1.
        -11    1    3    3    0    0 -0.35539996834E+02 -0.39033311052E+02  0.24077898279E+02  0.58020995615E+02  0.00000000000E+00 0.  1.
         22    1    1    2    0    0  0.76726172409E+01  0.10861346601E+02  0.11244065793E+02  0.17414560599E+02  0.00000000000E+00 0. -1.
<mgrwt>
<rscale>  0 0.56926786E+02</rscale>
<asrwt>0</asrwt>
<pdfrwt beam="1">  1        2 0.51238763E-02 0.92432847E+02</pdfrwt>
<pdfrwt beam="2">  1       -2 0.13078416E-01 0.92432847E+02</pdfrwt>
<totfact> 0.56063449E+04</totfact>
</mgrwt>
</event>
<event>
 6    1  0.2852411E-002  0.9422064E+02  0.7546771E-02  0.1370446E+00
         -2   -1    0    0    0  501 -0.00000000000E+00  0.00000000000E+00  0.12323417542E+03  0.12323417542E+03  0.00000000000E+00 0.  1.
          2   -1    0    0  501    0  0.00000000000E+00 -0.00000000000E+00 -0.31453305897E+02  0.31453305897E+02  0.00000000000E+00 0. -1.
         23    2    1    2    0    0 -0.14811994788E+02  0.19078899811E+02  0.50605707483E+02  0.10695077032E+03  0.91072114475E+02 0.  0.
         13    1    3    3    0    0 -0.92703001209E+01  0.54937368412E+02  0.41695605353E+02  0.69588622764E+02  0.00000000000E+00 0.  1.
        -13    1    3    3    0    0 -0.55416946673E+01 -0.35858468601E+02  0.89101021297E+01  0.37362147558E+02  0.00000000000E+00 0. -1.
         22    1    1    2    0    0  0.14811994788E+02 -0.19078899811E+02  0.41175162041E+02  0.47736710996E+02  0.00000000000E+00 0. -1.
<mgrwt>
<rscale>  0 0.67043290E+02</rscale>
<asrwt>0</asrwt>
<pdfrwt beam="1">  1        2 0.48389702E-02 0.94220643E+02</pdfrwt>
<pdfrwt beam="2">  1       -2 0.18959104E-01 0.94220643E+02</pdfrwt>
<totfact> 0.33057991E+04</totfact>
</mgrwt>
</event>
<event>
 6    1  0.2852411E-002  0.9369147E+02  0.7546771E-02  0.1423557E+00
         -2   -1    0    0    0  501 -0.00000000000E+00  0.00000000000E+00  0.29786213751E+01  0.29786213751E+01  0.00000000000E+00 0.  1.
          2   -1    0    0  501    0  0.00000000000E+00 -0.00000000000E+00 -0.14337152477E+04  0.14337152477E+04  0.00000000000E+00 0. -1.
         23    2    1    2    0    0 -0.40206256675E+01 -0.97554604089E+01 -0.14126564960E+04  0.14157600316E+04  0.93095418621E+02 0.  0.
         11    1    3    3    0    0  0.30923869556E+01 -0.34941774021E+02 -0.21698475649E+03  0.21980189939E+03  0.00000000000E+00 0.  1.
        -11    1    3    3    0    0 -0.71130126232E+01  0.25186313612E+02 -0.11956717395E+04  0.11959581322E+04  0.00000000000E+00 0. -1.
         22    1    1    2    0    0  0.40206256675E+01  0.97554604089E+01 -0.18080130326E+02  0.20933837468E+02  0.00000000000E+00 0. -1.
<mgrwt>
<rscale>  0 0.54275487E+02</rscale>
<asrwt>0</asrwt>
<pdfrwt beam="1">  1        2 0.22057208E+00 0.93691469E+02</pdfrwt>
<pdfrwt beam="2">  1       -2 0.45824840E-03 0.93691469E+02</pdfrwt>
<totfact> 0.88121857E+04</totfact>
</mgrwt>
</event>
<event>
 6    1  0.2852411E-002  0.9112027E+02  0.7546771E-02  0.1428346E+00
          1   -1    0    0  501    0  0.00000000000E+00  0.00000000000E+00  0.21023163623E+02  0.21023163623E+02  0.00000000000E+00 0. -1.
         -1   -1    0    0    0  501 -0.00000000000E+00 -0.00000000000E+00 -0.12565790794E+03  0.12565790794E+03  0.00000000000E+00 0.  1.
         23    2    1    2    0    0  0.71717020638E+01 -0.78899038407E+01 -0.86470354364E+02  0.12561857040E+03  0.90494304524E+02 0.  0.
         13    1    3    3    0    0  0.74678106689E+01 -0.37819851447E+02 -0.87556568090E+02  0.95667455153E+02  0.00000000000E+00 0.  1.
        -13    1    3    3    0    0 -0.29610860509E+00  0.29929947606E+02  0.10862137269E+01  0.29951115243E+02  0.00000000000E+00 0. -1.
         22    1    1    2    0    0 -0.71717020638E+01  0.78899038407E+01 -0.18164389956E+02  0.21062501171E+02  0.00000000000E+00 0. -1.
<mgrwt>
<rscale>  0 0.53293422E+02</rscale>
<asrwt>0</asrwt>
<pdfrwt beam="1">  1        1 0.32343329E-02 0.91120267E+02</pdfrwt>
<pdfrwt beam="2">  1       -1 0.19331986E-01 0.91120267E+02</pdfrwt>
<totfact> 0.55986694E+04</totfact>
</mgrwt>
</event>
<event>
 6    1  0.2852411E-002  0.9313194E+02  0.7546771E-02  0.1398715E+00
          2   -1    0    0  501    0  0.00000000000E+00  0.00000000000E+00  0.99212762627E+03  0.99212762627E+03  0.00000000000E+00 0. -1.
         -2   -1    0    0    0  501 -0.00000000000E+00 -0.00000000000E+00 -0.30768333170E+01  0.30768333170E+01  0.00000000000E+00 0.  1.
         23    2    1    2    0    0  0.14837998908E+02  0.54880504157E+01  0.89498202077E+03  0.89981463409E+03  0.91778392370E+02 0.  0.
         13    1    3    3    0    0  0.29622256467E+02  0.32951562882E+02  0.75938905754E+03  0.76068063225E+03  0.00000000000E+00 0. -1.
        -13    1    3    3    0    0 -0.14784257559E+02 -0.27463512467E+02  0.13559296323E+03  0.13913400184E+03  0.00000000000E+00 0.  1.
         22    1    1    2    0    0 -0.14837998908E+02 -0.54880504157E+01  0.94068772178E+02  0.95389825495E+02  0.00000000000E+00 0. -1.
<mgrwt>
<rscale>  0 0.59789968E+02</rscale>
<asrwt>0</asrwt>
<pdfrwt beam="1">  1        2 0.15263476E+00 0.93131940E+02</pdfrwt>
<pdfrwt beam="2">  1       -2 0.47335976E-03 0.93131940E+02</pdfrwt>
<totfact> 0.14649841E+05</totfact>
</mgrwt>
</event>
<event>
 6    1  0.2852411E-002  0.9272375E+02  0.7546771E-02  0.1396295E+00
         -1   -1    0    0    0  501 -0.00000000000E+00  0.00000000000E+00  0.90818839576E+02  0.90818839576E+02  0.00000000000E+00 0.  1.
          1   -1    0    0  501    0  0.00000000000E+00 -0.00000000000E+00 -0.68317307476E+02  0.68317307476E+02  0.00000000000E+00 0. -1.
         23    2    1    2    0    0 -0.12224285536E+02 -0.11317468278E+02 -0.35122192464E+02  0.99152717026E+02  0.91214991339E+02 0.  0.
         13    1    3    3    0    0  0.85063311499E+01 -0.60152384117E+01 -0.63086442133E+02  0.63940909783E+02  0.00000000000E+00 0. -1.
        -13    1    3    3    0    0 -0.20730616686E+02 -0.53022298661E+01  0.27964249670E+02  0.35211807243E+02  0.00000000000E+00 0.  1.
         22    1    1    2    0    0  0.12224285536E+02  0.11317468278E+02  0.57623724564E+02  0.59983430026E+02  0.00000000000E+00 0.  1.
<mgrwt>
<rscale>  0 0.60367705E+02</rscale>
<asrwt>0</asrwt>
<pdfrwt beam="1">  1        1 0.10510355E-01 0.92723745E+02</pdfrwt>
<pdfrwt beam="2">  1       -1 0.13972129E-01 0.92723745E+02</pdfrwt>
<totfact> 0.19179167E+04</totfact>
</mgrwt>
</event>
<event>
 6    1  0.2852411E-002  0.9736080E+02  0.7546771E-02  0.1345752E+00
         -2   -1    0    0    0  501 -0.00000000000E+00  0.00000000000E+00  0.54321724953E+01  0.54321724953E+01  0.00000000000E+00 0.  1.
          2   -1    0    0  501    0  0.00000000000E+00 -0.00000000000E+00 -0.83209315294E+03  0.83209315294E+03  0.00000000000E+00 0. -1.
         23    2    1    2    0    0 -0.29897895859E+02  0.14417720950E+02 -0.69293775491E+03  0.69974413694E+03  0.91527974720E+02 0.  0.
         13    1    3    3    0    0 -0.57763077178E+01  0.51335836823E+02 -0.30992919805E+03  0.31420509493E+03  0.00000000000E+00 0. -1.
        -13    1    3    3    0    0 -0.24121588141E+02 -0.36918115873E+02 -0.38300855686E+03  0.38553904202E+03  0.00000000000E+00 0.  1.
         22    1    1    2    0    0  0.29897895859E+02 -0.14417720950E+02 -0.13372322554E+03  0.13778118850E+03  0.00000000000E+00 0.  1.
<mgrwt>
<rscale>  0 0.74395851E+02</rscale>
<asrwt>0</asrwt>
<pdfrwt beam="1">  1        2 0.12801426E+00 0.97360798E+02</pdfrwt>
<pdfrwt beam="2">  1       -2 0.83571934E-03 0.97360798E+02</pdfrwt>
<totfact> 0.83117605E+04</totfact>
</mgrwt>
</event>
<event>
 6    1  0.2852411E-002  0.8709976E+02  0.7546771E-02  0.1422013E+00
         -2   -1    0    0    0  501 -0.00000000000E+00  0.00000000000E+00  0.32898574985E+01  0.32898574985E+01  0.00000000000E+00 0.  1.
          2   -1    0    0  501    0  0.00000000000E+00 -0.00000000000E+00 -0.86619366080E+03  0.86619366080E+03  0.00000000000E+00 0. -1.
         23    2    1    2    0    0 -0.85387745313E+01 -0.10388478210E+02 -0.81759309355E+03  0.82221945618E+03  0.86055426010E+02 0.  0.
         13    1    3    3    0    0 -0.17460858743E+02 -0.61142584008E+01 -0.35215842592E+02  0.39779659542E+02  0.00000000000E+00 0.  1.
        -13    1    3    3    0    0  0.89220842116E+01 -0.42742198096E+01 -0.78237725096E+03  0.78243979664E+03  0.00000000000E+00 0. -1.
         22    1    1    2    0    0  0.85387745313E+01  0.10388478210E+02 -0.45310709752E+02  0.47264062121E+02  0.00000000000E+00 0.  1.
<mgrwt>
<rscale>  0 0.54597387E+02</rscale>
<asrwt>0</asrwt>
<pdfrwt beam="1">  1        2 0.13326062E+00 0.87099756E+02</pdfrwt>
<pdfrwt beam="2">  1       -2 0.50613173E-03 0.87099756E+02</pdfrwt>
<totfact> 0.15762232E+05</totfact>
</mgrwt>
</event>
<event>
 6    1  0.2852411E-002  0.9164616E+02  0.7546771E-02  0.1402895E+00
         -2   -1    0    0    0  501 -0.00000000000E+00  0.00000000000E+00  0.13287712700E+02  0.13287712700E+02  0.00000000000E+00 0.  1.
          2   -1    0    0  501    0  0.00000000000E+00 -0.00000000000E+00 -0.34068125044E+03  0.34068125044E+03  0.00000000000E+00 0. -1.
         23    2    1    2    0    0  0.14483731091E+02 -0.56322050759E+01 -0.32568650001E+03  0.33833521189E+03  0.90318985330E+02 0.  0.
         11    1    3    3    0    0  0.49202392892E+02  0.63246995852E+01 -0.24064206324E+03  0.24570201442E+03  0.00000000000E+00 0. -1.
        -11    1    3    3    0    0 -0.34718661800E+02 -0.11956904661E+02 -0.85044436776E+02  0.92633197466E+02  0.00000000000E+00 0.  1.
         22    1    1    2    0    0 -0.14483731091E+02  0.56322050759E+01 -0.17070377222E+01  0.15633751249E+02  0.00000000000E+00 0.  1.
<mgrwt>
<rscale>  0 0.58809895E+02</rscale>
<asrwt>0</asrwt>
<pdfrwt beam="1">  1        2 0.52412497E-01 0.91646164E+02</pdfrwt>
<pdfrwt beam="2">  1       -2 0.20442636E-02 0.91646164E+02</pdfrwt>
<totfact> 0.62161553E+04</totfact>
</mgrwt>
</event>
<event>
 6    1  0.2852411E-002  0.9368177E+02  0.7546771E-02  0.1373056E+00
          2   -1    0    0  501    0  0.00000000000E+00  0.00000000000E+00  0.64663225781E+03  0.64663225781E+03  0.00000000000E+00 0. -1.
         -2   -1    0    0    0  501 -0.00000000000E+00 -0.00000000000E+00 -0.71104488962E+01  0.71104488962E+01  0.00000000000E+00 0.  1.
         23    2    1    2    0    0 -0.18749152952E+01  0.23461726029E+02  0.60340266657E+03  0.61063168330E+03  0.90676936040E+02 0.  0.
         11    1    3    3    0    0 -0.57460970536E+01 -0.33731270093E+02  0.16609542591E+03  0.16958333268E+03  0.00000000000E+00 0.  1.
        -11    1    3    3    0    0  0.38711817584E+01  0.57192996122E+02  0.43730724066E+03  0.44104835062E+03  0.00000000000E+00 0. -1.
         22    1    1    2    0    0  0.18749152952E+01 -0.23461726029E+02  0.36119142350E+02  0.43111023413E+02  0.00000000000E+00 0.  1.
<mgrwt>
<rscale>  0 0.66324945E+02</rscale>
<asrwt>0</asrwt>
<pdfrwt beam="1">  1        2 0.99481839E-01 0.93681773E+02</pdfrwt>
<pdfrwt beam="2">  1       -2 0.10939157E-02 0.93681773E+02</pdfrwt>
<totfact> 0.76234966E+04</totfact>
</mgrwt>
</event>
<event>
 6    1  0.2852411E-002  0.9365727E+02  0.7546771E-02  0.1382388E+00
         -4   -1    0    0    0  501 -0.00000000000E+00  0.00000000000E+00  0.17379401120E+02  0.17379401120E+02  0.00000000000E+00 0.  1.
          4   -1    0    0  501    0  0.00000000000E+00 -0.00000000000E+00 -0.24518133161E+03  0.24518133161E+03  0.00000000000E+00 0. -1.
         23    2    1    2    0    0  0.15798405473E+02 -0.12617741295E+02 -0.22286982784E+03  0.24174913387E+03  0.91448819302E+02 0.  0.
         11    1    3    3    0    0  0.39814041163E+02 -0.30819425516E+02 -0.19246395508E+03  0.19894061644E+03  0.00000000000E+00 0. -1.
        -11    1    3    3    0    0 -0.24015635690E+02  0.18201684221E+02 -0.30405872760E+02  0.42808517428E+02  0.00000000000E+00 0.  1.
         22    1    1    2    0    0 -0.15798405473E+02  0.12617741295E+02 -0.49321026531E+01  0.20811598868E+02  0.00000000000E+00 0.  1.
<mgrwt>
<rscale>  0 0.63840249E+02</rscale>
<asrwt>0</asrwt>
<pdfrwt beam="1">  1        4 0.37720206E-01 0.93657266E+02</pdfrwt>
<pdfrwt beam="2">  1       -4 0.26737540E-02 0.93657266E+02</pdfrwt>
<totfact> 0.65227782E+03</totfact>
</mgrwt>
</event>
<event>
 6    1  0.2852411E-002  0.9071257E+02  0.7546771E-02  0.1429242E+00
         -2   -1    0    0    0  501 -0.00000000000E+00  0.00000000000E+00  0.44567730012E+02  0.44567730012E+02  0.00000000000E+00 0.  1.
          2   -1    0    0  501    0  0.00000000000E+00 -0.00000000000E+00 -0.65822842676E+02  0.65822842676E+02  0.00000000000E+00 0. -1.
         23    2    1    2    0    0  0.88662006618E+01  0.59194787111E+01 -0.31083853244E+02  0.95890438766E+02  0.90083964011E+02 0.  0.
         13    1    3    3    0    0  0.87298995426E+01  0.38213382506E+02  0.12951819898E+02  0.41282240579E+02  0.00000000000E+00 0.  1.
        -13    1    3    3    0    0  0.13630111919E+00 -0.32293903794E+02 -0.44035673141E+02  0.54608198188E+02  0.00000000000E+00 0. -1.
         22    1    1    2    0    0 -0.88662006618E+01 -0.59194787111E+01  0.98287405797E+01  0.14500133922E+02  0.00000000000E+00 0. -1.
<mgrwt>
<rscale>  0 0.53112490E+02</rscale>
<asrwt>0</asrwt>
<pdfrwt beam="1">  1        2 0.10126591E-01 0.90712570E+02</pdfrwt>
<pdfrwt beam="2">  1       -2 0.68565739E-02 0.90712570E+02</pdfrwt>
<totfact> 0.64863633E+04</totfact>
</mgrwt>
</event>
<event>
 6    1  0.2852411E-002  0.9033349E+02  0.7546771E-02  0.1425567E+00
         -2   -1    0    0    0  501 -0.00000000000E+00  0.00000000000E+00  0.50653526356E+03  0.50653526356E+03  0.00000000000E+00 0.  1.
          2   -1    0    0  501    0  0.00000000000E+00 -0.00000000000E+00 -0.52127674995E+01  0.52127674995E+01  0.00000000000E+00 0. -1.
         23    2    1    2    0    0 -0.10555948856E+02 -0.43479529719E+01  0.46427552372E+03  0.47298192588E+03  0.89609193340E+02 0.  0.
         11    1    3    3    0    0 -0.92105758262E+01  0.41617981196E+02  0.26960208543E+03  0.27295086652E+03  0.00000000000E+00 0.  1.
        -11    1    3    3    0    0 -0.13453730297E+01 -0.45965934167E+02  0.19467343829E+03  0.20003105936E+03  0.00000000000E+00 0. -1.
         22    1    1    2    0    0  0.10555948856E+02  0.43479529719E+01  0.37046972341E+02  0.38766105182E+02  0.00000000000E+00 0. -1.
<mgrwt>
<rscale>  0 0.53860243E+02</rscale>
<asrwt>0</asrwt>
<pdfrwt beam="1">  1        2 0.80196463E-03 0.90333495E+02</pdfrwt>
<pdfrwt beam="2">  1       -2 0.77928463E-01 0.90333495E+02</pdfrwt>
<totfact> 0.25825922E+04</totfact>
</mgrwt>
</event>
<event>
 6    1  0.2852411E-002  0.9921802E+02  0.7546771E-02  0.1333219E+00
         -2   -1    0    0    0  501 -0.00000000000E+00  0.00000000000E+00  0.16195642388E+03  0.16195642388E+03  0.00000000000E+00 0.  1.
          2   -1    0    0  501    0  0.00000000000E+00 -0.00000000000E+00 -0.32242066630E+02  0.32242066630E+02  0.00000000000E+00 0. -1.
         23    2    1    2    0    0  0.60648161791E+01  0.38501326928E+02  0.64872146324E+02  0.11854370554E+03  0.91241879556E+02 0.  0.
         11    1    3    3    0    0 -0.27132058862E+02  0.30269872841E+02 -0.47970276506E+01  0.40931959325E+02  0.00000000000E+00 0. -1.
        -11    1    3    3    0    0  0.33196875041E+02  0.82314540868E+01  0.69669173975E+02  0.77611746219E+02  0.00000000000E+00 0.  1.
         22    1    1    2    0    0 -0.60648161791E+01 -0.38501326928E+02  0.64842210930E+02  0.75654784969E+02  0.00000000000E+00 0.  1.
<mgrwt>
<rscale>  0 0.78549318E+02</rscale>
<asrwt>0</asrwt>
<pdfrwt beam="1">  1        2 0.49603180E-02 0.99218016E+02</pdfrwt>
<pdfrwt beam="2">  1       -2 0.24916372E-01 0.99218016E+02</pdfrwt>
<totfact> 0.20258833E+04</totfact>
</mgrwt>
</event>
<event>
 6    1  0.2852411E-002  0.1044657E+03  0.7546771E-02  0.1312443E+00
         -1   -1    0    0    0  501 -0.00000000000E+00  0.00000000000E+00  0.29464778728E+02  0.29464778728E+02  0.00000000000E+00 0.  1.
          1   -1    0    0  501    0  0.00000000000E+00 -0.00000000000E+00 -0.27950797696E+03  0.27950797696E+03  0.00000000000E+00 0. -1.
         23    2    1    2    0    0  0.11150841680E+02  0.47020901423E+02 -0.23687197139E+03  0.25888495620E+03  0.92616322945E+02 0.  0.
         11    1    3    3    0    0  0.19687903970E+02  0.61892048699E+02 -0.89847601515E+02  0.11086401920E+03  0.00000000000E+00 0.  1.
        -11    1    3    3    0    0 -0.85370622902E+01 -0.14871147276E+02 -0.14702436987E+03  0.14802093700E+03  0.00000000000E+00 0. -1.
         22    1    1    2    0    0 -0.11150841680E+02 -0.47020901423E+02 -0.13171226840E+02  0.50087799485E+02  0.00000000000E+00 0.  1.
<mgrwt>
<rscale>  0 0.86153591E+02</rscale>
<asrwt>0</asrwt>
<pdfrwt beam="1">  1        1 0.43001227E-01 0.10446573E+03</pdfrwt>
<pdfrwt beam="2">  1       -1 0.45330429E-02 0.10446573E+03</pdfrwt>
<totfact> 0.17824736E+04</totfact>
</mgrwt>
</event>
<event>
 6    1  0.2852411E-002  0.9569223E+02  0.7546771E-02  0.1390440E+00
          2   -1    0    0  501    0  0.00000000000E+00  0.00000000000E+00  0.36435582817E+04  0.36435582817E+04  0.00000000000E+00 0. -1.
         -2   -1    0    0    0  501 -0.00000000000E+00 -0.00000000000E+00 -0.16414054378E+01  0.16414054378E+01  0.00000000000E+00 0.  1.
         23    2    1    2    0    0 -0.91524252244E+01  0.13901249035E+02  0.35737301450E+04  0.35750110703E+04  0.94233709079E+02 0.  0.
         11    1    3    3    0    0  0.58550587024E+01  0.39155806116E+02  0.31563749132E+04  0.31566232039E+04  0.00000000000E+00 0. -1.
        -11    1    3    3    0    0 -0.15007483927E+02 -0.25254557081E+02  0.41735523183E+03  0.41838786641E+03  0.00000000000E+00 0.  1.
         22    1    1    2    0    0  0.91524252244E+01 -0.13901249035E+02  0.68186731235E+02  0.70188616803E+02  0.00000000000E+00 0.  1.
<mgrwt>
<rscale>  0 0.61797338E+02</rscale>
<asrwt>0</asrwt>
<pdfrwt beam="1">  1        2 0.56054095E+00 0.95692233E+02</pdfrwt>
<pdfrwt beam="2">  1       -2 0.25252683E-03 0.95692233E+02</pdfrwt>
<totfact> 0.12489504E+04</totfact>
</mgrwt>
</event>
<event>
 6    1  0.2852411E-002  0.1009303E+03  0.7546771E-02  0.1387998E+00
         -1   -1    0    0    0  501 -0.00000000000E+00  0.00000000000E+00  0.19376028433E+02  0.19376028433E+02  0.00000000000E+00 0.  1.
          1   -1    0    0  501    0  0.00000000000E+00 -0.00000000000E+00 -0.18849080891E+03  0.18849080891E+03  0.00000000000E+00 0. -1.
         23    2    1    2    0    0 -0.14491411489E+02  0.27661283827E+01 -0.16337356325E+03  0.19203604304E+03  0.99846222679E+02 0.  0.
         11    1    3    3    0    0  0.17811929805E+02  0.40008500462E+02 -0.40538066155E+02  0.59676459012E+02  0.00000000000E+00 0.  1.
        -11    1    3    3    0    0 -0.32303341294E+02 -0.37242372080E+02 -0.12283549710E+03  0.13235958403E+03  0.00000000000E+00 0. -1.
         22    1    1    2    0    0  0.14491411489E+02 -0.27661283827E+01 -0.57412172299E+01  0.15830794309E+02  0.00000000000E+00 0.  1.
<mgrwt>
<rscale>  0 0.62407466E+02</rscale>
<asrwt>0</asrwt>
<pdfrwt beam="1">  1        1 0.28998586E-01 0.10093028E+03</pdfrwt>
<pdfrwt beam="2">  1       -1 0.29809274E-02 0.10093028E+03</pdfrwt>
<totfact> 0.52966745E+04</totfact>
</mgrwt>
</event>
<event>
 6    1  0.2852411E-002  0.1224245E+03  0.7546771E-02  0.1266638E+00
         -2   -1    0    0    0  501 -0.00000000000E+00  0.00000000000E+00  0.70473602558E+01  0.70473602558E+01  0.00000000000E+00 0.  1.
          2   -1    0    0  501    0  0.00000000000E+00 -0.00000000000E+00 -0.13878413183E+04  0.13878413183E+04  0.00000000000E+00 0. -1.
         23    2    1    2    0    0  0.66672800162E+02 -0.24030046496E+02 -0.10090387970E+04  0.10164384108E+04  0.99825065207E+02 0.  0.
         13    1    3    3    0    0 -0.24436749945E+02  0.55427175784E+01 -0.15039756140E+03  0.15247066256E+03  0.00000000000E+00 0. -1.
        -13    1    3    3    0    0  0.91109550106E+02 -0.29572764075E+02 -0.85864123560E+03  0.86396774822E+03  0.00000000000E+00 0.  1.
         22    1    1    2    0    0 -0.66672800162E+02  0.24030046496E+02 -0.37175516106E+03  0.37845026779E+03  0.00000000000E+00 0.  1.
<mgrwt>
<rscale>  0 0.10678700E+03</rscale>
<asrwt>0</asrwt>
<pdfrwt beam="1">  1        2 0.21351393E+00 0.12242446E+03</pdfrwt>
<pdfrwt beam="2">  1       -2 0.10842098E-02 0.12242446E+03</pdfrwt>
<totfact> 0.28244127E+04</totfact>
</mgrwt>
</event>
<event>
 6    1  0.2852411E-002  0.1099537E+03  0.7546771E-02  0.1290919E+00
         -1   -1    0    0    0  501 -0.00000000000E+00  0.00000000000E+00  0.14383790860E+02  0.14383790860E+02  0.00000000000E+00 0.  1.
          1   -1    0    0  501    0  0.00000000000E+00 -0.00000000000E+00 -0.52183416466E+03  0.52183416466E+03  0.00000000000E+00 0. -1.
         23    2    1    2    0    0 -0.53893765589E+02 -0.29766627119E+02 -0.28733916714E+03  0.30765826232E+03  0.91100051262E+02 0.  0.
         13    1    3    3    0    0 -0.61454959883E+02 -0.27517497411E+02 -0.29119434505E+03  0.29887802085E+03  0.00000000000E+00 0. -1.
        -13    1    3    3    0    0  0.75611942944E+01 -0.22491297079E+01  0.38551779062E+01  0.87802414710E+01  0.00000000000E+00 0.  1.
         22    1    1    2    0    0  0.53893765589E+02  0.29766627119E+02 -0.22011120666E+03  0.22855969320E+03  0.00000000000E+00 0.  1.
<mgrwt>
<rscale>  0 0.95114263E+02</rscale>
<asrwt>0</asrwt>
<pdfrwt beam="1">  1        1 0.80282178E-01 0.10995367E+03</pdfrwt>
<pdfrwt beam="2">  1       -1 0.22128909E-02 0.10995367E+03</pdfrwt>
<totfact> 0.23189940E+04</totfact>
</mgrwt>
</event>
<event>
 6    1  0.2852411E-002  0.9214280E+02  0.7546771E-02  0.1424586E+00
          2   -1    0    0  501    0  0.00000000000E+00  0.00000000000E+00  0.18216269593E+03  0.18216269593E+03  0.00000000000E+00 0. -1.
         -2   -1    0    0    0  501 -0.00000000000E+00 -0.00000000000E+00 -0.15990299098E+02  0.15990299098E+02  0.00000000000E+00 0.  1.
         23    2    1    2    0    0  0.96511173146E+01 -0.51076211128E+01  0.16217773956E+03  0.18652590831E+03  0.91493515633E+02 0.  0.
         11    1    3    3    0    0  0.40548005349E+02  0.13461231835E+02  0.37852655646E+02  0.57080373507E+02  0.00000000000E+00 0.  1.
        -11    1    3    3    0    0 -0.30896888034E+02 -0.18568852948E+02  0.12432508391E+03  0.12944553480E+03  0.00000000000E+00 0. -1.
         22    1    1    2    0    0 -0.96511173146E+01  0.51076211128E+01  0.39946572725E+01  0.11627086719E+02  0.00000000000E+00 0. -1.
<mgrwt>
<rscale>  0 0.54062371E+02</rscale>
<asrwt>0</asrwt>
<pdfrwt beam="1">  1        2 0.28025029E-01 0.92142798E+02</pdfrwt>
<pdfrwt beam="2">  1       -2 0.24600461E-02 0.92142798E+02</pdfrwt>
<totfact> 0.92199422E+04</totfact>
</mgrwt>
</event>
<event>
 6    1  0.2852411E-002  0.9330379E+02  0.7546771E-02  0.1417364E+00
         -2   -1    0    0    0  501 -0.00000000000E+00  0.00000000000E+00  0.15682167868E+02  0.15682167868E+02  0.00000000000E+00 0.  1.
          2   -1    0    0  501    0  0.00000000000E+00 -0.00000000000E+00 -0.21957705032E+03  0.21957705032E+03  0.00000000000E+00 0. -1.
         23    2    1    2    0    0  0.83783675827E+01  0.82388010235E+01 -0.20307049928E+03  0.22347980847E+03  0.92560910926E+02 0.  0.
         13    1    3    3    0    0  0.44937472705E+02 -0.17796219448E+02 -0.10041671926E+03  0.11144325635E+03  0.00000000000E+00 0. -1.
        -13    1    3    3    0    0 -0.36559105122E+02  0.26035020471E+02 -0.10265378002E+03  0.11203655212E+03  0.00000000000E+00 0.  1.
         22    1    1    2    0    0 -0.83783675827E+01 -0.82388010235E+01 -0.82438317330E+00  0.11779409717E+02  0.00000000000E+00 0.  1.
<mgrwt>
<rscale>  0 0.55582592E+02</rscale>
<asrwt>0</asrwt>
<pdfrwt beam="1">  1        2 0.33781086E-01 0.93303789E+02</pdfrwt>
<pdfrwt beam="2">  1       -2 0.24126411E-02 0.93303789E+02</pdfrwt>
<totfact> 0.77820918E+04</totfact>
</mgrwt>
</event>
<event>
 6    1  0.2852411E-002  0.1014951E+03  0.7546771E-02  0.1357937E+00
          2   -1    0    0  501    0  0.00000000000E+00  0.00000000000E+00  0.76974689883E+03  0.76974689883E+03  0.00000000000E+00 0. -1.
         -2   -1    0    0    0  501 -0.00000000000E+00 -0.00000000000E+00 -0.53291937732E+01  0.53291937732E+01  0.00000000000E+00 0.  1.
         23    2    1    2    0    0 -0.23474439298E+02  0.40009475885E+01  0.67288675146E+03  0.68049822866E+03  0.98662059757E+02 0.  0.
         11    1    3    3    0    0 -0.12755858440E+02  0.36170515530E+02  0.58563038176E+03  0.58688496501E+03  0.00000000000E+00 0. -1.
        -11    1    3    3    0    0 -0.10718580858E+02 -0.32169567942E+02  0.87256369699E+02  0.93613263645E+02  0.00000000000E+00 0.  1.
         22    1    1    2    0    0  0.23474439298E+02 -0.40009475885E+01  0.91530953603E+02  0.94577863950E+02  0.00000000000E+00 0.  1.
<mgrwt>
<rscale>  0 0.70637804E+02</rscale>
<asrwt>0</asrwt>
<pdfrwt beam="1">  1        2 0.11842251E+00 0.10149512E+03</pdfrwt>
<pdfrwt beam="2">  1       -2 0.81987658E-03 0.10149512E+03</pdfrwt>
<totfact> 0.94464490E+04</totfact>
</mgrwt>
</event>
<event>
 6    1  0.2852411E-002  0.9346892E+02  0.7546771E-02  0.1374399E+00
         -3   -1    0    0    0  501 -0.00000000000E+00  0.00000000000E+00  0.33461254725E+02  0.33461254725E+02  0.00000000000E+00 0.  1.
          3   -1    0    0  501    0  0.00000000000E+00 -0.00000000000E+00 -0.16184822429E+03  0.16184822429E+03  0.00000000000E+00 0. -1.
         23    2    1    2    0    0 -0.87610907240E+01  0.21459733303E+02 -0.14081188699E+03  0.16901013612E+03  0.90549222686E+02 0.  0.
         11    1    3    3    0    0 -0.47349061386E+02  0.26117825209E+02 -0.90630049964E+02  0.10553615667E+03  0.00000000000E+00 0. -1.
        -11    1    3    3    0    0  0.38587970662E+02 -0.46580919067E+01 -0.50181837022E+02  0.63473979448E+02  0.00000000000E+00 0.  1.
         22    1    1    2    0    0  0.87610907240E+01 -0.21459733303E+02  0.12424917420E+02  0.26299342901E+02  0.00000000000E+00 0.  1.
<mgrwt>
<rscale>  0 0.65959169E+02</rscale>
<asrwt>0</asrwt>
<pdfrwt beam="1">  1        3 0.24899727E-01 0.93468918E+02</pdfrwt>
<pdfrwt beam="2">  1       -3 0.51478852E-02 0.93468918E+02</pdfrwt>
<totfact> 0.68927471E+03</totfact>
</mgrwt>
</event>
<event>
 6    1  0.2852411E-002  0.9081223E+02  0.7546771E-02  0.1421362E+00
          2   -1    0    0  501    0  0.00000000000E+00  0.00000000000E+00  0.62274594440E+03  0.62274594440E+03  0.00000000000E+00 0. -1.
         -2   -1    0    0    0  501 -0.00000000000E+00 -0.00000000000E+00 -0.26515190895E+02  0.26515190895E+02  0.00000000000E+00 0.  1.
         23    2    1    2    0    0 -0.11174798835E+02  0.43280465839E+01  0.61787926013E+03  0.62451712683E+03  0.90018073104E+02 0.  0.
         13    1    3    3    0    0  0.20146128794E+02 -0.33504599779E+02  0.20207010193E+03  0.20581727528E+03  0.00000000000E+00 0.  1.
        -13    1    3    3    0    0 -0.31320927629E+02  0.37832646363E+02  0.41580915820E+03  0.41869985155E+03  0.00000000000E+00 0. -1.
         22    1    1    2    0    0  0.11174798835E+02 -0.43280465839E+01 -0.21648506622E+02  0.24744008471E+02  0.00000000000E+00 0.  1.
<mgrwt>
<rscale>  0 0.54733805E+02</rscale>
<asrwt>0</asrwt>
<pdfrwt beam="1">  1        2 0.95807057E-01 0.90812233E+02</pdfrwt>
<pdfrwt beam="2">  1       -2 0.40792606E-02 0.90812233E+02</pdfrwt>
<totfact> 0.11901378E+04</totfact>
</mgrwt>
</event>
<event>
 6    1  0.2852411E-002  0.9935777E+02  0.7546771E-02  0.1396010E+00
         -2   -1    0    0    0  501 -0.00000000000E+00  0.00000000000E+00  0.53630220113E+02  0.53630220113E+02  0.00000000000E+00 0.  1.
          2   -1    0    0  501    0  0.00000000000E+00 -0.00000000000E+00 -0.61352387443E+02  0.61352387443E+02  0.00000000000E+00 0. -1.
         23    2    1    2    0    0  0.10624846210E+02  0.84920142842E+01 -0.13373480714E+02  0.10025375809E+03  0.98422377341E+02 0.  0.
         11    1    3    3    0    0  0.35812039676E+02 -0.29505876932E+02 -0.25680848417E+02  0.53033997913E+02  0.00000000000E+00 0.  1.
        -11    1    3    3    0    0 -0.25187193466E+02  0.37997891216E+02  0.12307367702E+02  0.47219760178E+02  0.00000000000E+00 0. -1.
         22    1    1    2    0    0 -0.10624846210E+02 -0.84920142842E+01  0.56513133843E+01  0.14728849465E+02  0.00000000000E+00 0. -1.
<mgrwt>
<rscale>  0 0.60436363E+02</rscale>
<asrwt>0</asrwt>
<pdfrwt beam="1">  1        2 0.94388288E-02 0.99357768E+02</pdfrwt>
<pdfrwt beam="2">  1       -2 0.82508031E-02 0.99357768E+02</pdfrwt>
<totfact> 0.53982303E+04</totfact>
</mgrwt>
</event>
<event>
 6    1  0.2852411E-002  0.1000558E+03  0.7546771E-02  0.1334004E+00
         -2   -1    0    0    0  501 -0.00000000000E+00  0.00000000000E+00  0.47799110163E+01  0.47799110163E+01  0.00000000000E+00 0.  1.
          2   -1    0    0  501    0  0.00000000000E+00 -0.00000000000E+00 -0.10314356845E+04  0.10314356845E+04  0.00000000000E+00 0. -1.
         23    2    1    2    0    0 -0.13695026798E+02  0.34895790452E+02 -0.83091706847E+03  0.83691955794E+03  0.92768000147E+02 0.  0.
         13    1    3    3    0    0 -0.47273620709E+02  0.26896773602E+02 -0.30064560368E+03  0.30552579377E+03  0.00000000000E+00 0. -1.
        -13    1    3    3    0    0  0.33578593911E+02  0.79990168492E+01 -0.53027146479E+03  0.53139376418E+03  0.00000000000E+00 0.  1.
         22    1    1    2    0    0  0.13695026798E+02 -0.34895790452E+02 -0.19573870506E+03  0.19929603761E+03  0.00000000000E+00 0.  1.
<mgrwt>
<rscale>  0 0.78280179E+02</rscale>
<asrwt>0</asrwt>
<pdfrwt beam="1">  1        2 0.15868265E+00 0.10005584E+03</pdfrwt>
<pdfrwt beam="2">  1       -2 0.73536981E-03 0.10005584E+03</pdfrwt>
<totfact> 0.75460197E+04</totfact>
</mgrwt>
</event>
<event>
 6    1  0.2852411E-002  0.1097762E+03  0.7546771E-02  0.1291058E+00
         -2   -1    0    0    0  501 -0.00000000000E+00  0.00000000000E+00  0.78778436889E+01  0.78778436889E+01  0.00000000000E+00 0.  1.
          2   -1    0    0  501    0  0.00000000000E+00 -0.00000000000E+00 -0.17755207068E+04  0.17755207068E+04  0.00000000000E+00 0. -1.
         23    2    1    2    0    0  0.53601231608E+02 -0.30571691408E+02 -0.16153985434E+04  0.16191242274E+04  0.90791460717E+02 0.  0.
         11    1    3    3    0    0  0.55409043131E+02 -0.53320706996E+02 -0.14637198229E+04  0.14657383736E+04  0.00000000000E+00 0. -1.
        -11    1    3    3    0    0 -0.18078115228E+01  0.22749015588E+02 -0.15167872053E+03  0.15338585383E+03  0.00000000000E+00 0.  1.
         22    1    1    2    0    0 -0.53601231608E+02  0.30571691408E+02 -0.15224431964E+03  0.16427432303E+03  0.00000000000E+00 0.  1.
<mgrwt>
<rscale>  0 0.95052647E+02</rscale>
<asrwt>0</asrwt>
<pdfrwt beam="1">  1        2 0.27315717E+00 0.10977618E+03</pdfrwt>
<pdfrwt beam="2">  1       -2 0.12119753E-02 0.10977618E+03</pdfrwt>
<totfact> 0.15121172E+04</totfact>
</mgrwt>
</event>
<event>
 6    1  0.2852411E-002  0.9009739E+02  0.7546771E-02  0.1368454E+00
          2   -1    0    0  501    0  0.00000000000E+00  0.00000000000E+00  0.45181418255E+02  0.45181418255E+02  0.00000000000E+00 0. -1.
         -2   -1    0    0    0  501 -0.00000000000E+00 -0.00000000000E+00 -0.85365373255E+02  0.85365373255E+02  0.00000000000E+00 0.  1.
         23    2    1    2    0    0  0.22463168134E+02  0.17622741850E+02 -0.12828716305E+02  0.91006128427E+02  0.85453990523E+02 0.  0.
         11    1    3    3    0    0  0.10575607766E+02 -0.33796717395E+01  0.35387073330E+02  0.37087876989E+02  0.00000000000E+00 0. -1.
        -11    1    3    3    0    0  0.11887560368E+02  0.21002413589E+02 -0.48215789635E+02  0.53918251438E+02  0.00000000000E+00 0.  1.
         22    1    1    2    0    0 -0.22463168134E+02 -0.17622741850E+02 -0.27355238695E+02  0.39540663082E+02  0.00000000000E+00 0.  1.
<mgrwt>
<rscale>  0 0.67598829E+02</rscale>
<asrwt>0</asrwt>
<pdfrwt beam="1">  1        2 0.69509875E-02 0.90097389E+02</pdfrwt>
<pdfrwt beam="2">  1       -2 0.13133134E-01 0.90097389E+02</pdfrwt>
<totfact> 0.37644370E+04</totfact>
</mgrwt>
</event>
<event>
 6    1  0.2852411E-002  0.9106297E+02  0.7546771E-02  0.1430633E+00
         -2   -1    0    0    0  501 -0.00000000000E+00  0.00000000000E+00  0.14525757489E+03  0.14525757489E+03  0.00000000000E+00 0.  1.
          2   -1    0    0  501    0  0.00000000000E+00 -0.00000000000E+00 -0.23045915731E+02  0.23045915731E+02  0.00000000000E+00 0. -1.
         23    2    1    2    0    0 -0.27374226971E+01 -0.99483274929E+01  0.69401193279E+02  0.11449449500E+03  0.90476522118E+02 0.  0.
         11    1    3    3    0    0  0.18944213542E+00  0.94355190896E+01 -0.20453728940E+02  0.22525983582E+02  0.00000000000E+00 0. -1.
        -11    1    3    3    0    0 -0.29268648325E+01 -0.19383846583E+02  0.89854922219E+02  0.91968511421E+02  0.00000000000E+00 0.  1.
         22    1    1    2    0    0  0.27374226971E+01  0.99483274929E+01  0.52810465885E+02  0.53808995622E+02  0.00000000000E+00 0. -1.
<mgrwt>
<rscale>  0 0.52833092E+02</rscale>
<asrwt>0</asrwt>
<pdfrwt beam="1">  1        2 0.35455256E-02 0.91062966E+02</pdfrwt>
<pdfrwt beam="2">  1       -2 0.22347319E-01 0.91062966E+02</pdfrwt>
<totfact> 0.37451824E+04</totfact>
</mgrwt>
</event>
<event>
 6    1  0.2852411E-002  0.9145579E+02  0.7546771E-02  0.1430024E+00
         -1   -1    0    0    0  501 -0.00000000000E+00  0.00000000000E+00  0.22847419465E+01  0.22847419465E+01  0.00000000000E+00 0.  1.
          1   -1    0    0  501    0  0.00000000000E+00 -0.00000000000E+00 -0.12648336602E+04  0.12648336602E+04  0.00000000000E+00 0. -1.
         23    2    1    2    0    0  0.66215122256E+01  0.78637506559E+01 -0.12166397664E+04  0.12200723266E+04  0.90876168489E+02 0.  0.
         11    1    3    3    0    0  0.42237937478E+02 -0.16347130301E+01 -0.94476143379E+03  0.94570655197E+03  0.00000000000E+00 0. -1.
        -11    1    3    3    0    0 -0.35616425253E+02  0.94984636861E+01 -0.27187833261E+03  0.27436577465E+03  0.00000000000E+00 0.  1.
         22    1    1    2    0    0 -0.66215122256E+01 -0.78637506559E+01 -0.45909151841E+02  0.47046075514E+02  0.00000000000E+00 0.  1.
<mgrwt>
<rscale>  0 0.52955251E+02</rscale>
<asrwt>0</asrwt>
<pdfrwt beam="1">  1        1 0.19459000E+00 0.91455787E+02</pdfrwt>
<pdfrwt beam="2">  1       -1 0.35149839E-03 0.91455787E+02</pdfrwt>
<totfact> 0.78394189E+04</totfact>
</mgrwt>
</event>
<event>
 6    1  0.2852411E-002  0.9293304E+02  0.7546771E-02  0.1421555E+00
          2   -1    0    0  501    0  0.00000000000E+00  0.00000000000E+00  0.71881122299E+03  0.71881122299E+03  0.00000000000E+00 0. -1.
         -2   -1    0    0    0  501 -0.00000000000E+00 -0.00000000000E+00 -0.59919060512E+01  0.59919060512E+01  0.00000000000E+00 0.  1.
         23    2    1    2    0    0  0.10878519273E+02  0.24393473048E+01  0.70520569582E+03  0.71130276522E+03  0.92261897825E+02 0.  0.
         11    1    3    3    0    0  0.34318737245E+02 -0.12516292230E+02  0.12000183374E+03  0.12543872368E+03  0.00000000000E+00 0.  1.
        -11    1    3    3    0    0 -0.23440217972E+02  0.14955639535E+02  0.58520386209E+03  0.58586404154E+03  0.00000000000E+00 0. -1.
         22    1    1    2    0    0 -0.10878519273E+02 -0.24393473048E+01  0.76136211164E+01  0.13500363823E+02  0.00000000000E+00 0.  1.
<mgrwt>
<rscale>  0 0.54693193E+02</rscale>
<asrwt>0</asrwt>
<pdfrwt beam="1">  1        2 0.11058627E+00 0.92933042E+02</pdfrwt>
<pdfrwt beam="2">  1       -2 0.92183227E-03 0.92933042E+02</pdfrwt>
<totfact> 0.85847694E+04</totfact>
</mgrwt>
</event>
<event>
 6    1  0.2852411E-002  0.8583247E+02  0.7546771E-02  0.1419737E+00
          2   -1    0    0  501    0  0.00000000000E+00  0.00000000000E+00  0.35705441769E+03  0.35705441769E+03  0.00000000000E+00 0. -1.
         -2   -1    0    0    0  501 -0.00000000000E+00 -0.00000000000E+00 -0.86664521170E+01  0.86664521170E+01  0.00000000000E+00 0.  1.
         23    2    1    2    0    0  0.14064025831E+02 -0.37358098529E+01  0.33542447426E+03  0.34623227815E+03  0.84589948584E+02 0.  0.
         11    1    3    3    0    0  0.26626608316E+02 -0.13210293196E+02  0.32706855667E+03  0.32841639557E+03  0.00000000000E+00 0. -1.
        -11    1    3    3    0    0 -0.12562582485E+02  0.94744833432E+01  0.83559175909E+01  0.17815882580E+02  0.00000000000E+00 0.  1.
         22    1    1    2    0    0 -0.14064025831E+02  0.37358098529E+01  0.12963491316E+02  0.19488591661E+02  0.00000000000E+00 0.  1.
<mgrwt>
<rscale>  0 0.55076638E+02</rscale>
<asrwt>0</asrwt>
<pdfrwt beam="1">  1        2 0.54931438E-01 0.85832468E+02</pdfrwt>
<pdfrwt beam="2">  1       -2 0.13333006E-02 0.85832468E+02</pdfrwt>
<totfact> 0.10795769E+05</totfact>
</mgrwt>
</event>
<event>
 6    1  0.2852411E-002  0.9150913E+02  0.7546771E-02  0.1427690E+00
         -2   -1    0    0    0  501 -0.00000000000E+00  0.00000000000E+00  0.25411055544E+02  0.25411055544E+02  0.00000000000E+00 0.  1.
          2   -1    0    0  501    0  0.00000000000E+00 -0.00000000000E+00 -0.60576392614E+03  0.60576392614E+03  0.00000000000E+00 0. -1.
         23    2    1    2    0    0 -0.97268501141E+01 -0.42938790370E+01 -0.60101292461E+03  0.60793951650E+03  0.90889334678E+02 0.  0.
         13    1    3    3    0    0  0.23307890449E+02 -0.29504843125E+02 -0.44164669330E+03  0.44324439673E+03  0.00000000000E+00 0. -1.
        -13    1    3    3    0    0 -0.33034740564E+02  0.25210964088E+02 -0.15936623131E+03  0.16469511977E+03  0.00000000000E+00 0.  1.
         22    1    1    2    0    0  0.97268501141E+01  0.42938790370E+01  0.20660054017E+02  0.23235465184E+02  0.00000000000E+00 0.  1.
<mgrwt>
<rscale>  0 0.53426491E+02</rscale>
<asrwt>0</asrwt>
<pdfrwt beam="1">  1        2 0.93194443E-01 0.91509126E+02</pdfrwt>
<pdfrwt beam="2">  1       -2 0.39093935E-02 0.91509126E+02</pdfrwt>
<totfact> 0.13078000E+04</totfact>
</mgrwt>
</event>
<event>
 6    1  0.2852411E-002  0.9407540E+02  0.7546771E-02  0.1376539E+00
          1   -1    0    0  501    0  0.00000000000E+00  0.00000000000E+00  0.11877516580E+04  0.11877516580E+04  0.00000000000E+00 0. -1.
         -1   -1    0    0    0  501 -0.00000000000E+00 -0.00000000000E+00 -0.30411283615E+01  0.30411283615E+01  0.00000000000E+00 0.  1.
         23    2    1    2    0    0  0.17741764223E+02  0.12922231465E+02  0.10599171571E+04  0.10640839071E+04  0.91479107386E+02 0.  0.
         11    1    3    3    0    0  0.33076335399E+00 -0.13712008625E+02  0.23733754981E+02  0.27412035868E+02  0.00000000000E+00 0.  1.
        -11    1    3    3    0    0  0.17411000869E+02  0.26634240089E+02  0.10361834021E+04  0.10366718712E+04  0.00000000000E+00 0. -1.
         22    1    1    2    0    0 -0.17741764223E+02 -0.12922231465E+02  0.12479337247E+03  0.12670887923E+03  0.00000000000E+00 0. -1.
<mgrwt>
<rscale>  0 0.65382310E+02</rscale>
<asrwt>0</asrwt>
<pdfrwt beam="1">  1        1 0.18273065E+00 0.94075402E+02</pdfrwt>
<pdfrwt beam="2">  1       -1 0.46786685E-03 0.94075402E+02</pdfrwt>
<totfact> 0.59410954E+04</totfact>
</mgrwt>
</event>
<event>
 6    1  0.2852411E-002  0.9034897E+02  0.7546771E-02  0.1432836E+00
         -2   -1    0    0    0  501 -0.00000000000E+00  0.00000000000E+00  0.31987844804E+02  0.31987844804E+02  0.00000000000E+00 0.  1.
          2   -1    0    0  501    0  0.00000000000E+00 -0.00000000000E+00 -0.11719950462E+03  0.11719950462E+03  0.00000000000E+00 0. -1.
         23    2    1    2    0    0  0.14023411355E+01  0.10121768041E+02 -0.97686031110E+02  0.13306200638E+03  0.89769260438E+02 0.  0.
         11    1    3    3    0    0 -0.72496983527E+01 -0.19620381298E+02  0.84043715641E+01  0.22542203749E+02  0.00000000000E+00 0.  1.
        -11    1    3    3    0    0  0.86520394881E+01  0.29742149339E+02 -0.10609040267E+03  0.11051980263E+03  0.00000000000E+00 0. -1.
         22    1    1    2    0    0 -0.14023411355E+01 -0.10121768041E+02  0.12474371296E+02  0.16125343040E+02  0.00000000000E+00 0.  1.
<mgrwt>
<rscale>  0 0.52394860E+02</rscale>
<asrwt>0</asrwt>
<pdfrwt beam="1">  1        2 0.18030693E-01 0.90348973E+02</pdfrwt>
<pdfrwt beam="2">  1       -2 0.49212069E-02 0.90348973E+02</pdfrwt>
<totfact> 0.54217299E+04</totfact>
</mgrwt>
</event>
<event>
 6    1  0.2852411E-002  0.9041641E+02  0.7546771E-02  0.1367781E+00
         -2   -1    0    0    0  501 -0.00000000000E+00  0.00000000000E+00  0.21885023937E+02  0.21885023937E+02  0.00000000000E+00 0.  1.
          2   -1    0    0  501    0  0.00000000000E+00 -0.00000000000E+00 -0.16172996377E+03  0.16172996377E+03  0.00000000000E+00 0. -1.
         23    2    1    2    0    0 -0.28517699470E+02 -0.16826757373E+01 -0.10683199439E+03  0.13995785602E+03  0.85784822985E+02 0.  0.
         11    1    3    3    0    0 -0.24806123381E+02 -0.98899204212E+01 -0.12059106792E+03  0.12351259023E+03  0.00000000000E+00 0. -1.
        -11    1    3    3    0    0 -0.37115760898E+01  0.82072446839E+01  0.13759073530E+02  0.16445265786E+02  0.00000000000E+00 0.  1.
         22    1    1    2    0    0  0.28517699470E+02  0.16826757373E+01 -0.33012945441E+02  0.43657131690E+02  0.00000000000E+00 0. -1.
<mgrwt>
<rscale>  0 0.67787985E+02</rscale>
<asrwt>0</asrwt>
<pdfrwt beam="1">  1        2 0.24881533E-01 0.90416406E+02</pdfrwt>
<pdfrwt beam="2">  1       -2 0.33669267E-02 0.90416406E+02</pdfrwt>
<totfact> 0.66307437E+04</totfact>
</mgrwt>
</event>
<event>
 6    1  0.2852411E-002  0.9552991E+02  0.7546771E-02  0.1334012E+00
          2   -1    0    0  501    0  0.00000000000E+00  0.00000000000E+00  0.43607715008E+03  0.43607715008E+03  0.00000000000E+00 0. -1.
         -2   -1    0    0    0  501 -0.00000000000E+00 -0.00000000000E+00 -0.11017983847E+02  0.11017983847E+02  0.00000000000E+00 0.  1.
         23    2    1    2    0    0  0.42371826226E+02  0.76968812801E+01  0.28818354381E+03  0.30360454311E+03  0.85272211388E+02 0.  0.
         13    1    3    3    0    0  0.37909381326E+02  0.28090102505E+01  0.29297682963E+03  0.29543262249E+03  0.00000000000E+00 0. -1.
        -13    1    3    3    0    0  0.44624448998E+01  0.48878710296E+01 -0.47932858195E+01  0.81719206208E+01  0.00000000000E+00 0.  1.
         22    1    1    2    0    0 -0.42371826226E+02 -0.76968812801E+01  0.13687562242E+03  0.14349059082E+03  0.00000000000E+00 0.  1.
<mgrwt>
<rscale>  0 0.78277367E+02</rscale>
<asrwt>0</asrwt>
<pdfrwt beam="1">  1        2 0.67088779E-01 0.95529910E+02</pdfrwt>
<pdfrwt beam="2">  1       -2 0.16950748E-02 0.95529910E+02</pdfrwt>
<totfact> 0.63056507E+04</totfact>
</mgrwt>
</event>
<event>
 6    1  0.2852411E-002  0.9347391E+02  0.7546771E-02  0.1427436E+00
          2   -1    0    0  501    0  0.00000000000E+00  0.00000000000E+00  0.16027443782E+03  0.16027443782E+03  0.00000000000E+00 0. -1.
         -2   -1    0    0    0  501 -0.00000000000E+00 -0.00000000000E+00 -0.24956509144E+02  0.24956509144E+02  0.00000000000E+00 0.  1.
         23    2    1    2    0    0  0.75319777714E+01 -0.66001555990E+01  0.14419939601E+03  0.17184538738E+03  0.92935884410E+02 0.  0.
         11    1    3    3    0    0 -0.12316033605E+02 -0.23681585767E+02  0.14694342137E+01  0.26733152173E+02  0.00000000000E+00 0.  1.
        -11    1    3    3    0    0  0.19848011377E+02  0.17081430168E+02  0.14272996180E+03  0.14511223521E+03  0.00000000000E+00 0. -1.
         22    1    1    2    0    0 -0.75319777714E+01  0.66001555990E+01 -0.88814673404E+01  0.13385559577E+02  0.00000000000E+00 0.  1.
<mgrwt>
<rscale>  0 0.53478164E+02</rscale>
<asrwt>0</asrwt>
<pdfrwt beam="1">  1        2 0.24657605E-01 0.93473907E+02</pdfrwt>
<pdfrwt beam="2">  1       -2 0.38394630E-02 0.93473907E+02</pdfrwt>
<totfact> 0.55504229E+04</totfact>
</mgrwt>
</event>
<event>
 6    1  0.2852411E-002  0.9466823E+02  0.7546771E-02  0.1393800E+00
         -4   -1    0    0    0  501 -0.00000000000E+00  0.00000000000E+00  0.33173512229E+01  0.33173512229E+01  0.00000000000E+00 0.  1.
          4   -1    0    0  501    0  0.00000000000E+00 -0.00000000000E+00 -0.97784255321E+03  0.97784255321E+03  0.00000000000E+00 0. -1.
         23    2    1    2    0    0 -0.14364038099E+02  0.76812801808E+01 -0.89437297676E+03  0.89936927621E+03  0.93256344460E+02 0.  0.
         11    1    3    3    0    0 -0.48138051540E+02 -0.63851131294E+01 -0.30307827725E+03  0.30694377957E+03  0.00000000000E+00 0.  1.
        -11    1    3    3    0    0  0.33774013441E+02  0.14066393310E+02 -0.59129469951E+03  0.59242549665E+03  0.00000000000E+00 0. -1.
         22    1    1    2    0    0  0.14364038099E+02 -0.76812801808E+01 -0.80152225229E+02  0.81790628222E+02  0.00000000000E+00 0.  1.
<mgrwt>
<rscale>  0 0.60971377E+02</rscale>
<asrwt>0</asrwt>
<pdfrwt beam="1">  1        4 0.15043749E+00 0.94668228E+02</pdfrwt>
<pdfrwt beam="2">  1       -4 0.51036113E-03 0.94668228E+02</pdfrwt>
<totfact> 0.38349791E+03</totfact>
</mgrwt>
</event>
<event>
 6    1  0.2852411E-002  0.9438877E+02  0.7546771E-02  0.1422499E+00
          2   -1    0    0  501    0  0.00000000000E+00  0.00000000000E+00  0.26644493279E+04  0.26644493279E+04  0.00000000000E+00 0. -1.
         -2   -1    0    0    0  501 -0.00000000000E+00 -0.00000000000E+00 -0.90900718495E+01  0.90900718495E+01  0.00000000000E+00 0.  1.
         23    2    1    2    0    0 -0.65170534668E+01 -0.82172272820E+01  0.26602804163E+04  0.26619543823E+04  0.93804294515E+02 0.  0.
         11    1    3    3    0    0 -0.46339464640E+02  0.11938260906E+02  0.16404054337E+04  0.16411032433E+04  0.00000000000E+00 0. -1.
        -11    1    3    3    0    0  0.39822411173E+02 -0.20155488188E+02  0.10198749825E+04  0.10208511390E+04  0.00000000000E+00 0.  1.
         22    1    1    2    0    0  0.65170534668E+01  0.82172272820E+01 -0.49211602296E+01  0.11585017397E+02  0.00000000000E+00 0.  1.
<mgrwt>
<rscale>  0 0.54495643E+02</rscale>
<asrwt>0</asrwt>
<pdfrwt beam="1">  1        2 0.40991466E+00 0.94388773E+02</pdfrwt>
<pdfrwt beam="2">  1       -2 0.13984747E-02 0.94388773E+02</pdfrwt>
<totfact> 0.42753067E+03</totfact>
</mgrwt>
</event>
<event>
 6    1  0.2852411E-002  0.1057412E+03  0.7546771E-02  0.1356830E+00
          1   -1    0    0  501    0  0.00000000000E+00  0.00000000000E+00  0.95559803927E+02  0.95559803927E+02  0.00000000000E+00 0. -1.
         -1   -1    0    0    0  501 -0.00000000000E+00 -0.00000000000E+00 -0.42328739595E+02  0.42328739595E+02  0.00000000000E+00 0.  1.
         23    2    1    2    0    0  0.13501191026E+01  0.21412592178E+02  0.43888644525E+02  0.11448763044E+03  0.10354169440E+03 0.  0.
         13    1    3    3    0    0  0.46178428916E+01  0.51139573761E+02  0.61235492663E+02  0.79914742314E+02  0.00000000000E+00 0. -1.
        -13    1    3    3    0    0 -0.32677237890E+01 -0.29726981582E+02 -0.17346848139E+02  0.34572888122E+02  0.00000000000E+00 0.  1.
         22    1    1    2    0    0 -0.13501191026E+01 -0.21412592178E+02  0.93424198078E+01  0.23400913086E+02  0.00000000000E+00 0. -1.
<mgrwt>
<rscale>  0 0.70968549E+02</rscale>
<asrwt>0</asrwt>
<pdfrwt beam="1">  1        1 0.14701508E-01 0.10574121E+03</pdfrwt>
<pdfrwt beam="2">  1       -1 0.65121138E-02 0.10574121E+03</pdfrwt>
<totfact> 0.39956469E+04</totfact>
</mgrwt>
</event>
<event>
 6    1  0.2852411E-002  0.1008315E+03  0.7546771E-02  0.1382197E+00
         -2   -1    0    0    0  501 -0.00000000000E+00  0.00000000000E+00  0.36044535231E+03  0.36044535231E+03  0.00000000000E+00 0.  1.
          2   -1    0    0  501    0  0.00000000000E+00 -0.00000000000E+00 -0.10015155761E+02  0.10015155761E+02  0.00000000000E+00 0. -1.
         23    2    1    2    0    0 -0.14217859229E+02 -0.78751366779E+01  0.26577745768E+03  0.28426160149E+03  0.99512992966E+02 0.  0.
         11    1    3    3    0    0  0.19496431501E+02  0.79943084388E+01  0.23496999464E+03  0.23591294622E+03  0.00000000000E+00 0.  1.
        -11    1    3    3    0    0 -0.33714290730E+02 -0.15869445117E+02  0.30807463038E+02  0.48348655272E+02  0.00000000000E+00 0. -1.
         22    1    1    2    0    0  0.14217859229E+02  0.78751366779E+01  0.84652738869E+02  0.86198906587E+02  0.00000000000E+00 0. -1.
<mgrwt>
<rscale>  0 0.63889839E+02</rscale>
<asrwt>0</asrwt>
<pdfrwt beam="1">  1        2 0.15407935E-02 0.10083155E+03</pdfrwt>
<pdfrwt beam="2">  1       -2 0.55453121E-01 0.10083155E+03</pdfrwt>
<totfact> 0.21799266E+04</totfact>
</mgrwt>
</event>
<event>
 6    1  0.2852411E-002  0.9528233E+02  0.7546771E-02  0.1360778E+00
          1   -1    0    0  501    0  0.00000000000E+00  0.00000000000E+00  0.13576313763E+03  0.13576313763E+03  0.00000000000E+00 0. -1.
         -1   -1    0    0    0  501 -0.00000000000E+00 -0.00000000000E+00 -0.28554576336E+02  0.28554576336E+02  0.00000000000E+00 0.  1.
         23    2    1    2    0    0  0.25591039890E+02  0.98978276427E+01  0.94072892096E+02  0.13389709398E+03  0.91246120112E+02 0.  0.
         13    1    3    3    0    0 -0.19204136632E+02 -0.13403122651E+02  0.77177520675E+02  0.80652416319E+02  0.00000000000E+00 0. -1.
        -13    1    3    3    0    0  0.44795176522E+02  0.23300950293E+02  0.16895371421E+02  0.53244677665E+02  0.00000000000E+00 0.  1.
         22    1    1    2    0    0 -0.25591039890E+02 -0.98978276427E+01  0.13135669195E+02  0.30420619979E+02  0.00000000000E+00 0.  1.
<mgrwt>
<rscale>  0 0.69798993E+02</rscale>
<asrwt>0</asrwt>
<pdfrwt beam="1">  1        1 0.20886636E-01 0.95282332E+02</pdfrwt>
<pdfrwt beam="2">  1       -1 0.43930118E-02 0.95282332E+02</pdfrwt>
<totfact> 0.45033316E+04</totfact>
</mgrwt>
</event>
<event>
 6    1  0.2852411E-002  0.9355762E+02  0.7546771E-02  0.1422876E+00
          2   -1    0    0  501    0  0.00000000000E+00  0.00000000000E+00  0.89309503102E+03  0.89309503102E+03  0.00000000000E+00 0. -1.
         -2   -1    0    0    0  501 -0.00000000000E+00 -0.00000000000E+00 -0.57662966969E+01  0.57662966969E+01  0.00000000000E+00 0.  1.
         23    2    1    2    0    0 -0.29640925637E+01 -0.10289417951E+02  0.88191333599E+03  0.88686197333E+03  0.92942829646E+02 0.  0.
         11    1    3    3    0    0 -0.18845145038E+02 -0.42953021487E+02  0.28407004042E+03  0.28791646255E+03  0.00000000000E+00 0.  1.
        -11    1    3    3    0    0  0.15881052474E+02  0.32663603536E+02  0.59784329557E+03  0.59894551078E+03  0.00000000000E+00 0. -1.
         22    1    1    2    0    0  0.29640925637E+01  0.10289417951E+02  0.54153983335E+01  0.11999354383E+02  0.00000000000E+00 0.  1.
<mgrwt>
<rscale>  0 0.54417037E+02</rscale>
<asrwt>0</asrwt>
<pdfrwt beam="1">  1        2 0.13739913E+00 0.93557616E+02</pdfrwt>
<pdfrwt beam="2">  1       -2 0.88712328E-03 0.93557616E+02</pdfrwt>
<totfact> 0.69522887E+04</totfact>
</mgrwt>
</event>
<event>
 6    1  0.2852411E-002  0.8935111E+02  0.7546771E-02  0.1431771E+00
         -2   -1    0    0    0  501 -0.00000000000E+00  0.00000000000E+00  0.11197259486E+01  0.11197259486E+01  0.00000000000E+00 0.  1.
          2   -1    0    0  501    0  0.00000000000E+00 -0.00000000000E+00 -0.31871775475E+04  0.31871775475E+04  0.00000000000E+00 0. -1.
         23    2    1    2    0    0  0.78748756052E+01  0.72971877844E+01 -0.31266953350E+04  0.31279717612E+04  0.88703768238E+02 0.  0.
         11    1    3    3    0    0  0.39285619468E+02  0.60858636175E+01 -0.26204053255E+04  0.26207068641E+04  0.00000000000E+00 0. -1.
        -11    1    3    3    0    0 -0.31410743863E+02  0.12113241669E+01 -0.50629000945E+03  0.50726489708E+03  0.00000000000E+00 0.  1.
         22    1    1    2    0    0 -0.78748756052E+01 -0.72971877844E+01 -0.59362486535E+02  0.60325512206E+02  0.00000000000E+00 0.  1.
<mgrwt>
<rscale>  0 0.52606091E+02</rscale>
<asrwt>0</asrwt>
<pdfrwt beam="1">  1        2 0.49033438E+00 0.89351111E+02</pdfrwt>
<pdfrwt beam="2">  1       -2 0.17226575E-03 0.89351111E+02</pdfrwt>
<totfact> 0.40869545E+04</totfact>
</mgrwt>
</event>
<event>
 6    1  0.2852411E-002  0.9048150E+02  0.7546771E-02  0.1387911E+00
         -2   -1    0    0    0  501 -0.00000000000E+00  0.00000000000E+00  0.17490295431E+03  0.17490295431E+03  0.00000000000E+00 0.  1.
          2   -1    0    0  501    0  0.00000000000E+00 -0.00000000000E+00 -0.18258459403E+02  0.18258459403E+02  0.00000000000E+00 0. -1.
         23    2    1    2    0    0  0.18830907944E+02 -0.81164455529E+01  0.11161677814E+03  0.14368439824E+03  0.88127301978E+02 0.  0.
         11    1    3    3    0    0  0.40636060201E+02 -0.30971674089E+02  0.95295955704E+02  0.10812887292E+03  0.00000000000E+00 0.  1.
        -11    1    3    3    0    0 -0.21805152257E+02  0.22855228536E+02  0.16320822436E+02  0.35555525328E+02  0.00000000000E+00 0. -1.
         22    1    1    2    0    0 -0.18830907944E+02  0.81164455529E+01  0.45027716769E+02  0.49477015470E+02  0.00000000000E+00 0. -1.
<mgrwt>
<rscale>  0 0.62429229E+02</rscale>
<asrwt>0</asrwt>
<pdfrwt beam="1">  1        2 0.28089939E-02 0.90481496E+02</pdfrwt>
<pdfrwt beam="2">  1       -2 0.26908146E-01 0.90481496E+02</pdfrwt>
<totfact> 0.36971425E+04</totfact>
</mgrwt>
</event>
<event>
 6    1  0.2852411E-002  0.9245375E+02  0.7546771E-02  0.1397702E+00
         -1   -1    0    0    0  501 -0.00000000000E+00  0.00000000000E+00  0.21185943633E+02  0.21185943633E+02  0.00000000000E+00 0.  1.
          1   -1    0    0  501    0  0.00000000000E+00 -0.00000000000E+00 -0.32181578883E+03  0.32181578883E+03  0.00000000000E+00 0. -1.
         23    2    1    2    0    0  0.17487614460E+01 -0.16340156053E+02 -0.31040475975E+03  0.32388085851E+03  0.90981518807E+02 0.  0.
         11    1    3    3    0    0  0.39171045178E+01 -0.11554648856E+01  0.59158297911E+01  0.71885915882E+01  0.00000000000E+00 0.  1.
        -11    1    3    3    0    0 -0.21683430717E+01 -0.15184691167E+02 -0.31632058955E+03  0.31669226692E+03  0.00000000000E+00 0. -1.
         22    1    1    2    0    0 -0.17487614460E+01  0.16340156053E+02  0.97749145526E+01  0.19120873958E+02  0.00000000000E+00 0.  1.
<mgrwt>
<rscale>  0 0.60031017E+02</rscale>
<asrwt>0</asrwt>
<pdfrwt beam="1">  1        1 0.49510123E-01 0.92453749E+02</pdfrwt>
<pdfrwt beam="2">  1       -1 0.32593759E-02 0.92453749E+02</pdfrwt>
<totfact> 0.23921306E+04</totfact>
</mgrwt>
</event>
<event>
 6    1  0.2852411E-002  0.1010246E+03  0.7546771E-02  0.1320460E+00
          2   -1    0    0  501    0  0.00000000000E+00  0.00000000000E+00  0.80796867657E+03  0.80796867657E+03  0.00000000000E+00 0. -1.
         -2   -1    0    0    0  501 -0.00000000000E+00 -0.00000000000E+00 -0.67174471675E+01  0.67174471675E+01  0.00000000000E+00 0.  1.
         23    2    1    2    0    0 -0.41472748162E+02  0.20506611904E+02  0.55958114275E+03  0.56862730810E+03  0.89807851661E+02 0.  0.
         11    1    3    3    0    0 -0.38453584114E+02  0.19361700165E+02  0.98060330807E+02  0.10709520084E+03  0.00000000000E+00 0.  1.
        -11    1    3    3    0    0 -0.30191640483E+01  0.11449117389E+01  0.46152081194E+03  0.46153210726E+03  0.00000000000E+00 0. -1.
         22    1    1    2    0    0  0.41472748162E+02 -0.20506611904E+02  0.24167008665E+03  0.24605881564E+03  0.00000000000E+00 0.  1.
<mgrwt>
<rscale>  0 0.83106474E+02</rscale>
<asrwt>0</asrwt>
<pdfrwt beam="1">  1        2 0.12430280E+00 0.10102455E+03</pdfrwt>
<pdfrwt beam="2">  1       -2 0.10334540E-02 0.10102455E+03</pdfrwt>
<totfact> 0.64087804E+04</totfact>
</mgrwt>
</event>
<event>
 6    1  0.2852411E-002  0.9603292E+02  0.7546771E-02  0.1392490E+00
         -2   -1    0    0    0  501 -0.00000000000E+00  0.00000000000E+00  0.34360067076E+01  0.34360067076E+01  0.00000000000E+00 0.  1.
          2   -1    0    0  501    0  0.00000000000E+00 -0.00000000000E+00 -0.17980011996E+04  0.17980011996E+04  0.00000000000E+00 0. -1.
         23    2    1    2    0    0  0.13296973057E+02 -0.87811488467E+01 -0.17669242603E+04  0.17695320465E+04  0.94701657319E+02 0.  0.
         11    1    3    3    0    0 -0.24418820112E+02 -0.23731114463E+02 -0.13924867430E+04  0.13929030024E+04  0.00000000000E+00 0. -1.
        -11    1    3    3    0    0  0.37715793168E+02  0.14949965617E+02 -0.37443751731E+03  0.37662904414E+03  0.00000000000E+00 0.  1.
         22    1    1    2    0    0 -0.13296973057E+02  0.87811488467E+01 -0.27640932591E+02  0.31905159803E+02  0.00000000000E+00 0.  1.
<mgrwt>
<rscale>  0 0.61291720E+02</rscale>
<asrwt>0</asrwt>
<pdfrwt beam="1">  1        2 0.27661645E+00 0.96032921E+02</pdfrwt>
<pdfrwt beam="2">  1       -2 0.52861474E-03 0.96032921E+02</pdfrwt>
<totfact> 0.47238844E+04</totfact>
</mgrwt>
</event>
<event>
 6    1  0.2852411E-002  0.9173296E+02  0.7546771E-02  0.1414284E+00
         -4   -1    0    0    0  501 -0.00000000000E+00  0.00000000000E+00  0.12048796288E+02  0.12048796288E+02  0.00000000000E+00 0.  1.
          4   -1    0    0  501    0  0.00000000000E+00 -0.00000000000E+00 -0.26834057334E+03  0.26834057334E+03  0.00000000000E+00 0. -1.
         23    2    1    2    0    0 -0.10591222570E+02  0.74831452914E+01 -0.24933227243E+03  0.26567182352E+03  0.90811696801E+02 0.  0.
         13    1    3    3    0    0 -0.30105157061E+02  0.28542010014E+02 -0.22263512800E+03  0.22646714340E+03  0.00000000000E+00 0. -1.
        -13    1    3    3    0    0  0.19513934491E+02 -0.21058864723E+02 -0.26697144432E+02  0.39204680123E+02  0.00000000000E+00 0.  1.
         22    1    1    2    0    0  0.10591222570E+02 -0.74831452914E+01 -0.69595046204E+01  0.14717546111E+02  0.00000000000E+00 0. -1.
<mgrwt>
<rscale>  0 0.56248777E+02</rscale>
<asrwt>0</asrwt>
<pdfrwt beam="1">  1        4 0.41283166E-01 0.91732959E+02</pdfrwt>
<pdfrwt beam="2">  1       -4 0.18536609E-02 0.91732959E+02</pdfrwt>
<totfact> 0.95412460E+03</totfact>
</mgrwt>
</event>
<event>
 6    1  0.2852411E-002  0.9743609E+02  0.7546771E-02  0.1395786E+00
         -4   -1    0    0    0  501 -0.00000000000E+00  0.00000000000E+00  0.57212480693E+02  0.57212480693E+02  0.00000000000E+00 0. -1.
          4   -1    0    0  501    0  0.00000000000E+00 -0.00000000000E+00 -0.10844483026E+03  0.10844483026E+03  0.00000000000E+00 0.  1.
         23    2    1    2    0    0  0.66312440888E+01  0.12865384478E+02 -0.84757058081E+02  0.12914159383E+03  0.96355076906E+02 0.  0.
         11    1    3    3    0    0 -0.12322066447E+02 -0.16831724569E+02 -0.91002218468E+02  0.93362433771E+02  0.00000000000E+00 0.  1.
        -11    1    3    3    0    0  0.18953310535E+02  0.29697109047E+02  0.62451603873E+01  0.35779160055E+02  0.00000000000E+00 0. -1.
         22    1    1    2    0    0 -0.66312440888E+01 -0.12865384478E+02  0.33524708517E+02  0.36515717124E+02  0.00000000000E+00 0. -1.
<mgrwt>
<rscale>  0 0.60490295E+02</rscale>
<asrwt>0</asrwt>
<pdfrwt beam="1">  1        4 0.16683820E-01 0.97436094E+02</pdfrwt>
<pdfrwt beam="2">  1       -4 0.88019201E-02 0.97436094E+02</pdfrwt>
<totfact> 0.44078271E+03</totfact>
</mgrwt>
</event>
<event>
 6    1  0.2852411E-002  0.9280271E+02  0.7546771E-02  0.1413063E+00
          1   -1    0    0  501    0  0.00000000000E+00  0.00000000000E+00  0.13357186268E+02  0.13357186268E+02  0.00000000000E+00 0. -1.
         -1   -1    0    0    0  501 -0.00000000000E+00 -0.00000000000E+00 -0.21110145033E+03  0.21110145033E+03  0.00000000000E+00 0.  1.
         23    2    1    2    0    0  0.97624374010E+01 -0.82235762016E+01 -0.16488675803E+03  0.18920884097E+03  0.91920673061E+02 0.  0.
         11    1    3    3    0    0 -0.25198483248E+02 -0.13996424271E+02 -0.14646025871E+03  0.14926979210E+03  0.00000000000E+00 0.  1.
        -11    1    3    3    0    0  0.34960920649E+02  0.57728480697E+01 -0.18426499320E+02  0.39939048870E+02  0.00000000000E+00 0. -1.
         22    1    1    2    0    0 -0.97624374010E+01  0.82235762016E+01 -0.32857506024E+02  0.35249795626E+02  0.00000000000E+00 0. -1.
<mgrwt>
<rscale>  0 0.56516000E+02</rscale>
<asrwt>0</asrwt>
<pdfrwt beam="1">  1        1 0.20549517E-02 0.92802708E+02</pdfrwt>
<pdfrwt beam="2">  1       -1 0.32477147E-01 0.92802708E+02</pdfrwt>
<totfact> 0.44966426E+04</totfact>
</mgrwt>
</event>
<event>
 6    1  0.2852411E-002  0.9420852E+02  0.7546771E-02  0.1408903E+00
         -2   -1    0    0    0  501 -0.00000000000E+00  0.00000000000E+00  0.90183773889E+01  0.90183773889E+01  0.00000000000E+00 0.  1.
          2   -1    0    0  501    0  0.00000000000E+00 -0.00000000000E+00 -0.32431146083E+03  0.32431146083E+03  0.00000000000E+00 0. -1.
         23    2    1    2    0    0 -0.12348706445E+02  0.41227445917E+01 -0.28940511772E+03  0.30435270339E+03  0.93304653278E+02 0.  0.
         13    1    3    3    0    0  0.80364656600E+01 -0.31164087974E+02 -0.38592729892E+02  0.50251208544E+02  0.00000000000E+00 0.  1.
        -13    1    3    3    0    0 -0.20385172105E+02  0.35286832566E+02 -0.25081238783E+03  0.25410149485E+03  0.00000000000E+00 0. -1.
         22    1    1    2    0    0  0.12348706445E+02 -0.41227445917E+01 -0.25887965724E+02  0.28977134833E+02  0.00000000000E+00 0. -1.
<mgrwt>
<rscale>  0 0.57439398E+02</rscale>
<asrwt>0</asrwt>
<pdfrwt beam="1">  1        2 0.49894054E-01 0.94208523E+02</pdfrwt>
<pdfrwt beam="2">  1       -2 0.13874431E-02 0.94208523E+02</pdfrwt>
<totfact> 0.11442311E+05</totfact>
</mgrwt>
</event>
<event>
 6    1  0.2852411E-002  0.8976061E+02  0.7546771E-02  0.1401782E+00
         -2   -1    0    0    0  501 -0.00000000000E+00  0.00000000000E+00  0.18655271914E+01  0.18655271914E+01  0.00000000000E+00 0.  1.
          2   -1    0    0  501    0  0.00000000000E+00 -0.00000000000E+00 -0.21233731204E+04  0.21233731204E+04  0.00000000000E+00 0. -1.
         23    2    1    2    0    0  0.28852605235E+00 -0.16830886395E+02 -0.20418427142E+04  0.20438147264E+04  0.88168047505E+02 0.  0.
         11    1    3    3    0    0  0.18142164145E+02  0.32538735493E+02 -0.83471568558E+03  0.83554663734E+03  0.00000000000E+00 0.  1.
        -11    1    3    3    0    0 -0.17853638093E+02 -0.49369621888E+02 -0.12071270286E+04  0.12082680891E+04  0.00000000000E+00 0. -1.
         22    1    1    2    0    0 -0.28852605235E+00  0.16830886395E+02 -0.79664879023E+02  0.81423921140E+02  0.00000000000E+00 0.  1.
<mgrwt>
<rscale>  0 0.59068648E+02</rscale>
<asrwt>0</asrwt>
<pdfrwt beam="1">  1        2 0.32667322E+00 0.89760607E+02</pdfrwt>
<pdfrwt beam="2">  1       -2 0.28700380E-03 0.89760607E+02</pdfrwt>
<totfact> 0.75634294E+04</totfact>
</mgrwt>
</event>
<event>
 6    1  0.2852411E-002  0.9305978E+02  0.7546771E-02  0.1408265E+00
          2   -1    0    0  501    0  0.00000000000E+00  0.00000000000E+00  0.16204621377E+04  0.16204621377E+04  0.00000000000E+00 0. -1.
         -2   -1    0    0    0  501 -0.00000000000E+00 -0.00000000000E+00 -0.20825361029E+01  0.20825361029E+01  0.00000000000E+00 0.  1.
         23    2    1    2    0    0 -0.92419497099E+01 -0.10034847943E+02  0.15514714927E+04  0.15542599256E+04  0.92054395352E+02 0.  0.
         11    1    3    3    0    0 -0.14037999839E+02  0.42048532646E+01  0.38208134821E+02  0.40921972056E+02  0.00000000000E+00 0.  1.
        -11    1    3    3    0    0  0.47960501290E+01 -0.14239701208E+02  0.15132633579E+04  0.15133379535E+04  0.00000000000E+00 0. -1.
         22    1    1    2    0    0  0.92419497099E+01  0.10034847943E+02  0.66908108885E+02  0.68284748240E+02  0.00000000000E+00 0.  1.
<mgrwt>
<rscale>  0 0.57582866E+02</rscale>
<asrwt>0</asrwt>
<pdfrwt beam="1">  1        2 0.24930086E+00 0.93059785E+02</pdfrwt>
<pdfrwt beam="2">  1       -2 0.32039147E-03 0.93059785E+02</pdfrwt>
<totfact> 0.11658799E+05</totfact>
</mgrwt>
</event>
<event>
 6    1  0.2852411E-002  0.1074067E+03  0.7546771E-02  0.1363878E+00
          1   -1    0    0  501    0  0.00000000000E+00  0.00000000000E+00  0.20427079434E+03  0.20427079434E+03  0.00000000000E+00 0. -1.
         -1   -1    0    0    0  501 -0.00000000000E+00 -0.00000000000E+00 -0.19911990790E+02  0.19911990790E+02  0.00000000000E+00 0.  1.
         23    2    1    2    0    0 -0.43308085919E+01  0.17663408405E+02  0.16965397985E+03  0.20079510163E+03  0.10585578897E+03 0.  0.
         11    1    3    3    0    0  0.19980180619E+02  0.19851758215E+02 -0.12146837042E+01  0.28191760823E+02  0.00000000000E+00 0.  1.
        -11    1    3    3    0    0 -0.24310989211E+02 -0.21883498101E+01  0.17086866356E+03  0.17260334081E+03  0.00000000000E+00 0. -1.
         22    1    1    2    0    0  0.43308085919E+01 -0.17663408405E+02  0.14704823694E+02  0.23387683498E+02  0.00000000000E+00 0. -1.
<mgrwt>
<rscale>  0 0.68898749E+02</rscale>
<asrwt>0</asrwt>
<pdfrwt beam="1">  1        1 0.31426275E-01 0.10740670E+03</pdfrwt>
<pdfrwt beam="2">  1       -1 0.30633833E-02 0.10740670E+03</pdfrwt>
<totfact> 0.46488002E+04</totfact>
</mgrwt>
</event>
<event>
 6    1  0.2852411E-002  0.1042526E+03  0.7546771E-02  0.1309673E+00
          2   -1    0    0  501    0  0.00000000000E+00  0.00000000000E+00  0.11208839407E+03  0.11208839407E+03  0.00000000000E+00 0. -1.
         -2   -1    0    0    0  501 -0.00000000000E+00 -0.00000000000E+00 -0.54982701118E+02  0.54982701118E+02  0.00000000000E+00 0.  1.
         23    2    1    2    0    0  0.37337259615E+02 -0.34923987830E+02  0.49415337450E+02  0.11537102314E+03  0.90856158428E+02 0.  0.
         13    1    3    3    0    0 -0.14716327352E+02  0.22310997104E+02  0.15515082334E+02  0.30904185191E+02  0.00000000000E+00 0. -1.
        -13    1    3    3    0    0  0.52053586967E+02 -0.57234984935E+02  0.33900255117E+02  0.84466837952E+02  0.00000000000E+00 0.  1.
         22    1    1    2    0    0 -0.37337259615E+02  0.34923987830E+02  0.76903554994E+01  0.51700072043E+02  0.00000000000E+00 0.  1.
<mgrwt>
<rscale>  0 0.87241513E+02</rscale>
<asrwt>0</asrwt>
<pdfrwt beam="1">  1        2 0.17244368E-01 0.10425257E+03</pdfrwt>
<pdfrwt beam="2">  1       -2 0.84588771E-02 0.10425257E+03</pdfrwt>
<totfact> 0.25624061E+04</totfact>
</mgrwt>
</event>
<event>
 6    1  0.2852411E-002  0.7826447E+02  0.7546771E-02  0.1407986E+00
         -3   -1    0    0    0  501 -0.00000000000E+00  0.00000000000E+00  0.17122445619E+02  0.17122445619E+02  0.00000000000E+00 0.  1.
          3   -1    0    0  501    0  0.00000000000E+00 -0.00000000000E+00 -0.15825954274E+03  0.15825954274E+03  0.00000000000E+00 0. -1.
         23    2    1    2    0    0  0.22978515848E+02  0.15984222420E+01 -0.12415550517E+03  0.14676483250E+03  0.74798124652E+02 0.  0.
         13    1    3    3    0    0 -0.39939043321E+01 -0.47836732343E+01  0.88934467655E+01  0.10859474978E+02  0.00000000000E+00 0.  1.
        -13    1    3    3    0    0  0.26972420180E+02  0.63820954763E+01 -0.13304895193E+03  0.13590535752E+03  0.00000000000E+00 0. -1.
         22    1    1    2    0    0 -0.22978515848E+02 -0.15984222420E+01 -0.16981591957E+02  0.28617155862E+02  0.00000000000E+00 0.  1.
<mgrwt>
<rscale>  0 0.57645580E+02</rscale>
<asrwt>0</asrwt>
<pdfrwt beam="1">  1        3 0.24347623E-01 0.78264466E+02</pdfrwt>
<pdfrwt beam="2">  1       -3 0.26342223E-02 0.78264466E+02</pdfrwt>
<totfact> 0.19294104E+04</totfact>
</mgrwt>
</event>
<event>
 6    1  0.2852411E-002  0.9410933E+02  0.7546771E-02  0.1368803E+00
         -2   -1    0    0    0  501 -0.00000000000E+00  0.00000000000E+00  0.26620170850E+03  0.26620170850E+03  0.00000000000E+00 0. -1.
          2   -1    0    0  501    0  0.00000000000E+00 -0.00000000000E+00 -0.13661227166E+02  0.13661227166E+02  0.00000000000E+00 0.  1.
         23    2    1    2    0    0 -0.14869780229E+02 -0.19982883946E+02  0.21631991947E+03  0.23590437431E+03  0.90753183104E+02 0.  0.
         13    1    3    3    0    0 -0.15949930294E+02 -0.64516199925E+01 -0.18572927271E+01  0.17305294369E+02  0.00000000000E+00 0.  1.
        -13    1    3    3    0    0  0.10801500655E+01 -0.13531263953E+02  0.21817721220E+03  0.21859907994E+03  0.00000000000E+00 0. -1.
         22    1    1    2    0    0  0.14869780229E+02  0.19982883946E+02  0.36220561865E+02  0.43958561358E+02  0.00000000000E+00 0.  1.
<mgrwt>
<rscale>  0 0.67501087E+02</rscale>
<asrwt>0</asrwt>
<pdfrwt beam="1">  1        2 0.21017275E-02 0.94109331E+02</pdfrwt>
<pdfrwt beam="2">  1       -2 0.40954105E-01 0.94109331E+02</pdfrwt>
<totfact> 0.25577205E+04</totfact>
</mgrwt>
</event>
<event>
 6    1  0.2852411E-002  0.8998986E+02  0.7546771E-02  0.1426714E+00
         -4   -1    0    0    0  501 -0.00000000000E+00  0.00000000000E+00  0.25699811027E+02  0.25699811027E+02  0.00000000000E+00 0.  1.
          4   -1    0    0  501    0  0.00000000000E+00 -0.00000000000E+00 -0.16911911285E+03  0.16911911285E+03  0.00000000000E+00 0. -1.
         23    2    1    2    0    0  0.47010290135E+00  0.11337655965E+02 -0.15460328118E+03  0.17888641517E+03  0.89271560647E+02 0.  0.
         11    1    3    3    0    0 -0.38318941999E+02 -0.12261676197E+02 -0.10051076842E+03  0.10826405030E+03  0.00000000000E+00 0. -1.
        -11    1    3    3    0    0  0.38789044901E+02  0.23599332162E+02 -0.54092512765E+02  0.70622364871E+02  0.00000000000E+00 0.  1.
         22    1    1    2    0    0 -0.47010290135E+00 -0.11337655965E+02  0.11183979357E+02  0.15932508709E+02  0.00000000000E+00 0.  1.
<mgrwt>
<rscale>  0 0.53625241E+02</rscale>
<asrwt>0</asrwt>
<pdfrwt beam="1">  1        4 0.26018325E-01 0.89989860E+02</pdfrwt>
<pdfrwt beam="2">  1       -4 0.39538171E-02 0.89989860E+02</pdfrwt>
<totfact> 0.70572862E+03</totfact>
</mgrwt>
</event>
<event>
 6    1  0.2852411E-002  0.9303642E+02  0.7546771E-02  0.1412269E+00
         -3   -1    0    0    0  501 -0.00000000000E+00  0.00000000000E+00  0.53173446493E+02  0.53173446493E+02  0.00000000000E+00 0.  1.
          3   -1    0    0  501    0  0.00000000000E+00 -0.00000000000E+00 -0.54397522353E+02  0.54397522353E+02  0.00000000000E+00 0. -1.
         23    2    1    2    0    0  0.30867686196E+01  0.12448767759E+02 -0.74106748447E+01  0.93331096437E+02  0.92148117188E+02 0.  0.
         13    1    3    3    0    0 -0.12207944834E+01  0.29218813500E+02  0.36125170467E+02  0.46478568640E+02  0.00000000000E+00 0.  1.
        -13    1    3    3    0    0  0.43075631030E+01 -0.16770045742E+02 -0.43535845312E+02  0.46852527798E+02  0.00000000000E+00 0. -1.
         22    1    1    2    0    0 -0.30867686196E+01 -0.12448767759E+02  0.61865989851E+01  0.14239872409E+02  0.00000000000E+00 0. -1.
<mgrwt>
<rscale>  0 0.56690524E+02</rscale>
<asrwt>0</asrwt>
<pdfrwt beam="1">  1        3 0.83688496E-02 0.93036420E+02</pdfrwt>
<pdfrwt beam="2">  1       -3 0.81805302E-02 0.93036420E+02</pdfrwt>
<totfact> 0.20886894E+04</totfact>
</mgrwt>
</event>
<event>
 6    1  0.2852411E-002  0.1051719E+03  0.7546771E-02  0.1309690E+00
          2   -1    0    0  501    0  0.00000000000E+00  0.00000000000E+00  0.75803884969E+03  0.75803884969E+03  0.00000000000E+00 0. -1.
         -2   -1    0    0    0  501 -0.00000000000E+00 -0.00000000000E+00 -0.25498893769E+02  0.25498893769E+02  0.00000000000E+00 0.  1.
         23    2    1    2    0    0  0.33367680158E+01 -0.49668773728E+02  0.72570925426E+03  0.73329055857E+03  0.92644484222E+02 0.  0.
         13    1    3    3    0    0  0.14313312989E+02  0.15775907126E+02  0.50236525172E+02  0.54566094195E+02  0.00000000000E+00 0.  1.
        -13    1    3    3    0    0 -0.10976544973E+02 -0.65444680855E+02  0.67547272909E+03  0.67872446437E+03  0.00000000000E+00 0. -1.
         22    1    1    2    0    0 -0.33367680158E+01  0.49668773728E+02  0.68307016584E+01  0.50247184892E+02  0.00000000000E+00 0.  1.
<mgrwt>
<rscale>  0 0.87234847E+02</rscale>
<asrwt>0</asrwt>
<pdfrwt beam="1">  1        2 0.11662134E+00 0.10517187E+03</pdfrwt>
<pdfrwt beam="2">  1       -2 0.39229073E-02 0.10517187E+03</pdfrwt>
<totfact> 0.10136473E+04</totfact>
</mgrwt>
</event>
<event>
 6    1  0.2852411E-002  0.9277134E+02  0.7546771E-02  0.1388083E+00
         -2   -1    0    0    0  501 -0.00000000000E+00  0.00000000000E+00  0.86298844894E+01  0.86298844894E+01  0.00000000000E+00 0.  1.
          2   -1    0    0  501    0  0.00000000000E+00 -0.00000000000E+00 -0.36220106842E+03  0.36220106842E+03  0.00000000000E+00 0. -1.
         23    2    1    2    0    0  0.18545874016E+02  0.39976944922E+01 -0.28833155671E+03  0.30288877187E+03  0.90810740152E+02 0.  0.
         11    1    3    3    0    0 -0.26005122506E+01 -0.32408719617E+01 -0.27839930887E+03  0.27843031641E+03  0.00000000000E+00 0. -1.
        -11    1    3    3    0    0  0.21146386266E+02  0.72385664539E+01 -0.99322478345E+01  0.24458455460E+02  0.00000000000E+00 0.  1.
         22    1    1    2    0    0 -0.18545874016E+02 -0.39976944922E+01 -0.65239627228E+02  0.67942181045E+02  0.00000000000E+00 0.  1.
<mgrwt>
<rscale>  0 0.62386092E+02</rscale>
<asrwt>0</asrwt>
<pdfrwt beam="1">  1        2 0.55723244E-01 0.92771340E+02</pdfrwt>
<pdfrwt beam="2">  1       -2 0.13276745E-02 0.92771340E+02</pdfrwt>
<totfact> 0.10826322E+05</totfact>
</mgrwt>
</event>
<event>
 6    1  0.2852411E-002  0.9497499E+02  0.7546771E-02  0.1388056E+00
          2   -1    0    0  501    0  0.00000000000E+00  0.00000000000E+00  0.33396855105E+03  0.33396855105E+03  0.00000000000E+00 0. -1.
         -2   -1    0    0    0  501 -0.00000000000E+00 -0.00000000000E+00 -0.12431713040E+02  0.12431713040E+02  0.00000000000E+00 0.  1.
         23    2    1    2    0    0 -0.17673545246E+02 -0.74786110654E+00  0.31234479758E+03  0.32646519185E+03  0.93313104213E+02 0.  0.
         13    1    3    3    0    0 -0.16875781558E+02 -0.45469118638E+02  0.19339784981E+03  0.19938646159E+03  0.00000000000E+00 0. -1.
        -13    1    3    3    0    0 -0.79776368728E+00  0.44721257531E+02  0.11894694777E+03  0.12707873027E+03  0.00000000000E+00 0.  1.
         22    1    1    2    0    0  0.17673545246E+02  0.74786110654E+00  0.91920404258E+01  0.19935072234E+02  0.00000000000E+00 0. -1.
<mgrwt>
<rscale>  0 0.62392873E+02</rscale>
<asrwt>0</asrwt>
<pdfrwt beam="1">  1        2 0.51379770E-01 0.94974991E+02</pdfrwt>
<pdfrwt beam="2">  1       -2 0.19125715E-02 0.94974991E+02</pdfrwt>
<totfact> 0.70180102E+04</totfact>
</mgrwt>
</event>
<event>
 6    1  0.2852411E-002  0.9178792E+02  0.7546771E-02  0.1417787E+00
         -2   -1    0    0    0  501 -0.00000000000E+00  0.00000000000E+00  0.28008665138E+02  0.28008665138E+02  0.00000000000E+00 0.  1.
          2   -1    0    0  501    0  0.00000000000E+00 -0.00000000000E+00 -0.11145955182E+03  0.11145955182E+03  0.00000000000E+00 0. -1.
         23    2    1    2    0    0 -0.12232842723E+02  0.84557457523E+00 -0.87241417411E+02  0.12663367137E+03  0.90965182211E+02 0.  0.
         11    1    3    3    0    0  0.17528125175E+02  0.14860491622E+02  0.91873316226E+01  0.24748261469E+02  0.00000000000E+00 0.  1.
        -11    1    3    3    0    0 -0.29760967898E+02 -0.14014917046E+02 -0.96428749033E+02  0.10188540990E+03  0.00000000000E+00 0. -1.
         22    1    1    2    0    0  0.12232842723E+02 -0.84557457523E+00  0.37905307249E+01  0.12834545595E+02  0.00000000000E+00 0.  1.
<mgrwt>
<rscale>  0 0.55491920E+02</rscale>
<asrwt>0</asrwt>
<pdfrwt beam="1">  1        2 0.17147624E-01 0.91787918E+02</pdfrwt>
<pdfrwt beam="2">  1       -2 0.43090253E-02 0.91787918E+02</pdfrwt>
<totfact> 0.70021989E+04</totfact>
</mgrwt>
</event>
<event>
 6    1  0.2852411E-002  0.9146231E+02  0.7546771E-02  0.1431662E+00
          4   -1    0    0  501    0  0.00000000000E+00  0.00000000000E+00  0.19345862508E+03  0.19345862508E+03  0.00000000000E+00 0.  1.
         -4   -1    0    0    0  501 -0.00000000000E+00 -0.00000000000E+00 -0.13859331139E+02  0.13859331139E+02  0.00000000000E+00 0. -1.
         23    2    1    2    0    0 -0.10021758172E+02 -0.29550731238E+00  0.17174816664E+03  0.19458362619E+03  0.90911120749E+02 0.  0.
         11    1    3    3    0    0 -0.42963532022E+02 -0.66686718440E+01  0.41577770023E+02  0.60158517502E+02  0.00000000000E+00 0.  1.
        -11    1    3    3    0    0  0.32941773850E+02  0.63731645316E+01  0.13017039661E+03  0.13442510869E+03  0.00000000000E+00 0. -1.
         22    1    1    2    0    0  0.10021758172E+02  0.29550731238E+00  0.78511273078E+01  0.12734330035E+02  0.00000000000E+00 0. -1.
<mgrwt>
<rscale>  0 0.52627749E+02</rscale>
<asrwt>0</asrwt>
<pdfrwt beam="1">  1        4 0.29762864E-01 0.91462314E+02</pdfrwt>
<pdfrwt beam="2">  1       -4 0.21322049E-02 0.91462314E+02</pdfrwt>
<totfact> 0.14402087E+04</totfact>
</mgrwt>
</event>
<event>
 6    1  0.2852411E-002  0.9311807E+02  0.7546771E-02  0.1413214E+00
         -2   -1    0    0    0  501 -0.00000000000E+00  0.00000000000E+00  0.29391470382E+02  0.29391470382E+02  0.00000000000E+00 0. -1.
          2   -1    0    0  501    0  0.00000000000E+00 -0.00000000000E+00 -0.96157195190E+02  0.96157195190E+02  0.00000000000E+00 0.  1.
         23    2    1    2    0    0  0.12491895834E+02  0.16894620089E+01 -0.62869784907E+02  0.11235472412E+03  0.92260893307E+02 0.  0.
         13    1    3    3    0    0 -0.35709192114E+02 -0.13092484914E+02 -0.44871030905E+02  0.58821500977E+02  0.00000000000E+00 0.  1.
        -13    1    3    3    0    0  0.48201087948E+02  0.14781946923E+02 -0.17998754003E+02  0.53533223141E+02  0.00000000000E+00 0. -1.
         22    1    1    2    0    0 -0.12491895834E+02 -0.16894620089E+01 -0.38959398999E+01  0.13193941454E+02  0.00000000000E+00 0. -1.
<mgrwt>
<rscale>  0 0.56482842E+02</rscale>
<asrwt>0</asrwt>
<pdfrwt beam="1">  1        2 0.14793415E-01 0.93118066E+02</pdfrwt>
<pdfrwt beam="2">  1       -2 0.45217646E-02 0.93118066E+02</pdfrwt>
<totfact> 0.77427064E+04</totfact>
</mgrwt>
</event>
<event>
 6    1  0.2852411E-002  0.9332669E+02  0.7546771E-02  0.1415000E+00
          2   -1    0    0  501    0  0.00000000000E+00  0.00000000000E+00  0.15220416944E+04  0.15220416944E+04  0.00000000000E+00 0. -1.
         -2   -1    0    0    0  501 -0.00000000000E+00 -0.00000000000E+00 -0.33897602347E+01  0.33897602347E+01  0.00000000000E+00 0.  1.
         23    2    1    2    0    0 -0.11512593565E+02  0.39736829880E+01  0.15014875679E+04  0.15043851857E+04  0.92528592296E+02 0.  0.
         11    1    3    3    0    0  0.23399733679E+02  0.26794747506E+02  0.28911501132E+03  0.29129537552E+03  0.00000000000E+00 0.  1.
        -11    1    3    3    0    0 -0.34912327244E+02 -0.22821064518E+02  0.12123725566E+04  0.12130898102E+04  0.00000000000E+00 0. -1.
         22    1    1    2    0    0  0.11512593565E+02 -0.39736829880E+01  0.17164366239E+02  0.21046268920E+02  0.00000000000E+00 0.  1.
<mgrwt>
<rscale>  0 0.56092913E+02</rscale>
<asrwt>0</asrwt>
<pdfrwt beam="1">  1        2 0.23415971E+00 0.93326686E+02</pdfrwt>
<pdfrwt beam="2">  1       -2 0.52150279E-03 0.93326686E+02</pdfrwt>
<totfact> 0.66197781E+04</totfact>
</mgrwt>
</event>
<event>
 6    1  0.2852411E-002  0.9288510E+02  0.7546771E-02  0.1385828E+00
          2   -1    0    0  501    0  0.00000000000E+00  0.00000000000E+00  0.65428014259E+03  0.65428014259E+03  0.00000000000E+00 0. -1.
         -2   -1    0    0    0  501 -0.00000000000E+00 -0.00000000000E+00 -0.18562801324E+02  0.18562801324E+02  0.00000000000E+00 0.  1.
         23    2    1    2    0    0 -0.62515498555E+01 -0.18579324903E+02  0.64464530887E+03  0.65130270726E+03  0.90793001131E+02 0.  0.
         13    1    3    3    0    0 -0.10414150908E+02  0.35848900296E+02  0.21701274450E+03  0.22020020315E+03  0.00000000000E+00 0.  1.
        -13    1    3    3    0    0  0.41626010522E+01 -0.54428225200E+02  0.42763256437E+03  0.43110250411E+03  0.00000000000E+00 0. -1.
         22    1    1    2    0    0  0.62515498555E+01  0.18579324903E+02 -0.89279676015E+01  0.21540236650E+02  0.00000000000E+00 0.  1.
<mgrwt>
<rscale>  0 0.62956353E+02</rscale>
<asrwt>0</asrwt>
<pdfrwt beam="1">  1        2 0.10065847E+00 0.92885102E+02</pdfrwt>
<pdfrwt beam="2">  1       -2 0.28558161E-02 0.92885102E+02</pdfrwt>
<totfact> 0.18983007E+04</totfact>
</mgrwt>
</event>
<event>
 6    1  0.2852411E-002  0.9693729E+02  0.7546771E-02  0.1378484E+00
          2   -1    0    0  501    0  0.00000000000E+00  0.00000000000E+00  0.63008121577E+03  0.63008121577E+03  0.00000000000E+00 0. -1.
         -2   -1    0    0    0  501 -0.00000000000E+00 -0.00000000000E+00 -0.61171671845E+01  0.61171671845E+01  0.00000000000E+00 0.  1.
         23    2    1    2    0    0 -0.19432033262E+02 -0.20484179761E+00  0.58116577197E+03  0.58919478354E+03  0.94969429616E+02 0.  0.
         13    1    3    3    0    0  0.11965666479E+02 -0.24089576877E+01  0.52230007798E+03  0.52244267792E+03  0.00000000000E+00 0. -1.
        -13    1    3    3    0    0 -0.31397699741E+02  0.22041158901E+01  0.58865693994E+02  0.66752105625E+02  0.00000000000E+00 0.  1.
         22    1    1    2    0    0  0.19432033262E+02  0.20484179761E+00  0.42798276612E+02  0.47003599413E+02  0.00000000000E+00 0. -1.
<mgrwt>
<rscale>  0 0.64864004E+02</rscale>
<asrwt>0</asrwt>
<pdfrwt beam="1">  1        2 0.96935520E-01 0.96937291E+02</pdfrwt>
<pdfrwt beam="2">  1       -2 0.94110314E-03 0.96937291E+02</pdfrwt>
<totfact> 0.97633536E+04</totfact>
</mgrwt>
</event>
<event>
 6    1  0.2852411E-002  0.8970348E+02  0.7546771E-02  0.1417102E+00
         -2   -1    0    0    0  501 -0.00000000000E+00  0.00000000000E+00  0.78085666054E+01  0.78085666054E+01  0.00000000000E+00 0.  1.
          2   -1    0    0  501    0  0.00000000000E+00 -0.00000000000E+00 -0.68094762571E+03  0.68094762571E+03  0.00000000000E+00 0. -1.
         23    2    1    2    0    0 -0.34418834990E+01 -0.12822524126E+02 -0.66879958782E+03  0.67478856195E+03  0.88715562265E+02 0.  0.
         13    1    3    3    0    0  0.20372563479E+02 -0.11216145667E+02 -0.62028030277E+03  0.62071611649E+03  0.00000000000E+00 0. -1.
        -13    1    3    3    0    0 -0.23814446978E+02 -0.16063784587E+01 -0.48519285052E+02  0.54072445465E+02  0.00000000000E+00 0.  1.
         22    1    1    2    0    0  0.34418834990E+01  0.12822524126E+02 -0.43394712882E+01  0.13967630366E+02  0.00000000000E+00 0.  1.
<mgrwt>
<rscale>  0 0.55638746E+02</rscale>
<asrwt>0</asrwt>
<pdfrwt beam="1">  1        2 0.10476118E+00 0.89703482E+02</pdfrwt>
<pdfrwt beam="2">  1       -2 0.12013179E-02 0.89703482E+02</pdfrwt>
<totfact> 0.62547001E+04</totfact>
</mgrwt>
</event>
<event>
 6    1  0.2852411E-002  0.9351708E+02  0.7546771E-02  0.1376204E+00
         -2   -1    0    0    0  501 -0.00000000000E+00  0.00000000000E+00  0.17368360327E+03  0.17368360327E+03  0.00000000000E+00 0.  1.
          2   -1    0    0  501    0  0.00000000000E+00 -0.00000000000E+00 -0.24183713043E+02  0.24183713043E+02  0.00000000000E+00 0. -1.
         23    2    1    2    0    0  0.73103518851E+00 -0.22455638050E+02  0.74470613459E+02  0.11954629446E+03  0.90778048868E+02 0.  0.
         13    1    3    3    0    0  0.20412639564E+02 -0.52774807885E+02  0.52846180506E+02  0.77424640750E+02  0.00000000000E+00 0. -1.
        -13    1    3    3    0    0 -0.19681604376E+02  0.30319169835E+02  0.21624432953E+02  0.42121653705E+02  0.00000000000E+00 0.  1.
         22    1    1    2    0    0 -0.73103518851E+00  0.22455638050E+02  0.75029276772E+02  0.78321021863E+02  0.00000000000E+00 0.  1.
<mgrwt>
<rscale>  0 0.65472218E+02</rscale>
<asrwt>0</asrwt>
<pdfrwt beam="1">  1        2 0.37205714E-02 0.93517080E+02</pdfrwt>
<pdfrwt beam="2">  1       -2 0.26720554E-01 0.93517080E+02</pdfrwt>
<totfact> 0.25915596E+04</totfact>
</mgrwt>
</event>
<event>
 6    1  0.2852411E-002  0.9526824E+02  0.7546771E-02  0.1382121E+00
          2   -1    0    0  501    0  0.00000000000E+00  0.00000000000E+00  0.10237926830E+03  0.10237926830E+03  0.00000000000E+00 0.  1.
         -2   -1    0    0    0  501 -0.00000000000E+00 -0.00000000000E+00 -0.41377833315E+02  0.41377833315E+02  0.00000000000E+00 0. -1.
         23    2    1    2    0    0  0.98661533187E+01  0.16580246434E+02  0.73881546567E+02  0.12055919595E+03  0.93294111560E+02 0.  0.
         13    1    3    3    0    0  0.33015912209E+02  0.73048639228E+01  0.86308218165E+02  0.92695846825E+02  0.00000000000E+00 0.  1.
        -13    1    3    3    0    0 -0.23149758890E+02  0.92753825117E+01 -0.12426671598E+02  0.27863349124E+02  0.00000000000E+00 0. -1.
         22    1    1    2    0    0 -0.98661533187E+01 -0.16580246434E+02 -0.12880111578E+02  0.23197905669E+02  0.00000000000E+00 0. -1.
<mgrwt>
<rscale>  0 0.63909406E+02</rscale>
<asrwt>0</asrwt>
<pdfrwt beam="1">  1        2 0.15750657E-01 0.95268236E+02</pdfrwt>
<pdfrwt beam="2">  1       -2 0.63658205E-02 0.95268236E+02</pdfrwt>
<totfact> 0.43356590E+04</totfact>
</mgrwt>
</event>
<event>
 6    1  0.2852411E-002  0.9167411E+02  0.7546771E-02  0.1415980E+00
         -3   -1    0    0    0  501 -0.00000000000E+00  0.00000000000E+00  0.94780866648E+02  0.94780866648E+02  0.00000000000E+00 0.  1.
          3   -1    0    0  501    0  0.00000000000E+00 -0.00000000000E+00 -0.33474552857E+02  0.33474552857E+02  0.00000000000E+00 0. -1.
         23    2    1    2    0    0  0.12617389752E+02 -0.98982213513E+00  0.33322104398E+02  0.97542323807E+02  0.90796277567E+02 0.  0.
         11    1    3    3    0    0  0.11746016696E+02 -0.44393889372E+02  0.28049703706E+02  0.53810521274E+02  0.00000000000E+00 0. -1.
        -11    1    3    3    0    0  0.87137305626E+00  0.43404067237E+02  0.52724006927E+01  0.43731802533E+02  0.00000000000E+00 0.  1.
         22    1    1    2    0    0 -0.12617389752E+02  0.98982213513E+00  0.27984209393E+02  0.30713095698E+02  0.00000000000E+00 0.  1.
<mgrwt>
<rscale>  0 0.55880525E+02</rscale>
<asrwt>0</asrwt>
<pdfrwt beam="1">  1        3 0.51499312E-02 0.91674109E+02</pdfrwt>
<pdfrwt beam="2">  1       -3 0.14581672E-01 0.91674109E+02</pdfrwt>
<totfact> 0.17371574E+04</totfact>
</mgrwt>
</event>
<event>
 6    1  0.2852411E-002  0.9602919E+02  0.7546771E-02  0.1359891E+00
          2   -1    0    0  501    0  0.00000000000E+00  0.00000000000E+00  0.19339968560E+03  0.19339968560E+03  0.00000000000E+00 0. -1.
         -2   -1    0    0    0  501 -0.00000000000E+00 -0.00000000000E+00 -0.39150443490E+02  0.39150443490E+02  0.00000000000E+00 0.  1.
         23    2    1    2    0    0  0.27135241168E+02 -0.19554583070E+01  0.17413048753E+03  0.19885429774E+03  0.92094841942E+02 0.  0.
         11    1    3    3    0    0  0.19866796664E+02  0.10015618644E+02  0.18161650808E+03  0.18297420100E+03  0.00000000000E+00 0. -1.
        -11    1    3    3    0    0  0.72684445044E+01 -0.11971076951E+02 -0.74860205452E+01  0.15880096740E+02  0.00000000000E+00 0.  1.
         22    1    1    2    0    0 -0.27135241168E+02  0.19554583070E+01 -0.19881245424E+02  0.33695831346E+02  0.00000000000E+00 0.  1.
<mgrwt>
<rscale>  0 0.70059503E+02</rscale>
<asrwt>0</asrwt>
<pdfrwt beam="1">  1        2 0.29753797E-01 0.96029188E+02</pdfrwt>
<pdfrwt beam="2">  1       -2 0.60231453E-02 0.96029188E+02</pdfrwt>
<totfact> 0.23288079E+04</totfact>
</mgrwt>
</event>
<event>
 6    1  0.2852411E-002  0.8178773E+02  0.7546771E-02  0.1357738E+00
          2   -1    0    0  501    0  0.00000000000E+00  0.00000000000E+00  0.59776573183E+03  0.59776573183E+03  0.00000000000E+00 0. -1.
         -2   -1    0    0    0  501 -0.00000000000E+00 -0.00000000000E+00 -0.85904648483E+01  0.85904648483E+01  0.00000000000E+00 0.  1.
         23    2    1    2    0    0 -0.45570545864E+02 -0.28693490753E+01  0.49481606934E+03  0.50152983552E+03  0.67855181257E+02 0.  0.
         13    1    3    3    0    0  0.40728021464E+01  0.24426815403E+02  0.12941556843E+03  0.13176360036E+03  0.00000000000E+00 0.  1.
        -13    1    3    3    0    0 -0.49643348010E+02 -0.27296164479E+02  0.36540050091E+03  0.36976623515E+03  0.00000000000E+00 0. -1.
         22    1    1    2    0    0  0.45570545864E+02  0.28693490753E+01  0.94359197639E+02  0.10482636116E+03  0.00000000000E+00 0.  1.
<mgrwt>
<rscale>  0 0.70697163E+02</rscale>
<asrwt>0</asrwt>
<pdfrwt beam="1">  1        2 0.91963926E-01 0.81787734E+02</pdfrwt>
<pdfrwt beam="2">  1       -2 0.13216104E-02 0.81787734E+02</pdfrwt>
<totfact> 0.62563954E+04</totfact>
</mgrwt>
</event>
<event>
 6    1  0.2852411E-002  0.9778559E+02  0.7546771E-02  0.1338155E+00
         -1   -1    0    0    0  501 -0.00000000000E+00  0.00000000000E+00  0.15580286694E+03  0.15580286694E+03  0.00000000000E+00 0.  1.
          1   -1    0    0  501    0  0.00000000000E+00 -0.00000000000E+00 -0.34969129023E+02  0.34969129023E+02  0.00000000000E+00 0. -1.
         23    2    1    2    0    0  0.15607553897E+02 -0.33939233341E+02  0.48031522049E+02  0.10894516703E+03  0.90368993631E+02 0.  0.
         11    1    3    3    0    0 -0.35852274363E+01  0.29658663611E+02  0.64161961464E+01  0.30555813783E+02  0.00000000000E+00 0. -1.
        -11    1    3    3    0    0  0.19192781333E+02 -0.63597896952E+02  0.41615325902E+02  0.78389353244E+02  0.00000000000E+00 0.  1.
         22    1    1    2    0    0 -0.15607553897E+02  0.33939233341E+02  0.72802215873E+02  0.81826828940E+02  0.00000000000E+00 0. -1.
<mgrwt>
<rscale>  0 0.76876945E+02</rscale>
<asrwt>0</asrwt>
<pdfrwt beam="1">  1        1 0.53798661E-02 0.97785594E+02</pdfrwt>
<pdfrwt beam="2">  1       -1 0.23969671E-01 0.97785594E+02</pdfrwt>
<totfact> 0.20049963E+04</totfact>
</mgrwt>
</event>
<event>
 6    1  0.2852411E-002  0.1020239E+03  0.7546771E-02  0.1361514E+00
         -2   -1    0    0    0  501 -0.00000000000E+00  0.00000000000E+00  0.52837442784E+01  0.52837442784E+01  0.00000000000E+00 0.  1.
          2   -1    0    0  501    0  0.00000000000E+00 -0.00000000000E+00 -0.75577262121E+03  0.75577262121E+03  0.00000000000E+00 0. -1.
         23    2    1    2    0    0  0.15148541493E+02  0.16058860870E+02 -0.66411046064E+03  0.67190146589E+03  0.99606779933E+02 0.  0.
         11    1    3    3    0    0 -0.23202850017E+02 -0.30214735212E+02 -0.35213344180E+03  0.35418817499E+03  0.00000000000E+00 0. -1.
        -11    1    3    3    0    0  0.38351391510E+02  0.46273596082E+02 -0.31197701884E+03  0.31771329089E+03  0.00000000000E+00 0.  1.
         22    1    1    2    0    0 -0.15148541493E+02 -0.16058860870E+02 -0.86378416293E+02  0.89154899603E+02  0.00000000000E+00 0.  1.
<mgrwt>
<rscale>  0 0.69583820E+02</rscale>
<asrwt>0</asrwt>
<pdfrwt beam="1">  1        2 0.11627275E+00 0.10202390E+03</pdfrwt>
<pdfrwt beam="2">  1       -2 0.81288349E-03 0.10202390E+03</pdfrwt>
<totfact> 0.97819793E+04</totfact>
</mgrwt>
</event>
<event>
 6    1  0.2852411E-002  0.9348083E+02  0.7546771E-02  0.1393160E+00
          1   -1    0    0  501    0  0.00000000000E+00  0.00000000000E+00  0.91098490064E+03  0.91098490064E+03  0.00000000000E+00 0. -1.
         -1   -1    0    0    0  501 -0.00000000000E+00 -0.00000000000E+00 -0.34134067604E+01  0.34134067604E+01  0.00000000000E+00 0.  1.
         23    2    1    2    0    0 -0.35783458382E+01  0.16712706649E+02  0.80543217426E+03  0.81083885716E+03  0.91905091367E+02 0.  0.
         11    1    3    3    0    0 -0.45407805175E+02  0.55475117886E+01  0.28933666462E+03  0.29293062174E+03  0.00000000000E+00 0.  1.
        -11    1    3    3    0    0  0.41829459337E+02  0.11165194861E+02  0.51609550964E+03  0.51790823542E+03  0.00000000000E+00 0. -1.
         22    1    1    2    0    0  0.35783458382E+01 -0.16712706649E+02  0.10213931962E+03  0.10355945025E+03  0.00000000000E+00 0. -1.
<mgrwt>
<rscale>  0 0.61127538E+02</rscale>
<asrwt>0</asrwt>
<pdfrwt beam="1">  1        1 0.14015133E+00 0.93480827E+02</pdfrwt>
<pdfrwt beam="2">  1       -1 0.52514023E-03 0.93480827E+02</pdfrwt>
<totfact> 0.79362032E+04</totfact>
</mgrwt>
</event>
<event>
 6    1  0.2852411E-002  0.9450553E+02  0.7546771E-02  0.1361131E+00
          2   -1    0    0  501    0  0.00000000000E+00  0.00000000000E+00  0.95556791468E+02  0.95556791468E+02  0.00000000000E+00 0. -1.
         -2   -1    0    0    0  501 -0.00000000000E+00 -0.00000000000E+00 -0.52134464038E+02  0.52134464038E+02  0.00000000000E+00 0.  1.
         23    2    1    2    0    0  0.27939299561E+02 -0.92021208658E+00  0.62985419686E+02  0.11357138111E+03  0.90276487880E+02 0.  0.
         13    1    3    3    0    0  0.45789919021E+01 -0.81180002876E+01 -0.22662132595E+02  0.24503904775E+02  0.00000000000E+00 0.  1.
        -13    1    3    3    0    0  0.23360307659E+02  0.71977882011E+01  0.85647552280E+02  0.89067476334E+02  0.00000000000E+00 0. -1.
         22    1    1    2    0    0 -0.27939299561E+02  0.92021208658E+00 -0.19563092256E+02  0.34119874397E+02  0.00000000000E+00 0.  1.
<mgrwt>
<rscale>  0 0.69695648E+02</rscale>
<asrwt>0</asrwt>
<pdfrwt beam="1">  1        2 0.14701045E-01 0.94505532E+02</pdfrwt>
<pdfrwt beam="2">  1       -2 0.80206868E-02 0.94505532E+02</pdfrwt>
<totfact> 0.33024634E+04</totfact>
</mgrwt>
</event>
<event>
 6    1  0.2852411E-002  0.1041680E+03  0.7546771E-02  0.1312024E+00
         -2   -1    0    0    0  501 -0.00000000000E+00  0.00000000000E+00  0.73245678699E+01  0.73245678699E+01  0.00000000000E+00 0. -1.
          2   -1    0    0  501    0  0.00000000000E+00 -0.00000000000E+00 -0.97386339152E+03  0.97386339152E+03  0.00000000000E+00 0.  1.
         23    2    1    2    0    0 -0.44425229128E+02 -0.20936543487E+02 -0.82109508917E+03  0.82767633203E+03  0.91864167672E+02 0.  0.
         11    1    3    3    0    0 -0.65007485185E+02  0.98957864586E+01 -0.45852715409E+03  0.46321814597E+03  0.00000000000E+00 0. -1.
        -11    1    3    3    0    0  0.20582256057E+02 -0.30832329946E+02 -0.36256793508E+03  0.36445818606E+03  0.00000000000E+00 0.  1.
         22    1    1    2    0    0  0.44425229128E+02  0.20936543487E+02 -0.14544373448E+03  0.15351162737E+03  0.00000000000E+00 0.  1.
<mgrwt>
<rscale>  0 0.86317022E+02</rscale>
<asrwt>0</asrwt>
<pdfrwt beam="1">  1        2 0.14982517E+00 0.10416797E+03</pdfrwt>
<pdfrwt beam="2">  1       -2 0.11268564E-02 0.10416797E+03</pdfrwt>
<totfact> 0.44743864E+04</totfact>
</mgrwt>
</event>
<event>
 6    1  0.2852411E-002  0.1602094E+03  0.7546771E-02  0.1196741E+00
         -4   -1    0    0    0  501 -0.00000000000E+00  0.00000000000E+00  0.12312428878E+04  0.12312428878E+04  0.00000000000E+00 0.  1.
          4   -1    0    0  501    0  0.00000000000E+00 -0.00000000000E+00 -0.29529484714E+02  0.29529484714E+02  0.00000000000E+00 0. -1.
         23    2    1    2    0    0  0.83734702204E+02  0.10401456806E+03  0.10342694229E+04  0.10466041740E+04  0.88524162370E+02 0.  0.
         13    1    3    3    0    0  0.12705994834E+02  0.46823229056E+02  0.15013929282E+03  0.15778359969E+03  0.00000000000E+00 0. -1.
        -13    1    3    3    0    0  0.71028707370E+02  0.57191339003E+02  0.88413013005E+03  0.88882057435E+03  0.00000000000E+00 0.  1.
         22    1    1    2    0    0 -0.83734702204E+02 -0.10401456806E+03  0.16744398018E+03  0.21416819844E+03  0.00000000000E+00 0. -1.
<mgrwt>
<rscale>  0 0.15307757E+03</rscale>
<asrwt>0</asrwt>
<pdfrwt beam="1">  1        4 0.45429986E-02 0.16020942E+03</pdfrwt>
<pdfrwt beam="2">  1       -4 0.18942194E+00 0.16020942E+03</pdfrwt>
<totfact> 0.81864573E+01</totfact>
</mgrwt>
</event>
<event>
 6    1  0.2852411E-002  0.9341087E+02  0.7546771E-02  0.1387269E+00
          2   -1    0    0  501    0  0.00000000000E+00  0.00000000000E+00  0.23590249401E+02  0.23590249401E+02  0.00000000000E+00 0. -1.
         -2   -1    0    0    0  501 -0.00000000000E+00 -0.00000000000E+00 -0.18977736377E+03  0.18977736377E+03  0.00000000000E+00 0.  1.
         23    2    1    2    0    0 -0.14006833340E+02 -0.12585119908E+02 -0.73703621066E+02  0.11898661319E+03  0.91493244217E+02 0.  0.
         13    1    3    3    0    0  0.35517648056E+02  0.84561058891E+01 -0.45169641607E+02  0.58080165058E+02  0.00000000000E+00 0. -1.
        -13    1    3    3    0    0 -0.49524481396E+02 -0.21041225797E+02 -0.28533979459E+02  0.60906448134E+02  0.00000000000E+00 0.  1.
         22    1    1    2    0    0  0.14006833340E+02  0.12585119908E+02 -0.92483493307E+02  0.94380999982E+02  0.00000000000E+00 0.  1.
<mgrwt>
<rscale>  0 0.62590990E+02</rscale>
<asrwt>0</asrwt>
<pdfrwt beam="1">  1        2 0.36292691E-02 0.93410869E+02</pdfrwt>
<pdfrwt beam="2">  1       -2 0.29196518E-01 0.93410869E+02</pdfrwt>
<totfact> 0.22901738E+04</totfact>
</mgrwt>
</event>
<event>
 6    1  0.2852411E-002  0.9435468E+02  0.7546771E-02  0.1420380E+00
         -2   -1    0    0    0  501 -0.00000000000E+00  0.00000000000E+00  0.60623339139E+01  0.60623339139E+01  0.00000000000E+00 0.  1.
          2   -1    0    0  501    0  0.00000000000E+00 -0.00000000000E+00 -0.46500477274E+03  0.46500477274E+03  0.00000000000E+00 0. -1.
         23    2    1    2    0    0 -0.66512900450E+01 -0.85676203549E+01 -0.42804953622E+03  0.43832546331E+03  0.93729197930E+02 0.  0.
         13    1    3    3    0    0 -0.69654920150E+01 -0.26717687237E+02 -0.41512372159E+03  0.41604093202E+03  0.00000000000E+00 0. -1.
        -13    1    3    3    0    0  0.31420196999E+00  0.18150066883E+02 -0.12925814635E+02  0.22284531287E+02  0.00000000000E+00 0.  1.
         22    1    1    2    0    0  0.66512900450E+01  0.85676203549E+01 -0.30892902599E+02  0.32741643343E+02  0.00000000000E+00 0. -1.
<mgrwt>
<rscale>  0 0.54940640E+02</rscale>
<asrwt>0</asrwt>
<pdfrwt beam="1">  1        2 0.71539214E-01 0.94354684E+02</pdfrwt>
<pdfrwt beam="2">  1       -2 0.93266652E-03 0.94354684E+02</pdfrwt>
<totfact> 0.13756623E+05</totfact>
</mgrwt>
</event>
<event>
 6    1  0.2852411E-002  0.1168452E+03  0.7546771E-02  0.1346038E+00
          1   -1    0    0  501    0  0.00000000000E+00  0.00000000000E+00  0.65406564057E+03  0.65406564057E+03  0.00000000000E+00 0.  1.
         -1   -1    0    0    0  501 -0.00000000000E+00 -0.00000000000E+00 -0.15229106813E+02  0.15229106813E+02  0.00000000000E+00 0. -1.
         23    2    1    2    0    0 -0.20228635392E+00 -0.19107492876E+02  0.63958592935E+03  0.65017149459E+03  0.11527217420E+03 0.  0.
         11    1    3    3    0    0 -0.41991930142E+02  0.90769779782E+01  0.10845630694E+03  0.11665540811E+03  0.00000000000E+00 0. -1.
        -11    1    3    3    0    0  0.41789643788E+02 -0.28184470854E+02  0.53112962242E+03  0.53351608648E+03  0.00000000000E+00 0.  1.
         22    1    1    2    0    0  0.20228635392E+00  0.19107492876E+02 -0.74939559509E+00  0.19123252797E+02  0.00000000000E+00 0. -1.
<mgrwt>
<rscale>  0 0.74304530E+02</rscale>
<asrwt>0</asrwt>
<pdfrwt beam="1">  1        1 0.10062546E+00 0.11684525E+03</pdfrwt>
<pdfrwt beam="2">  1       -1 0.23429400E-02 0.11684525E+03</pdfrwt>
<totfact> 0.15854287E+04</totfact>
</mgrwt>
</event>
<event>
 6    1  0.2852411E-002  0.9680345E+02  0.7546771E-02  0.1343075E+00
         -2   -1    0    0    0  501 -0.00000000000E+00  0.00000000000E+00  0.28018544048E+02  0.28018544048E+02  0.00000000000E+00 0.  1.
          2   -1    0    0  501    0  0.00000000000E+00 -0.00000000000E+00 -0.16098064529E+03  0.16098064529E+03  0.00000000000E+00 0. -1.
         23    2    1    2    0    0 -0.12246294815E+02 -0.33173074013E+02 -0.11139568650E+03  0.14758017413E+03  0.90113729527E+02 0.  0.
         13    1    3    3    0    0  0.13708831745E+02  0.24805258580E+02 -0.58166512483E+02  0.64703756425E+02  0.00000000000E+00 0. -1.
        -13    1    3    3    0    0 -0.25955126560E+02 -0.57978332593E+02 -0.53229174012E+02  0.82876417701E+02  0.00000000000E+00 0.  1.
         22    1    1    2    0    0  0.12246294815E+02  0.33173074013E+02 -0.21566414748E+02  0.41419015213E+02  0.00000000000E+00 0. -1.
<mgrwt>
<rscale>  0 0.75257594E+02</rscale>
<asrwt>0</asrwt>
<pdfrwt beam="1">  1        2 0.24766253E-01 0.96803455E+02</pdfrwt>
<pdfrwt beam="2">  1       -2 0.43105452E-02 0.96803455E+02</pdfrwt>
<totfact> 0.46795669E+04</totfact>
</mgrwt>
</event>
<event>
 6    1  0.2852411E-002  0.9097957E+02  0.7546771E-02  0.1416826E+00
         -2   -1    0    0    0  501 -0.00000000000E+00  0.00000000000E+00  0.13262859222E+03  0.13262859222E+03  0.00000000000E+00 0.  1.
          2   -1    0    0  501    0  0.00000000000E+00 -0.00000000000E+00 -0.33406732608E+02  0.33406732608E+02  0.00000000000E+00 0. -1.
         23    2    1    2    0    0 -0.10199322402E+02  0.77007829449E+01  0.30230954846E+02  0.95870709986E+02  0.90077489790E+02 0.  0.
         11    1    3    3    0    0 -0.66462525858E+01 -0.96725287156E+01 -0.30459750615E+02  0.32642409420E+02  0.00000000000E+00 0. -1.
        -11    1    3    3    0    0 -0.35530698161E+01  0.17373311661E+02  0.60690705461E+02  0.63228300566E+02  0.00000000000E+00 0.  1.
         22    1    1    2    0    0  0.10199322402E+02 -0.77007829449E+01  0.68990904770E+02  0.70164614845E+02  0.00000000000E+00 0. -1.
<mgrwt>
<rscale>  0 0.55698125E+02</rscale>
<asrwt>0</asrwt>
<pdfrwt beam="1">  1        2 0.51394974E-02 0.90979571E+02</pdfrwt>
<pdfrwt beam="2">  1       -2 0.20404399E-01 0.90979571E+02</pdfrwt>
<totfact> 0.26925611E+04</totfact>
</mgrwt>
</event>
<event>
 6    1  0.2852411E-002  0.9019366E+02  0.7546771E-02  0.1417623E+00
         -1   -1    0    0    0  501 -0.00000000000E+00  0.00000000000E+00  0.61856849810E+02  0.61856849810E+02  0.00000000000E+00 0.  1.
          1   -1    0    0  501    0  0.00000000000E+00 -0.00000000000E+00 -0.45847071389E+02  0.45847071389E+02  0.00000000000E+00 0. -1.
         23    2    1    2    0    0 -0.12678117212E+01  0.12894267004E+02  0.43903365984E+01  0.90300447511E+02  0.89258200168E+02 0.  0.
         11    1    3    3    0    0  0.11342769084E+02  0.42553119446E+02 -0.21456487292E+02  0.48987827386E+02  0.00000000000E+00 0. -1.
        -11    1    3    3    0    0 -0.12610580805E+02 -0.29658852443E+02  0.25846823890E+02  0.41312620126E+02  0.00000000000E+00 0.  1.
         22    1    1    2    0    0  0.12678117212E+01 -0.12894267004E+02  0.11619441823E+02  0.17403473688E+02  0.00000000000E+00 0.  1.
<mgrwt>
<rscale>  0 0.55526904E+02</rscale>
<asrwt>0</asrwt>
<pdfrwt beam="1">  1        1 0.70533956E-02 0.90193657E+02</pdfrwt>
<pdfrwt beam="2">  1       -1 0.95164384E-02 0.90193657E+02</pdfrwt>
<totfact> 0.58077352E+04</totfact>
</mgrwt>
</event>
<event>
 6    1  0.2852411E-002  0.9254717E+02  0.7546771E-02  0.1392011E+00
         -2   -1    0    0    0  501 -0.00000000000E+00  0.00000000000E+00  0.38844945753E+02  0.38844945753E+02  0.00000000000E+00 0.  1.
          2   -1    0    0  501    0  0.00000000000E+00 -0.00000000000E+00 -0.82158520555E+02  0.82158520555E+02  0.00000000000E+00 0. -1.
         23    2    1    2    0    0 -0.16789411048E+02  0.63237919591E+01 -0.45141767009E+02  0.10296969369E+03  0.90791541577E+02 0.  0.
         11    1    3    3    0    0  0.17094230497E+02  0.19430894236E+02 -0.58731585297E+02  0.64180771876E+02  0.00000000000E+00 0.  1.
        -11    1    3    3    0    0 -0.33883641545E+02 -0.13107102277E+02  0.13589818288E+02  0.38788921815E+02  0.00000000000E+00 0. -1.
         22    1    1    2    0    0  0.16789411048E+02 -0.63237919591E+01  0.18281922060E+01  0.18033772618E+02  0.00000000000E+00 0.  1.
<mgrwt>
<rscale>  0 0.61409167E+02</rscale>
<asrwt>0</asrwt>
<pdfrwt beam="1">  1        2 0.12639772E-01 0.92547170E+02</pdfrwt>
<pdfrwt beam="2">  1       -2 0.59761456E-02 0.92547170E+02</pdfrwt>
<totfact> 0.61382278E+04</totfact>
</mgrwt>
</event>
<event>
 6    1  0.2852411E-002  0.9248064E+02  0.7546771E-02  0.1404722E+00
         -2   -1    0    0    0  501 -0.00000000000E+00  0.00000000000E+00  0.31771541133E+01  0.31771541133E+01  0.00000000000E+00 0.  1.
          2   -1    0    0  501    0  0.00000000000E+00 -0.00000000000E+00 -0.10003886228E+04  0.10003886228E+04  0.00000000000E+00 0. -1.
         23    2    1    2    0    0  0.10339693041E+02 -0.10441100187E+02 -0.93841258881E+03  0.94295856529E+03  0.91305767635E+02 0.  0.
         13    1    3    3    0    0 -0.20168785309E+02 -0.41196142936E+02 -0.60630498449E+03  0.60803752870E+03  0.00000000000E+00 0.  1.
        -13    1    3    3    0    0  0.30508478350E+02  0.30755042749E+02 -0.33210760432E+03  0.33492103659E+03  0.00000000000E+00 0. -1.
         22    1    1    2    0    0 -0.10339693041E+02  0.10441100187E+02 -0.58798879904E+02  0.60607211644E+02  0.00000000000E+00 0. -1.
<mgrwt>
<rscale>  0 0.58388349E+02</rscale>
<asrwt>0</asrwt>
<pdfrwt beam="1">  1        2 0.15390606E+00 0.92480641E+02</pdfrwt>
<pdfrwt beam="2">  1       -2 0.48879256E-03 0.92480641E+02</pdfrwt>
<totfact> 0.13836546E+05</totfact>
</mgrwt>
</event>
<event>
 6    1  0.2852411E-002  0.9279925E+02  0.7546771E-02  0.1418195E+00
         -2   -1    0    0    0  501 -0.00000000000E+00  0.00000000000E+00  0.55634752551E+01  0.55634752551E+01  0.00000000000E+00 0.  1.
          2   -1    0    0  501    0  0.00000000000E+00 -0.00000000000E+00 -0.58366766135E+03  0.58366766135E+03  0.00000000000E+00 0. -1.
         23    2    1    2    0    0 -0.91515989644E+01 -0.74346994847E+01 -0.55992513323E+03  0.56756308448E+03  0.92047126605E+02 0.  0.
         13    1    3    3    0    0 -0.12645123695E+02 -0.41738669787E+02 -0.45570058949E+03  0.45778274647E+03  0.00000000000E+00 0. -1.
        -13    1    3    3    0    0  0.34935247304E+01  0.34303970303E+02 -0.10422454374E+03  0.10978033800E+03  0.00000000000E+00 0.  1.
         22    1    1    2    0    0  0.91515989644E+01  0.74346994847E+01 -0.18179052864E+02  0.21668052129E+02  0.00000000000E+00 0.  1.
<mgrwt>
<rscale>  0 0.55404564E+02</rscale>
<asrwt>0</asrwt>
<pdfrwt beam="1">  1        2 0.89795019E-01 0.92799246E+02</pdfrwt>
<pdfrwt beam="2">  1       -2 0.85591932E-03 0.92799246E+02</pdfrwt>
<totfact> 0.12093994E+05</totfact>
</mgrwt>
</event>
<event>
 6    1  0.2852411E-002  0.9195449E+02  0.7546771E-02  0.1415167E+00
         -1   -1    0    0    0  501 -0.00000000000E+00  0.00000000000E+00  0.94016538789E+02  0.94016538789E+02  0.00000000000E+00 0.  1.
          1   -1    0    0  501    0  0.00000000000E+00 -0.00000000000E+00 -0.29252935429E+02  0.29252935429E+02  0.00000000000E+00 0. -1.
         23    2    1    2    0    0 -0.12444700860E+02 -0.25312414277E+01  0.59479056896E+02  0.10951432267E+03  0.91073327045E+02 0.  0.
         13    1    3    3    0    0 -0.27957111434E+02 -0.11008111852E+02  0.78195533148E+02  0.83769445567E+02  0.00000000000E+00 0.  1.
        -13    1    3    3    0    0  0.15512410574E+02  0.84768704242E+01 -0.18716476252E+02  0.25744877108E+02  0.00000000000E+00 0. -1.
         22    1    1    2    0    0  0.12444700860E+02  0.25312414277E+01  0.52845464634E+01  0.13755151543E+02  0.00000000000E+00 0. -1.
<mgrwt>
<rscale>  0 0.56056571E+02</rscale>
<asrwt>0</asrwt>
<pdfrwt beam="1">  1        1 0.45004517E-02 0.91954492E+02</pdfrwt>
<pdfrwt beam="2">  1       -1 0.14464083E-01 0.91954492E+02</pdfrwt>
<totfact> 0.56283579E+04</totfact>
</mgrwt>
</event>
<event>
 6    1  0.2852411E-002  0.9740037E+02  0.7546771E-02  0.1345335E+00
         -2   -1    0    0    0  501 -0.00000000000E+00  0.00000000000E+00  0.17573962282E+03  0.17573962282E+03  0.00000000000E+00 0.  1.
          2   -1    0    0  501    0  0.00000000000E+00 -0.00000000000E+00 -0.26605342218E+02  0.26605342218E+02  0.00000000000E+00 0. -1.
         23    2    1    2    0    0  0.25179049980E+02 -0.21930819830E+02  0.81827395881E+02  0.12721067096E+03  0.91498014580E+02 0.  0.
         13    1    3    3    0    0 -0.69010148519E+01  0.11129589632E+02 -0.15043094769E+02  0.19944585019E+02  0.00000000000E+00 0. -1.
        -13    1    3    3    0    0  0.32080064832E+02 -0.33060409462E+02  0.96870490650E+02  0.10726608594E+03  0.00000000000E+00 0.  1.
         22    1    1    2    0    0 -0.25179049980E+02  0.21930819830E+02  0.67306884717E+02  0.75134294078E+02  0.00000000000E+00 0. -1.
<mgrwt>
<rscale>  0 0.74529320E+02</rscale>
<asrwt>0</asrwt>
<pdfrwt beam="1">  1        2 0.40931297E-02 0.97400370E+02</pdfrwt>
<pdfrwt beam="2">  1       -2 0.27036864E-01 0.97400370E+02</pdfrwt>
<totfact> 0.22513643E+04</totfact>
</mgrwt>
</event>
<event>
 6    1  0.2852411E-002  0.9550811E+02  0.7546771E-02  0.1353265E+00
         -2   -1    0    0    0  501 -0.00000000000E+00  0.00000000000E+00  0.28640401333E+01  0.28640401333E+01  0.00000000000E+00 0. -1.
          2   -1    0    0  501    0  0.00000000000E+00 -0.00000000000E+00 -0.23957782134E+04  0.23957782134E+04  0.00000000000E+00 0.  1.
         23    2    1    2    0    0 -0.17406303583E+02  0.25565820969E+02 -0.22660696640E+04  0.22680814625E+04  0.90361541289E+02 0.  0.
         11    1    3    3    0    0  0.34212697164E+02 -0.54617592283E+01 -0.95743730848E+03  0.95806395357E+03  0.00000000000E+00 0. -1.
        -11    1    3    3    0    0 -0.51619000747E+02  0.31027580197E+02 -0.13086323555E+04  0.13100175090E+04  0.00000000000E+00 0.  1.
         22    1    1    2    0    0  0.17406303583E+02 -0.25565820969E+02 -0.12684450930E+03  0.13056079100E+03  0.00000000000E+00 0. -1.
<mgrwt>
<rscale>  0 0.72047837E+02</rscale>
<asrwt>0</asrwt>
<pdfrwt beam="1">  1        2 0.36857992E+00 0.95508108E+02</pdfrwt>
<pdfrwt beam="2">  1       -2 0.44062316E-03 0.95508108E+02</pdfrwt>
<totfact> 0.30299637E+04</totfact>
</mgrwt>
</event>
<event>
 6    1  0.2852411E-002  0.8524776E+02  0.7546771E-02  0.1440576E+00
         -2   -1    0    0    0  501 -0.00000000000E+00  0.00000000000E+00  0.97669250687E+01  0.97669250687E+01  0.00000000000E+00 0.  1.
          2   -1    0    0  501    0  0.00000000000E+00 -0.00000000000E+00 -0.23688039166E+03  0.23688039166E+03  0.00000000000E+00 0. -1.
         23    2    1    2    0    0 -0.12266764979E+01 -0.10760374083E+02 -0.20522195869E+03  0.22222338372E+03  0.84557019554E+02 0.  0.
         13    1    3    3    0    0 -0.29582079567E+02  0.68690644678E+01 -0.17360127916E+03  0.17623758851E+03  0.00000000000E+00 0. -1.
        -13    1    3    3    0    0  0.28355403069E+02 -0.17629438551E+02 -0.31620679535E+02  0.45985795210E+02  0.00000000000E+00 0.  1.
         22    1    1    2    0    0  0.12266764979E+01  0.10760374083E+02 -0.21891507904E+02  0.24423933016E+02  0.00000000000E+00 0.  1.
<mgrwt>
<rscale>  0 0.50894402E+02</rscale>
<asrwt>0</asrwt>
<pdfrwt beam="1">  1        2 0.36443135E-01 0.85247756E+02</pdfrwt>
<pdfrwt beam="2">  1       -2 0.15026040E-02 0.85247756E+02</pdfrwt>
<totfact> 0.13967845E+05</totfact>
</mgrwt>
</event>
<event>
 6    1  0.2852411E-002  0.9333466E+02  0.7546771E-02  0.1363189E+00
          1   -1    0    0  501    0  0.00000000000E+00  0.00000000000E+00  0.14678795962E+04  0.14678795962E+04  0.00000000000E+00 0. -1.
         -1   -1    0    0    0  501 -0.00000000000E+00 -0.00000000000E+00 -0.32159764352E+01  0.32159764352E+01  0.00000000000E+00 0.  1.
         23    2    1    2    0    0  0.58472234022E+01 -0.27419651968E+02  0.13431754957E+04  0.13464144128E+04  0.89024330023E+02 0.  0.
         11    1    3    3    0    0  0.11514994070E+02 -0.46624669583E+01  0.12582186086E+04  0.12582799374E+04  0.00000000000E+00 0. -1.
        -11    1    3    3    0    0 -0.56677706676E+01 -0.22757185010E+02  0.84956887109E+02  0.88134475441E+02  0.00000000000E+00 0.  1.
         22    1    1    2    0    0 -0.58472234022E+01  0.27419651968E+02  0.12148812400E+03  0.12468115979E+03  0.00000000000E+00 0.  1.
<mgrwt>
<rscale>  0 0.69097434E+02</rscale>
<asrwt>0</asrwt>
<pdfrwt beam="1">  1        1 0.22582710E+00 0.93334660E+02</pdfrwt>
<pdfrwt beam="2">  1       -1 0.49476678E-03 0.93334660E+02</pdfrwt>
<totfact> 0.35949471E+04</totfact>
</mgrwt>
</event>
<event>
 6    1  0.2852411E-002  0.9341636E+02  0.7546771E-02  0.1404679E+00
          2   -1    0    0  501    0  0.00000000000E+00  0.00000000000E+00  0.13076348542E+03  0.13076348542E+03  0.00000000000E+00 0. -1.
         -2   -1    0    0    0  501 -0.00000000000E+00 -0.00000000000E+00 -0.26107481126E+02  0.26107481126E+02  0.00000000000E+00 0.  1.
         23    2    1    2    0    0  0.13773984026E+02  0.37183020034E+01  0.10739998650E+03  0.14234244825E+03  0.92320458548E+02 0.  0.
         13    1    3    3    0    0  0.35099023480E+02  0.95225154949E+01  0.11368904837E+03  0.11936423028E+03  0.00000000000E+00 0. -1.
        -13    1    3    3    0    0 -0.21325039455E+02 -0.58042134915E+01 -0.62890618653E+01  0.22978217971E+02  0.00000000000E+00 0.  1.
         22    1    1    2    0    0 -0.13773984026E+02 -0.37183020034E+01 -0.27439822051E+01  0.14528518303E+02  0.00000000000E+00 0.  1.
<mgrwt>
<rscale>  0 0.58398360E+02</rscale>
<asrwt>0</asrwt>
<pdfrwt beam="1">  1        2 0.20117459E-01 0.93416355E+02</pdfrwt>
<pdfrwt beam="2">  1       -2 0.40165356E-02 0.93416355E+02</pdfrwt>
<totfact> 0.65025025E+04</totfact>
</mgrwt>
</event>
<event>
 6    1  0.2852411E-002  0.9349927E+02  0.7546771E-02  0.1387645E+00
         -4   -1    0    0    0  501 -0.00000000000E+00  0.00000000000E+00  0.51787944177E+02  0.51787944177E+02  0.00000000000E+00 0.  1.
          4   -1    0    0  501    0  0.00000000000E+00 -0.00000000000E+00 -0.11075618987E+03  0.11075618987E+03  0.00000000000E+00 0. -1.
         23    2    1    2    0    0  0.12315644888E+02  0.14023019114E+02 -0.87759112691E+02  0.12823328742E+03  0.91617650967E+02 0.  0.
         13    1    3    3    0    0 -0.24863796770E+02  0.26003154086E+00 -0.84921358379E+02  0.88486796275E+02  0.00000000000E+00 0. -1.
        -13    1    3    3    0    0  0.37179441658E+02  0.13762987574E+02 -0.28377543121E+01  0.39746491147E+02  0.00000000000E+00 0.  1.
         22    1    1    2    0    0 -0.12315644888E+02 -0.14023019114E+02  0.28790866995E+02  0.34310846629E+02  0.00000000000E+00 0.  1.
<mgrwt>
<rscale>  0 0.62496185E+02</rscale>
<asrwt>0</asrwt>
<pdfrwt beam="1">  1        4 0.17039414E-01 0.93499273E+02</pdfrwt>
<pdfrwt beam="2">  1       -4 0.79673761E-02 0.93499273E+02</pdfrwt>
<totfact> 0.49501254E+03</totfact>
</mgrwt>
</event>
<event>
 6    1  0.2852411E-002  0.9144760E+02  0.7546771E-02  0.1412738E+00
         -2   -1    0    0    0  501 -0.00000000000E+00  0.00000000000E+00  0.58643486596E+01  0.58643486596E+01  0.00000000000E+00 0.  1.
          2   -1    0    0  501    0  0.00000000000E+00 -0.00000000000E+00 -0.11200191102E+04  0.11200191102E+04  0.00000000000E+00 0. -1.
         23    2    1    2    0    0 -0.32331875601E+01 -0.13012240886E+02 -0.11068375545E+04  0.11106088579E+04  0.90459335476E+02 0.  0.
         11    1    3    3    0    0 -0.27871092665E+02 -0.16798702942E+02 -0.10128276662E+04  0.10133503222E+04  0.00000000000E+00 0. -1.
        -11    1    3    3    0    0  0.24637905105E+02  0.37864620563E+01 -0.94009888308E+02  0.97258535680E+02  0.00000000000E+00 0.  1.
         22    1    1    2    0    0  0.32331875601E+01  0.13012240886E+02 -0.73172070642E+01  0.15274600940E+02  0.00000000000E+00 0.  1.
<mgrwt>
<rscale>  0 0.56587363E+02</rscale>
<asrwt>0</asrwt>
<pdfrwt beam="1">  1        2 0.17231085E+00 0.91447599E+02</pdfrwt>
<pdfrwt beam="2">  1       -2 0.90220635E-03 0.91447599E+02</pdfrwt>
<totfact> 0.49834116E+04</totfact>
</mgrwt>
</event>
<event>
 6    1  0.2852411E-002  0.9215701E+02  0.7546771E-02  0.1417314E+00
          2   -1    0    0  501    0  0.00000000000E+00  0.00000000000E+00  0.11289311521E+03  0.11289311521E+03  0.00000000000E+00 0. -1.
         -2   -1    0    0    0  501 -0.00000000000E+00 -0.00000000000E+00 -0.27617003145E+02  0.27617003145E+02  0.00000000000E+00 0.  1.
         23    2    1    2    0    0 -0.11342677819E+02  0.45034822471E+01  0.88623323696E+02  0.12785541495E+03  0.91345366261E+02 0.  0.
         13    1    3    3    0    0 -0.16489269792E+02  0.41936341454E+02  0.75370180953E+02  0.87813535003E+02  0.00000000000E+00 0. -1.
        -13    1    3    3    0    0  0.51465919726E+01 -0.37432859207E+02  0.13253142743E+02  0.40041879950E+02  0.00000000000E+00 0.  1.
         22    1    1    2    0    0  0.11342677819E+02 -0.45034822471E+01 -0.33472116327E+01  0.12654703402E+02  0.00000000000E+00 0. -1.
<mgrwt>
<rscale>  0 0.55593222E+02</rscale>
<asrwt>0</asrwt>
<pdfrwt beam="1">  1        2 0.17368171E-01 0.92157005E+02</pdfrwt>
<pdfrwt beam="2">  1       -2 0.42487698E-02 0.92157005E+02</pdfrwt>
<totfact> 0.70500558E+04</totfact>
</mgrwt>
</event>
<event>
 6    1  0.2852411E-002  0.9242931E+02  0.7546771E-02  0.1404375E+00
          2   -1    0    0  501    0  0.00000000000E+00  0.00000000000E+00  0.69153738395E+03  0.69153738395E+03  0.00000000000E+00 0. -1.
         -2   -1    0    0    0  501 -0.00000000000E+00 -0.00000000000E+00 -0.41638264999E+01  0.41638264999E+01  0.00000000000E+00 0.  1.
         23    2    1    2    0    0  0.14685726981E+02 -0.18319265134E+01  0.60202036721E+03  0.60907446160E+03  0.91236783750E+02 0.  0.
         11    1    3    3    0    0 -0.25875841797E+02 -0.91567016781E+01  0.46927962120E+03  0.47008166019E+03  0.00000000000E+00 0. -1.
        -11    1    3    3    0    0  0.40561568778E+02  0.73247751647E+01  0.13274074601E+03  0.13899280141E+03  0.00000000000E+00 0.  1.
         22    1    1    2    0    0 -0.14685726981E+02  0.18319265134E+01  0.85353190235E+02  0.86626748843E+02  0.00000000000E+00 0. -1.
<mgrwt>
<rscale>  0 0.58468153E+02</rscale>
<asrwt>0</asrwt>
<pdfrwt beam="1">  1        2 0.10639028E+00 0.92429309E+02</pdfrwt>
<pdfrwt beam="2">  1       -2 0.64058924E-03 0.92429309E+02</pdfrwt>
<totfact> 0.14996707E+05</totfact>
</mgrwt>
</event>
<event>
 6    1  0.2852411E-002  0.9520661E+02  0.7546771E-02  0.1361687E+00
          2   -1    0    0  501    0  0.00000000000E+00  0.00000000000E+00  0.93984799297E+03  0.93984799297E+03  0.00000000000E+00 0. -1.
         -2   -1    0    0    0  501 -0.00000000000E+00 -0.00000000000E+00 -0.31545584865E+02  0.31545584865E+02  0.00000000000E+00 0.  1.
         23    2    1    2    0    0  0.19953268170E+02  0.18319451560E+02  0.93112098969E+03  0.93597574501E+03  0.91271915723E+02 0.  0.
         11    1    3    3    0    0 -0.70419934688E+01 -0.33397037639E+02  0.45833887844E+03  0.45960796260E+03  0.00000000000E+00 0. -1.
        -11    1    3    3    0    0  0.26995261638E+02  0.51716489199E+02  0.47278211125E+03  0.47636778242E+03  0.00000000000E+00 0.  1.
         22    1    1    2    0    0 -0.19953268170E+02 -0.18319451560E+02 -0.22818581585E+02  0.35417832820E+02  0.00000000000E+00 0.  1.
<mgrwt>
<rscale>  0 0.69533283E+02</rscale>
<asrwt>0</asrwt>
<pdfrwt beam="1">  1        2 0.14459198E+00 0.95206606E+02</pdfrwt>
<pdfrwt beam="2">  1       -2 0.48531676E-02 0.95206606E+02</pdfrwt>
<totfact> 0.56150095E+03</totfact>
</mgrwt>
</event>
<event>
 6    1  0.2852411E-002  0.7348134E+02  0.7546771E-02  0.1469645E+00
          2   -1    0    0  501    0  0.00000000000E+00  0.00000000000E+00  0.14682928200E+04  0.14682928200E+04  0.00000000000E+00 0. -1.
         -2   -1    0    0    0  501 -0.00000000000E+00 -0.00000000000E+00 -0.16014651557E+01  0.16014651557E+01  0.00000000000E+00 0.  1.
         23    2    1    2    0    0  0.80480527714E+01 -0.75752718482E+01  0.14204906563E+04  0.14223899649E+04  0.72645383304E+02 0.  0.
         11    1    3    3    0    0  0.19640682532E+02 -0.11187881322E+02  0.13777888227E+03  0.13962072016E+03  0.00000000000E+00 0.  1.
        -11    1    3    3    0    0 -0.11592629761E+02  0.36126094736E+01  0.12827117740E+04  0.12827692447E+04  0.00000000000E+00 0. -1.
         22    1    1    2    0    0 -0.80480527714E+01  0.75752718482E+01  0.46200698550E+02  0.47504320261E+02  0.00000000000E+00 0.  1.
<mgrwt>
<rscale>  0 0.45761169E+02</rscale>
<asrwt>0</asrwt>
<pdfrwt beam="1">  1        2 0.22589013E+00 0.73481342E+02</pdfrwt>
<pdfrwt beam="2">  1       -2 0.24638043E-03 0.73481342E+02</pdfrwt>
<totfact> 0.19438075E+05</totfact>
</mgrwt>
</event>
<event>
 6    1  0.2852411E-002  0.7965799E+02  0.7546771E-02  0.1393555E+00
         -2   -1    0    0    0  501 -0.00000000000E+00  0.00000000000E+00  0.53093826495E+01  0.53093826495E+01  0.00000000000E+00 0.  1.
          2   -1    0    0  501    0  0.00000000000E+00 -0.00000000000E+00 -0.84115009820E+03  0.84115009820E+03  0.00000000000E+00 0. -1.
         23    2    1    2    0    0  0.23043712901E+02  0.14912866796E+02 -0.78179844668E+03  0.78584617270E+03  0.74779606930E+02 0.  0.
         11    1    3    3    0    0  0.27801979729E+02 -0.19297871100E+01 -0.74008869244E+03  0.74061322350E+03  0.00000000000E+00 0. -1.
        -11    1    3    3    0    0 -0.47582668281E+01  0.16842653906E+02 -0.41709754242E+02  0.45232949193E+02  0.00000000000E+00 0.  1.
         22    1    1    2    0    0 -0.23043712901E+02 -0.14912866796E+02 -0.54042268868E+02  0.60613308149E+02  0.00000000000E+00 0.  1.
<mgrwt>
<rscale>  0 0.61031027E+02</rscale>
<asrwt>0</asrwt>
<pdfrwt beam="1">  1        2 0.12940764E+00 0.79657993E+02</pdfrwt>
<pdfrwt beam="2">  1       -2 0.81682850E-03 0.79657993E+02</pdfrwt>
<totfact> 0.82505989E+04</totfact>
</mgrwt>
</event>
<event>
 6    1  0.2852411E-002  0.9164905E+02  0.7546771E-02  0.1412261E+00
         -2   -1    0    0    0  501 -0.00000000000E+00  0.00000000000E+00  0.69946395008E+01  0.69946395008E+01  0.00000000000E+00 0.  1.
          2   -1    0    0  501    0  0.00000000000E+00 -0.00000000000E+00 -0.49571710411E+03  0.49571710411E+03  0.00000000000E+00 0. -1.
         23    2    1    2    0    0  0.11757104136E+02 -0.64681018066E+01 -0.47405136185E+03  0.48282941239E+03  0.90661358676E+02 0.  0.
         11    1    3    3    0    0  0.28407041885E+01  0.40249928637E+02 -0.15110717143E+03  0.15640173789E+03  0.00000000000E+00 0. -1.
        -11    1    3    3    0    0  0.89163999476E+01 -0.46718030443E+02 -0.32294419042E+03  0.32642767450E+03  0.00000000000E+00 0.  1.
         22    1    1    2    0    0 -0.11757104136E+02  0.64681018066E+01 -0.14671102758E+02  0.19882331221E+02  0.00000000000E+00 0.  1.
<mgrwt>
<rscale>  0 0.56692405E+02</rscale>
<asrwt>0</asrwt>
<pdfrwt beam="1">  1        2 0.76264190E-01 0.91649047E+02</pdfrwt>
<pdfrwt beam="2">  1       -2 0.10760981E-02 0.91649047E+02</pdfrwt>
<totfact> 0.10441948E+05</totfact>
</mgrwt>
</event>
<event>
 6    1  0.2852411E-002  0.1020518E+03  0.7546771E-02  0.1394596E+00
          2   -1    0    0  501    0  0.00000000000E+00  0.00000000000E+00  0.23556982889E+03  0.23556982889E+03  0.00000000000E+00 0. -1.
         -2   -1    0    0    0  501 -0.00000000000E+00 -0.00000000000E+00 -0.15221158823E+02  0.15221158823E+02  0.00000000000E+00 0.  1.
         23    2    1    2    0    0  0.91649383163E+01  0.89909180020E+01  0.21252262019E+03  0.23575503887E+03  0.10124100731E+03 0.  0.
         13    1    3    3    0    0 -0.39104392445E+02 -0.11606934934E+02  0.47615733329E+02  0.62698744067E+02  0.00000000000E+00 0.  1.
        -13    1    3    3    0    0  0.48269330762E+02  0.20597852936E+02  0.16490688686E+03  0.17305629480E+03  0.00000000000E+00 0. -1.
         22    1    1    2    0    0 -0.91649383163E+01 -0.89909180020E+01  0.78260498755E+01  0.15035948840E+02  0.00000000000E+00 0.  1.
<mgrwt>
<rscale>  0 0.60777942E+02</rscale>
<asrwt>0</asrwt>
<pdfrwt beam="1">  1        2 0.36241510E-01 0.10205182E+03</pdfrwt>
<pdfrwt beam="2">  1       -2 0.23417169E-02 0.10205182E+03</pdfrwt>
<totfact> 0.76378791E+04</totfact>
</mgrwt>
</event>
<event>
 6    1  0.2852411E-002  0.9528900E+02  0.7546771E-02  0.1353514E+00
         -2   -1    0    0    0  501 -0.00000000000E+00  0.00000000000E+00  0.67709747456E+02  0.67709747456E+02  0.00000000000E+00 0.  1.
          2   -1    0    0  501    0  0.00000000000E+00 -0.00000000000E+00 -0.68198800556E+02  0.68198800556E+02  0.00000000000E+00 0. -1.
         23    2    1    2    0    0  0.70447335420E+01  0.30200427622E+02 -0.22463571772E+02  0.97901001786E+02  0.90101609279E+02 0.  0.
         11    1    3    3    0    0 -0.40388867490E+02  0.15032171729E+02 -0.21337082834E+02  0.48088438401E+02  0.00000000000E+00 0. -1.
        -11    1    3    3    0    0  0.47433601032E+02  0.15168255892E+02 -0.11264889386E+01  0.49812563385E+02  0.00000000000E+00 0.  1.
         22    1    1    2    0    0 -0.70447335420E+01 -0.30200427622E+02  0.21974518673E+02  0.38007546226E+02  0.00000000000E+00 0.  1.
<mgrwt>
<rscale>  0 0.71971691E+02</rscale>
<asrwt>0</asrwt>
<pdfrwt beam="1">  1        2 0.10492123E-01 0.95289003E+02</pdfrwt>
<pdfrwt beam="2">  1       -2 0.10416884E-01 0.95289003E+02</pdfrwt>
<totfact> 0.32904785E+04</totfact>
</mgrwt>
</event>
<event>
 6    1  0.2852411E-002  0.8965506E+02  0.7546771E-02  0.1388347E+00
          2   -1    0    0  501    0  0.00000000000E+00  0.00000000000E+00  0.34635246640E+03  0.34635246640E+03  0.00000000000E+00 0. -1.
         -2   -1    0    0    0  501 -0.00000000000E+00 -0.00000000000E+00 -0.20706446262E+02  0.20706446262E+02  0.00000000000E+00 0.  1.
         23    2    1    2    0    0  0.18990102664E+02 -0.88008989538E+01  0.33301251021E+03  0.34487006417E+03  0.87177688536E+02 0.  0.
         13    1    3    3    0    0  0.17398423704E+02  0.16181482883E+02  0.20572615901E+02  0.31428936677E+02  0.00000000000E+00 0.  1.
        -13    1    3    3    0    0  0.15916789600E+01 -0.24982381837E+02  0.31243989431E+03  0.31344112749E+03  0.00000000000E+00 0. -1.
         22    1    1    2    0    0 -0.18990102664E+02  0.88008989538E+01 -0.73664900742E+01  0.22188848496E+02  0.00000000000E+00 0.  1.
<mgrwt>
<rscale>  0 0.62319685E+02</rscale>
<asrwt>0</asrwt>
<pdfrwt beam="1">  1        2 0.53284990E-01 0.89655057E+02</pdfrwt>
<pdfrwt beam="2">  1       -2 0.31856074E-02 0.89655057E+02</pdfrwt>
<totfact> 0.32072343E+04</totfact>
</mgrwt>
</event>
<event>
 6    1  0.2852411E-002  0.9765567E+02  0.7546771E-02  0.1341385E+00
         -2   -1    0    0    0  501 -0.00000000000E+00  0.00000000000E+00  0.38072898728E+01  0.38072898728E+01  0.00000000000E+00 0.  1.
          2   -1    0    0  501    0  0.00000000000E+00 -0.00000000000E+00 -0.12529283627E+04  0.12529283627E+04  0.00000000000E+00 0. -1.
         23    2    1    2    0    0 -0.44072206933E+01  0.35188421716E+02 -0.10453614255E+04  0.10499129205E+04  0.90988912089E+02 0.  0.
         11    1    3    3    0    0 -0.40864258372E+02 -0.23890660862E+01 -0.31014433105E+03  0.31283398366E+03  0.00000000000E+00 0.  1.
        -11    1    3    3    0    0  0.36457037679E+02  0.37577487802E+02 -0.73521709446E+03  0.73707893686E+03  0.00000000000E+00 0. -1.
         22    1    1    2    0    0  0.44072206933E+01 -0.35188421716E+02 -0.20375964733E+03  0.20682273206E+03  0.00000000000E+00 0.  1.
<mgrwt>
<rscale>  0 0.75808522E+02</rscale>
<asrwt>0</asrwt>
<pdfrwt beam="1">  1        2 0.19275834E+00 0.97655674E+02</pdfrwt>
<pdfrwt beam="2">  1       -2 0.58573651E-03 0.97655674E+02</pdfrwt>
<totfact> 0.78076523E+04</totfact>
</mgrwt>
</event>
<event>
 6    1  0.2852411E-002  0.9711098E+02  0.7546771E-02  0.1381821E+00
          2   -1    0    0  501    0  0.00000000000E+00  0.00000000000E+00  0.28770198628E+03  0.28770198628E+03  0.00000000000E+00 0. -1.
         -2   -1    0    0    0  501 -0.00000000000E+00 -0.00000000000E+00 -0.11838982721E+02  0.11838982721E+02  0.00000000000E+00 0.  1.
         23    2    1    2    0    0 -0.17259994961E+02 -0.60967509484E+01  0.24650297867E+03  0.26494199706E+03  0.95370150008E+02 0.  0.
         11    1    3    3    0    0 -0.23904027285E+02 -0.23286246298E+02  0.24408441524E+03  0.24635513705E+03  0.00000000000E+00 0. -1.
        -11    1    3    3    0    0  0.66440323241E+01  0.17189495350E+02  0.24185634312E+01  0.18586860009E+02  0.00000000000E+00 0.  1.
         22    1    1    2    0    0  0.17259994961E+02  0.60967509484E+01  0.29360024888E+02  0.34598971945E+02  0.00000000000E+00 0.  1.
<mgrwt>
<rscale>  0 0.63987402E+02</rscale>
<asrwt>0</asrwt>
<pdfrwt beam="1">  1        2 0.44261839E-01 0.97110985E+02</pdfrwt>
<pdfrwt beam="2">  1       -2 0.18213822E-02 0.97110985E+02</pdfrwt>
<totfact> 0.88274830E+04</totfact>
</mgrwt>
</event>
<event>
 6    1  0.2852411E-002  0.9276226E+02  0.7546771E-02  0.1413763E+00
         -2   -1    0    0    0  501 -0.00000000000E+00  0.00000000000E+00  0.42127267085E+01  0.42127267085E+01  0.00000000000E+00 0.  1.
          2   -1    0    0  501    0  0.00000000000E+00 -0.00000000000E+00 -0.66932141010E+03  0.66932141010E+03  0.00000000000E+00 0. -1.
         23    2    1    2    0    0 -0.11443810107E+01 -0.12591126424E+02 -0.60856787608E+03  0.61559702466E+03  0.91896631619E+02 0.  0.
         11    1    3    3    0    0 -0.36878084812E+02  0.13556273083E+02 -0.15614315204E+03  0.16101071272E+03  0.00000000000E+00 0.  1.
        -11    1    3    3    0    0  0.35733703801E+02 -0.26147399507E+02 -0.45242472404E+03  0.45458631195E+03  0.00000000000E+00 0. -1.
         22    1    1    2    0    0  0.11443810107E+01  0.12591126424E+02 -0.56540807309E+02  0.57937112145E+02  0.00000000000E+00 0. -1.
<mgrwt>
<rscale>  0 0.56362629E+02</rscale>
<asrwt>0</asrwt>
<pdfrwt beam="1">  1        2 0.10297245E+00 0.92762261E+02</pdfrwt>
<pdfrwt beam="2">  1       -2 0.64811229E-03 0.92762261E+02</pdfrwt>
<totfact> 0.15328976E+05</totfact>
</mgrwt>
</event>
<event>
 6    1  0.2852411E-002  0.9952646E+02  0.7546771E-02  0.1333458E+00
          1   -1    0    0  501    0  0.00000000000E+00  0.00000000000E+00  0.85441866801E+03  0.85441866801E+03  0.00000000000E+00 0. -1.
         -1   -1    0    0    0  501 -0.00000000000E+00 -0.00000000000E+00 -0.26746835763E+02  0.26746835763E+02  0.00000000000E+00 0.  1.
         23    2    1    2    0    0  0.29255364699E+02  0.24956589688E+02  0.83593065723E+03  0.84183465173E+03  0.91797654830E+02 0.  0.
         11    1    3    3    0    0  0.34266385724E+02 -0.13566239122E+02  0.68480355319E+03  0.68579452790E+03  0.00000000000E+00 0. -1.
        -11    1    3    3    0    0 -0.50110210252E+01  0.38522828810E+02  0.15112710404E+03  0.15604012384E+03  0.00000000000E+00 0.  1.
         22    1    1    2    0    0 -0.29255364699E+02 -0.24956589688E+02 -0.82588249775E+01  0.39330852044E+02  0.00000000000E+00 0.  1.
<mgrwt>
<rscale>  0 0.78467393E+02</rscale>
<asrwt>0</asrwt>
<pdfrwt beam="1">  1        1 0.13144900E+00 0.99526465E+02</pdfrwt>
<pdfrwt beam="2">  1       -1 0.41148985E-02 0.99526465E+02</pdfrwt>
<totfact> 0.47029016E+03</totfact>
</mgrwt>
</event>
<event>
 6    1  0.2852411E-002  0.9324396E+02  0.7546771E-02  0.1413957E+00
          2   -1    0    0  501    0  0.00000000000E+00  0.00000000000E+00  0.21306420238E+02  0.21306420238E+02  0.00000000000E+00 0. -1.
         -2   -1    0    0    0  501 -0.00000000000E+00 -0.00000000000E+00 -0.13507957958E+03  0.13507957958E+03  0.00000000000E+00 0.  1.
         23    2    1    2    0    0 -0.80496072037E+01 -0.94460946774E+01 -0.90130898551E+02  0.12968428871E+03  0.92414344036E+02 0.  0.
         13    1    3    3    0    0  0.93210091027E+01  0.39348766370E+02 -0.49091176034E+02  0.63601495187E+02  0.00000000000E+00 0. -1.
        -13    1    3    3    0    0 -0.17370616306E+02 -0.48794861048E+02 -0.41039722517E+02  0.66082793523E+02  0.00000000000E+00 0.  1.
         22    1    1    2    0    0  0.80496072037E+01  0.94460946774E+01 -0.23642260793E+02  0.26701711110E+02  0.00000000000E+00 0. -1.
<mgrwt>
<rscale>  0 0.56320226E+02</rscale>
<asrwt>0</asrwt>
<pdfrwt beam="1">  1        2 0.32779108E-02 0.93243959E+02</pdfrwt>
<pdfrwt beam="2">  1       -2 0.20781474E-01 0.93243959E+02</pdfrwt>
<totfact> 0.47136498E+04</totfact>
</mgrwt>
</event>
<event>
 6    1  0.2852411E-002  0.9039158E+02  0.7546771E-02  0.1406888E+00
          2   -1    0    0  501    0  0.00000000000E+00  0.00000000000E+00  0.24002634858E+03  0.24002634858E+03  0.00000000000E+00 0. -1.
         -2   -1    0    0    0  501 -0.00000000000E+00 -0.00000000000E+00 -0.20524359909E+02  0.20524359909E+02  0.00000000000E+00 0.  1.
         23    2    1    2    0    0  0.14566493998E+02 -0.43802047523E+01  0.22645294160E+03  0.24382693237E+03  0.89102577110E+02 0.  0.
         11    1    3    3    0    0  0.83441140957E+00  0.20874554498E+02  0.20932398070E+03  0.21036390413E+03  0.00000000000E+00 0. -1.
        -11    1    3    3    0    0  0.13732082589E+02 -0.25254759250E+02  0.17128960905E+02  0.33463028236E+02  0.00000000000E+00 0.  1.
         22    1    1    2    0    0 -0.14566493998E+02  0.43802047523E+01 -0.69509529305E+01  0.16723776120E+02  0.00000000000E+00 0.  1.
<mgrwt>
<rscale>  0 0.57894076E+02</rscale>
<asrwt>0</asrwt>
<pdfrwt beam="1">  1        2 0.36927129E-01 0.90391583E+02</pdfrwt>
<pdfrwt beam="2">  1       -2 0.31575940E-02 0.90391583E+02</pdfrwt>
<totfact> 0.47734499E+04</totfact>
</mgrwt>
</event>
<event>
 6    1  0.2852411E-002  0.1221485E+03  0.7546771E-02  0.1256568E+00
         -1   -1    0    0    0  501 -0.00000000000E+00  0.00000000000E+00  0.17596503516E+02  0.17596503516E+02  0.00000000000E+00 0.  1.
          1   -1    0    0  501    0  0.00000000000E+00 -0.00000000000E+00 -0.65673553611E+03  0.65673553611E+03  0.00000000000E+00 0. -1.
         23    2    1    2    0    0  0.24895479213E+02  0.83283045812E+02 -0.29292251103E+03  0.31737023437E+03  0.85816184913E+02 0.  0.
         13    1    3    3    0    0  0.30511807574E+02  0.37055548585E+02 -0.24822193647E+03  0.25282051702E+03  0.00000000000E+00 0. -1.
        -13    1    3    3    0    0 -0.56163283607E+01  0.46227497228E+02 -0.44700574561E+02  0.64549717352E+02  0.00000000000E+00 0.  1.
         22    1    1    2    0    0 -0.24895479213E+02 -0.83283045812E+02 -0.34621652156E+03  0.35696180525E+03  0.00000000000E+00 0.  1.
<mgrwt>
<rscale>  0 0.11218936E+03</rscale>
<asrwt>0</asrwt>
<pdfrwt beam="1">  1        1 0.10103623E+00 0.12214855E+03</pdfrwt>
<pdfrwt beam="2">  1       -1 0.27071545E-02 0.12214855E+03</pdfrwt>
<totfact> 0.12838996E+04</totfact>
</mgrwt>
</event>
<event>
 6    1  0.2852411E-002  0.9227821E+02  0.7546771E-02  0.1401386E+00
         -2   -1    0    0    0  501 -0.00000000000E+00  0.00000000000E+00  0.14840522399E+02  0.14840522399E+02  0.00000000000E+00 0.  1.
          2   -1    0    0  501    0  0.00000000000E+00 -0.00000000000E+00 -0.31165484963E+03  0.31165484963E+03  0.00000000000E+00 0. -1.
         23    2    1    2    0    0  0.15273944817E+02 -0.31242955840E+01 -0.29689496875E+03  0.31090495458E+03  0.90951710800E+02 0.  0.
         11    1    3    3    0    0  0.31802118929E+02  0.34795437299E+02 -0.20127114855E+03  0.20671761528E+03  0.00000000000E+00 0. -1.
        -11    1    3    3    0    0 -0.16528174112E+02 -0.37919732883E+02 -0.95623820196E+02  0.10418733930E+03  0.00000000000E+00 0.  1.
         22    1    1    2    0    0 -0.15273944817E+02  0.31242955840E+01  0.80641523038E-01  0.15590417449E+02  0.00000000000E+00 0.  1.
<mgrwt>
<rscale>  0 0.59161253E+02</rscale>
<asrwt>0</asrwt>
<pdfrwt beam="1">  1        2 0.47946902E-01 0.92278211E+02</pdfrwt>
<pdfrwt beam="2">  1       -2 0.22831572E-02 0.92278211E+02</pdfrwt>
<totfact> 0.58244238E+04</totfact>
</mgrwt>
</event>
<event>
 6    1  0.2852411E-002  0.9188384E+02  0.7546771E-02  0.1388737E+00
         -2   -1    0    0    0  501 -0.00000000000E+00  0.00000000000E+00  0.11093932973E+03  0.11093932973E+03  0.00000000000E+00 0.  1.
          2   -1    0    0  501    0  0.00000000000E+00 -0.00000000000E+00 -0.30214590184E+02  0.30214590184E+02  0.00000000000E+00 0. -1.
         23    2    1    2    0    0  0.17290701113E+02 -0.86246044651E+01  0.49327193541E+02  0.10428715924E+03  0.89829212473E+02 0.  0.
         13    1    3    3    0    0  0.22925685400E+02  0.27604559742E+02 -0.74999606012E+01  0.36658534868E+02  0.00000000000E+00 0. -1.
        -13    1    3    3    0    0 -0.56349842873E+01 -0.36229164208E+02  0.56827154143E+02  0.67628624376E+02  0.00000000000E+00 0.  1.
         22    1    1    2    0    0 -0.17290701113E+02  0.86246044651E+01  0.31397546008E+02  0.36866760672E+02  0.00000000000E+00 0.  1.
<mgrwt>
<rscale>  0 0.62222030E+02</rscale>
<asrwt>0</asrwt>
<pdfrwt beam="1">  1        2 0.46483986E-02 0.91883837E+02</pdfrwt>
<pdfrwt beam="2">  1       -2 0.17067589E-01 0.91883837E+02</pdfrwt>
<totfact> 0.41295256E+04</totfact>
</mgrwt>
</event>
<event>
 6    1  0.2852411E-002  0.9251222E+02  0.7546771E-02  0.1381432E+00
         -1   -1    0    0    0  501 -0.00000000000E+00  0.00000000000E+00  0.28204938084E+01  0.28204938084E+01  0.00000000000E+00 0.  1.
          1   -1    0    0  501    0  0.00000000000E+00 -0.00000000000E+00 -0.21277172301E+04  0.21277172301E+04  0.00000000000E+00 0. -1.
         23    2    1    2    0    0  0.20860170941E+02 -0.43432163942E+01 -0.20630544914E+04  0.20651276825E+04  0.90024998617E+02 0.  0.
         11    1    3    3    0    0  0.13952776799E+02  0.12550468760E+02 -0.87546260051E+02  0.89535143354E+02  0.00000000000E+00 0.  1.
        -11    1    3    3    0    0  0.69073941419E+01 -0.16893685154E+02 -0.19755082314E+04  0.19755925392E+04  0.00000000000E+00 0. -1.
         22    1    1    2    0    0 -0.20860170941E+02  0.43432163942E+01 -0.61842244822E+02  0.65410041316E+02  0.00000000000E+00 0.  1.
<mgrwt>
<rscale>  0 0.64088858E+02</rscale>
<asrwt>0</asrwt>
<pdfrwt beam="1">  1        1 0.32734263E+00 0.92512219E+02</pdfrwt>
<pdfrwt beam="2">  1       -1 0.43392011E-03 0.92512219E+02</pdfrwt>
<totfact> 0.16573761E+04</totfact>
</mgrwt>
</event>
<event>
 6    1  0.2852411E-002  0.9021331E+02  0.7546771E-02  0.1400903E+00
          2   -1    0    0  501    0  0.00000000000E+00  0.00000000000E+00  0.83204282582E+02  0.83204282582E+02  0.00000000000E+00 0. -1.
         -2   -1    0    0    0  501 -0.00000000000E+00 -0.00000000000E+00 -0.35838560817E+02  0.35838560817E+02  0.00000000000E+00 0.  1.
         23    2    1    2    0    0  0.12520366585E+02  0.11221684812E+02  0.48057641950E+02  0.10221534974E+03  0.88632697028E+02 0.  0.
         11    1    3    3    0    0  0.47964964085E+02  0.22110640626E+02  0.32426712025E+02  0.61975881288E+02  0.00000000000E+00 0.  1.
        -11    1    3    3    0    0 -0.35444597500E+02 -0.10888955815E+02  0.15630929924E+02  0.40239468448E+02  0.00000000000E+00 0. -1.
         22    1    1    2    0    0 -0.12520366585E+02 -0.11221684812E+02 -0.69192018507E+00  0.16827493663E+02  0.00000000000E+00 0.  1.
<mgrwt>
<rscale>  0 0.59274234E+02</rscale>
<asrwt>0</asrwt>
<pdfrwt beam="1">  1        2 0.12800659E-01 0.90213307E+02</pdfrwt>
<pdfrwt beam="2">  1       -2 0.55136248E-02 0.90213307E+02</pdfrwt>
<totfact> 0.67970437E+04</totfact>
</mgrwt>
</event>
<event>
 6    1  0.2852411E-002  0.9318398E+02  0.7546771E-02  0.1376743E+00
          2   -1    0    0  501    0  0.00000000000E+00  0.00000000000E+00  0.29536029780E+03  0.29536029780E+03  0.00000000000E+00 0. -1.
         -2   -1    0    0    0  501 -0.00000000000E+00 -0.00000000000E+00 -0.13862267187E+02  0.13862267187E+02  0.00000000000E+00 0.  1.
         23    2    1    2    0    0  0.10039777678E+02 -0.20146333759E+02  0.26611664456E+03  0.28195978933E+03  0.90424456799E+02 0.  0.
         13    1    3    3    0    0  0.24684581790E+01  0.78852215140E+01 -0.47571624838E+01  0.95341805628E+01  0.00000000000E+00 0.  1.
        -13    1    3    3    0    0  0.75713194990E+01 -0.28031555273E+02  0.27087380704E+03  0.27242560876E+03  0.00000000000E+00 0. -1.
         22    1    1    2    0    0 -0.10039777678E+02  0.20146333759E+02  0.15381386060E+02  0.27262775664E+02  0.00000000000E+00 0.  1.
<mgrwt>
<rscale>  0 0.65327614E+02</rscale>
<asrwt>0</asrwt>
<pdfrwt beam="1">  1        2 0.45440041E-01 0.93183981E+02</pdfrwt>
<pdfrwt beam="2">  1       -2 0.21326567E-02 0.93183981E+02</pdfrwt>
<totfact> 0.68058179E+04</totfact>
</mgrwt>
</event>
<event>
 6    1  0.2852411E-002  0.9248590E+02  0.7546771E-02  0.1412640E+00
         -2   -1    0    0    0  501 -0.00000000000E+00  0.00000000000E+00  0.55162485581E+01  0.55162485581E+01  0.00000000000E+00 0.  1.
          2   -1    0    0  501    0  0.00000000000E+00 -0.00000000000E+00 -0.55138771089E+03  0.55138771089E+03  0.00000000000E+00 0. -1.
         23    2    1    2    0    0 -0.10939975588E+02 -0.69876091296E+01 -0.51755815558E+03  0.52575667888E+03  0.91570362228E+02 0.  0.
         13    1    3    3    0    0 -0.53773308845E+01  0.40508404405E+02 -0.31449551674E+03  0.31713920691E+03  0.00000000000E+00 0. -1.
        -13    1    3    3    0    0 -0.55626447036E+01 -0.47496013534E+02 -0.20306263884E+03  0.20861747197E+03  0.00000000000E+00 0.  1.
         22    1    1    2    0    0  0.10939975588E+02  0.69876091296E+01 -0.28313306758E+02  0.31147280568E+02  0.00000000000E+00 0.  1.
<mgrwt>
<rscale>  0 0.56608906E+02</rscale>
<asrwt>0</asrwt>
<pdfrwt beam="1">  1        2 0.84828896E-01 0.92485896E+02</pdfrwt>
<pdfrwt beam="2">  1       -2 0.84865345E-03 0.92485896E+02</pdfrwt>
<totfact> 0.13028984E+05</totfact>
</mgrwt>
</event>
<event>
 6    1  0.2852411E-002  0.9211691E+02  0.7546771E-02  0.1414387E+00
          2   -1    0    0  501    0  0.00000000000E+00  0.00000000000E+00  0.27125676866E+03  0.27125676866E+03  0.00000000000E+00 0. -1.
         -2   -1    0    0    0  501 -0.00000000000E+00 -0.00000000000E+00 -0.15243391126E+02  0.15243391126E+02  0.00000000000E+00 0.  1.
         23    2    1    2    0    0  0.10564791916E+02  0.72021053772E+01  0.25763841151E+03  0.27361117668E+03  0.91225214521E+02 0.  0.
         13    1    3    3    0    0  0.14608372568E+02  0.37198090165E+02  0.22719132187E+03  0.23067942950E+03  0.00000000000E+00 0. -1.
        -13    1    3    3    0    0 -0.40435806518E+01 -0.29995984788E+02  0.30447089646E+02  0.42931747178E+02  0.00000000000E+00 0.  1.
         22    1    1    2    0    0 -0.10564791916E+02 -0.72021053772E+01 -0.16250339838E+01  0.12888983107E+02  0.00000000000E+00 0.  1.
<mgrwt>
<rscale>  0 0.56226274E+02</rscale>
<asrwt>0</asrwt>
<pdfrwt beam="1">  1        2 0.41731807E-01 0.92116909E+02</pdfrwt>
<pdfrwt beam="2">  1       -2 0.23451373E-02 0.92116909E+02</pdfrwt>
<totfact> 0.64776310E+04</totfact>
</mgrwt>
</event>
<event>
 6    1  0.2852411E-002  0.9698493E+02  0.7546771E-02  0.1343009E+00
          2   -1    0    0  501    0  0.00000000000E+00  0.00000000000E+00  0.91953919711E+02  0.91953919711E+02  0.00000000000E+00 0. -1.
         -2   -1    0    0    0  501 -0.00000000000E+00 -0.00000000000E+00 -0.51917258147E+02  0.51917258147E+02  0.00000000000E+00 0.  1.
         23    2    1    2    0    0 -0.77774149805E+01 -0.34333335799E+02  0.98248341372E+01  0.97481301298E+02  0.90370407801E+02 0.  0.
         11    1    3    3    0    0  0.36104353654E+02 -0.41065720683E+01 -0.14222739337E+02  0.39021463340E+02  0.00000000000E+00 0.  1.
        -11    1    3    3    0    0 -0.43881768634E+02 -0.30226763731E+02  0.24047573474E+02  0.58459837958E+02  0.00000000000E+00 0. -1.
         22    1    1    2    0    0  0.77774149805E+01  0.34333335799E+02  0.30211827427E+02  0.46389876561E+02  0.00000000000E+00 0.  1.
<mgrwt>
<rscale>  0 0.75278987E+02</rscale>
<asrwt>0</asrwt>
<pdfrwt beam="1">  1        2 0.14146757E-01 0.96984930E+02</pdfrwt>
<pdfrwt beam="2">  1       -2 0.79872705E-02 0.96984930E+02</pdfrwt>
<totfact> 0.34868148E+04</totfact>
</mgrwt>
</event>
<event>
 6    1  0.2852411E-002  0.9150194E+02  0.7546771E-02  0.1406599E+00
          1   -1    0    0  501    0  0.00000000000E+00  0.00000000000E+00  0.22417695495E+02  0.22417695495E+02  0.00000000000E+00 0. -1.
         -1   -1    0    0    0  501 -0.00000000000E+00 -0.00000000000E+00 -0.18519359086E+03  0.18519359086E+03  0.00000000000E+00 0.  1.
         23    2    1    2    0    0 -0.14468177057E+02 -0.27673634359E+01 -0.74163783908E+02  0.11778315744E+03  0.90308465190E+02 0.  0.
         11    1    3    3    0    0  0.18527250938E+02  0.30456971633E+02 -0.76839488414E+01  0.36468194611E+02  0.00000000000E+00 0. -1.
        -11    1    3    3    0    0 -0.32995427994E+02 -0.33224335069E+02 -0.66479835066E+02  0.81314962828E+02  0.00000000000E+00 0.  1.
         22    1    1    2    0    0  0.14468177057E+02  0.27673634359E+01 -0.88612111460E+02  0.89828128919E+02  0.00000000000E+00 0. -1.
<mgrwt>
<rscale>  0 0.57959791E+02</rscale>
<asrwt>0</asrwt>
<pdfrwt beam="1">  1        1 0.34488762E-02 0.91501942E+02</pdfrwt>
<pdfrwt beam="2">  1       -1 0.28491322E-01 0.91501942E+02</pdfrwt>
<totfact> 0.27424854E+04</totfact>
</mgrwt>
</event>
<event>
 6    1  0.2852411E-002  0.9486966E+02  0.7546771E-02  0.1364427E+00
         -2   -1    0    0    0  501 -0.00000000000E+00  0.00000000000E+00  0.98946672694E+01  0.98946672694E+01  0.00000000000E+00 0.  1.
          2   -1    0    0  501    0  0.00000000000E+00 -0.00000000000E+00 -0.37128847266E+03  0.37128847266E+03  0.00000000000E+00 0. -1.
         23    2    1    2    0    0 -0.88993001043E+01  0.24589990431E+02 -0.29203877837E+03  0.30706171965E+03  0.91194223657E+02 0.  0.
         11    1    3    3    0    0 -0.30544980137E+01  0.42487834249E+02 -0.56434990995E+02  0.70706818807E+02  0.00000000000E+00 0.  1.
        -11    1    3    3    0    0 -0.58448020906E+01 -0.17897843818E+02 -0.23560378738E+03  0.23635490084E+03  0.00000000000E+00 0. -1.
         22    1    1    2    0    0  0.88993001043E+01 -0.24589990431E+02 -0.69355027015E+02  0.74121420278E+02  0.00000000000E+00 0.  1.
<mgrwt>
<rscale>  0 0.68741152E+02</rscale>
<asrwt>0</asrwt>
<pdfrwt beam="1">  1        2 0.57121317E-01 0.94869656E+02</pdfrwt>
<pdfrwt beam="2">  1       -2 0.15222561E-02 0.94869656E+02</pdfrwt>
<totfact> 0.87070220E+04</totfact>
</mgrwt>
</event>
<event>
 6    1  0.2852411E-002  0.9362681E+02  0.7546771E-02  0.1381364E+00
          2   -1    0    0  501    0  0.00000000000E+00  0.00000000000E+00  0.13778010202E+03  0.13778010202E+03  0.00000000000E+00 0. -1.
         -2   -1    0    0    0  501 -0.00000000000E+00 -0.00000000000E+00 -0.28442858872E+02  0.28442858872E+02  0.00000000000E+00 0.  1.
         23    2    1    2    0    0  0.14541882079E+02 -0.14560406580E+02  0.11142523569E+03  0.14553887312E+03  0.91337334454E+02 0.  0.
         11    1    3    3    0    0  0.41796084784E+02 -0.73486110736E+01  0.10932021216E+03  0.11726816949E+03  0.00000000000E+00 0. -1.
        -11    1    3    3    0    0 -0.27254202705E+02 -0.72117955064E+01  0.21050235270E+01  0.28270703627E+02  0.00000000000E+00 0.  1.
         22    1    1    2    0    0 -0.14541882079E+02  0.14560406580E+02 -0.20879925449E+01  0.20684087774E+02  0.00000000000E+00 0.  1.
<mgrwt>
<rscale>  0 0.64106674E+02</rscale>
<asrwt>0</asrwt>
<pdfrwt beam="1">  1        2 0.21196938E-01 0.93626815E+02</pdfrwt>
<pdfrwt beam="2">  1       -2 0.43758245E-02 0.93626815E+02</pdfrwt>
<totfact> 0.54085056E+04</totfact>
</mgrwt>
</event>
<event>
 6    1  0.2852411E-002  0.1014990E+03  0.7546771E-02  0.1324066E+00
          2   -1    0    0  501    0  0.00000000000E+00  0.00000000000E+00  0.68531035076E+03  0.68531035076E+03  0.00000000000E+00 0.  1.
         -2   -1    0    0    0  501 -0.00000000000E+00 -0.00000000000E+00 -0.77085255412E+01  0.77085255412E+01  0.00000000000E+00 0. -1.
         23    2    1    2    0    0  0.18876302702E+02  0.38393671296E+02  0.51324785806E+03  0.52318773864E+03  0.92041606125E+02 0.  0.
         13    1    3    3    0    0 -0.35901962442E+02  0.28032318969E+02  0.24721067692E+03  0.25137199644E+03  0.00000000000E+00 0. -1.
        -13    1    3    3    0    0  0.54778265144E+02  0.10361352327E+02  0.26603718115E+03  0.27181574220E+03  0.00000000000E+00 0.  1.
         22    1    1    2    0    0 -0.18876302702E+02 -0.38393671296E+02  0.16435396715E+03  0.16983113766E+03  0.00000000000E+00 0. -1.
<mgrwt>
<rscale>  0 0.81783224E+02</rscale>
<asrwt>0</asrwt>
<pdfrwt beam="1">  1        2 0.10543231E+00 0.10149900E+03</pdfrwt>
<pdfrwt beam="2">  1       -2 0.11859276E-02 0.10149900E+03</pdfrwt>
<totfact> 0.64208531E+04</totfact>
</mgrwt>
</event>
<event>
 6    1  0.2852411E-002  0.1273880E+03  0.7546771E-02  0.1271095E+00
         -3   -1    0    0    0  501 -0.00000000000E+00  0.00000000000E+00  0.86038658490E+02  0.86038658490E+02  0.00000000000E+00 0.  1.
          3   -1    0    0  501    0  0.00000000000E+00 -0.00000000000E+00 -0.99767645728E+02  0.99767645728E+02  0.00000000000E+00 0. -1.
         23    2    1    2    0    0 -0.57508355187E+02 -0.47147676566E+01 -0.13531419441E+02  0.12810466660E+03  0.11357053466E+03 0.  0.
         11    1    3    3    0    0 -0.81187893297E+02  0.28472017692E+02 -0.34337934585E+01  0.86104127352E+02  0.00000000000E+00 0.  1.
        -11    1    3    3    0    0  0.23679538111E+02 -0.33186785349E+02 -0.10097625983E+02  0.42000539252E+02  0.00000000000E+00 0. -1.
         22    1    1    2    0    0  0.57508355187E+02  0.47147676566E+01 -0.19756779782E+00  0.57701637614E+02  0.00000000000E+00 0. -1.
<mgrwt>
<rscale>  0 0.10450639E+03</rscale>
<asrwt>0</asrwt>
<pdfrwt beam="1">  1        3 0.15348869E-01 0.12738801E+03</pdfrwt>
<pdfrwt beam="2">  1       -3 0.13236717E-01 0.12738801E+03</pdfrwt>
<totfact> 0.36971065E+03</totfact>
</mgrwt>
</event>
<event>
 6    1  0.2852411E-002  0.9571319E+02  0.7546771E-02  0.1369116E+00
         -2   -1    0    0    0  501 -0.00000000000E+00  0.00000000000E+00  0.92096375225E+01  0.92096375225E+01  0.00000000000E+00 0.  1.
          2   -1    0    0  501    0  0.00000000000E+00 -0.00000000000E+00 -0.45806671044E+03  0.45806671044E+03  0.00000000000E+00 0. -1.
         23    2    1    2    0    0  0.20812340193E+02 -0.11029895075E+02 -0.41587470841E+03  0.42674674818E+03  0.92769617338E+02 0.  0.
         11    1    3    3    0    0  0.13256423437E+02  0.17224615931E+02 -0.19217193098E+02  0.29012422630E+02  0.00000000000E+00 0.  1.
        -11    1    3    3    0    0  0.75559167560E+01 -0.28254511006E+02 -0.39665751531E+03  0.39773432555E+03  0.00000000000E+00 0. -1.
         22    1    1    2    0    0 -0.20812340193E+02  0.11029895075E+02 -0.32982364507E+02  0.40529599777E+02  0.00000000000E+00 0.  1.
<mgrwt>
<rscale>  0 0.67413530E+02</rscale>
<asrwt>0</asrwt>
<pdfrwt beam="1">  1        2 0.70471806E-01 0.95713186E+02</pdfrwt>
<pdfrwt beam="2">  1       -2 0.14168672E-02 0.95713186E+02</pdfrwt>
<totfact> 0.77332882E+04</totfact>
</mgrwt>
</event>
<event>
 6    1  0.2852411E-002  0.8759392E+02  0.7546771E-02  0.1440179E+00
          2   -1    0    0  501    0  0.00000000000E+00  0.00000000000E+00  0.23414399297E+03  0.23414399297E+03  0.00000000000E+00 0. -1.
         -2   -1    0    0    0  501 -0.00000000000E+00 -0.00000000000E+00 -0.15314406627E+02  0.15314406627E+02  0.00000000000E+00 0.  1.
         23    2    1    2    0    0  0.95959740447E+01 -0.29608532198E+01  0.22221877271E+03  0.23885953391E+03  0.87016346900E+02 0.  0.
         13    1    3    3    0    0  0.89157180674E+01  0.90118061814E+01  0.22594626522E+03  0.22630160726E+03  0.00000000000E+00 0. -1.
        -13    1    3    3    0    0  0.68025597729E+00 -0.11972659401E+02 -0.37274925183E+01  0.12557926652E+02  0.00000000000E+00 0.  1.
         22    1    1    2    0    0 -0.95959740447E+01  0.29608532198E+01 -0.33891863610E+01  0.10598865687E+02  0.00000000000E+00 0.  1.
<mgrwt>
<rscale>  0 0.50969996E+02</rscale>
<asrwt>0</asrwt>
<pdfrwt beam="1">  1        2 0.36022150E-01 0.87593915E+02</pdfrwt>
<pdfrwt beam="2">  1       -2 0.23560627E-02 0.87593915E+02</pdfrwt>
<totfact> 0.74558798E+04</totfact>
</mgrwt>
</event>
<event>
 6    1  0.2852411E-002  0.9962441E+02  0.7546771E-02  0.1345430E+00
         -2   -1    0    0    0  501 -0.00000000000E+00  0.00000000000E+00  0.99508109101E+02  0.99508109101E+02  0.00000000000E+00 0.  1.
          2   -1    0    0  501    0  0.00000000000E+00 -0.00000000000E+00 -0.43386503219E+02  0.43386503219E+02  0.00000000000E+00 0. -1.
         23    2    1    2    0    0  0.30067308885E+02 -0.81530654335E+01  0.36623472680E+02  0.10614284042E+03  0.94628263649E+02 0.  0.
         11    1    3    3    0    0 -0.15416507316E+02 -0.36533287130E+01  0.54733059997E+02  0.56980026019E+02  0.00000000000E+00 0.  1.
        -11    1    3    3    0    0  0.45483816201E+02 -0.44997367205E+01 -0.18109587317E+02  0.49162814398E+02  0.00000000000E+00 0. -1.
         22    1    1    2    0    0 -0.30067308885E+02  0.81530654335E+01  0.19498133203E+02  0.36751771902E+02  0.00000000000E+00 0.  1.
<mgrwt>
<rscale>  0 0.74498863E+02</rscale>
<asrwt>0</asrwt>
<pdfrwt beam="1">  1        2 0.66748467E-02 0.99624414E+02</pdfrwt>
<pdfrwt beam="2">  1       -2 0.15308940E-01 0.99624414E+02</pdfrwt>
<totfact> 0.31359333E+04</totfact>
</mgrwt>
</event>
<event>
 6    1  0.2852411E-002  0.8981606E+02  0.7546771E-02  0.1391115E+00
          2   -1    0    0  501    0  0.00000000000E+00  0.00000000000E+00  0.60269028123E+03  0.60269028123E+03  0.00000000000E+00 0. -1.
         -2   -1    0    0    0  501 -0.00000000000E+00 -0.00000000000E+00 -0.22499952162E+02  0.22499952162E+02  0.00000000000E+00 0.  1.
         23    2    1    2    0    0 -0.82011692988E+01 -0.18144611116E+02  0.59413213784E+03  0.60088261890E+03  0.87581038973E+02 0.  0.
         11    1    3    3    0    0 -0.15603622413E+02 -0.51896239807E+02  0.31610382386E+03  0.32071532579E+03  0.00000000000E+00 0. -1.
        -11    1    3    3    0    0  0.74024531140E+01  0.33751628692E+02  0.27802831398E+03  0.28016729311E+03  0.00000000000E+00 0.  1.
         22    1    1    2    0    0  0.82011692988E+01  0.18144611116E+02 -0.13941808774E+02  0.24307614492E+02  0.00000000000E+00 0.  1.
<mgrwt>
<rscale>  0 0.61630259E+02</rscale>
<asrwt>0</asrwt>
<pdfrwt beam="1">  1        2 0.92721569E-01 0.89816059E+02</pdfrwt>
<pdfrwt beam="2">  1       -2 0.34615316E-02 0.89816059E+02</pdfrwt>
<totfact> 0.15693586E+04</totfact>
</mgrwt>
</event>
<event>
 6    1  0.2852411E-002  0.9702156E+02  0.7546771E-02  0.1389244E+00
          2   -1    0    0  501    0  0.00000000000E+00  0.00000000000E+00  0.10152367676E+04  0.10152367676E+04  0.00000000000E+00 0.  1.
         -2   -1    0    0    0  501 -0.00000000000E+00 -0.00000000000E+00 -0.35241880223E+01  0.35241880223E+01  0.00000000000E+00 0. -1.
         23    2    1    2    0    0 -0.16265014454E+02 -0.66925903214E+00  0.94985570161E+03  0.95479790415E+03  0.95646146142E+02 0.  0.
         11    1    3    3    0    0 -0.25810904890E+02  0.36209227831E+02  0.25126706410E+03  0.25517141003E+03  0.00000000000E+00 0. -1.
        -11    1    3    3    0    0  0.95458904357E+01 -0.36878486863E+02  0.69858863751E+03  0.69962649412E+03  0.00000000000E+00 0.  1.
         22    1    1    2    0    0  0.16265014454E+02  0.66925903214E+00  0.61856878012E+02  0.63963051524E+02  0.00000000000E+00 0.  1.
<mgrwt>
<rscale>  0 0.62095003E+02</rscale>
<asrwt>0</asrwt>
<pdfrwt beam="1">  1        2 0.15619004E+00 0.97021564E+02</pdfrwt>
<pdfrwt beam="2">  1       -2 0.54218358E-03 0.97021564E+02</pdfrwt>
<totfact> 0.11801801E+05</totfact>
</mgrwt>
</event>
<event>
 6    1  0.2852411E-002  0.9213813E+02  0.7546771E-02  0.1383171E+00
          2   -1    0    0  501    0  0.00000000000E+00  0.00000000000E+00  0.12135181966E+03  0.12135181966E+03  0.00000000000E+00 0. -1.
         -2   -1    0    0    0  501 -0.00000000000E+00 -0.00000000000E+00 -0.62299877925E+02  0.62299877925E+02  0.00000000000E+00 0.  1.
         23    2    1    2    0    0  0.17177540641E+02  0.12022713386E+02  0.10102604373E+03  0.13673220507E+03  0.89720793860E+02 0.  0.
         11    1    3    3    0    0 -0.15044477414E+02  0.28210866605E+02  0.94918924466E+02  0.10015883145E+03  0.00000000000E+00 0.  1.
        -11    1    3    3    0    0  0.32222018055E+02 -0.16188153219E+02  0.61071192664E+01  0.36573373620E+02  0.00000000000E+00 0. -1.
         22    1    1    2    0    0 -0.17177540641E+02 -0.12022713386E+02 -0.41974101998E+02  0.46919492518E+02  0.00000000000E+00 0.  1.
<mgrwt>
<rscale>  0 0.63637545E+02</rscale>
<asrwt>0</asrwt>
<pdfrwt beam="1">  1        2 0.18669511E-01 0.92138127E+02</pdfrwt>
<pdfrwt beam="2">  1       -2 0.95845967E-02 0.92138127E+02</pdfrwt>
<totfact> 0.19042921E+04</totfact>
</mgrwt>
</event>
<event>
 6    1  0.2852411E-002  0.9227586E+02  0.7546771E-02  0.1379863E+00
         -2   -1    0    0    0  501 -0.00000000000E+00  0.00000000000E+00  0.56206083498E+02  0.56206083498E+02  0.00000000000E+00 0.  1.
          2   -1    0    0  501    0  0.00000000000E+00 -0.00000000000E+00 -0.61009499891E+02  0.61009499891E+02  0.00000000000E+00 0. -1.
         23    2    1    2    0    0 -0.12968959263E+02  0.17805026298E+02 -0.14025106361E+02  0.93335624602E+02  0.89608160039E+02 0.  0.
         11    1    3    3    0    0 -0.10170088650E+02  0.12855727661E+02  0.37799123869E+02  0.41200415072E+02  0.00000000000E+00 0.  1.
        -11    1    3    3    0    0 -0.27988706132E+01  0.49492986368E+01 -0.51824230231E+02  0.52135209530E+02  0.00000000000E+00 0. -1.
         22    1    1    2    0    0  0.12968959263E+02 -0.17805026298E+02  0.92216899681E+01  0.23879958788E+02  0.00000000000E+00 0. -1.
<mgrwt>
<rscale>  0 0.64499691E+02</rscale>
<asrwt>0</asrwt>
<pdfrwt beam="1">  1        2 0.93860769E-02 0.92275865E+02</pdfrwt>
<pdfrwt beam="2">  1       -2 0.86470898E-02 0.92275865E+02</pdfrwt>
<totfact> 0.50061676E+04</totfact>
</mgrwt>
</event>
<event>
 6    1  0.2852411E-002  0.8801351E+02  0.7546771E-02  0.1431389E+00
         -1   -1    0    0    0  501 -0.00000000000E+00  0.00000000000E+00  0.53049513480E+02  0.53049513480E+02  0.00000000000E+00 0.  1.
          1   -1    0    0  501    0  0.00000000000E+00 -0.00000000000E+00 -0.71427765453E+02  0.71427765453E+02  0.00000000000E+00 0. -1.
         23    2    1    2    0    0 -0.81868068156E+01  0.77860974554E+01 -0.42576945724E+02  0.97771026880E+02  0.87285338234E+02 0.  0.
         11    1    3    3    0    0 -0.15094373538E+01  0.23059442568E+02  0.21498601494E+02  0.31562733704E+02  0.00000000000E+00 0.  1.
        -11    1    3    3    0    0 -0.66773694617E+01 -0.15273345113E+02 -0.64075547219E+02  0.66208293176E+02  0.00000000000E+00 0. -1.
         22    1    1    2    0    0  0.81868068156E+01 -0.77860974554E+01  0.24198693751E+02  0.26706252052E+02  0.00000000000E+00 0.  1.
<mgrwt>
<rscale>  0 0.52682136E+02</rscale>
<asrwt>0</asrwt>
<pdfrwt beam="1">  1        1 0.10988887E-01 0.88013507E+02</pdfrwt>
<pdfrwt beam="2">  1       -1 0.81614637E-02 0.88013507E+02</pdfrwt>
<totfact> 0.40622486E+04</totfact>
</mgrwt>
</event>
<event>
 6    1  0.2852411E-002  0.8932733E+02  0.7546771E-02  0.1427658E+00
         -4   -1    0    0    0  501 -0.00000000000E+00  0.00000000000E+00  0.13372750373E+03  0.13372750373E+03  0.00000000000E+00 0.  1.
          4   -1    0    0  501    0  0.00000000000E+00 -0.00000000000E+00 -0.20090647865E+02  0.20090647865E+02  0.00000000000E+00 0. -1.
         23    2    1    2    0    0  0.11682395329E+01  0.11376554882E+02  0.86388995715E+02  0.12426757347E+03  0.88592214396E+02 0.  0.
         13    1    3    3    0    0 -0.32561657125E+02 -0.18124333700E+02  0.15408854771E+02  0.40325994001E+02  0.00000000000E+00 0. -1.
        -13    1    3    3    0    0  0.33729896658E+02  0.29500888582E+02  0.70980140943E+02  0.83941579471E+02  0.00000000000E+00 0.  1.
         22    1    1    2    0    0 -0.11682395329E+01 -0.11376554882E+02  0.27247860146E+02  0.29550578119E+02  0.00000000000E+00 0.  1.
<mgrwt>
<rscale>  0 0.53433103E+02</rscale>
<asrwt>0</asrwt>
<pdfrwt beam="1">  1        4 0.30908690E-02 0.89327326E+02</pdfrwt>
<pdfrwt beam="2">  1       -4 0.20573462E-01 0.89327326E+02</pdfrwt>
<totfact> 0.15837927E+04</totfact>
</mgrwt>
</event>
<event>
 6    1  0.2852411E-002  0.9214450E+02  0.7546771E-02  0.1408473E+00
          2   -1    0    0  501    0  0.00000000000E+00  0.00000000000E+00  0.11567436321E+04  0.11567436321E+04  0.00000000000E+00 0. -1.
         -2   -1    0    0    0  501 -0.00000000000E+00 -0.00000000000E+00 -0.52277999559E+01  0.52277999559E+01  0.00000000000E+00 0.  1.
         23    2    1    2    0    0 -0.13991559762E+02 -0.65897369873E+00  0.11403278318E+04  0.11440446548E+04  0.91073652436E+02 0.  0.
         13    1    3    3    0    0 -0.71708122118E+01  0.43182799658E+02  0.73337124345E+03  0.73467649714E+03  0.00000000000E+00 0. -1.
        -13    1    3    3    0    0 -0.68207475505E+01 -0.43841773357E+02  0.40695658836E+03  0.40936815765E+03  0.00000000000E+00 0.  1.
         22    1    1    2    0    0  0.13991559762E+02  0.65897369873E+00  0.11188000285E+02  0.17926777215E+02  0.00000000000E+00 0.  1.
<mgrwt>
<rscale>  0 0.57535894E+02</rscale>
<asrwt>0</asrwt>
<pdfrwt beam="1">  1        2 0.17796035E+00 0.92144496E+02</pdfrwt>
<pdfrwt beam="2">  1       -2 0.80427784E-03 0.92144496E+02</pdfrwt>
<totfact> 0.55975211E+04</totfact>
</mgrwt>
</event>
<event>
 6    1  0.2852411E-002  0.9142439E+02  0.7546771E-02  0.1410582E+00
         -2   -1    0    0    0  501 -0.00000000000E+00  0.00000000000E+00  0.25061164288E+02  0.25061164288E+02  0.00000000000E+00 0.  1.
          2   -1    0    0  501    0  0.00000000000E+00 -0.00000000000E+00 -0.11085254431E+03  0.11085254431E+03  0.00000000000E+00 0. -1.
         23    2    1    2    0    0  0.66450333962E+01 -0.12181574282E+02 -0.76564358311E+02  0.11924982098E+03  0.90365212441E+02 0.  0.
         13    1    3    3    0    0  0.32448574012E+02 -0.21761089216E+02 -0.82328231394E+02  0.91128440367E+02  0.00000000000E+00 0. -1.
        -13    1    3    3    0    0 -0.25803540616E+02  0.95795149331E+01  0.57638730839E+01  0.28121380613E+02  0.00000000000E+00 0.  1.
         22    1    1    2    0    0 -0.66450333962E+01  0.12181574282E+02 -0.92270217084E+01  0.16663887615E+02  0.00000000000E+00 0.  1.
<mgrwt>
<rscale>  0 0.57064196E+02</rscale>
<asrwt>0</asrwt>
<pdfrwt beam="1">  1        2 0.17054238E-01 0.91424389E+02</pdfrwt>
<pdfrwt beam="2">  1       -2 0.38555637E-02 0.91424389E+02</pdfrwt>
<totfact> 0.82938541E+04</totfact>
</mgrwt>
</event>
<event>
 6    1  0.2852411E-002  0.9322396E+02  0.7546771E-02  0.1395378E+00
          1   -1    0    0  501    0  0.00000000000E+00  0.00000000000E+00  0.67804152450E+03  0.67804152450E+03  0.00000000000E+00 0. -1.
         -1   -1    0    0    0  501 -0.00000000000E+00 -0.00000000000E+00 -0.51743764312E+01  0.51743764312E+01  0.00000000000E+00 0.  1.
         23    2    1    2    0    0 -0.16546382439E+02 -0.16983490334E+01  0.63566589715E+03  0.64246543798E+03  0.91728071115E+02 0.  0.
         11    1    3    3    0    0 -0.31659619948E+02  0.18878930680E+02  0.58059789621E+03  0.58176684560E+03  0.00000000000E+00 0. -1.
        -11    1    3    3    0    0  0.15113237508E+02 -0.20577279713E+02  0.55068000941E+02  0.60698592372E+02  0.00000000000E+00 0.  1.
         22    1    1    2    0    0  0.16546382439E+02  0.16983490334E+01  0.37201250914E+02  0.40750462953E+02  0.00000000000E+00 0.  1.
<mgrwt>
<rscale>  0 0.60588521E+02</rscale>
<asrwt>0</asrwt>
<pdfrwt beam="1">  1        1 0.10431401E+00 0.93223957E+02</pdfrwt>
<pdfrwt beam="2">  1       -1 0.79605845E-03 0.93223957E+02</pdfrwt>
<totfact> 0.68427037E+04</totfact>
</mgrwt>
</event>
<event>
 6    1  0.2852411E-002  0.9236207E+02  0.7546771E-02  0.1392887E+00
          2   -1    0    0  501    0  0.00000000000E+00  0.00000000000E+00  0.13072064227E+02  0.13072064227E+02  0.00000000000E+00 0. -1.
         -2   -1    0    0    0  501 -0.00000000000E+00 -0.00000000000E+00 -0.25922765222E+03  0.25922765222E+03  0.00000000000E+00 0.  1.
         23    2    1    2    0    0 -0.17494358960E+02  0.32714364015E+01 -0.16382575847E+03  0.18806815632E+03  0.90631106103E+02 0.  0.
         13    1    3    3    0    0  0.27430845316E+02 -0.26588271370E+02 -0.74331204614E+02  0.83573413407E+02  0.00000000000E+00 0.  1.
        -13    1    3    3    0    0 -0.44925204276E+02  0.29859707772E+02 -0.89494553856E+02  0.10449474292E+03  0.00000000000E+00 0. -1.
         22    1    1    2    0    0  0.17494358960E+02 -0.32714364015E+01 -0.82329829520E+02  0.84231560121E+02  0.00000000000E+00 0.  1.
<mgrwt>
<rscale>  0 0.61194257E+02</rscale>
<asrwt>0</asrwt>
<pdfrwt beam="1">  1        2 0.20110871E-02 0.92362072E+02</pdfrwt>
<pdfrwt beam="2">  1       -2 0.39881171E-01 0.92362072E+02</pdfrwt>
<totfact> 0.28461249E+04</totfact>
</mgrwt>
</event>
<event>
 6    1  0.2852411E-002  0.9308111E+02  0.7546771E-02  0.1374174E+00
         -2   -1    0    0    0  501 -0.00000000000E+00  0.00000000000E+00  0.54899831934E+01  0.54899831934E+01  0.00000000000E+00 0.  1.
          2   -1    0    0  501    0  0.00000000000E+00 -0.00000000000E+00 -0.63780496569E+03  0.63780496569E+03  0.00000000000E+00 0. -1.
         23    2    1    2    0    0 -0.15553319522E+02 -0.17693176156E+02 -0.54327913305E+03  0.55119534673E+03  0.90050761327E+02 0.  0.
         11    1    3    3    0    0 -0.34650759753E+02 -0.45972592517E+02 -0.29314117997E+03  0.29874053258E+03  0.00000000000E+00 0.  1.
        -11    1    3    3    0    0  0.19097440231E+02  0.28279416362E+02 -0.25013795308E+03  0.25245481415E+03  0.00000000000E+00 0. -1.
         22    1    1    2    0    0  0.15553319522E+02  0.17693176156E+02 -0.89035849443E+02  0.92099602152E+02  0.00000000000E+00 0. -1.
<mgrwt>
<rscale>  0 0.66020427E+02</rscale>
<asrwt>0</asrwt>
<pdfrwt beam="1">  1        2 0.98123835E-01 0.93081114E+02</pdfrwt>
<pdfrwt beam="2">  1       -2 0.84461285E-03 0.93081114E+02</pdfrwt>
<totfact> 0.11158056E+05</totfact>
</mgrwt>
</event>
<event>
 6    1  0.2852411E-002  0.9581197E+02  0.7546771E-02  0.1374421E+00
         -2   -1    0    0    0  501 -0.00000000000E+00  0.00000000000E+00  0.27611388658E+02  0.27611388658E+02  0.00000000000E+00 0.  1.
          2   -1    0    0  501    0  0.00000000000E+00 -0.00000000000E+00 -0.14129195439E+03  0.14129195439E+03  0.00000000000E+00 0. -1.
         23    2    1    2    0    0  0.12709174326E+02  0.17356898032E+02 -0.11190429312E+03  0.14731769583E+03  0.93365666415E+02 0.  0.
         11    1    3    3    0    0 -0.13880266764E+02  0.46910131132E+02 -0.88675146549E+02  0.10127439866E+03  0.00000000000E+00 0. -1.
        -11    1    3    3    0    0  0.26589441090E+02 -0.29553233100E+02 -0.23229146572E+02  0.46043297173E+02  0.00000000000E+00 0.  1.
         22    1    1    2    0    0 -0.12709174326E+02 -0.17356898032E+02 -0.17762726117E+01  0.21585647216E+02  0.00000000000E+00 0.  1.
<mgrwt>
<rscale>  0 0.65953405E+02</rscale>
<asrwt>0</asrwt>
<pdfrwt beam="1">  1        2 0.21737224E-01 0.95811965E+02</pdfrwt>
<pdfrwt beam="2">  1       -2 0.42479060E-02 0.95811965E+02</pdfrwt>
<totfact> 0.55123325E+04</totfact>
</mgrwt>
</event>
<event>
 6    1  0.2852411E-002  0.9742783E+02  0.7546771E-02  0.1338651E+00
         -2   -1    0    0    0  501 -0.00000000000E+00  0.00000000000E+00  0.15776389452E+02  0.15776389452E+02  0.00000000000E+00 0.  1.
          2   -1    0    0  501    0  0.00000000000E+00 -0.00000000000E+00 -0.30297571037E+03  0.30297571037E+03  0.00000000000E+00 0. -1.
         23    2    1    2    0    0 -0.33334146728E+02  0.17058601922E+02 -0.23600872137E+03  0.25532782435E+03  0.89944538939E+02 0.  0.
         13    1    3    3    0    0  0.20343076226E+02  0.23068116273E+02 -0.15460606742E+03  0.15763570288E+03  0.00000000000E+00 0. -1.
        -13    1    3    3    0    0 -0.53677222954E+02 -0.60095143510E+01 -0.81402653950E+02  0.97692121468E+02  0.00000000000E+00 0.  1.
         22    1    1    2    0    0  0.33334146728E+02 -0.17058601922E+02 -0.51190599550E+02  0.63424275478E+02  0.00000000000E+00 0. -1.
<mgrwt>
<rscale>  0 0.76711770E+02</rscale>
<asrwt>0</asrwt>
<pdfrwt beam="1">  1        2 0.46611646E-01 0.97427826E+02</pdfrwt>
<pdfrwt beam="2">  1       -2 0.24271369E-02 0.97427826E+02</pdfrwt>
<totfact> 0.55311018E+04</totfact>
</mgrwt>
</event>
<event>
 6    1  0.2852411E-002  0.9345554E+02  0.7546771E-02  0.1388912E+00
          3   -1    0    0  501    0  0.00000000000E+00  0.00000000000E+00  0.50119553098E+03  0.50119553098E+03  0.00000000000E+00 0. -1.
         -3   -1    0    0    0  501 -0.00000000000E+00 -0.00000000000E+00 -0.62734715104E+01  0.62734715104E+01  0.00000000000E+00 0.  1.
         23    2    1    2    0    0 -0.18148622083E+02  0.24400520651E+01  0.39722770837E+03  0.40807326528E+03  0.91643937098E+02 0.  0.
         13    1    3    3    0    0 -0.27204067043E+01 -0.92383920592E+01 -0.71806399078E+00  0.96573348483E+01  0.00000000000E+00 0.  1.
        -13    1    3    3    0    0 -0.15428215378E+02  0.11678444124E+02  0.39794577236E+03  0.39841593043E+03  0.00000000000E+00 0. -1.
         22    1    1    2    0    0  0.18148622083E+02 -0.24400520651E+01  0.97694351100E+02  0.99395737204E+02  0.00000000000E+00 0.  1.
<mgrwt>
<rscale>  0 0.62178070E+02</rscale>
<asrwt>0</asrwt>
<pdfrwt beam="1">  1        3 0.77106973E-01 0.93455538E+02</pdfrwt>
<pdfrwt beam="2">  1       -3 0.96514986E-03 0.93455538E+02</pdfrwt>
<totfact> 0.97239763E+03</totfact>
</mgrwt>
</event>
<event>
 6    1  0.2852411E-002  0.9285963E+02  0.7546771E-02  0.1424517E+00
          2   -1    0    0  501    0  0.00000000000E+00  0.00000000000E+00  0.85912537561E+02  0.85912537561E+02  0.00000000000E+00 0. -1.
         -2   -1    0    0    0  501 -0.00000000000E+00 -0.00000000000E+00 -0.37367264113E+02  0.37367264113E+02  0.00000000000E+00 0.  1.
         23    2    1    2    0    0 -0.43614290834E+01 -0.97484120667E+01  0.57604207847E+02  0.10927559181E+03  0.92243463736E+02 0.  0.
         13    1    3    3    0    0 -0.27602902714E+02 -0.62150906405E+01 -0.15655523359E+02  0.32336403658E+02  0.00000000000E+00 0.  1.
        -13    1    3    3    0    0  0.23241473630E+02 -0.35333214262E+01  0.73259731207E+02  0.76939188151E+02  0.00000000000E+00 0. -1.
         22    1    1    2    0    0  0.43614290834E+01  0.97484120667E+01 -0.90589343996E+01  0.14004209864E+02  0.00000000000E+00 0.  1.
<mgrwt>
<rscale>  0 0.54076531E+02</rscale>
<asrwt>0</asrwt>
<pdfrwt beam="1">  1        2 0.13217313E-01 0.92859626E+02</pdfrwt>
<pdfrwt beam="2">  1       -2 0.57488099E-02 0.92859626E+02</pdfrwt>
<totfact> 0.61750631E+04</totfact>
</mgrwt>
</event>
<event>
 6    1  0.2852411E-002  0.9344179E+02  0.7546771E-02  0.1397411E+00
          2   -1    0    0  501    0  0.00000000000E+00  0.00000000000E+00  0.17738245331E+02  0.17738245331E+02  0.00000000000E+00 0. -1.
         -2   -1    0    0    0  501 -0.00000000000E+00 -0.00000000000E+00 -0.21482106663E+03  0.21482106663E+03  0.00000000000E+00 0.  1.
         23    2    1    2    0    0  0.61984417833E+01  0.14741275194E+02 -0.11141657743E+03  0.14541327813E+03  0.92063249203E+02 0.  0.
         13    1    3    3    0    0 -0.14892168866E+01 -0.73342257030E+01  0.15048090281E+02  0.16806357568E+02  0.00000000000E+00 0. -1.
        -13    1    3    3    0    0  0.76876586699E+01  0.22075500897E+02 -0.12646466771E+03  0.12860692056E+03  0.00000000000E+00 0.  1.
         22    1    1    2    0    0 -0.61984417833E+01 -0.14741275194E+02 -0.85666243864E+02  0.87146033832E+02  0.00000000000E+00 0. -1.
<mgrwt>
<rscale>  0 0.60100445E+02</rscale>
<asrwt>0</asrwt>
<pdfrwt beam="1">  1        2 0.27289606E-02 0.93441788E+02</pdfrwt>
<pdfrwt beam="2">  1       -2 0.33049398E-01 0.93441788E+02</pdfrwt>
<totfact> 0.26760236E+04</totfact>
</mgrwt>
</event>
<event>
 6    1  0.2852411E-002  0.9145789E+02  0.7546771E-02  0.1412539E+00
          2   -1    0    0  501    0  0.00000000000E+00  0.00000000000E+00  0.36720804966E+02  0.36720804966E+02  0.00000000000E+00 0. -1.
         -2   -1    0    0    0  501 -0.00000000000E+00 -0.00000000000E+00 -0.76902716897E+02  0.76902716897E+02  0.00000000000E+00 0.  1.
         23    2    1    2    0    0  0.65378791627E+01 -0.11748166897E+02 -0.28452793397E+02  0.95781562583E+02  0.90464263603E+02 0.  0.
         11    1    3    3    0    0  0.48092784714E+02 -0.11021530327E+02 -0.20687703195E+02  0.53501132098E+02  0.00000000000E+00 0.  1.
        -11    1    3    3    0    0 -0.41554905551E+02 -0.72663657061E+00 -0.77650902026E+01  0.42280430484E+02  0.00000000000E+00 0. -1.
         22    1    1    2    0    0 -0.65378791627E+01  0.11748166897E+02 -0.11729118534E+02  0.17841959281E+02  0.00000000000E+00 0.  1.
<mgrwt>
<rscale>  0 0.56631058E+02</rscale>
<asrwt>0</asrwt>
<pdfrwt beam="1">  1        2 0.56493546E-02 0.91457893E+02</pdfrwt>
<pdfrwt beam="2">  1       -2 0.11831187E-01 0.91457893E+02</pdfrwt>
<totfact> 0.57898792E+04</totfact>
</mgrwt>
</event>
<event>
 6    1  0.2852411E-002  0.9161239E+02  0.7546771E-02  0.1420723E+00
          1   -1    0    0  501    0  0.00000000000E+00  0.00000000000E+00  0.28867720372E+02  0.28867720372E+02  0.00000000000E+00 0. -1.
         -1   -1    0    0    0  501 -0.00000000000E+00 -0.00000000000E+00 -0.92590708505E+02  0.92590708505E+02  0.00000000000E+00 0.  1.
         23    2    1    2    0    0  0.62585072948E+01  0.99886982014E+01 -0.56417480281E+02  0.10759071637E+03  0.90850906224E+02 0.  0.
         13    1    3    3    0    0  0.17527359035E+01 -0.40327801537E+02 -0.31837474482E+02  0.51410392348E+02  0.00000000000E+00 0.  1.
        -13    1    3    3    0    0  0.45057713912E+01  0.50316499738E+02 -0.24580005799E+02  0.56180324019E+02  0.00000000000E+00 0. -1.
         22    1    1    2    0    0 -0.62585072948E+01 -0.99886982014E+01 -0.73055078522E+01  0.13867712511E+02  0.00000000000E+00 0. -1.
<mgrwt>
<rscale>  0 0.54868141E+02</rscale>
<asrwt>0</asrwt>
<pdfrwt beam="1">  1        1 0.44411877E-02 0.91612391E+02</pdfrwt>
<pdfrwt beam="2">  1       -1 0.14244725E-01 0.91612391E+02</pdfrwt>
<totfact> 0.58642142E+04</totfact>
</mgrwt>
</event>
<event>
 6    1  0.2852411E-002  0.9442666E+02  0.7546771E-02  0.1409868E+00
         -2   -1    0    0    0  501 -0.00000000000E+00  0.00000000000E+00  0.55837181694E+01  0.55837181694E+01  0.00000000000E+00 0.  1.
          2   -1    0    0  501    0  0.00000000000E+00 -0.00000000000E+00 -0.54431194320E+03  0.54431194320E+03  0.00000000000E+00 0. -1.
         23    2    1    2    0    0  0.11033862324E+02 -0.63593648709E+01 -0.50679175512E+03  0.51551360573E+03  0.93563919329E+02 0.  0.
         11    1    3    3    0    0  0.33663152850E+01 -0.77218431969E+01 -0.50761288685E+03  0.50768277678E+03  0.00000000000E+00 0. -1.
        -11    1    3    3    0    0  0.76675470395E+01  0.13624783260E+01  0.82113173185E+00  0.78308289544E+01  0.00000000000E+00 0.  1.
         22    1    1    2    0    0 -0.11033862324E+02  0.63593648709E+01 -0.31936469915E+02  0.34382055639E+02  0.00000000000E+00 0.  1.
<mgrwt>
<rscale>  0 0.57223340E+02</rscale>
<asrwt>0</asrwt>
<pdfrwt beam="1">  1        2 0.83740332E-01 0.94426663E+02</pdfrwt>
<pdfrwt beam="2">  1       -2 0.85903322E-03 0.94426663E+02</pdfrwt>
<totfact> 0.13030058E+05</totfact>
</mgrwt>
</event>
<event>
 6    1  0.2852411E-002  0.7478614E+02  0.7546771E-02  0.1432729E+00
         -2   -1    0    0    0  501 -0.00000000000E+00  0.00000000000E+00  0.17965001246E+01  0.17965001246E+01  0.00000000000E+00 0.  1.
          2   -1    0    0  501    0  0.00000000000E+00 -0.00000000000E+00 -0.15611422485E+04  0.15611422485E+04  0.00000000000E+00 0. -1.
         23    2    1    2    0    0 -0.17619243173E+02  0.39037175041E+01 -0.14634536842E+04  0.14653633177E+04  0.72576101035E+02 0.  0.
         11    1    3    3    0    0 -0.12114620088E+02 -0.13250362817E+02 -0.13738072288E+04  0.13739245387E+04  0.00000000000E+00 0. -1.
        -11    1    3    3    0    0 -0.55046230855E+01  0.17154080321E+02 -0.89646455399E+02  0.91438779041E+02  0.00000000000E+00 0.  1.
         22    1    1    2    0    0  0.17619243173E+02 -0.39037175041E+01 -0.95892064184E+02  0.97575430893E+02  0.00000000000E+00 0. -1.
<mgrwt>
<rscale>  0 0.52416038E+02</rscale>
<asrwt>0</asrwt>
<pdfrwt beam="1">  1        2 0.24017451E+00 0.74786143E+02</pdfrwt>
<pdfrwt beam="2">  1       -2 0.27638604E-03 0.74786143E+02</pdfrwt>
<totfact> 0.14922129E+05</totfact>
</mgrwt>
</event>
<event>
 6    1  0.2852411E-002  0.9106086E+02  0.7546771E-02  0.1424654E+00
         -2   -1    0    0    0  501 -0.00000000000E+00  0.00000000000E+00  0.12599724304E+03  0.12599724304E+03  0.00000000000E+00 0.  1.
          2   -1    0    0  501    0  0.00000000000E+00 -0.00000000000E+00 -0.22462021219E+02  0.22462021219E+02  0.00000000000E+00 0. -1.
         23    2    1    2    0    0  0.20751471439E+01  0.11109325171E+02  0.75698911211E+02  0.11841623629E+03  0.90356828829E+02 0.  0.
         13    1    3    3    0    0  0.23182141615E+02  0.69231910192E+01 -0.12777538887E+02  0.27360697428E+02  0.00000000000E+00 0. -1.
        -13    1    3    3    0    0 -0.21106994471E+02  0.41861341518E+01  0.88476450098E+02  0.91055538858E+02  0.00000000000E+00 0.  1.
         22    1    1    2    0    0 -0.20751471439E+01 -0.11109325171E+02  0.27836310605E+02  0.30043027969E+02  0.00000000000E+00 0. -1.
<mgrwt>
<rscale>  0 0.54048368E+02</rscale>
<asrwt>0</asrwt>
<pdfrwt beam="1">  1        2 0.34556957E-02 0.91060858E+02</pdfrwt>
<pdfrwt beam="2">  1       -2 0.19384191E-01 0.91060858E+02</pdfrwt>
<totfact> 0.49235970E+04</totfact>
</mgrwt>
</event>
<event>
 6    1  0.2852411E-002  0.9312045E+02  0.7546771E-02  0.1377686E+00
         -2   -1    0    0    0  501 -0.00000000000E+00  0.00000000000E+00  0.11351597295E+02  0.11351597295E+02  0.00000000000E+00 0. -1.
          2   -1    0    0  501    0  0.00000000000E+00 -0.00000000000E+00 -0.40382657417E+03  0.40382657417E+03  0.00000000000E+00 0.  1.
         23    2    1    2    0    0  0.21999974702E+02 -0.30466131092E+01 -0.37643497223E+03  0.38778177595E+03  0.90433050924E+02 0.  0.
         11    1    3    3    0    0  0.29103899569E+02 -0.92588684264E+01 -0.37708742255E+03  0.37832220112E+03  0.00000000000E+00 0.  1.
        -11    1    3    3    0    0 -0.71039248663E+01  0.62122553172E+01  0.65245031180E+00  0.94595748341E+01  0.00000000000E+00 0. -1.
         22    1    1    2    0    0 -0.21999974702E+02  0.30466131092E+01 -0.16040004643E+02  0.27396395516E+02  0.00000000000E+00 0. -1.
<mgrwt>
<rscale>  0 0.65075956E+02</rscale>
<asrwt>0</asrwt>
<pdfrwt beam="1">  1        2 0.62127163E-01 0.93120446E+02</pdfrwt>
<pdfrwt beam="2">  1       -2 0.17463997E-02 0.93120446E+02</pdfrwt>
<totfact> 0.65320013E+04</totfact>
</mgrwt>
</event>
<event>
 6    1  0.2852411E-002  0.9036393E+02  0.7546771E-02  0.1429569E+00
         -2   -1    0    0    0  501 -0.00000000000E+00  0.00000000000E+00  0.51746225353E+01  0.51746225353E+01  0.00000000000E+00 0.  1.
          2   -1    0    0  501    0  0.00000000000E+00 -0.00000000000E+00 -0.62662721357E+03  0.62662721357E+03  0.00000000000E+00 0. -1.
         23    2    1    2    0    0 -0.90782570598E+01 -0.57221216178E+01 -0.60758039985E+03  0.61426344635E+03  0.89724477200E+02 0.  0.
         11    1    3    3    0    0 -0.20632093973E+02  0.36205626334E+02 -0.19534782955E+03  0.19974309798E+03  0.00000000000E+00 0.  1.
        -11    1    3    3    0    0  0.11553836913E+02 -0.41927747952E+02 -0.41223257030E+03  0.41452034837E+03  0.00000000000E+00 0. -1.
         22    1    1    2    0    0  0.90782570598E+01  0.57221216178E+01 -0.13872191183E+02  0.17538389757E+02  0.00000000000E+00 0.  1.
<mgrwt>
<rscale>  0 0.53046632E+02</rscale>
<asrwt>0</asrwt>
<pdfrwt beam="1">  1        2 0.96404105E-01 0.90363927E+02</pdfrwt>
<pdfrwt beam="2">  1       -2 0.79609645E-03 0.90363927E+02</pdfrwt>
<totfact> 0.12322669E+05</totfact>
</mgrwt>
</event>
<event>
 6    1  0.2852411E-002  0.8102948E+02  0.7546771E-02  0.1407550E+00
         -2   -1    0    0    0  501 -0.00000000000E+00  0.00000000000E+00  0.90742572648E+02  0.90742572648E+02  0.00000000000E+00 0.  1.
          2   -1    0    0  501    0  0.00000000000E+00 -0.00000000000E+00 -0.29775017998E+02  0.29775017998E+02  0.00000000000E+00 0. -1.
         23    2    1    2    0    0 -0.10096196702E+02 -0.18297109797E+02  0.38101161793E+02  0.89540351630E+02  0.78288304525E+02 0.  0.
         13    1    3    3    0    0 -0.13998738377E+02 -0.46049417444E+02  0.86782831200E+01  0.48906299400E+02  0.00000000000E+00 0.  1.
        -13    1    3    3    0    0  0.39025416750E+01  0.27752307647E+02  0.29422878673E+02  0.40634052230E+02  0.00000000000E+00 0. -1.
         22    1    1    2    0    0  0.10096196702E+02  0.18297109797E+02  0.22866392857E+02  0.30977239016E+02  0.00000000000E+00 0.  1.
<mgrwt>
<rscale>  0 0.57744063E+02</rscale>
<asrwt>0</asrwt>
<pdfrwt beam="1">  1        2 0.45807720E-02 0.81029476E+02</pdfrwt>
<pdfrwt beam="2">  1       -2 0.13960396E-01 0.81029476E+02</pdfrwt>
<totfact> 0.57221051E+04</totfact>
</mgrwt>
</event>
<event>
 6    1  0.2852411E-002  0.1105767E+03  0.7546771E-02  0.1290734E+00
         -2   -1    0    0    0  501 -0.00000000000E+00  0.00000000000E+00  0.47466530238E+02  0.47466530238E+02  0.00000000000E+00 0.  1.
          2   -1    0    0  501    0  0.00000000000E+00 -0.00000000000E+00 -0.83536070969E+03  0.83536070969E+03  0.00000000000E+00 0. -1.
         23    2    1    2    0    0  0.54983573020E+02  0.25815850650E+02 -0.81050478479E+03  0.81801295971E+03  0.92398834623E+02 0.  0.
         13    1    3    3    0    0  0.89502246156E+01 -0.21237184869E+02 -0.50365702830E+03  0.50418402067E+03  0.00000000000E+00 0.  1.
        -13    1    3    3    0    0  0.46033348404E+02  0.47053035519E+02 -0.30684775649E+03  0.31382893904E+03  0.00000000000E+00 0. -1.
         22    1    1    2    0    0 -0.54983573020E+02 -0.25815850650E+02  0.22610605335E+02  0.64814280220E+02  0.00000000000E+00 0.  1.
<mgrwt>
<rscale>  0 0.95196449E+02</rscale>
<asrwt>0</asrwt>
<pdfrwt beam="1">  1        2 0.12851702E+00 0.11057665E+03</pdfrwt>
<pdfrwt beam="2">  1       -2 0.73025440E-02 0.11057665E+03</pdfrwt>
<totfact> 0.35541568E+03</totfact>
</mgrwt>
</event>
<event>
 6    1  0.2852411E-002  0.9423633E+02  0.7546771E-02  0.1370853E+00
         -2   -1    0    0    0  501 -0.00000000000E+00  0.00000000000E+00  0.43150755535E+01  0.43150755535E+01  0.00000000000E+00 0.  1.
          2   -1    0    0  501    0  0.00000000000E+00 -0.00000000000E+00 -0.11216647258E+04  0.11216647258E+04  0.00000000000E+00 0. -1.
         23    2    1    2    0    0  0.10231145889E+02 -0.21687724524E+02 -0.10546368300E+04  0.10588386697E+04  0.91134249581E+02 0.  0.
         11    1    3    3    0    0  0.65273140719E+01  0.91626046143E+01 -0.15061789807E+02  0.18799379364E+02  0.00000000000E+00 0.  1.
        -11    1    3    3    0    0  0.37038318172E+01 -0.30850329139E+02 -0.10395750402E+04  0.10400392903E+04  0.00000000000E+00 0. -1.
         22    1    1    2    0    0 -0.10231145889E+02  0.21687724524E+02 -0.62712820276E+02  0.67141131717E+02  0.00000000000E+00 0.  1.
<mgrwt>
<rscale>  0 0.66930709E+02</rscale>
<asrwt>0</asrwt>
<pdfrwt beam="1">  1        2 0.17256399E+00 0.94236326E+02</pdfrwt>
<pdfrwt beam="2">  1       -2 0.66385707E-03 0.94236326E+02</pdfrwt>
<totfact> 0.76912615E+04</totfact>
</mgrwt>
</event>
<event>
 6    1  0.2852411E-002  0.9512345E+02  0.7546771E-02  0.1413091E+00
         -2   -1    0    0    0  501 -0.00000000000E+00  0.00000000000E+00  0.12119318725E+03  0.12119318725E+03  0.00000000000E+00 0.  1.
          2   -1    0    0  501    0  0.00000000000E+00 -0.00000000000E+00 -0.23692444410E+02  0.23692444410E+02  0.00000000000E+00 0. -1.
         23    2    1    2    0    0  0.11847507582E+02 -0.49565888781E-01  0.83782637604E+02  0.12675961986E+03  0.94382757798E+02 0.  0.
         13    1    3    3    0    0  0.49317571806E+02  0.15750074432E+02  0.61499986605E+02  0.80389900397E+02  0.00000000000E+00 0.  1.
        -13    1    3    3    0    0 -0.37470064224E+02 -0.15799640321E+02  0.22282650999E+02  0.46369719459E+02  0.00000000000E+00 0. -1.
         22    1    1    2    0    0 -0.11847507582E+02  0.49565888781E-01  0.13718105236E+02  0.18126011805E+02  0.00000000000E+00 0.  1.
<mgrwt>
<rscale>  0 0.56509751E+02</rscale>
<asrwt>0</asrwt>
<pdfrwt beam="1">  1        2 0.36449915E-02 0.95123451E+02</pdfrwt>
<pdfrwt beam="2">  1       -2 0.18645105E-01 0.95123451E+02</pdfrwt>
<totfact> 0.49272995E+04</totfact>
</mgrwt>
</event>
<event>
 6    1  0.2852411E-002  0.9297729E+02  0.7546771E-02  0.1391779E+00
         -2   -1    0    0    0  501 -0.00000000000E+00  0.00000000000E+00  0.94186603934E+01  0.94186603934E+01  0.00000000000E+00 0. -1.
          2   -1    0    0  501    0  0.00000000000E+00 -0.00000000000E+00 -0.37643925852E+03  0.37643925852E+03  0.00000000000E+00 0.  1.
         23    2    1    2    0    0 -0.15741324775E+02  0.82216413972E+01 -0.34631821300E+03  0.35858204234E+03  0.91265501372E+02 0.  0.
         11    1    3    3    0    0 -0.23012365691E+02  0.34886182626E+02 -0.74986312853E+02  0.85846152087E+02  0.00000000000E+00 0. -1.
        -11    1    3    3    0    0  0.72710409161E+01 -0.26664541229E+02 -0.27133190014E+03  0.27273589025E+03  0.00000000000E+00 0.  1.
         22    1    1    2    0    0  0.15741324775E+02 -0.82216413972E+01 -0.20702385130E+02  0.27275876576E+02  0.00000000000E+00 0. -1.
<mgrwt>
<rscale>  0 0.61466394E+02</rscale>
<asrwt>0</asrwt>
<pdfrwt beam="1">  1        2 0.57913727E-01 0.92977290E+02</pdfrwt>
<pdfrwt beam="2">  1       -2 0.14490248E-02 0.92977290E+02</pdfrwt>
<totfact> 0.91814691E+04</totfact>
</mgrwt>
</event>
<event>
 6    1  0.2852411E-002  0.9425476E+02  0.7546771E-02  0.1382698E+00
         -1   -1    0    0    0  501 -0.00000000000E+00  0.00000000000E+00  0.13172136257E+02  0.13172136257E+02  0.00000000000E+00 0.  1.
          1   -1    0    0  501    0  0.00000000000E+00 -0.00000000000E+00 -0.25631988850E+03  0.25631988850E+03  0.00000000000E+00 0. -1.
         23    2    1    2    0    0  0.16041349406E+02 -0.11498790002E+02 -0.21815409241E+03  0.23764504540E+03  0.92165137151E+02 0.  0.
         13    1    3    3    0    0  0.16463231563E+02 -0.40556958883E+02 -0.19672952531E+03  0.20154009783E+03  0.00000000000E+00 0. -1.
        -13    1    3    3    0    0 -0.42188215644E+00  0.29058168881E+02 -0.21424567104E+02  0.36104947567E+02  0.00000000000E+00 0.  1.
         22    1    1    2    0    0 -0.16041349406E+02  0.11498790002E+02 -0.24993659829E+02  0.31846979354E+02  0.00000000000E+00 0. -1.
<mgrwt>
<rscale>  0 0.63759875E+02</rscale>
<asrwt>0</asrwt>
<pdfrwt beam="1">  1        1 0.39433830E-01 0.94254759E+02</pdfrwt>
<pdfrwt beam="2">  1       -1 0.20264825E-02 0.94254759E+02</pdfrwt>
<totfact> 0.62651462E+04</totfact>
</mgrwt>
</event>
<event>
 6    1  0.2852411E-002  0.8821634E+02  0.7546771E-02  0.1423339E+00
          2   -1    0    0  501    0  0.00000000000E+00  0.00000000000E+00  0.19591212838E+04  0.19591212838E+04  0.00000000000E+00 0. -1.
         -2   -1    0    0    0  501 -0.00000000000E+00 -0.00000000000E+00 -0.18925350836E+01  0.18925350836E+01  0.00000000000E+00 0.  1.
         23    2    1    2    0    0 -0.17816571966E+01 -0.12556923026E+02  0.19121803812E+04  0.19142141818E+04  0.87299901579E+02 0.  0.
         13    1    3    3    0    0 -0.21179710585E+02 -0.23976013437E+02  0.17678190226E+04  0.17681084599E+04  0.00000000000E+00 0. -1.
        -13    1    3    3    0    0  0.19398053389E+02  0.11419090411E+02  0.14436135866E+03  0.14610572191E+03  0.00000000000E+00 0.  1.
         22    1    1    2    0    0  0.17816571966E+01  0.12556923026E+02  0.45048367504E+02  0.46799637103E+02  0.00000000000E+00 0.  1.
<mgrwt>
<rscale>  0 0.54320610E+02</rscale>
<asrwt>0</asrwt>
<pdfrwt beam="1">  1        2 0.30140165E+00 0.88216344E+02</pdfrwt>
<pdfrwt beam="2">  1       -2 0.29116081E-03 0.88216344E+02</pdfrwt>
<totfact> 0.89528609E+04</totfact>
</mgrwt>
</event>
<event>
 6    1  0.2852411E-002  0.1059539E+03  0.7546771E-02  0.1304480E+00
          2   -1    0    0  501    0  0.00000000000E+00  0.00000000000E+00  0.20331421767E+03  0.20331421767E+03  0.00000000000E+00 0. -1.
         -2   -1    0    0    0  501 -0.00000000000E+00 -0.00000000000E+00 -0.31583097802E+02  0.31583097802E+02  0.00000000000E+00 0.  1.
         23    2    1    2    0    0  0.16266483435E+02  0.51006572105E+02  0.12471126845E+03  0.16364329587E+03  0.91432810989E+02 0.  0.
         11    1    3    3    0    0 -0.57220253478E+01 -0.60123129241E+00  0.10351606271E+03  0.10367583272E+03  0.00000000000E+00 0. -1.
        -11    1    3    3    0    0  0.21988508782E+02  0.51607803397E+02  0.21195205741E+02  0.59967463147E+02  0.00000000000E+00 0.  1.
         22    1    1    2    0    0 -0.16266483435E+02 -0.51006572105E+02  0.47019851420E+02  0.71254019597E+02  0.00000000000E+00 0. -1.
<mgrwt>
<rscale>  0 0.89331024E+02</rscale>
<asrwt>0</asrwt>
<pdfrwt beam="1">  1        2 0.31279110E-01 0.10595389E+03</pdfrwt>
<pdfrwt beam="2">  1       -2 0.48589383E-02 0.10595389E+03</pdfrwt>
<totfact> 0.30777389E+04</totfact>
</mgrwt>
</event>
<event>
 6    1  0.2852411E-002  0.9147451E+02  0.7546771E-02  0.1414720E+00
         -3   -1    0    0    0  501 -0.00000000000E+00  0.00000000000E+00  0.21720430092E+03  0.21720430092E+03  0.00000000000E+00 0.  1.
          3   -1    0    0  501    0  0.00000000000E+00 -0.00000000000E+00 -0.14665011203E+02  0.14665011203E+02  0.00000000000E+00 0. -1.
         23    2    1    2    0    0  0.35838552613E+01  0.12486089281E+02  0.13487177210E+03  0.16296619620E+03  0.90547444741E+02 0.  0.
         11    1    3    3    0    0 -0.19967494421E+02  0.28002624021E+02  0.12983961450E+03  0.13431743475E+03  0.00000000000E+00 0.  1.
        -11    1    3    3    0    0  0.23551349682E+02 -0.15516534740E+02  0.50321576035E+01  0.28648761445E+02  0.00000000000E+00 0. -1.
         22    1    1    2    0    0 -0.35838552613E+01 -0.12486089281E+02  0.67667517617E+02  0.68903115928E+02  0.00000000000E+00 0.  1.
<mgrwt>
<rscale>  0 0.56153832E+02</rscale>
<asrwt>0</asrwt>
<pdfrwt beam="1">  1        3 0.22561557E-02 0.91474511E+02</pdfrwt>
<pdfrwt beam="2">  1       -3 0.33416044E-01 0.91474511E+02</pdfrwt>
<totfact> 0.14297925E+04</totfact>
</mgrwt>
</event>
<event>
 6    1  0.2852411E-002  0.9165223E+02  0.7546771E-02  0.1397677E+00
         -1   -1    0    0    0  501 -0.00000000000E+00  0.00000000000E+00  0.92418810706E+02  0.92418810706E+02  0.00000000000E+00 0.  1.
          1   -1    0    0  501    0  0.00000000000E+00 -0.00000000000E+00 -0.33163370491E+02  0.33163370491E+02  0.00000000000E+00 0. -1.
         23    2    1    2    0    0 -0.11997587370E+02 -0.11866713078E+02  0.40062210436E+02  0.10002555678E+03  0.90085350213E+02 0.  0.
         13    1    3    3    0    0 -0.12380523219E+02  0.17922794760E+02 -0.22138476148E+02  0.31058268679E+02  0.00000000000E+00 0. -1.
        -13    1    3    3    0    0  0.38293584892E+00 -0.29789507838E+02  0.62200686584E+02  0.68967288105E+02  0.00000000000E+00 0.  1.
         22    1    1    2    0    0  0.11997587370E+02  0.11866713078E+02  0.19193229780E+02  0.25556624412E+02  0.00000000000E+00 0.  1.
<mgrwt>
<rscale>  0 0.60036773E+02</rscale>
<asrwt>0</asrwt>
<pdfrwt beam="1">  1        1 0.51020570E-02 0.91652230E+02</pdfrwt>
<pdfrwt beam="2">  1       -1 0.14218278E-01 0.91652230E+02</pdfrwt>
<totfact> 0.48749263E+04</totfact>
</mgrwt>
</event>
<event>
 6    1  0.2852411E-002  0.9466414E+02  0.7546771E-02  0.1420084E+00
          1   -1    0    0  501    0  0.00000000000E+00  0.00000000000E+00  0.65790148535E+03  0.65790148535E+03  0.00000000000E+00 0. -1.
         -1   -1    0    0    0  501 -0.00000000000E+00 -0.00000000000E+00 -0.48091645154E+01  0.48091645154E+01  0.00000000000E+00 0.  1.
         23    2    1    2    0    0  0.45466698876E+01  0.97845751110E+01  0.63167775592E+03  0.63873162346E+03  0.94047271937E+02 0.  0.
         13    1    3    3    0    0  0.83802626801E+00 -0.42087439614E+02  0.24835978672E+03  0.25190204152E+03  0.00000000000E+00 0.  1.
        -13    1    3    3    0    0  0.37086436196E+01  0.51872014725E+02  0.38331796921E+03  0.38682958194E+03  0.00000000000E+00 0. -1.
         22    1    1    2    0    0 -0.45466698876E+01 -0.97845751110E+01  0.21414564916E+02  0.23979026413E+02  0.00000000000E+00 0.  1.
<mgrwt>
<rscale>  0 0.55003201E+02</rscale>
<asrwt>0</asrwt>
<pdfrwt beam="1">  1        1 0.10121554E+00 0.94664140E+02</pdfrwt>
<pdfrwt beam="2">  1       -1 0.73987199E-03 0.94664140E+02</pdfrwt>
<totfact> 0.79247200E+04</totfact>
</mgrwt>
</event>
<event>
 6    1  0.2852411E-002  0.9238207E+02  0.7546771E-02  0.1412105E+00
          1   -1    0    0  501    0  0.00000000000E+00  0.00000000000E+00  0.39221026060E+03  0.39221026060E+03  0.00000000000E+00 0. -1.
         -1   -1    0    0    0  501 -0.00000000000E+00 -0.00000000000E+00 -0.71481974510E+01  0.71481974510E+01  0.00000000000E+00 0.  1.
         23    2    1    2    0    0 -0.70387901153E+01  0.11088407380E+02  0.34733218601E+03  0.35940797653E+03  0.91443692036E+02 0.  0.
         13    1    3    3    0    0  0.57456844272E+01 -0.23462001199E+02  0.29161015818E+03  0.29260889040E+03  0.00000000000E+00 0. -1.
        -13    1    3    3    0    0 -0.12784474543E+02  0.34550408579E+02  0.55722027830E+02  0.66799086130E+02  0.00000000000E+00 0.  1.
         22    1    1    2    0    0  0.70387901153E+01 -0.11088407380E+02  0.37729877137E+02  0.39950481515E+02  0.00000000000E+00 0. -1.
<mgrwt>
<rscale>  0 0.56726835E+02</rscale>
<asrwt>0</asrwt>
<pdfrwt beam="1">  1        1 0.60340023E-01 0.92382066E+02</pdfrwt>
<pdfrwt beam="2">  1       -1 0.10997230E-02 0.92382066E+02</pdfrwt>
<totfact> 0.88335684E+04</totfact>
</mgrwt>
</event>
<event>
 6    1  0.2852411E-002  0.9383457E+02  0.7546771E-02  0.1419241E+00
          2   -1    0    0  501    0  0.00000000000E+00  0.00000000000E+00  0.14523321203E+04  0.14523321203E+04  0.00000000000E+00 0. -1.
         -2   -1    0    0    0  501 -0.00000000000E+00 -0.00000000000E+00 -0.22466441178E+01  0.22466441178E+01  0.00000000000E+00 0.  1.
         23    2    1    2    0    0 -0.74811889933E+01 -0.83653603995E+01  0.14045416176E+04  0.14076725762E+04  0.93161035986E+02 0.  0.
         13    1    3    3    0    0 -0.10469223439E+02  0.35985451327E+02  0.31452356786E+03  0.31674853130E+03  0.00000000000E+00 0.  1.
        -13    1    3    3    0    0  0.29880344460E+01 -0.44350811726E+02  0.10900180498E+04  0.10909240449E+04  0.00000000000E+00 0. -1.
         22    1    1    2    0    0  0.74811889933E+01  0.83653603995E+01  0.45543858560E+02  0.46906188248E+02  0.00000000000E+00 0.  1.
<mgrwt>
<rscale>  0 0.55181794E+02</rscale>
<asrwt>0</asrwt>
<pdfrwt beam="1">  1        2 0.22343496E+00 0.93834568E+02</pdfrwt>
<pdfrwt beam="2">  1       -2 0.34563872E-03 0.93834568E+02</pdfrwt>
<totfact> 0.12789174E+05</totfact>
</mgrwt>
</event>
<event>
 6    1  0.2852411E-002  0.9530486E+02  0.7546771E-02  0.1361333E+00
          3   -1    0    0  501    0  0.00000000000E+00  0.00000000000E+00  0.12789944266E+03  0.12789944266E+03  0.00000000000E+00 0. -1.
         -3   -1    0    0    0  501 -0.00000000000E+00 -0.00000000000E+00 -0.51575515375E+02  0.51575515375E+02  0.00000000000E+00 0.  1.
         23    2    1    2    0    0  0.25916600598E+02 -0.81401698488E+01  0.10374530114E+03  0.14087619775E+03  0.91351426002E+02 0.  0.
         13    1    3    3    0    0  0.27681093732E+02 -0.46018299355E+02  0.79256690619E+02  0.95736878127E+02  0.00000000000E+00 0. -1.
        -13    1    3    3    0    0 -0.17644931341E+01  0.37878129506E+02  0.24488610520E+02  0.45139319623E+02  0.00000000000E+00 0.  1.
         22    1    1    2    0    0 -0.25916600598E+02  0.81401698488E+01 -0.27421373851E+02  0.38598760286E+02  0.00000000000E+00 0.  1.
<mgrwt>
<rscale>  0 0.69636728E+02</rscale>
<asrwt>0</asrwt>
<pdfrwt beam="1">  1        3 0.19676837E-01 0.95304856E+02</pdfrwt>
<pdfrwt beam="2">  1       -3 0.79346947E-02 0.95304856E+02</pdfrwt>
<totfact> 0.52718971E+03</totfact>
</mgrwt>
</event>
<event>
 6    1  0.2852411E-002  0.9309837E+02  0.7546771E-02  0.1404119E+00
          1   -1    0    0  501    0  0.00000000000E+00  0.00000000000E+00  0.30381449100E+02  0.30381449100E+02  0.00000000000E+00 0. -1.
         -1   -1    0    0    0  501 -0.00000000000E+00 -0.00000000000E+00 -0.97935045485E+02  0.97935045485E+02  0.00000000000E+00 0.  1.
         23    2    1    2    0    0  0.52588141591E+01  0.13557016341E+02 -0.65021089504E+02  0.11355636554E+03  0.91955740740E+02 0.  0.
         11    1    3    3    0    0 -0.22912401851E+02 -0.29284361042E+02 -0.10334357232E+02  0.38592109292E+02  0.00000000000E+00 0.  1.
        -11    1    3    3    0    0  0.28171216010E+02  0.42841377383E+02 -0.54686732272E+02  0.74964256244E+02  0.00000000000E+00 0. -1.
         22    1    1    2    0    0 -0.52588141591E+01 -0.13557016341E+02 -0.25325068816E+01  0.14760129049E+02  0.00000000000E+00 0.  1.
<mgrwt>
<rscale>  0 0.58527093E+02</rscale>
<asrwt>0</asrwt>
<pdfrwt beam="1">  1        1 0.46740691E-02 0.93098368E+02</pdfrwt>
<pdfrwt beam="2">  1       -1 0.15066930E-01 0.93098368E+02</pdfrwt>
<totfact> 0.50280687E+04</totfact>
</mgrwt>
</event>
<event>
 6    1  0.2852411E-002  0.9654043E+02  0.7546771E-02  0.1387421E+00
         -2   -1    0    0    0  501 -0.00000000000E+00  0.00000000000E+00  0.44195762636E+02  0.44195762636E+02  0.00000000000E+00 0.  1.
          2   -1    0    0  501    0  0.00000000000E+00 -0.00000000000E+00 -0.16942952379E+03  0.16942952379E+03  0.00000000000E+00 0. -1.
         23    2    1    2    0    0 -0.13630230543E+02 -0.10186194115E+02 -0.15308720831E+03  0.18098549088E+03  0.95029010439E+02 0.  0.
         13    1    3    3    0    0 -0.44448313031E+02  0.18077203359E+01 -0.30302267660E+02  0.53825159632E+02  0.00000000000E+00 0.  1.
        -13    1    3    3    0    0  0.30818082488E+02 -0.11993914450E+02 -0.12278494065E+03  0.12716033125E+03  0.00000000000E+00 0. -1.
         22    1    1    2    0    0  0.13630230543E+02  0.10186194115E+02  0.27853447154E+02  0.32639795550E+02  0.00000000000E+00 0. -1.
<mgrwt>
<rscale>  0 0.62552665E+02</rscale>
<asrwt>0</asrwt>
<pdfrwt beam="1">  1        2 0.26066080E-01 0.96540430E+02</pdfrwt>
<pdfrwt beam="2">  1       -2 0.67993481E-02 0.96540430E+02</pdfrwt>
<totfact> 0.22385807E+04</totfact>
</mgrwt>
</event>
<event>
 6    1  0.2852411E-002  0.9282099E+02  0.7546771E-02  0.1421039E+00
          4   -1    0    0  501    0  0.00000000000E+00  0.00000000000E+00  0.15069259907E+04  0.15069259907E+04  0.00000000000E+00 0. -1.
         -4   -1    0    0    0  501 -0.00000000000E+00 -0.00000000000E+00 -0.47289306531E+01  0.47289306531E+01  0.00000000000E+00 0.  1.
         23    2    1    2    0    0  0.58928175081E+01 -0.96161765773E+01  0.14958230707E+04  0.14987002353E+04  0.92133275334E+02 0.  0.
         13    1    3    3    0    0  0.39922786927E+02  0.19557938593E+02  0.95006740220E+03  0.95110693962E+03  0.00000000000E+00 0. -1.
        -13    1    3    3    0    0 -0.34029969419E+02 -0.29174115170E+02  0.54575566847E+03  0.54759329569E+03  0.00000000000E+00 0.  1.
         22    1    1    2    0    0 -0.58928175081E+01  0.96161765773E+01  0.63739893987E+01  0.12954686064E+02  0.00000000000E+00 0.  1.
<mgrwt>
<rscale>  0 0.54801684E+02</rscale>
<asrwt>0</asrwt>
<pdfrwt beam="1">  1        4 0.23183438E+00 0.92820992E+02</pdfrwt>
<pdfrwt beam="2">  1       -4 0.72752900E-03 0.92820992E+02</pdfrwt>
<totfact> 0.68873586E+02</totfact>
</mgrwt>
</event>
<event>
 6    1  0.2852411E-002  0.9161771E+02  0.7546771E-02  0.1426839E+00
          2   -1    0    0  501    0  0.00000000000E+00  0.00000000000E+00  0.11147698555E+03  0.11147698555E+03  0.00000000000E+00 0. -1.
         -2   -1    0    0    0  501 -0.00000000000E+00 -0.00000000000E+00 -0.28840117788E+02  0.28840117788E+02  0.00000000000E+00 0.  1.
         23    2    1    2    0    0  0.10575253734E+02  0.18328090006E+01  0.89091201353E+02  0.12779298251E+03  0.90986861915E+02 0.  0.
         13    1    3    3    0    0 -0.20559891634E+02 -0.12719385176E+02 -0.74651135059E+01  0.25302565540E+02  0.00000000000E+00 0.  1.
        -13    1    3    3    0    0  0.31135145368E+02  0.14552194177E+02  0.96556314859E+02  0.10249041697E+03  0.00000000000E+00 0. -1.
         22    1    1    2    0    0 -0.10575253734E+02 -0.18328090006E+01 -0.64543335889E+01  0.12524120825E+02  0.00000000000E+00 0. -1.
<mgrwt>
<rscale>  0 0.53599884E+02</rscale>
<asrwt>0</asrwt>
<pdfrwt beam="1">  1        2 0.17150305E-01 0.91617707E+02</pdfrwt>
<pdfrwt beam="2">  1       -2 0.44369413E-02 0.91617707E+02</pdfrwt>
<totfact> 0.67032169E+04</totfact>
</mgrwt>
</event>
<event>
 6    1  0.2852411E-002  0.8976419E+02  0.7546771E-02  0.1421564E+00
          2   -1    0    0  501    0  0.00000000000E+00  0.00000000000E+00  0.65071949892E+03  0.65071949892E+03  0.00000000000E+00 0. -1.
         -2   -1    0    0    0  501 -0.00000000000E+00 -0.00000000000E+00 -0.70996369502E+01  0.70996369502E+01  0.00000000000E+00 0.  1.
         23    2    1    2    0    0 -0.10823497857E+02 -0.59886915690E+01  0.63791070122E+03  0.64419536807E+03  0.88907800453E+02 0.  0.
         11    1    3    3    0    0 -0.76954838266E+01  0.76960297270E+01  0.65993184867E+01  0.12727935786E+02  0.00000000000E+00 0.  1.
        -11    1    3    3    0    0 -0.31280140302E+01 -0.13684721296E+02  0.63131138273E+03  0.63146743228E+03  0.00000000000E+00 0. -1.
         22    1    1    2    0    0  0.10823497857E+02  0.59886915690E+01  0.57091607498E+01  0.13623767799E+02  0.00000000000E+00 0.  1.
<mgrwt>
<rscale>  0 0.54691295E+02</rscale>
<asrwt>0</asrwt>
<pdfrwt beam="1">  1        2 0.10011064E+00 0.89764188E+02</pdfrwt>
<pdfrwt beam="2">  1       -2 0.10922524E-02 0.89764188E+02</pdfrwt>
<totfact> 0.75427390E+04</totfact>
</mgrwt>
</event>
<event>
 6    1  0.2852411E-002  0.9448235E+02  0.7546771E-02  0.1368925E+00
         -2   -1    0    0    0  501 -0.00000000000E+00  0.00000000000E+00  0.10443791922E+03  0.10443791922E+03  0.00000000000E+00 0.  1.
          2   -1    0    0  501    0  0.00000000000E+00 -0.00000000000E+00 -0.33981982453E+02  0.33981982453E+02  0.00000000000E+00 0. -1.
         23    2    1    2    0    0 -0.24534580419E+02 -0.12151885138E+01  0.53586440149E+02  0.10862053531E+03  0.91233172714E+02 0.  0.
         11    1    3    3    0    0 -0.82126963336E+01  0.10754391173E+02  0.76707422790E+02  0.77891809721E+02  0.00000000000E+00 0.  1.
        -11    1    3    3    0    0 -0.16321884085E+02 -0.11969579687E+02 -0.23120982641E+02  0.30728725588E+02  0.00000000000E+00 0. -1.
         22    1    1    2    0    0  0.24534580419E+02  0.12151885138E+01  0.16869496615E+02  0.29799366360E+02  0.00000000000E+00 0. -1.
<mgrwt>
<rscale>  0 0.67466888E+02</rscale>
<asrwt>0</asrwt>
<pdfrwt beam="1">  1        2 0.52279973E-02 0.94482348E+02</pdfrwt>
<pdfrwt beam="2">  1       -2 0.16067372E-01 0.94482348E+02</pdfrwt>
<totfact> 0.39315063E+04</totfact>
</mgrwt>
</event>
<event>
 6    1  0.2852411E-002  0.9295625E+02  0.7546771E-02  0.1409211E+00
         -2   -1    0    0    0  501 -0.00000000000E+00  0.00000000000E+00  0.70443784021E+02  0.70443784021E+02  0.00000000000E+00 0.  1.
          2   -1    0    0  501    0  0.00000000000E+00 -0.00000000000E+00 -0.41721622156E+02  0.41721622156E+02  0.00000000000E+00 0. -1.
         23    2    1    2    0    0  0.47954436316E+01 -0.12605495116E+02  0.17431848817E+02  0.94576604187E+02  0.91972658544E+02 0.  0.
         11    1    3    3    0    0  0.28553894108E+02 -0.42645176832E+00  0.46838960577E+02  0.54857952548E+02  0.00000000000E+00 0.  1.
        -11    1    3    3    0    0 -0.23758450477E+02 -0.12179043348E+02 -0.29407111760E+02  0.39718651639E+02  0.00000000000E+00 0. -1.
         22    1    1    2    0    0 -0.47954436316E+01  0.12605495116E+02  0.11290313048E+02  0.17588801991E+02  0.00000000000E+00 0.  1.
<mgrwt>
<rscale>  0 0.57370216E+02</rscale>
<asrwt>0</asrwt>
<pdfrwt beam="1">  1        2 0.64187111E-02 0.92956252E+02</pdfrwt>
<pdfrwt beam="2">  1       -2 0.10837505E-01 0.92956252E+02</pdfrwt>
<totfact> 0.56632212E+04</totfact>
</mgrwt>
</event>
<event>
 6    1  0.2852411E-002  0.9245314E+02  0.7546771E-02  0.1378424E+00
          1   -1    0    0  501    0  0.00000000000E+00  0.00000000000E+00  0.81670547261E+02  0.81670547261E+02  0.00000000000E+00 0. -1.
         -1   -1    0    0    0  501 -0.00000000000E+00 -0.00000000000E+00 -0.45400910247E+02  0.45400910247E+02  0.00000000000E+00 0.  1.
         23    2    1    2    0    0  0.22394405375E+02 -0.11148947121E+01  0.45231598528E+02  0.10292463294E+03  0.89692977312E+02 0.  0.
         11    1    3    3    0    0  0.53835428167E+02  0.11906377615E+02  0.14355803377E+02  0.56974592973E+02  0.00000000000E+00 0. -1.
        -11    1    3    3    0    0 -0.31441022792E+02 -0.13021272327E+02  0.30875795151E+02  0.45950039972E+02  0.00000000000E+00 0.  1.
         22    1    1    2    0    0 -0.22394405375E+02  0.11148947121E+01 -0.89619615144E+01  0.24146824564E+02  0.00000000000E+00 0.  1.
<mgrwt>
<rscale>  0 0.64879950E+02</rscale>
<asrwt>0</asrwt>
<pdfrwt beam="1">  1        1 0.12564700E-01 0.92453137E+02</pdfrwt>
<pdfrwt beam="2">  1       -1 0.69847554E-02 0.92453137E+02</pdfrwt>
<totfact> 0.43329141E+04</totfact>
</mgrwt>
</event>
<event>
 6    1  0.2852411E-002  0.9199831E+02  0.7546771E-02  0.1403958E+00
          2   -1    0    0  501    0  0.00000000000E+00  0.00000000000E+00  0.12746469144E+04  0.12746469144E+04  0.00000000000E+00 0. -1.
         -2   -1    0    0    0  501 -0.00000000000E+00 -0.00000000000E+00 -0.27743415295E+01  0.27743415295E+01  0.00000000000E+00 0.  1.
         23    2    1    2    0    0  0.15611048531E+01 -0.15026561750E+02  0.12180293092E+04  0.12214987055E+04  0.90749406603E+02 0.  0.
         11    1    3    3    0    0 -0.40335054349E+02 -0.22560346855E+02  0.79222785413E+03  0.79357473418E+03  0.00000000000E+00 0.  1.
        -11    1    3    3    0    0  0.41896159203E+02  0.75337851051E+01  0.42580145510E+03  0.42792397133E+03  0.00000000000E+00 0. -1.
         22    1    1    2    0    0 -0.15611048531E+01  0.15026561750E+02  0.53843263586E+02  0.55922550371E+02  0.00000000000E+00 0. -1.
<mgrwt>
<rscale>  0 0.58564249E+02</rscale>
<asrwt>0</asrwt>
<pdfrwt beam="1">  1        2 0.19609906E+00 0.91998312E+02</pdfrwt>
<pdfrwt beam="2">  1       -2 0.42682279E-03 0.91998312E+02</pdfrwt>
<totfact> 0.11766473E+05</totfact>
</mgrwt>
</event>
<event>
 6    1  0.2852411E-002  0.9689112E+02  0.7546771E-02  0.1414504E+00
         -1   -1    0    0    0  501 -0.00000000000E+00  0.00000000000E+00  0.10805173003E+02  0.10805173003E+02  0.00000000000E+00 0.  1.
          1   -1    0    0  501    0  0.00000000000E+00 -0.00000000000E+00 -0.27785571808E+03  0.27785571808E+03  0.00000000000E+00 0. -1.
         23    2    1    2    0    0  0.10194935244E+02  0.40439589260E+01 -0.25241095366E+03  0.27036859912E+03  0.96268372553E+02 0.  0.
         13    1    3    3    0    0 -0.22323789466E+02  0.35442325483E+02 -0.63110528145E+02  0.75745948898E+02  0.00000000000E+00 0.  1.
        -13    1    3    3    0    0  0.32518724710E+02 -0.31398366557E+02 -0.18930042551E+03  0.19462265022E+03  0.00000000000E+00 0. -1.
         22    1    1    2    0    0 -0.10194935244E+02 -0.40439589260E+01 -0.14639591422E+02  0.18292291967E+02  0.00000000000E+00 0.  1.
<mgrwt>
<rscale>  0 0.56200713E+02</rscale>
<asrwt>0</asrwt>
<pdfrwt beam="1">  1        1 0.42747033E-01 0.96891124E+02</pdfrwt>
<pdfrwt beam="2">  1       -1 0.16623343E-02 0.96891124E+02</pdfrwt>
<totfact> 0.75601673E+04</totfact>
</mgrwt>
</event>
<event>
 6    1  0.2852411E-002  0.9322367E+02  0.7546771E-02  0.1370754E+00
         -2   -1    0    0    0  501 -0.00000000000E+00  0.00000000000E+00  0.13479936689E+02  0.13479936689E+02  0.00000000000E+00 0. -1.
          2   -1    0    0  501    0  0.00000000000E+00 -0.00000000000E+00 -0.26533578196E+03  0.26533578196E+03  0.00000000000E+00 0.  1.
         23    2    1    2    0    0 -0.89235073257E+01 -0.23149806270E+02 -0.21551473656E+03  0.23481323354E+03  0.89861618380E+02 0.  0.
         13    1    3    3    0    0  0.13566205364E+02 -0.41802298536E+02 -0.49279889622E+02  0.66030156838E+02  0.00000000000E+00 0. -1.
        -13    1    3    3    0    0 -0.22489712690E+02  0.18652492267E+02 -0.16623484694E+03  0.16878307670E+03  0.00000000000E+00 0.  1.
         22    1    1    2    0    0  0.89235073257E+01  0.23149806270E+02 -0.36341108707E+02  0.44002485105E+02  0.00000000000E+00 0. -1.
<mgrwt>
<rscale>  0 0.66957913E+02</rscale>
<asrwt>0</asrwt>
<pdfrwt beam="1">  1        2 0.40820890E-01 0.93223672E+02</pdfrwt>
<pdfrwt beam="2">  1       -2 0.20738364E-02 0.93223672E+02</pdfrwt>
<totfact> 0.79271388E+04</totfact>
</mgrwt>
</event>
<event>
 6    1  0.2852411E-002  0.9581939E+02  0.7546771E-02  0.1352989E+00
         -1   -1    0    0    0  501 -0.00000000000E+00  0.00000000000E+00  0.60202262376E+02  0.60202262376E+02  0.00000000000E+00 0.  1.
          1   -1    0    0  501    0  0.00000000000E+00 -0.00000000000E+00 -0.99714896025E+02  0.99714896025E+02  0.00000000000E+00 0. -1.
         23    2    1    2    0    0 -0.13652992448E+02  0.27577562314E+02 -0.68386016432E+02  0.11772002130E+03  0.90743760261E+02 0.  0.
         11    1    3    3    0    0  0.19491493075E+02  0.42267399530E+02 -0.66818826226E+02  0.81432222759E+02  0.00000000000E+00 0. -1.
        -11    1    3    3    0    0 -0.33144485523E+02 -0.14689837216E+02 -0.15671902059E+01  0.36287798544E+02  0.00000000000E+00 0.  1.
         22    1    1    2    0    0  0.13652992448E+02 -0.27577562314E+02  0.28873382783E+02  0.42197137098E+02  0.00000000000E+00 0.  1.
<mgrwt>
<rscale>  0 0.72132266E+02</rscale>
<asrwt>0</asrwt>
<pdfrwt beam="1">  1        1 0.15340753E-01 0.95819394E+02</pdfrwt>
<pdfrwt beam="2">  1       -1 0.92618866E-02 0.95819394E+02</pdfrwt>
<totfact> 0.22083101E+04</totfact>
</mgrwt>
</event>
<event>
 6    1  0.2852411E-002  0.9229548E+02  0.7546771E-02  0.1417102E+00
         -2   -1    0    0    0  501 -0.00000000000E+00  0.00000000000E+00  0.66603926716E+01  0.66603926716E+01  0.00000000000E+00 0.  1.
          2   -1    0    0  501    0  0.00000000000E+00 -0.00000000000E+00 -0.41223006035E+03  0.41223006035E+03  0.00000000000E+00 0. -1.
         23    2    1    2    0    0  0.10580531066E+02  0.60517177748E+01 -0.36775527669E+03  0.37916012340E+03  0.91487074067E+02 0.  0.
         13    1    3    3    0    0  0.23627515567E+02 -0.10704051430E+02 -0.25934003504E+02  0.36679813885E+02  0.00000000000E+00 0.  1.
        -13    1    3    3    0    0 -0.13046984502E+02  0.16755769205E+02 -0.34182127318E+03  0.34248030951E+03  0.00000000000E+00 0. -1.
         22    1    1    2    0    0 -0.10580531066E+02 -0.60517177748E+01 -0.37814390998E+02  0.39730329626E+02  0.00000000000E+00 0.  1.
<mgrwt>
<rscale>  0 0.55638710E+02</rscale>
<asrwt>0</asrwt>
<pdfrwt beam="1">  1        2 0.63420022E-01 0.92295480E+02</pdfrwt>
<pdfrwt beam="2">  1       -2 0.10246756E-02 0.92295480E+02</pdfrwt>
<totfact> 0.13640079E+05</totfact>
</mgrwt>
</event>
<event>
 6    1  0.2852411E-002  0.9167582E+02  0.7546771E-02  0.1406285E+00
          3   -1    0    0  501    0  0.00000000000E+00  0.00000000000E+00  0.52319169871E+01  0.52319169871E+01  0.00000000000E+00 0.  1.
         -3   -1    0    0    0  501 -0.00000000000E+00 -0.00000000000E+00 -0.54176210532E+03  0.54176210532E+03  0.00000000000E+00 0. -1.
         23    2    1    2    0    0  0.14130219923E+02 -0.41213380059E+01 -0.46952102932E+03  0.47838734673E+03  0.90486507261E+02 0.  0.
         13    1    3    3    0    0  0.31158353066E+02 -0.39787369324E+02 -0.30687534292E+03  0.31100860730E+03  0.00000000000E+00 0. -1.
        -13    1    3    3    0    0 -0.17028133143E+02  0.35666031318E+02 -0.16264568640E+03  0.16737873943E+03  0.00000000000E+00 0.  1.
         22    1    1    2    0    0 -0.14130219923E+02  0.41213380059E+01 -0.67009159010E+02  0.68606675573E+02  0.00000000000E+00 0.  1.
<mgrwt>
<rscale>  0 0.58031071E+02</rscale>
<asrwt>0</asrwt>
<pdfrwt beam="1">  1        3 0.80490998E-03 0.91675823E+02</pdfrwt>
<pdfrwt beam="2">  1       -3 0.83348050E-01 0.91675823E+02</pdfrwt>
<totfact> 0.10690420E+04</totfact>
</mgrwt>
</event>
<event>
 6    1  0.2852411E-002  0.1012399E+03  0.7546771E-02  0.1391130E+00
          2   -1    0    0  501    0  0.00000000000E+00  0.00000000000E+00  0.68285161327E+02  0.68285161327E+02  0.00000000000E+00 0.  1.
         -2   -1    0    0    0  501 -0.00000000000E+00 -0.00000000000E+00 -0.65352394529E+02  0.65352394529E+02  0.00000000000E+00 0. -1.
         23    2    1    2    0    0 -0.31158889281E+01 -0.13546316328E+02  0.27941951870E+02  0.10502513219E+03  0.10028117604E+03 0.  0.
         11    1    3    3    0    0  0.53786147636E+01 -0.47385107562E+02 -0.14724009247E+02  0.49910663827E+02  0.00000000000E+00 0. -1.
        -11    1    3    3    0    0 -0.84945036916E+01  0.33838791233E+02  0.42665961117E+02  0.55114468365E+02  0.00000000000E+00 0.  1.
         22    1    1    2    0    0  0.31158889281E+01  0.13546316328E+02 -0.25009185073E+02  0.28612423664E+02  0.00000000000E+00 0.  1.
<mgrwt>
<rscale>  0 0.61626573E+02</rscale>
<asrwt>0</asrwt>
<pdfrwt beam="1">  1        2 0.10505409E-01 0.10123994E+03</pdfrwt>
<pdfrwt beam="2">  1       -2 0.10054215E-01 0.10123994E+03</pdfrwt>
<totfact> 0.34988166E+04</totfact>
</mgrwt>
</event>
<event>
 6    1  0.2852411E-002  0.9013693E+02  0.7546771E-02  0.1432531E+00
          2   -1    0    0  501    0  0.00000000000E+00  0.00000000000E+00  0.20859229865E+04  0.20859229865E+04  0.00000000000E+00 0. -1.
         -2   -1    0    0    0  501 -0.00000000000E+00 -0.00000000000E+00 -0.15313289925E+01  0.15313289925E+01  0.00000000000E+00 0.  1.
         23    2    1    2    0    0  0.62941917937E+01  0.82014151214E+01  0.20348531046E+04  0.20368485027E+04  0.89542089258E+02 0.  0.
         11    1    3    3    0    0  0.95244480931E+01  0.30031934069E+02  0.18952543467E+04  0.18955162016E+04  0.00000000000E+00 0. -1.
        -11    1    3    3    0    0 -0.32302562994E+01 -0.21830518948E+02  0.13959875793E+03  0.14133230108E+03  0.00000000000E+00 0.  1.
         22    1    1    2    0    0 -0.62941917937E+01 -0.82014151214E+01  0.49538552924E+02  0.50605812771E+02  0.00000000000E+00 0.  1.
<mgrwt>
<rscale>  0 0.52455273E+02</rscale>
<asrwt>0</asrwt>
<pdfrwt beam="1">  1        2 0.32090895E+00 0.90136928E+02</pdfrwt>
<pdfrwt beam="2">  1       -2 0.23559075E-03 0.90136928E+02</pdfrwt>
<totfact> 0.10398227E+05</totfact>
</mgrwt>
</event>
<event>
 6    1  0.2852411E-002  0.9136136E+02  0.7546771E-02  0.1429231E+00
         -1   -1    0    0    0  501 -0.00000000000E+00  0.00000000000E+00  0.28281349861E+02  0.28281349861E+02  0.00000000000E+00 0.  1.
          1   -1    0    0  501    0  0.00000000000E+00 -0.00000000000E+00 -0.18813750179E+03  0.18813750179E+03  0.00000000000E+00 0. -1.
         23    2    1    2    0    0 -0.68926341419E+01  0.78371737755E+01 -0.17535830745E+03  0.19773071307E+03  0.90763259104E+02 0.  0.
         11    1    3    3    0    0 -0.39392207015E+01  0.22445287846E+02 -0.18052440823E+03  0.18195705640E+03  0.00000000000E+00 0. -1.
        -11    1    3    3    0    0 -0.29534134404E+01 -0.14608114071E+02  0.51661007811E+01  0.15773656676E+02  0.00000000000E+00 0.  1.
         22    1    1    2    0    0  0.68926341419E+01 -0.78371737755E+01  0.15502155513E+02  0.18688138584E+02  0.00000000000E+00 0.  1.
<mgrwt>
<rscale>  0 0.53114760E+02</rscale>
<asrwt>0</asrwt>
<pdfrwt beam="1">  1        1 0.28944230E-01 0.91361364E+02</pdfrwt>
<pdfrwt beam="2">  1       -1 0.43509771E-02 0.91361364E+02</pdfrwt>
<totfact> 0.30295717E+04</totfact>
</mgrwt>
</event>
<event>
 6    1  0.2852411E-002  0.1124234E+03  0.7546771E-02  0.1284208E+00
         -2   -1    0    0    0  501 -0.00000000000E+00  0.00000000000E+00  0.15000719687E+02  0.15000719687E+02  0.00000000000E+00 0.  1.
          2   -1    0    0  501    0  0.00000000000E+00 -0.00000000000E+00 -0.77760684337E+03  0.77760684337E+03  0.00000000000E+00 0. -1.
         23    2    1    2    0    0 -0.45666337906E+02  0.46739032740E+02 -0.66941415559E+03  0.67878887164E+03  0.91482615595E+02 0.  0.
         11    1    3    3    0    0 -0.57968355031E+02  0.55560058625E+02 -0.64557745947E+03  0.65055169393E+03  0.00000000000E+00 0. -1.
        -11    1    3    3    0    0  0.12302017125E+02 -0.88210258851E+01 -0.23836696120E+02  0.28237177708E+02  0.00000000000E+00 0.  1.
         22    1    1    2    0    0  0.45666337906E+02 -0.46739032740E+02 -0.93191968087E+02  0.11381869141E+03  0.00000000000E+00 0.  1.
<mgrwt>
<rscale>  0 0.98162453E+02</rscale>
<asrwt>0</asrwt>
<pdfrwt beam="1">  1        2 0.11963186E+00 0.11242340E+03</pdfrwt>
<pdfrwt beam="2">  1       -2 0.23078022E-02 0.11242340E+03</pdfrwt>
<totfact> 0.21454497E+04</totfact>
</mgrwt>
</event>
<event>
 6    1  0.2852411E-002  0.9147613E+02  0.7546771E-02  0.1419174E+00
         -2   -1    0    0    0  501 -0.00000000000E+00  0.00000000000E+00  0.25712821761E+01  0.25712821761E+01  0.00000000000E+00 0.  1.
          2   -1    0    0  501    0  0.00000000000E+00 -0.00000000000E+00 -0.20502045733E+04  0.20502045733E+04  0.00000000000E+00 0. -1.
         23    2    1    2    0    0 -0.40881724304E+01  0.11415803706E+02 -0.20252857247E+04  0.20273505246E+04  0.90668897411E+02 0.  0.
         13    1    3    3    0    0  0.10173286625E+02  0.43716591583E+02 -0.15905757484E+04  0.15912089265E+04  0.00000000000E+00 0. -1.
        -13    1    3    3    0    0 -0.14261459055E+02 -0.32300787877E+02 -0.43470997630E+03  0.43614159811E+03  0.00000000000E+00 0.  1.
         22    1    1    2    0    0  0.40881724304E+01 -0.11415803706E+02 -0.22347566426E+02  0.25425330937E+02  0.00000000000E+00 0.  1.
<mgrwt>
<rscale>  0 0.55196046E+02</rscale>
<asrwt>0</asrwt>
<pdfrwt beam="1">  1        2 0.31541645E+00 0.91476132E+02</pdfrwt>
<pdfrwt beam="2">  1       -2 0.39558141E-03 0.91476132E+02</pdfrwt>
<totfact> 0.52732685E+04</totfact>
</mgrwt>
</event>
<event>
 6    1  0.2852411E-002  0.9183465E+02  0.7546771E-02  0.1423756E+00
         -2   -1    0    0    0  501 -0.00000000000E+00  0.00000000000E+00  0.83805579310E+01  0.83805579310E+01  0.00000000000E+00 0.  1.
          2   -1    0    0  501    0  0.00000000000E+00 -0.00000000000E+00 -0.32377161644E+03  0.32377161644E+03  0.00000000000E+00 0. -1.
         23    2    1    2    0    0 -0.77817891136E+01 -0.80139654606E+01 -0.29415980341E+03  0.30816163296E+03  0.91152741050E+02 0.  0.
         11    1    3    3    0    0  0.11198851754E+02 -0.44966344729E+02 -0.10977636653E+03  0.11915635563E+03  0.00000000000E+00 0.  1.
        -11    1    3    3    0    0 -0.18980640868E+02  0.36952379269E+02 -0.18438343688E+03  0.18900527733E+03  0.00000000000E+00 0. -1.
         22    1    1    2    0    0  0.77817891136E+01  0.80139654606E+01 -0.21231255099E+02  0.23990541413E+02  0.00000000000E+00 0. -1.
<mgrwt>
<rscale>  0 0.54234169E+02</rscale>
<asrwt>0</asrwt>
<pdfrwt beam="1">  1        2 0.49811009E-01 0.91834645E+02</pdfrwt>
<pdfrwt beam="2">  1       -2 0.12893168E-02 0.91834645E+02</pdfrwt>
<totfact> 0.12674973E+05</totfact>
</mgrwt>
</event>
<event>
 6    1  0.2852411E-002  0.9405142E+02  0.7546771E-02  0.1374972E+00
         -2   -1    0    0    0  501 -0.00000000000E+00  0.00000000000E+00  0.10233321992E+03  0.10233321992E+03  0.00000000000E+00 0.  1.
          2   -1    0    0  501    0  0.00000000000E+00 -0.00000000000E+00 -0.39745868196E+02  0.39745868196E+02  0.00000000000E+00 0. -1.
         23    2    1    2    0    0 -0.20463760792E+01 -0.22444956964E+02  0.23473477210E+02  0.96936437246E+02  0.91311034302E+02 0.  0.
         11    1    3    3    0    0  0.97291141751E+01 -0.55727542826E+02  0.42304670078E+01  0.56728401556E+02  0.00000000000E+00 0. -1.
        -11    1    3    3    0    0 -0.11775490254E+02  0.33282585862E+02  0.19243010202E+02  0.40208035689E+02  0.00000000000E+00 0.  1.
         22    1    1    2    0    0  0.20463760792E+01  0.22444956964E+02  0.39113874514E+02  0.45142650871E+02  0.00000000000E+00 0. -1.
<mgrwt>
<rscale>  0 0.65804121E+02</rscale>
<asrwt>0</asrwt>
<pdfrwt beam="1">  1        2 0.61147490E-02 0.94051415E+02</pdfrwt>
<pdfrwt beam="2">  1       -2 0.15743572E-01 0.94051415E+02</pdfrwt>
<totfact> 0.33239830E+04</totfact>
</mgrwt>
</event>
<event>
 6    1  0.2852411E-002  0.9179994E+02  0.7546771E-02  0.1407888E+00
          2   -1    0    0  501    0  0.00000000000E+00  0.00000000000E+00  0.62726621947E+03  0.62726621947E+03  0.00000000000E+00 0. -1.
         -2   -1    0    0    0  501 -0.00000000000E+00 -0.00000000000E+00 -0.49731949167E+01  0.49731949167E+01  0.00000000000E+00 0.  1.
         23    2    1    2    0    0  0.11954814109E+02  0.78389930040E+01  0.58742220839E+03  0.59455199989E+03  0.90679999282E+02 0.  0.
         13    1    3    3    0    0  0.39881328187E+02  0.25121971649E+02  0.18938763902E+03  0.19516483190E+03  0.00000000000E+00 0.  1.
        -13    1    3    3    0    0 -0.27926514078E+02 -0.17282978645E+02  0.39803456937E+03  0.39938716798E+03  0.00000000000E+00 0. -1.
         22    1    1    2    0    0 -0.11954814109E+02 -0.78389930040E+01  0.34870816167E+02  0.37687414502E+02  0.00000000000E+00 0.  1.
<mgrwt>
<rscale>  0 0.57667784E+02</rscale>
<asrwt>0</asrwt>
<pdfrwt beam="1">  1        2 0.96502433E-01 0.91799944E+02</pdfrwt>
<pdfrwt beam="2">  1       -2 0.76510741E-03 0.91799944E+02</pdfrwt>
<totfact> 0.13047322E+05</totfact>
</mgrwt>
</event>
<event>
 6    1  0.2852411E-002  0.9387054E+02  0.7546771E-02  0.1406556E+00
         -2   -1    0    0    0  501 -0.00000000000E+00  0.00000000000E+00  0.16762142092E+02  0.16762142092E+02  0.00000000000E+00 0.  1.
          2   -1    0    0  501    0  0.00000000000E+00 -0.00000000000E+00 -0.18137685372E+03  0.18137685372E+03  0.00000000000E+00 0. -1.
         23    2    1    2    0    0 -0.87026912939E+01 -0.10519206281E+02 -0.15578233943E+03  0.18187857346E+03  0.92872426841E+02 0.  0.
         13    1    3    3    0    0  0.40295603384E+02 -0.17727831325E+02 -0.65828193320E+02  0.79191935772E+02  0.00000000000E+00 0.  1.
        -13    1    3    3    0    0 -0.48998294678E+02  0.72086250435E+01 -0.89954146115E+02  0.10268663769E+03  0.00000000000E+00 0. -1.
         22    1    1    2    0    0  0.87026912939E+01  0.10519206281E+02 -0.88323721935E+01  0.16260422353E+02  0.00000000000E+00 0.  1.
<mgrwt>
<rscale>  0 0.57969555E+02</rscale>
<asrwt>0</asrwt>
<pdfrwt beam="1">  1        2 0.27904133E-01 0.93870540E+02</pdfrwt>
<pdfrwt beam="2">  1       -2 0.25787909E-02 0.93870540E+02</pdfrwt>
<totfact> 0.86760655E+04</totfact>
</mgrwt>
</event>
<event>
 6    1  0.2852411E-002  0.1084754E+03  0.7546771E-02  0.1294655E+00
          2   -1    0    0  501    0  0.00000000000E+00  0.00000000000E+00  0.14521434787E+03  0.14521434787E+03  0.00000000000E+00 0. -1.
         -2   -1    0    0    0  501 -0.00000000000E+00 -0.00000000000E+00 -0.64101698642E+02  0.64101698642E+02  0.00000000000E+00 0.  1.
         23    2    1    2    0    0  0.55117550642E+02  0.23207389944E+02  0.99035385214E+02  0.14688406911E+03  0.90500800528E+02 0.  0.
         11    1    3    3    0    0  0.55539517190E+02  0.99576797638E+01  0.10539738109E+02  0.57401040369E+02  0.00000000000E+00 0.  1.
        -11    1    3    3    0    0 -0.42196654881E+00  0.13249710180E+02  0.88495647105E+02  0.89483028738E+02  0.00000000000E+00 0. -1.
         22    1    1    2    0    0 -0.55117550642E+02 -0.23207389944E+02 -0.17922735990E+02  0.62431977400E+02  0.00000000000E+00 0.  1.
<mgrwt>
<rscale>  0 0.93471944E+02</rscale>
<asrwt>0</asrwt>
<pdfrwt beam="1">  1        2 0.22340669E-01 0.10847545E+03</pdfrwt>
<pdfrwt beam="2">  1       -2 0.98617998E-02 0.10847545E+03</pdfrwt>
<totfact> 0.15158725E+04</totfact>
</mgrwt>
</event>
<event>
 6    1  0.2852411E-002  0.8893004E+02  0.7546771E-02  0.1424826E+00
         -2   -1    0    0    0  501 -0.00000000000E+00  0.00000000000E+00  0.43856270664E+01  0.43856270664E+01  0.00000000000E+00 0.  1.
          2   -1    0    0  501    0  0.00000000000E+00 -0.00000000000E+00 -0.59642121168E+03  0.59642121168E+03  0.00000000000E+00 0. -1.
         23    2    1    2    0    0 -0.50514982230E+01 -0.10996773546E+02 -0.54661040078E+03  0.55379732919E+03  0.88102808755E+02 0.  0.
         11    1    3    3    0    0 -0.37573675766E+02  0.19296509974E+02 -0.32851289755E+03  0.33121724029E+03  0.00000000000E+00 0. -1.
        -11    1    3    3    0    0  0.32522177543E+02 -0.30293283521E+02 -0.21809750323E+03  0.22258008890E+03  0.00000000000E+00 0.  1.
         22    1    1    2    0    0  0.50514982230E+01  0.10996773546E+02 -0.45425183831E+02  0.47009509558E+02  0.00000000000E+00 0.  1.
<mgrwt>
<rscale>  0 0.54012750E+02</rscale>
<asrwt>0</asrwt>
<pdfrwt beam="1">  1        2 0.91757080E-01 0.88930038E+02</pdfrwt>
<pdfrwt beam="2">  1       -2 0.67471207E-03 0.88930038E+02</pdfrwt>
<totfact> 0.16402673E+05</totfact>
</mgrwt>
</event>
<event>
 6    1  0.2852411E-002  0.9530604E+02  0.7546771E-02  0.1374783E+00
          2   -1    0    0  501    0  0.00000000000E+00  0.00000000000E+00  0.57161475318E+02  0.57161475318E+02  0.00000000000E+00 0. -1.
         -2   -1    0    0    0  501 -0.00000000000E+00 -0.00000000000E+00 -0.82947510896E+02  0.82947510896E+02  0.00000000000E+00 0.  1.
         23    2    1    2    0    0 -0.25382791710E+01  0.21578256449E+02  0.12465283940E+02  0.96117765984E+02  0.92796431082E+02 0.  0.
         11    1    3    3    0    0  0.38415472832E+01  0.32381334226E+01  0.51909940406E+02  0.52152515821E+02  0.00000000000E+00 0. -1.
        -11    1    3    3    0    0 -0.63798264542E+01  0.18340123026E+02 -0.39444656465E+02  0.43965250163E+02  0.00000000000E+00 0.  1.
         22    1    1    2    0    0  0.25382791710E+01 -0.21578256449E+02 -0.38251319518E+02  0.43991220231E+02  0.00000000000E+00 0.  1.
<mgrwt>
<rscale>  0 0.65855255E+02</rscale>
<asrwt>0</asrwt>
<pdfrwt beam="1">  1        2 0.87940732E-02 0.95306042E+02</pdfrwt>
<pdfrwt beam="2">  1       -2 0.12761155E-01 0.95306042E+02</pdfrwt>
<totfact> 0.29629291E+04</totfact>
</mgrwt>
</event>
<event>
 6    1  0.2852411E-002  0.9141989E+02  0.7546771E-02  0.1431792E+00
         -2   -1    0    0    0  501 -0.00000000000E+00  0.00000000000E+00  0.41643577146E+02  0.41643577146E+02  0.00000000000E+00 0. -1.
          2   -1    0    0  501    0  0.00000000000E+00 -0.00000000000E+00 -0.69256004317E+02  0.69256004317E+02  0.00000000000E+00 0.  1.
         23    2    1    2    0    0  0.47450585241E+01  0.88257997700E+01 -0.35577896243E+02  0.98098838535E+02  0.90869054683E+02 0.  0.
         13    1    3    3    0    0  0.21810470316E+02  0.37131729733E+02 -0.46415067945E+02  0.63315246984E+02  0.00000000000E+00 0.  1.
        -13    1    3    3    0    0 -0.17065411792E+02 -0.28305929963E+02  0.10837171701E+02  0.34783591551E+02  0.00000000000E+00 0. -1.
         22    1    1    2    0    0 -0.47450585241E+01 -0.88257997700E+01  0.79654690720E+01  0.12800742928E+02  0.00000000000E+00 0. -1.
<mgrwt>
<rscale>  0 0.52602066E+02</rscale>
<asrwt>0</asrwt>
<pdfrwt beam="1">  1        2 0.10654770E-01 0.91419885E+02</pdfrwt>
<pdfrwt beam="2">  1       -2 0.64067042E-02 0.91419885E+02</pdfrwt>
<totfact> 0.67660351E+04</totfact>
</mgrwt>
</event>
<event>
 6    1  0.2852411E-002  0.9853153E+02  0.7546771E-02  0.1330687E+00
         -2   -1    0    0    0  501 -0.00000000000E+00  0.00000000000E+00  0.14061114161E+03  0.14061114161E+03  0.00000000000E+00 0. -1.
          2   -1    0    0  501    0  0.00000000000E+00 -0.00000000000E+00 -0.53918102746E+02  0.53918102746E+02  0.00000000000E+00 0.  1.
         23    2    1    2    0    0  0.24251780236E+02  0.33804669971E+02  0.17931241028E+00  0.98531695317E+02  0.89317177926E+02 0.  0.
         11    1    3    3    0    0  0.57185081115E+02  0.27868721763E+02 -0.79086858210E+01  0.64104184467E+02  0.00000000000E+00 0.  1.
        -11    1    3    3    0    0 -0.32933300879E+02  0.59359482085E+01  0.80879982313E+01  0.34427510850E+02  0.00000000000E+00 0. -1.
         22    1    1    2    0    0 -0.24251780236E+02 -0.33804669971E+02  0.86513726453E+02  0.95997549037E+02  0.00000000000E+00 0. -1.
<mgrwt>
<rscale>  0 0.79426526E+02</rscale>
<asrwt>0</asrwt>
<pdfrwt beam="1">  1        2 0.82950928E-02 0.98531532E+02</pdfrwt>
<pdfrwt beam="2">  1       -2 0.21632483E-01 0.98531532E+02</pdfrwt>
<totfact> 0.13441635E+04</totfact>
</mgrwt>
</event>
<event>
 6    1  0.2852411E-002  0.9124359E+02  0.7546771E-02  0.1371799E+00
         -2   -1    0    0    0  501 -0.00000000000E+00  0.00000000000E+00  0.84393069132E+01  0.84393069132E+01  0.00000000000E+00 0.  1.
          2   -1    0    0  501    0  0.00000000000E+00 -0.00000000000E+00 -0.41548078713E+03  0.41548078713E+03  0.00000000000E+00 0. -1.
         23    2    1    2    0    0 -0.59319909156E+01  0.25322486396E+02 -0.33939867384E+03  0.35144964429E+03  0.87458423441E+02 0.  0.
         13    1    3    3    0    0 -0.24391063307E+02 -0.26459197189E+02 -0.12094900665E+03  0.12618904586E+03  0.00000000000E+00 0. -1.
        -13    1    3    3    0    0  0.18459072391E+02  0.51781683584E+02 -0.21844966719E+03  0.22526059843E+03  0.00000000000E+00 0.  1.
         22    1    1    2    0    0  0.59319909156E+01 -0.25322486396E+02 -0.67642806374E+02  0.72470449755E+02  0.00000000000E+00 0.  1.
<mgrwt>
<rscale>  0 0.66669711E+02</rscale>
<asrwt>0</asrwt>
<pdfrwt beam="1">  1        2 0.63920110E-01 0.91243590E+02</pdfrwt>
<pdfrwt beam="2">  1       -2 0.12983551E-02 0.91243590E+02</pdfrwt>
<totfact> 0.96503766E+04</totfact>
</mgrwt>
</event>
<event>
 6    1  0.2852411E-002  0.9457610E+02  0.7546771E-02  0.1405245E+00
          4   -1    0    0  501    0  0.00000000000E+00  0.00000000000E+00  0.40265132379E+03  0.40265132379E+03  0.00000000000E+00 0. -1.
         -4   -1    0    0    0  501 -0.00000000000E+00 -0.00000000000E+00 -0.72693694375E+01  0.72693694375E+01  0.00000000000E+00 0.  1.
         23    2    1    2    0    0  0.13525264951E+01  0.13559468695E+02  0.34618320287E+03  0.35886968279E+03  0.93589266251E+02 0.  0.
         11    1    3    3    0    0 -0.44383453740E+02 -0.35860324877E+01  0.19380229649E+03  0.19885190650E+03  0.00000000000E+00 0. -1.
        -11    1    3    3    0    0  0.45735980235E+02  0.17145501183E+02  0.15238090638E+03  0.16001777629E+03  0.00000000000E+00 0.  1.
         22    1    1    2    0    0 -0.13525264951E+01 -0.13559468695E+02  0.49198751480E+02  0.51051010435E+02  0.00000000000E+00 0. -1.
<mgrwt>
<rscale>  0 0.58268548E+02</rscale>
<asrwt>0</asrwt>
<pdfrwt beam="1">  1        4 0.61946340E-01 0.94576103E+02</pdfrwt>
<pdfrwt beam="2">  1       -4 0.11183648E-02 0.94576103E+02</pdfrwt>
<totfact> 0.90804962E+03</totfact>
</mgrwt>
</event>
<event>
 6    1  0.2852411E-002  0.9404840E+02  0.7546771E-02  0.1368057E+00
          2   -1    0    0  501    0  0.00000000000E+00  0.00000000000E+00  0.56058657219E+03  0.56058657219E+03  0.00000000000E+00 0. -1.
         -2   -1    0    0    0  501 -0.00000000000E+00 -0.00000000000E+00 -0.70807102028E+01  0.70807102028E+01  0.00000000000E+00 0.  1.
         23    2    1    2    0    0 -0.23724942935E+02 -0.86941125338E+01  0.49625680875E+03  0.50509001331E+03  0.90590511639E+02 0.  0.
         13    1    3    3    0    0 -0.54710160652E+02 -0.20440985494E+02  0.25721922132E+03  0.26376649405E+03  0.00000000000E+00 0. -1.
        -13    1    3    3    0    0  0.30985217717E+02  0.11746872960E+02  0.23903758743E+03  0.24132351926E+03  0.00000000000E+00 0.  1.
         22    1    1    2    0    0  0.23724942935E+02  0.86941125338E+01  0.57249053236E+02  0.62577269087E+02  0.00000000000E+00 0.  1.
<mgrwt>
<rscale>  0 0.67710389E+02</rscale>
<asrwt>0</asrwt>
<pdfrwt beam="1">  1        2 0.86244053E-01 0.94048399E+02</pdfrwt>
<pdfrwt beam="2">  1       -2 0.10893405E-02 0.94048399E+02</pdfrwt>
<totfact> 0.90061260E+04</totfact>
</mgrwt>
</event>
<event>
 6    1  0.2852411E-002  0.1009743E+03  0.7546771E-02  0.1321506E+00
          2   -1    0    0  501    0  0.00000000000E+00  0.00000000000E+00  0.39074014231E+03  0.39074014231E+03  0.00000000000E+00 0. -1.
         -2   -1    0    0    0  501 -0.00000000000E+00 -0.00000000000E+00 -0.21956770298E+02  0.21956770298E+02  0.00000000000E+00 0.  1.
         23    2    1    2    0    0 -0.42477576432E+02  0.16245268888E+02  0.34862135719E+03  0.36294995187E+03  0.90153001149E+02 0.  0.
         13    1    3    3    0    0  0.79514422057E+01  0.35304144644E+02  0.22766852260E+03  0.23052671049E+03  0.00000000000E+00 0. -1.
        -13    1    3    3    0    0 -0.50429018637E+02 -0.19058875757E+02  0.12095283459E+03  0.13242324139E+03  0.00000000000E+00 0.  1.
         22    1    1    2    0    0  0.42477576432E+02 -0.16245268888E+02  0.20162014825E+02  0.49746960737E+02  0.00000000000E+00 0.  1.
<mgrwt>
<rscale>  0 0.82719657E+02</rscale>
<asrwt>0</asrwt>
<pdfrwt beam="1">  1        2 0.60113863E-01 0.10097434E+03</pdfrwt>
<pdfrwt beam="2">  1       -2 0.33779650E-02 0.10097434E+03</pdfrwt>
<totfact> 0.26282300E+04</totfact>
</mgrwt>
</event>
<event>
 6    1  0.2852411E-002  0.9703651E+02  0.7546771E-02  0.1342081E+00
         -1   -1    0    0    0  501 -0.00000000000E+00  0.00000000000E+00  0.83182777567E+02  0.83182777567E+02  0.00000000000E+00 0.  1.
          1   -1    0    0  501    0  0.00000000000E+00 -0.00000000000E+00 -0.53298333901E+02  0.53298333901E+02  0.00000000000E+00 0. -1.
         23    2    1    2    0    0 -0.22517663022E+02 -0.27721741452E+02  0.17006057536E+02  0.98515430566E+02  0.90224963118E+02 0.  0.
         11    1    3    3    0    0  0.24458201825E+02 -0.41412538062E+02  0.91543756223E+01  0.48959213007E+02  0.00000000000E+00 0. -1.
        -11    1    3    3    0    0 -0.46975864846E+02  0.13690796610E+02  0.78516819135E+01  0.49556217559E+02  0.00000000000E+00 0.  1.
         22    1    1    2    0    0  0.22517663022E+02  0.27721741452E+02  0.12878386131E+02  0.37965680903E+02  0.00000000000E+00 0. -1.
<mgrwt>
<rscale>  0 0.75581088E+02</rscale>
<asrwt>0</asrwt>
<pdfrwt beam="1">  1        1 0.81997436E-02 0.97036509E+02</pdfrwt>
<pdfrwt beam="2">  1       -1 0.12797350E-01 0.97036509E+02</pdfrwt>
<totfact> 0.30607806E+04</totfact>
</mgrwt>
</event>
<event>
 6    1  0.2852411E-002  0.9193389E+02  0.7546771E-02  0.1419189E+00
          2   -1    0    0  501    0  0.00000000000E+00  0.00000000000E+00  0.70660279994E+03  0.70660279994E+03  0.00000000000E+00 0. -1.
         -2   -1    0    0    0  501 -0.00000000000E+00 -0.00000000000E+00 -0.40242769384E+01  0.40242769384E+01  0.00000000000E+00 0.  1.
         23    2    1    2    0    0 -0.11717435910E+02 -0.23087736493E+01  0.66116179118E+03  0.66752284954E+03  0.91154878064E+02 0.  0.
         11    1    3    3    0    0 -0.32318226954E+02  0.83817286231E+01  0.61451187382E+03  0.61541820271E+03  0.00000000000E+00 0. -1.
        -11    1    3    3    0    0  0.20600791045E+02 -0.10690502272E+02  0.46649917364E+02  0.52104646823E+02  0.00000000000E+00 0.  1.
         22    1    1    2    0    0  0.11717435910E+02  0.23087736493E+01  0.41416731815E+02  0.43104227337E+02  0.00000000000E+00 0. -1.
<mgrwt>
<rscale>  0 0.55192824E+02</rscale>
<asrwt>0</asrwt>
<pdfrwt beam="1">  1        2 0.10870802E+00 0.91933892E+02</pdfrwt>
<pdfrwt beam="2">  1       -2 0.61912009E-03 0.91933892E+02</pdfrwt>
<totfact> 0.15330049E+05</totfact>
</mgrwt>
</event>
<event>
 6    1  0.2852411E-002  0.9702905E+02  0.7546771E-02  0.1407782E+00
          3   -1    0    0  501    0  0.00000000000E+00  0.00000000000E+00  0.12149000923E+02  0.12149000923E+02  0.00000000000E+00 0. -1.
         -3   -1    0    0    0  501 -0.00000000000E+00 -0.00000000000E+00 -0.27352012360E+03  0.27352012360E+03  0.00000000000E+00 0.  1.
         23    2    1    2    0    0  0.11110318372E+02 -0.48603260246E+01 -0.19070173917E+03  0.21396679744E+03  0.96268245761E+02 0.  0.
         13    1    3    3    0    0 -0.47879895047E+01 -0.27818418489E+02 -0.18276979393E+03  0.18493671032E+03  0.00000000000E+00 0.  1.
        -13    1    3    3    0    0  0.15898307876E+02  0.22958092464E+02 -0.79319452368E+01  0.29030087120E+02  0.00000000000E+00 0. -1.
         22    1    1    2    0    0 -0.11110318372E+02  0.48603260246E+01 -0.70669383510E+02  0.71702327082E+02  0.00000000000E+00 0.  1.
<mgrwt>
<rscale>  0 0.57691772E+02</rscale>
<asrwt>0</asrwt>
<pdfrwt beam="1">  1        3 0.18690771E-02 0.97029053E+02</pdfrwt>
<pdfrwt beam="2">  1       -3 0.42080017E-01 0.97029053E+02</pdfrwt>
<totfact> 0.12462202E+04</totfact>
</mgrwt>
</event>
<event>
 6    1  0.2852411E-002  0.9872939E+02  0.7546771E-02  0.1327546E+00
         -2   -1    0    0    0  501 -0.00000000000E+00  0.00000000000E+00  0.85022569949E+01  0.85022569949E+01  0.00000000000E+00 0. -1.
          2   -1    0    0  501    0  0.00000000000E+00 -0.00000000000E+00 -0.59656650963E+03  0.59656650963E+03  0.00000000000E+00 0.  1.
         23    2    1    2    0    0 -0.89247907816E+01  0.42786470607E+02 -0.40634699480E+03  0.41816907226E+03  0.88527729311E+02 0.  0.
         13    1    3    3    0    0  0.52631192116E+01  0.12190473299E+02 -0.32583909285E+01  0.13672058167E+02  0.00000000000E+00 0. -1.
        -13    1    3    3    0    0 -0.14187909993E+02  0.30595997308E+02 -0.40308860387E+03  0.40449701409E+03  0.00000000000E+00 0.  1.
         22    1    1    2    0    0  0.89247907816E+01 -0.42786470607E+02 -0.18171725784E+03  0.18689969437E+03  0.00000000000E+00 0.  1.
<mgrwt>
<rscale>  0 0.80532932E+02</rscale>
<asrwt>0</asrwt>
<pdfrwt beam="1">  1        2 0.91779479E-01 0.98729392E+02</pdfrwt>
<pdfrwt beam="2">  1       -2 0.13080393E-02 0.98729392E+02</pdfrwt>
<totfact> 0.65200130E+04</totfact>
</mgrwt>
</event>
<event>
 6    1  0.2852411E-002  0.9583875E+02  0.7546771E-02  0.1342581E+00
         -2   -1    0    0    0  501 -0.00000000000E+00  0.00000000000E+00  0.70671512749E+02  0.70671512749E+02  0.00000000000E+00 0.  1.
          2   -1    0    0  501    0  0.00000000000E+00 -0.00000000000E+00 -0.82329068553E+02  0.82329068553E+02  0.00000000000E+00 0. -1.
         23    2    1    2    0    0  0.26585674469E+02  0.25374913129E+02 -0.42673867176E+02  0.10491008459E+03  0.88512047795E+02 0.  0.
         13    1    3    3    0    0 -0.90859228029E+01  0.15019680029E+02 -0.61011008972E+02  0.63486124446E+02  0.00000000000E+00 0. -1.
        -13    1    3    3    0    0  0.35671597272E+02  0.10355233101E+02  0.18337141796E+02  0.41423960141E+02  0.00000000000E+00 0.  1.
         22    1    1    2    0    0 -0.26585674469E+02 -0.25374913129E+02  0.31016311371E+02  0.48090496716E+02  0.00000000000E+00 0. -1.
<mgrwt>
<rscale>  0 0.75418016E+02</rscale>
<asrwt>0</asrwt>
<pdfrwt beam="1">  1        2 0.12666011E-01 0.95838755E+02</pdfrwt>
<pdfrwt beam="2">  1       -2 0.10872540E-01 0.95838755E+02</pdfrwt>
<totfact> 0.24589052E+04</totfact>
</mgrwt>
</event>
<event>
 6    1  0.2852411E-002  0.9252120E+02  0.7546771E-02  0.1396711E+00
          2   -1    0    0  501    0  0.00000000000E+00  0.00000000000E+00  0.27269481914E+02  0.27269481914E+02  0.00000000000E+00 0. -1.
         -2   -1    0    0    0  501 -0.00000000000E+00 -0.00000000000E+00 -0.11359676142E+03  0.11359676142E+03  0.00000000000E+00 0.  1.
         23    2    1    2    0    0  0.80618901120E+00  0.16638251386E+02 -0.61968869452E+02  0.11135669420E+03  0.91009291895E+02 0.  0.
         13    1    3    3    0    0 -0.17452382237E+02  0.40378233448E+02 -0.16588305354E+01  0.44019758073E+02  0.00000000000E+00 0. -1.
        -13    1    3    3    0    0  0.18258571248E+02 -0.23739982061E+02 -0.60310038917E+02  0.67336936123E+02  0.00000000000E+00 0.  1.
         22    1    1    2    0    0 -0.80618901120E+00 -0.16638251386E+02 -0.24358410051E+02  0.29509549135E+02  0.00000000000E+00 0. -1.
<mgrwt>
<rscale>  0 0.60267777E+02</rscale>
<asrwt>0</asrwt>
<pdfrwt beam="1">  1        2 0.41953049E-02 0.92521201E+02</pdfrwt>
<pdfrwt beam="2">  1       -2 0.17476425E-01 0.92521201E+02</pdfrwt>
<totfact> 0.45430652E+04</totfact>
</mgrwt>
</event>
<event>
 6    1  0.2852411E-002  0.9288164E+02  0.7546771E-02  0.1427144E+00
         -2   -1    0    0    0  501 -0.00000000000E+00  0.00000000000E+00  0.10084120379E+03  0.10084120379E+03  0.00000000000E+00 0.  1.
          2   -1    0    0  501    0  0.00000000000E+00 -0.00000000000E+00 -0.27604439503E+02  0.27604439503E+02  0.00000000000E+00 0. -1.
         23    2    1    2    0    0 -0.96018642218E+01 -0.35952701717E+01  0.56197380827E+02  0.10855940803E+03  0.92314016794E+02 0.  0.
         13    1    3    3    0    0 -0.26697237907E+02  0.38471443203E+02  0.22132019251E+02  0.51794022146E+02  0.00000000000E+00 0.  1.
        -13    1    3    3    0    0  0.17095373685E+02 -0.42066713375E+02  0.34065361577E+02  0.56765385887E+02  0.00000000000E+00 0. -1.
         22    1    1    2    0    0  0.96018642218E+01  0.35952701717E+01  0.17039383460E+02  0.19886235260E+02  0.00000000000E+00 0.  1.
<mgrwt>
<rscale>  0 0.53537612E+02</rscale>
<asrwt>0</asrwt>
<pdfrwt beam="1">  1        2 0.42468369E-02 0.92881642E+02</pdfrwt>
<pdfrwt beam="2">  1       -2 0.15514031E-01 0.92881642E+02</pdfrwt>
<totfact> 0.54361887E+04</totfact>
</mgrwt>
</event>
<event>
 6    1  0.2852411E-002  0.9355112E+02  0.7546771E-02  0.1407467E+00
          1   -1    0    0  501    0  0.00000000000E+00  0.00000000000E+00  0.41286549416E+03  0.41286549416E+03  0.00000000000E+00 0. -1.
         -1   -1    0    0    0  501 -0.00000000000E+00 -0.00000000000E+00 -0.70125310590E+01  0.70125310590E+01  0.00000000000E+00 0.  1.
         23    2    1    2    0    0 -0.13594947403E+02 -0.24537797823E+00  0.36610919619E+03  0.37787267064E+03  0.92557705646E+02 0.  0.
         13    1    3    3    0    0 -0.34851408366E+02  0.33392951589E+02  0.13514251926E+03  0.14350334627E+03  0.00000000000E+00 0. -1.
        -13    1    3    3    0    0  0.21256460963E+02 -0.33638329567E+02  0.23096667693E+03  0.23436932436E+03  0.00000000000E+00 0.  1.
         22    1    1    2    0    0  0.13594947403E+02  0.24537797823E+00  0.39743766909E+02  0.42005354580E+02  0.00000000000E+00 0.  1.
<mgrwt>
<rscale>  0 0.57762875E+02</rscale>
<asrwt>0</asrwt>
<pdfrwt beam="1">  1        1 0.63517749E-01 0.93551118E+02</pdfrwt>
<pdfrwt beam="2">  1       -1 0.10788513E-02 0.93551118E+02</pdfrwt>
<totfact> 0.85297813E+04</totfact>
</mgrwt>
</event>
<event>
 6    1  0.2852411E-002  0.9136662E+02  0.7546771E-02  0.1428048E+00
         -1   -1    0    0    0  501 -0.00000000000E+00  0.00000000000E+00  0.32824081395E+01  0.32824081395E+01  0.00000000000E+00 0.  1.
          1   -1    0    0  501    0  0.00000000000E+00 -0.00000000000E+00 -0.99907787891E+03  0.99907787891E+03  0.00000000000E+00 0. -1.
         23    2    1    2    0    0 -0.71576611686E+01 -0.78512818333E+01 -0.97219291371E+03  0.97647678961E+03  0.90746815054E+02 0.  0.
         11    1    3    3    0    0 -0.45642656436E+02 -0.19294610716E+02 -0.62744914467E+03  0.62940286243E+03  0.00000000000E+00 0. -1.
        -11    1    3    3    0    0  0.38484995268E+02  0.11443328882E+02 -0.34474376904E+03  0.34707392718E+03  0.00000000000E+00 0.  1.
         22    1    1    2    0    0  0.71576611686E+01  0.78512818333E+01 -0.23602557061E+02  0.25883497439E+02  0.00000000000E+00 0. -1.
<mgrwt>
<rscale>  0 0.53353789E+02</rscale>
<asrwt>0</asrwt>
<pdfrwt beam="1">  1        1 0.15370448E+00 0.91366620E+02</pdfrwt>
<pdfrwt beam="2">  1       -1 0.50498526E-03 0.91366620E+02</pdfrwt>
<totfact> 0.72002584E+04</totfact>
</mgrwt>
</event>
<event>
 6    1  0.2852411E-002  0.6989539E+02  0.7546771E-02  0.1472647E+00
         -2   -1    0    0    0  501 -0.00000000000E+00  0.00000000000E+00  0.40601699019E+01  0.40601699019E+01  0.00000000000E+00 0. -1.
          2   -1    0    0  501    0  0.00000000000E+00 -0.00000000000E+00 -0.43133399475E+03  0.43133399475E+03  0.00000000000E+00 0.  1.
         23    2    1    2    0    0 -0.90753677199E+01  0.83061419779E+01 -0.38777052676E+03  0.39401947609E+03  0.68804155544E+02 0.  0.
         13    1    3    3    0    0  0.19922895713E+01 -0.10541609988E+02 -0.35156029485E+03  0.35172394811E+03  0.00000000000E+00 0.  1.
        -13    1    3    3    0    0 -0.11067657291E+02  0.18847751966E+02 -0.36210231910E+02  0.42295527980E+02  0.00000000000E+00 0. -1.
         22    1    1    2    0    0  0.90753677199E+01 -0.83061419779E+01 -0.39503298088E+02  0.41374688562E+02  0.00000000000E+00 0. -1.
<mgrwt>
<rscale>  0 0.45272634E+02</rscale>
<asrwt>0</asrwt>
<pdfrwt beam="1">  1        2 0.66359091E-01 0.69895394E+02</pdfrwt>
<pdfrwt beam="2">  1       -2 0.62464139E-03 0.69895394E+02</pdfrwt>
<totfact> 0.24872770E+05</totfact>
</mgrwt>
</event>
<event>
 6    1  0.2852411E-002  0.9877655E+02  0.7546771E-02  0.1353993E+00
         -2   -1    0    0    0  501 -0.00000000000E+00  0.00000000000E+00  0.24481814416E+02  0.24481814416E+02  0.00000000000E+00 0.  1.
          2   -1    0    0  501    0  0.00000000000E+00 -0.00000000000E+00 -0.16436830409E+03  0.16436830409E+03  0.00000000000E+00 0. -1.
         23    2    1    2    0    0 -0.13156274711E+02 -0.24280140365E+02 -0.10224267012E+03  0.14216318317E+03  0.94837726012E+02 0.  0.
         13    1    3    3    0    0  0.17203753719E+02 -0.50871186948E+02 -0.79200661083E+02  0.95690080570E+02  0.00000000000E+00 0. -1.
        -13    1    3    3    0    0 -0.30360028431E+02  0.26591046582E+02 -0.23042009034E+02  0.46473102597E+02  0.00000000000E+00 0.  1.
         22    1    1    2    0    0  0.13156274711E+02  0.24280140365E+02 -0.37643819554E+02  0.46686935335E+02  0.00000000000E+00 0. -1.
<mgrwt>
<rscale>  0 0.71825458E+02</rscale>
<asrwt>0</asrwt>
<pdfrwt beam="1">  1        2 0.25287432E-01 0.98776551E+02</pdfrwt>
<pdfrwt beam="2">  1       -2 0.37664329E-02 0.98776551E+02</pdfrwt>
<totfact> 0.55955877E+04</totfact>
</mgrwt>
</event>
<event>
 6    1  0.2852411E-002  0.1024516E+03  0.7546771E-02  0.1319610E+00
         -2   -1    0    0    0  501 -0.00000000000E+00  0.00000000000E+00  0.22428103262E+02  0.22428103262E+02  0.00000000000E+00 0.  1.
          2   -1    0    0  501    0  0.00000000000E+00 -0.00000000000E+00 -0.55863992026E+03  0.55863992026E+03  0.00000000000E+00 0. -1.
         23    2    1    2    0    0  0.24944202379E+02 -0.37499786840E+02 -0.52466337644E+03  0.53457271489E+03  0.92021093688E+02 0.  0.
         13    1    3    3    0    0  0.23860687910E+02 -0.56634221084E+02 -0.49776906684E+03  0.50154841374E+03  0.00000000000E+00 0. -1.
        -13    1    3    3    0    0  0.10835144688E+01  0.19134434245E+02 -0.26894309599E+02  0.33024301148E+02  0.00000000000E+00 0.  1.
         22    1    1    2    0    0 -0.24944202379E+02  0.37499786840E+02 -0.11548440557E+02  0.46495308630E+02  0.00000000000E+00 0.  1.
<mgrwt>
<rscale>  0 0.83422750E+02</rscale>
<asrwt>0</asrwt>
<pdfrwt beam="1">  1        2 0.85944606E-01 0.10245159E+03</pdfrwt>
<pdfrwt beam="2">  1       -2 0.34504773E-02 0.10245159E+03</pdfrwt>
<totfact> 0.17360131E+04</totfact>
</mgrwt>
</event>
<event>
 6    1  0.2852411E-002  0.9258494E+02  0.7546771E-02  0.1394290E+00
          2   -1    0    0  501    0  0.00000000000E+00  0.00000000000E+00  0.12305359208E+03  0.12305359208E+03  0.00000000000E+00 0. -1.
         -2   -1    0    0    0  501 -0.00000000000E+00 -0.00000000000E+00 -0.28048159456E+02  0.28048159456E+02  0.00000000000E+00 0.  1.
         23    2    1    2    0    0  0.10670219166E+02 -0.13588959466E+02  0.96534357551E+02  0.13375669438E+03  0.90958549385E+02 0.  0.
         13    1    3    3    0    0  0.46251768602E+02  0.96270903060E+01  0.34209083496E+02  0.58328109521E+02  0.00000000000E+00 0.  1.
        -13    1    3    3    0    0 -0.35581549437E+02 -0.23216049772E+02  0.62325274055E+02  0.75428584855E+02  0.00000000000E+00 0. -1.
         22    1    1    2    0    0 -0.10670219166E+02  0.13588959466E+02 -0.15289249279E+01  0.17345057159E+02  0.00000000000E+00 0.  1.
<mgrwt>
<rscale>  0 0.60852124E+02</rscale>
<asrwt>0</asrwt>
<pdfrwt beam="1">  1        2 0.18931322E-01 0.92584940E+02</pdfrwt>
<pdfrwt beam="2">  1       -2 0.43151015E-02 0.92584940E+02</pdfrwt>
<totfact> 0.62549381E+04</totfact>
</mgrwt>
</event>
<event>
 6    1  0.2852411E-002  0.9149434E+02  0.7546771E-02  0.1426900E+00
          2   -1    0    0  501    0  0.00000000000E+00  0.00000000000E+00  0.17351946626E+03  0.17351946626E+03  0.00000000000E+00 0. -1.
         -2   -1    0    0    0  501 -0.00000000000E+00 -0.00000000000E+00 -0.16084087831E+02  0.16084087831E+02  0.00000000000E+00 0.  1.
         23    2    1    2    0    0 -0.48249176373E+00 -0.10755499292E+02  0.15231299229E+03  0.17768078583E+03  0.90858684048E+02 0.  0.
         11    1    3    3    0    0 -0.20427031815E+01 -0.22618187873E+02  0.16119033176E+03  0.16278230282E+03  0.00000000000E+00 0. -1.
        -11    1    3    3    0    0  0.15602114178E+01  0.11862688581E+02 -0.88773394618E+01  0.14898483009E+02  0.00000000000E+00 0.  1.
         22    1    1    2    0    0  0.48249176373E+00  0.10755499292E+02  0.51223861299E+01  0.11922768260E+02  0.00000000000E+00 0.  1.
<mgrwt>
<rscale>  0 0.53587371E+02</rscale>
<asrwt>0</asrwt>
<pdfrwt beam="1">  1        2 0.26695301E-01 0.91494339E+02</pdfrwt>
<pdfrwt beam="2">  1       -2 0.24744752E-02 0.91494339E+02</pdfrwt>
<totfact> 0.96245547E+04</totfact>
</mgrwt>
</event>
<event>
 6    1  0.2852411E-002  0.9138608E+02  0.7546771E-02  0.1402108E+00
         -2   -1    0    0    0  501 -0.00000000000E+00  0.00000000000E+00  0.23062929667E+02  0.23062929667E+02  0.00000000000E+00 0.  1.
          2   -1    0    0  501    0  0.00000000000E+00 -0.00000000000E+00 -0.15273288027E+03  0.15273288027E+03  0.00000000000E+00 0. -1.
         23    2    1    2    0    0 -0.78807143086E+00  0.15849700611E+02 -0.13115935629E+03  0.15985678879E+03  0.89997678379E+02 0.  0.
         11    1    3    3    0    0  0.27099562286E+02  0.20767040448E+02 -0.10208585888E+02  0.35635256009E+02  0.00000000000E+00 0.  1.
        -11    1    3    3    0    0 -0.27887633717E+02 -0.49173398369E+01 -0.12095077040E+03  0.12422153278E+03  0.00000000000E+00 0. -1.
         22    1    1    2    0    0  0.78807143086E+00 -0.15849700611E+02  0.14894056809E+01  0.15939021153E+02  0.00000000000E+00 0.  1.
<mgrwt>
<rscale>  0 0.58992847E+02</rscale>
<asrwt>0</asrwt>
<pdfrwt beam="1">  1        2 0.23497366E-01 0.91386083E+02</pdfrwt>
<pdfrwt beam="2">  1       -2 0.35481430E-02 0.91386083E+02</pdfrwt>
<totfact> 0.65482325E+04</totfact>
</mgrwt>
</event>
<event>
 6    1  0.2852411E-002  0.5904584E+02  0.7546771E-02  0.1498094E+00
         -4   -1    0    0    0  501 -0.00000000000E+00  0.00000000000E+00  0.46206371990E+02  0.46206371990E+02  0.00000000000E+00 0.  1.
          4   -1    0    0  501    0  0.00000000000E+00 -0.00000000000E+00 -0.29131127911E+02  0.29131127911E+02  0.00000000000E+00 0. -1.
         23    2    1    2    0    0 -0.98386088988E+01 -0.10353007792E+02  0.14831353225E+02  0.60880043639E+02  0.57292474895E+02 0.  0.
         13    1    3    3    0    0 -0.56445945634E+01  0.23848107916E+02  0.45916539193E+01  0.24933451118E+02  0.00000000000E+00 0. -1.
        -13    1    3    3    0    0 -0.41940143354E+01 -0.34201115708E+02  0.10239699306E+02  0.35946592520E+02  0.00000000000E+00 0.  1.
         22    1    1    2    0    0  0.98386088988E+01  0.10353007792E+02  0.22438908530E+01  0.14457456262E+02  0.00000000000E+00 0.  1.
<mgrwt>
<rscale>  0 0.41408662E+02</rscale>
<asrwt>0</asrwt>
<pdfrwt beam="1">  1        4 0.44817120E-02 0.59045835E+02</pdfrwt>
<pdfrwt beam="2">  1       -4 0.71086726E-02 0.59045835E+02</pdfrwt>
<totfact> 0.46242384E+04</totfact>
</mgrwt>
</event>
<event>
 6    1  0.2852411E-002  0.9451669E+02  0.7546771E-02  0.1359455E+00
          2   -1    0    0  501    0  0.00000000000E+00  0.00000000000E+00  0.30653477419E+04  0.30653477419E+04  0.00000000000E+00 0. -1.
         -2   -1    0    0    0  501 -0.00000000000E+00 -0.00000000000E+00 -0.50605191851E+01  0.50605191851E+01  0.00000000000E+00 0.  1.
         23    2    1    2    0    0 -0.21731948395E+02  0.18811141779E+02  0.30168031780E+04  0.30182834227E+04  0.90040368969E+02 0.  0.
         13    1    3    3    0    0 -0.56909068751E+02  0.10996665253E+02  0.17026019055E+04  0.17035882182E+04  0.00000000000E+00 0.  1.
        -13    1    3    3    0    0  0.35177120356E+02  0.78144765261E+01  0.13142012726E+04  0.13146952045E+04  0.00000000000E+00 0. -1.
         22    1    1    2    0    0  0.21731948395E+02 -0.18811141779E+02  0.43484044681E+02  0.52124838397E+02  0.00000000000E+00 0.  1.
<mgrwt>
<rscale>  0 0.70187999E+02</rscale>
<asrwt>0</asrwt>
<pdfrwt beam="1">  1        2 0.47159048E+00 0.94516690E+02</pdfrwt>
<pdfrwt beam="2">  1       -2 0.77854386E-03 0.94516690E+02</pdfrwt>
<totfact> 0.58687230E+03</totfact>
</mgrwt>
</event>
<event>
 6    1  0.2852411E-002  0.9228160E+02  0.7546771E-02  0.1418966E+00
          1   -1    0    0  501    0  0.00000000000E+00  0.00000000000E+00  0.11293686922E+04  0.11293686922E+04  0.00000000000E+00 0. -1.
         -1   -1    0    0    0  501 -0.00000000000E+00 -0.00000000000E+00 -0.36103838211E+01  0.36103838211E+01  0.00000000000E+00 0.  1.
         23    2    1    2    0    0 -0.80757935189E+01  0.86704877405E+01  0.11066792602E+04  0.11105200939E+04  0.91517748011E+02 0.  0.
         13    1    3    3    0    0  0.18094947143E+02 -0.12552938451E+02  0.95015445272E+03  0.95040964189E+03  0.00000000000E+00 0. -1.
        -13    1    3    3    0    0 -0.26170740662E+02  0.21223426191E+02  0.15652480750E+03  0.16011045203E+03  0.00000000000E+00 0.  1.
         22    1    1    2    0    0  0.80757935189E+01 -0.86704877405E+01  0.19079048198E+02  0.22458982140E+02  0.00000000000E+00 0.  1.
<mgrwt>
<rscale>  0 0.55240246E+02</rscale>
<asrwt>0</asrwt>
<pdfrwt beam="1">  1        1 0.17374875E+00 0.92281602E+02</pdfrwt>
<pdfrwt beam="2">  1       -1 0.55544456E-03 0.92281602E+02</pdfrwt>
<totfact> 0.51095526E+04</totfact>
</mgrwt>
</event>
<event>
 6    1  0.2852411E-002  0.9294733E+02  0.7546771E-02  0.1406924E+00
         -2   -1    0    0    0  501 -0.00000000000E+00  0.00000000000E+00  0.34607292419E+03  0.34607292419E+03  0.00000000000E+00 0.  1.
          2   -1    0    0  501    0  0.00000000000E+00 -0.00000000000E+00 -0.82626960573E+01  0.82626960573E+01  0.00000000000E+00 0. -1.
         23    2    1    2    0    0  0.12451184767E+02 -0.63617434381E+01  0.29134729012E+03  0.30581440437E+03  0.91889622247E+02 0.  0.
         11    1    3    3    0    0  0.45285951916E+02  0.19370241553E+02  0.12597671308E+03  0.13526328377E+03  0.00000000000E+00 0. -1.
        -11    1    3    3    0    0 -0.32834767149E+02 -0.25731984991E+02  0.16537057704E+03  0.17055112059E+03  0.00000000000E+00 0.  1.
         22    1    1    2    0    0 -0.12451184767E+02  0.63617434381E+01  0.46462938015E+02  0.48521215882E+02  0.00000000000E+00 0. -1.
<mgrwt>
<rscale>  0 0.57885807E+02</rscale>
<asrwt>0</asrwt>
<pdfrwt beam="1">  1        2 0.12711843E-02 0.92947332E+02</pdfrwt>
<pdfrwt beam="2">  1       -2 0.53241977E-01 0.92947332E+02</pdfrwt>
<totfact> 0.30390293E+04</totfact>
</mgrwt>
</event>
<event>
 6    1  0.2852411E-002  0.9189836E+02  0.7546771E-02  0.1407312E+00
          2   -1    0    0  501    0  0.00000000000E+00  0.00000000000E+00  0.12281043179E+03  0.12281043179E+03  0.00000000000E+00 0. -1.
         -2   -1    0    0    0  501 -0.00000000000E+00 -0.00000000000E+00 -0.31721897700E+02  0.31721897700E+02  0.00000000000E+00 0.  1.
         23    2    1    2    0    0 -0.83920832284E+01  0.11675865557E+02  0.10139295636E+03  0.13684238840E+03  0.90766484824E+02 0.  0.
         13    1    3    3    0    0  0.10129508052E+02  0.15887993434E+02  0.11301461771E+03  0.11457460052E+03  0.00000000000E+00 0. -1.
        -13    1    3    3    0    0 -0.18521591281E+02 -0.42121278763E+01 -0.11621661348E+02  0.22267787885E+02  0.00000000000E+00 0.  1.
         22    1    1    2    0    0  0.83920832284E+01 -0.11675865557E+02 -0.10304422268E+02  0.17689941088E+02  0.00000000000E+00 0.  1.
<mgrwt>
<rscale>  0 0.57797926E+02</rscale>
<asrwt>0</asrwt>
<pdfrwt beam="1">  1        2 0.18893912E-01 0.91898355E+02</pdfrwt>
<pdfrwt beam="2">  1       -2 0.48802920E-02 0.91898355E+02</pdfrwt>
<totfact> 0.52194782E+04</totfact>
</mgrwt>
</event>
<event>
 6    1  0.2852411E-002  0.9058744E+02  0.7546771E-02  0.1431533E+00
         -2   -1    0    0    0  501 -0.00000000000E+00  0.00000000000E+00  0.65557919077E+02  0.65557919077E+02  0.00000000000E+00 0.  1.
          2   -1    0    0  501    0  0.00000000000E+00 -0.00000000000E+00 -0.60932493089E+02  0.60932493089E+02  0.00000000000E+00 0. -1.
         23    2    1    2    0    0 -0.30490957444E+01 -0.98798615710E+01 -0.25936093657E+02  0.94227195764E+02  0.89995415538E+02 0.  0.
         11    1    3    3    0    0 -0.98075771370E+01 -0.73736607947E+01 -0.59063525148E+02  0.60324617245E+02  0.00000000000E+00 0. -1.
        -11    1    3    3    0    0  0.67584813926E+01 -0.25062007763E+01  0.33127431491E+02  0.33902578519E+02  0.00000000000E+00 0.  1.
         22    1    1    2    0    0  0.30490957444E+01  0.98798615710E+01  0.30561519646E+02  0.32263216402E+02  0.00000000000E+00 0.  1.
<mgrwt>
<rscale>  0 0.52653541E+02</rscale>
<asrwt>0</asrwt>
<pdfrwt beam="1">  1        2 0.93742298E-02 0.90587435E+02</pdfrwt>
<pdfrwt beam="2">  1       -2 0.10085834E-01 0.90587435E+02</pdfrwt>
<totfact> 0.39418121E+04</totfact>
</mgrwt>
</event>
<event>
 6    1  0.2852411E-002  0.9637151E+02  0.7546771E-02  0.1401157E+00
         -2   -1    0    0    0  501 -0.00000000000E+00  0.00000000000E+00  0.39388524213E+01  0.39388524213E+01  0.00000000000E+00 0.  1.
          2   -1    0    0  501    0  0.00000000000E+00 -0.00000000000E+00 -0.77618271880E+03  0.77618271880E+03  0.00000000000E+00 0. -1.
         23    2    1    2    0    0  0.10979839668E+02  0.82540471559E+01 -0.69746580161E+03  0.70409233248E+03  0.95387536203E+02 0.  0.
         11    1    3    3    0    0  0.24265959257E+02 -0.36406587932E+02 -0.21662775551E+03  0.22100194769E+03  0.00000000000E+00 0.  1.
        -11    1    3    3    0    0 -0.13286119588E+02  0.44660635088E+02 -0.48083804609E+03  0.48309038479E+03  0.00000000000E+00 0. -1.
         22    1    1    2    0    0 -0.10979839668E+02 -0.82540471559E+01 -0.74778064771E+02  0.76029238747E+02  0.00000000000E+00 0. -1.
<mgrwt>
<rscale>  0 0.59214629E+02</rscale>
<asrwt>0</asrwt>
<pdfrwt beam="1">  1        2 0.11941268E+00 0.96371512E+02</pdfrwt>
<pdfrwt beam="2">  1       -2 0.60597753E-03 0.96371512E+02</pdfrwt>
<totfact> 0.14225947E+05</totfact>
</mgrwt>
</event>
<event>
 6    1  0.2852411E-002  0.9114568E+02  0.7546771E-02  0.1430982E+00
          1   -1    0    0  501    0  0.00000000000E+00  0.00000000000E+00  0.85964653576E+03  0.85964653576E+03  0.00000000000E+00 0. -1.
         -1   -1    0    0    0  501 -0.00000000000E+00 -0.00000000000E+00 -0.31242329706E+01  0.31242329706E+01  0.00000000000E+00 0.  1.
         23    2    1    2    0    0  0.89982807886E+01  0.48787371203E+01  0.81133777035E+03  0.81644137088E+03  0.90569108211E+02 0.  0.
         13    1    3    3    0    0 -0.37749115120E+02  0.12179488156E+02  0.49476243971E+03  0.49634988402E+03  0.00000000000E+00 0. -1.
        -13    1    3    3    0    0  0.46747395908E+02 -0.73007510356E+01  0.31657533064E+03  0.32009148686E+03  0.00000000000E+00 0.  1.
         22    1    1    2    0    0 -0.89982807886E+01 -0.48787371203E+01  0.45184532444E+02  0.46329397851E+02  0.00000000000E+00 0. -1.
<mgrwt>
<rscale>  0 0.52763338E+02</rscale>
<asrwt>0</asrwt>
<pdfrwt beam="1">  1        1 0.13225313E+00 0.91145677E+02</pdfrwt>
<pdfrwt beam="2">  1       -1 0.48065191E-03 0.91145677E+02</pdfrwt>
<totfact> 0.97978929E+04</totfact>
</mgrwt>
</event>
<event>
 6    1  0.2852411E-002  0.1035048E+03  0.7546771E-02  0.1319628E+00
          4   -1    0    0  501    0  0.00000000000E+00  0.00000000000E+00  0.23982106638E+02  0.23982106638E+02  0.00000000000E+00 0. -1.
         -4   -1    0    0    0  501 -0.00000000000E+00 -0.00000000000E+00 -0.22579347680E+03  0.22579347680E+03  0.00000000000E+00 0.  1.
         23    2    1    2    0    0 -0.43289245562E+02 -0.57023108038E+01 -0.14291436796E+03  0.17645892777E+03  0.93844347141E+02 0.  0.
         11    1    3    3    0    0 -0.16111336852E+02  0.89931587466E+01  0.96327055949E+01  0.20814444419E+02  0.00000000000E+00 0. -1.
        -11    1    3    3    0    0 -0.27177908710E+02 -0.14695469550E+02 -0.15254707356E+03  0.15564448335E+03  0.00000000000E+00 0.  1.
         22    1    1    2    0    0  0.43289245562E+02  0.57023108038E+01 -0.58897002200E+02  0.73316655666E+02  0.00000000000E+00 0. -1.
<mgrwt>
<rscale>  0 0.83415960E+02</rscale>
<asrwt>0</asrwt>
<pdfrwt beam="1">  1        4 0.36895548E-02 0.10350477E+03</pdfrwt>
<pdfrwt beam="2">  1       -4 0.34737459E-01 0.10350477E+03</pdfrwt>
<totfact> 0.47566055E+03</totfact>
</mgrwt>
</event>
<event>
 6    1  0.2852411E-002  0.9307087E+02  0.7546771E-02  0.1422260E+00
         -2   -1    0    0    0  501 -0.00000000000E+00  0.00000000000E+00  0.33177346769E+01  0.33177346769E+01  0.00000000000E+00 0.  1.
          2   -1    0    0  501    0  0.00000000000E+00 -0.00000000000E+00 -0.10228535937E+04  0.10228535937E+04  0.00000000000E+00 0. -1.
         23    2    1    2    0    0  0.10821667773E+02  0.18569178200E+01 -0.99434960260E+03  0.99869580928E+03  0.92420942644E+02 0.  0.
         11    1    3    3    0    0  0.45566577549E+02  0.16575855759E+02 -0.73714557160E+03  0.73873856384E+03  0.00000000000E+00 0. -1.
        -11    1    3    3    0    0 -0.34744909776E+02 -0.14718937939E+02 -0.25720403101E+03  0.25995724544E+03  0.00000000000E+00 0.  1.
         22    1    1    2    0    0 -0.10821667773E+02 -0.18569178200E+01 -0.25186256417E+02  0.27475519094E+02  0.00000000000E+00 0.  1.
<mgrwt>
<rscale>  0 0.54545538E+02</rscale>
<asrwt>0</asrwt>
<pdfrwt beam="1">  1        2 0.15736222E+00 0.93070872E+02</pdfrwt>
<pdfrwt beam="2">  1       -2 0.51042031E-03 0.93070872E+02</pdfrwt>
<totfact> 0.12645282E+05</totfact>
</mgrwt>
</event>
<event>
 6    1  0.2852411E-002  0.8953997E+02  0.7546771E-02  0.1427658E+00
         -4   -1    0    0    0  501 -0.00000000000E+00  0.00000000000E+00  0.21941877154E+02  0.21941877154E+02  0.00000000000E+00 0.  1.
          4   -1    0    0  501    0  0.00000000000E+00 -0.00000000000E+00 -0.25927697823E+03  0.25927697823E+03  0.00000000000E+00 0. -1.
         23    2    1    2    0    0  0.95415287820E+01  0.61560765875E+01 -0.24919865633E+03  0.26479685813E+03  0.88817046279E+02 0.  0.
         11    1    3    3    0    0  0.52808008781E+01  0.19124784952E+01 -0.25580316272E+03  0.25586481291E+03  0.00000000000E+00 0. -1.
        -11    1    3    3    0    0  0.42607279039E+01  0.42435980923E+01  0.66045063908E+01  0.89320452141E+01  0.00000000000E+00 0.  1.
         22    1    1    2    0    0 -0.95415287820E+01 -0.61560765875E+01  0.11863555254E+02  0.16421997251E+02  0.00000000000E+00 0.  1.
<mgrwt>
<rscale>  0 0.53433096E+02</rscale>
<asrwt>0</asrwt>
<pdfrwt beam="1">  1        4 0.39888767E-01 0.89539967E+02</pdfrwt>
<pdfrwt beam="2">  1       -4 0.33756733E-02 0.89539967E+02</pdfrwt>
<totfact> 0.40227108E+03</totfact>
</mgrwt>
</event>
<event>
 6    1  0.2852411E-002  0.9229713E+02  0.7546771E-02  0.1418543E+00
         -2   -1    0    0    0  501 -0.00000000000E+00  0.00000000000E+00  0.26060992238E+02  0.26060992238E+02  0.00000000000E+00 0.  1.
          2   -1    0    0  501    0  0.00000000000E+00 -0.00000000000E+00 -0.10419664778E+03  0.10419664778E+03  0.00000000000E+00 0. -1.
         23    2    1    2    0    0  0.10201866569E+02  0.61657920425E+01 -0.68892388395E+02  0.11517344098E+03  0.91524123902E+02 0.  0.
         11    1    3    3    0    0  0.48802413132E+02 -0.93746254673E+01 -0.29046397869E+02  0.57560857875E+02  0.00000000000E+00 0.  1.
        -11    1    3    3    0    0 -0.38600546563E+02  0.15540417510E+02 -0.39845990526E+02  0.57612583108E+02  0.00000000000E+00 0. -1.
         22    1    1    2    0    0 -0.10201866569E+02 -0.61657920425E+01 -0.92432671479E+01  0.15084199036E+02  0.00000000000E+00 0. -1.
<mgrwt>
<rscale>  0 0.55330364E+02</rscale>
<asrwt>0</asrwt>
<pdfrwt beam="1">  1        2 0.16030253E-01 0.92297131E+02</pdfrwt>
<pdfrwt beam="2">  1       -2 0.40093835E-02 0.92297131E+02</pdfrwt>
<totfact> 0.84168338E+04</totfact>
</mgrwt>
</event>
<event>
 6    1  0.2852411E-002  0.9372450E+02  0.7546771E-02  0.1408150E+00
         -2   -1    0    0    0  501 -0.00000000000E+00  0.00000000000E+00  0.16246734105E+01  0.16246734105E+01  0.00000000000E+00 0. -1.
          2   -1    0    0  501    0  0.00000000000E+00 -0.00000000000E+00 -0.21505412649E+04  0.21505412649E+04  0.00000000000E+00 0.  1.
         23    2    1    2    0    0 -0.32052555652E+01 -0.12988409742E+02 -0.20702082006E+04  0.20723287086E+04  0.92764811321E+02 0.  0.
         13    1    3    3    0    0 -0.37186418446E+02  0.15755431090E+02 -0.14325195526E+04  0.14330887384E+04  0.00000000000E+00 0. -1.
        -13    1    3    3    0    0  0.33981162881E+02 -0.28743840832E+02 -0.63768864800E+03  0.63923997028E+03  0.00000000000E+00 0.  1.
         22    1    1    2    0    0  0.32052555652E+01  0.12988409742E+02 -0.78708390871E+02  0.79837229688E+02  0.00000000000E+00 0. -1.
<mgrwt>
<rscale>  0 0.57608708E+02</rscale>
<asrwt>0</asrwt>
<pdfrwt beam="1">  1        2 0.33085270E+00 0.93724504E+02</pdfrwt>
<pdfrwt beam="2">  1       -2 0.24994961E-03 0.93724504E+02</pdfrwt>
<totfact> 0.89176324E+04</totfact>
</mgrwt>
</event>
<event>
 6    1  0.2852411E-002  0.9384674E+02  0.7546771E-02  0.1385378E+00
         -3   -1    0    0    0  501 -0.00000000000E+00  0.00000000000E+00  0.97752433538E+02  0.97752433538E+02  0.00000000000E+00 0.  1.
          3   -1    0    0  501    0  0.00000000000E+00 -0.00000000000E+00 -0.43935000446E+02  0.43935000446E+02  0.00000000000E+00 0. -1.
         23    2    1    2    0    0  0.89466914421E+01  0.16926444466E+02  0.10630384539E+02  0.94446890245E+02  0.91873076532E+02 0.  0.
         11    1    3    3    0    0  0.32355222824E+02  0.15187585629E+02 -0.30567762793E+02  0.47030961327E+02  0.00000000000E+00 0. -1.
        -11    1    3    3    0    0 -0.23408531382E+02  0.17388588373E+01  0.41198147333E+02  0.47415928918E+02  0.00000000000E+00 0.  1.
         22    1    1    2    0    0 -0.89466914421E+01 -0.16926444466E+02  0.43187048553E+02  0.47240543738E+02  0.00000000000E+00 0.  1.
<mgrwt>
<rscale>  0 0.63071144E+02</rscale>
<asrwt>0</asrwt>
<pdfrwt beam="1">  1        3 0.67592308E-02 0.93846737E+02</pdfrwt>
<pdfrwt beam="2">  1       -3 0.15038836E-01 0.93846737E+02</pdfrwt>
<totfact> 0.10783390E+04</totfact>
</mgrwt>
</event>
<event>
 6    1  0.2852411E-002  0.9265215E+02  0.7546771E-02  0.1387312E+00
          2   -1    0    0  501    0  0.00000000000E+00  0.00000000000E+00  0.47928754028E+03  0.47928754028E+03  0.00000000000E+00 0. -1.
         -2   -1    0    0    0  501 -0.00000000000E+00 -0.00000000000E+00 -0.67441769805E+01  0.67441769805E+01  0.00000000000E+00 0.  1.
         23    2    1    2    0    0  0.18847783272E+02  0.40756657490E+01  0.41900245881E+03  0.42912408649E+03  0.90623237293E+02 0.  0.
         11    1    3    3    0    0  0.19923167017E+02  0.36575265965E+02  0.98059259284E+02  0.10653779140E+03  0.00000000000E+00 0.  1.
        -11    1    3    3    0    0 -0.10753837449E+01 -0.32499600216E+02  0.32094319952E+03  0.32258629510E+03  0.00000000000E+00 0. -1.
         22    1    1    2    0    0 -0.18847783272E+02 -0.40756657490E+01  0.53540904493E+02  0.56907630767E+02  0.00000000000E+00 0.  1.
<mgrwt>
<rscale>  0 0.62580294E+02</rscale>
<asrwt>0</asrwt>
<pdfrwt beam="1">  1        2 0.73736518E-01 0.92652151E+02</pdfrwt>
<pdfrwt beam="2">  1       -2 0.10375661E-02 0.92652151E+02</pdfrwt>
<totfact> 0.11420414E+05</totfact>
</mgrwt>
</event>
<event>
 6    1  0.2852411E-002  0.9259513E+02  0.7546771E-02  0.1415212E+00
          2   -1    0    0  501    0  0.00000000000E+00  0.00000000000E+00  0.13842706672E+04  0.13842706672E+04  0.00000000000E+00 0. -1.
         -2   -1    0    0    0  501 -0.00000000000E+00 -0.00000000000E+00 -0.41852875417E+01  0.41852875417E+01  0.00000000000E+00 0.  1.
         23    2    1    2    0    0 -0.88095549307E+01  0.87679793286E+01  0.13679655594E+04  0.13710957772E+04  0.91757141276E+02 0.  0.
         11    1    3    3    0    0  0.37571109816E+02 -0.12720246899E+02  0.46711385448E+03  0.46879499359E+03  0.00000000000E+00 0.  1.
        -11    1    3    3    0    0 -0.46380664747E+02  0.21488226227E+02  0.90085170492E+03  0.90230078365E+03  0.00000000000E+00 0. -1.
         22    1    1    2    0    0  0.88095549307E+01 -0.87679793286E+01  0.12119820279E+02  0.17360177510E+02  0.00000000000E+00 0.  1.
<mgrwt>
<rscale>  0 0.56046973E+02</rscale>
<asrwt>0</asrwt>
<pdfrwt beam="1">  1        2 0.21296435E+00 0.92595133E+02</pdfrwt>
<pdfrwt beam="2">  1       -2 0.64389149E-03 0.92595133E+02</pdfrwt>
<totfact> 0.57918768E+04</totfact>
</mgrwt>
</event>
<event>
 6    1  0.2852411E-002  0.9295441E+02  0.7546771E-02  0.1387333E+00
          1   -1    0    0  501    0  0.00000000000E+00  0.00000000000E+00  0.11619925317E+03  0.11619925317E+03  0.00000000000E+00 0. -1.
         -1   -1    0    0    0  501 -0.00000000000E+00 -0.00000000000E+00 -0.28848167629E+02  0.28848167629E+02  0.00000000000E+00 0.  1.
         23    2    1    2    0    0 -0.19038085661E+02  0.13972169723E+01  0.84734940221E+02  0.12577969812E+03  0.90973190793E+02 0.  0.
         11    1    3    3    0    0 -0.50876208525E+02  0.43928499409E+01  0.77793094738E+02  0.93056172893E+02  0.00000000000E+00 0. -1.
        -11    1    3    3    0    0  0.31838122864E+02 -0.29956329687E+01  0.69418454822E+01  0.32723525224E+02  0.00000000000E+00 0.  1.
         22    1    1    2    0    0  0.19038085661E+02 -0.13972169723E+01  0.26161453162E+01  0.19267722678E+02  0.00000000000E+00 0.  1.
<mgrwt>
<rscale>  0 0.62574867E+02</rscale>
<asrwt>0</asrwt>
<pdfrwt beam="1">  1        1 0.17876808E-01 0.92954410E+02</pdfrwt>
<pdfrwt beam="2">  1       -1 0.44381797E-02 0.92954410E+02</pdfrwt>
<totfact> 0.53794066E+04</totfact>
</mgrwt>
</event>
<event>
 6    1  0.2852411E-002  0.9785666E+02  0.7546771E-02  0.1367615E+00
          2   -1    0    0  501    0  0.00000000000E+00  0.00000000000E+00  0.54792160171E+02  0.54792160171E+02  0.00000000000E+00 0. -1.
         -2   -1    0    0    0  501 -0.00000000000E+00 -0.00000000000E+00 -0.84996285569E+02  0.84996285569E+02  0.00000000000E+00 0.  1.
         23    2    1    2    0    0 -0.13133774018E+02  0.18387440127E+02  0.49686560944E+01  0.97982722061E+02  0.95212038655E+02 0.  0.
         11    1    3    3    0    0 -0.28000393849E+02  0.37449705769E+02  0.35737773420E+02  0.58853130477E+02  0.00000000000E+00 0. -1.
        -11    1    3    3    0    0  0.14866619831E+02 -0.19062265642E+02 -0.30769117325E+02  0.39129591585E+02  0.00000000000E+00 0.  1.
         22    1    1    2    0    0  0.13133774018E+02 -0.18387440127E+02 -0.35172781492E+02  0.41805723678E+02  0.00000000000E+00 0.  1.
<mgrwt>
<rscale>  0 0.67834755E+02</rscale>
<asrwt>0</asrwt>
<pdfrwt beam="1">  1        2 0.84295632E-02 0.97856662E+02</pdfrwt>
<pdfrwt beam="2">  1       -2 0.13076351E-01 0.97856662E+02</pdfrwt>
<totfact> 0.30124166E+04</totfact>
</mgrwt>
</event>
<event>
 6    1  0.2852411E-002  0.1037873E+03  0.7546771E-02  0.1398533E+00
         -2   -1    0    0    0  501 -0.00000000000E+00  0.00000000000E+00  0.20119500273E+02  0.20119500273E+02  0.00000000000E+00 0.  1.
          2   -1    0    0  501    0  0.00000000000E+00 -0.00000000000E+00 -0.17261416337E+03  0.17261416337E+03  0.00000000000E+00 0. -1.
         23    2    1    2    0    0  0.77638389814E+01 -0.84349480149E+01 -0.14718966287E+03  0.18010161824E+03  0.10315217153E+03 0.  0.
         13    1    3    3    0    0 -0.13420568774E+02 -0.33302686859E+01  0.12675474639E+02  0.18758198555E+02  0.00000000000E+00 0.  1.
        -13    1    3    3    0    0  0.21184407755E+02 -0.51046793290E+01 -0.15986513751E+03  0.16134341968E+03  0.00000000000E+00 0. -1.
         22    1    1    2    0    0 -0.77638389814E+01  0.84349480149E+01 -0.53050002246E+01  0.12632045406E+02  0.00000000000E+00 0. -1.
<mgrwt>
<rscale>  0 0.59833309E+02</rscale>
<asrwt>0</asrwt>
<pdfrwt beam="1">  1        2 0.26556024E-01 0.10378726E+03</pdfrwt>
<pdfrwt beam="2">  1       -2 0.30953079E-02 0.10378726E+03</pdfrwt>
<totfact> 0.71205921E+04</totfact>
</mgrwt>
</event>
<event>
 6    1  0.2852411E-002  0.9797572E+02  0.7546771E-02  0.1349214E+00
          2   -1    0    0  501    0  0.00000000000E+00  0.00000000000E+00  0.59357310259E+03  0.59357310259E+03  0.00000000000E+00 0. -1.
         -2   -1    0    0    0  501 -0.00000000000E+00 -0.00000000000E+00 -0.69786727694E+01  0.69786727694E+01  0.00000000000E+00 0.  1.
         23    2    1    2    0    0  0.12079561835E+02  0.28219686136E+02  0.43939097913E+03  0.45018182359E+03  0.93042867813E+02 0.  0.
         13    1    3    3    0    0  0.16290132899E+02  0.32431456621E+02  0.44213677867E+03  0.44362382585E+03  0.00000000000E+00 0. -1.
        -13    1    3    3    0    0 -0.42105710634E+01 -0.42117704846E+01 -0.27457995383E+01  0.65579977432E+01  0.00000000000E+00 0.  1.
         22    1    1    2    0    0 -0.12079561835E+02 -0.28219686136E+02  0.14720345069E+03  0.15036995177E+03  0.00000000000E+00 0. -1.
<mgrwt>
<rscale>  0 0.73301113E+02</rscale>
<asrwt>0</asrwt>
<pdfrwt beam="1">  1        2 0.91318899E-01 0.97975720E+02</pdfrwt>
<pdfrwt beam="2">  1       -2 0.10736424E-02 0.97975720E+02</pdfrwt>
<totfact> 0.86754463E+04</totfact>
</mgrwt>
</event>
<event>
 6    1  0.2852411E-002  0.9693290E+02  0.7546771E-02  0.1353212E+00
         -1   -1    0    0    0  501 -0.00000000000E+00  0.00000000000E+00  0.17398059807E+02  0.17398059807E+02  0.00000000000E+00 0.  1.
          1   -1    0    0  501    0  0.00000000000E+00 -0.00000000000E+00 -0.41403914693E+03  0.41403914693E+03  0.00000000000E+00 0. -1.
         23    2    1    2    0    0 -0.21385268883E+02 -0.20481879040E+02 -0.38894518495E+03  0.40084204365E+03  0.92299241415E+02 0.  0.
         13    1    3    3    0    0 -0.49672167479E+02 -0.35853195254E+02 -0.30146134028E+03  0.30762268368E+03  0.00000000000E+00 0. -1.
        -13    1    3    3    0    0  0.28286898596E+02  0.15371316214E+02 -0.87483844676E+02  0.93219359973E+02  0.00000000000E+00 0.  1.
         22    1    1    2    0    0  0.21385268883E+02  0.20481879040E+02 -0.76959021732E+01  0.30595163089E+02  0.00000000000E+00 0.  1.
<mgrwt>
<rscale>  0 0.72063984E+02</rscale>
<asrwt>0</asrwt>
<pdfrwt beam="1">  1        1 0.63698331E-01 0.96932900E+02</pdfrwt>
<pdfrwt beam="2">  1       -1 0.26766246E-02 0.96932900E+02</pdfrwt>
<totfact> 0.23390459E+04</totfact>
</mgrwt>
</event>
<event>
 6    1  0.2852411E-002  0.9365330E+02  0.7546771E-02  0.1395016E+00
          2   -1    0    0  501    0  0.00000000000E+00  0.00000000000E+00  0.45152517294E+02  0.45152517294E+02  0.00000000000E+00 0. -1.
         -2   -1    0    0    0  501 -0.00000000000E+00 -0.00000000000E+00 -0.68941030649E+02  0.68941030649E+02  0.00000000000E+00 0.  1.
         23    2    1    2    0    0  0.15981438469E+02 -0.41071853827E+01 -0.26594060652E+02  0.97355972164E+02  0.92188209152E+02 0.  0.
         11    1    3    3    0    0  0.41000819572E+02  0.19943575110E+02  0.10259357329E+02  0.46734011239E+02  0.00000000000E+00 0. -1.
        -11    1    3    3    0    0 -0.25019381102E+02 -0.24050760492E+02 -0.36853417981E+02  0.50621960925E+02  0.00000000000E+00 0.  1.
         22    1    1    2    0    0 -0.15981438469E+02  0.41071853827E+01  0.28055472976E+01  0.16737575779E+02  0.00000000000E+00 0. -1.
<mgrwt>
<rscale>  0 0.60676199E+02</rscale>
<asrwt>0</asrwt>
<pdfrwt beam="1">  1        2 0.69465411E-02 0.93653303E+02</pdfrwt>
<pdfrwt beam="2">  1       -2 0.10606312E-01 0.93653303E+02</pdfrwt>
<totfact> 0.53073981E+04</totfact>
</mgrwt>
</event>
<event>
 6    1  0.2852411E-002  0.9108506E+02  0.7546771E-02  0.1417840E+00
          2   -1    0    0  501    0  0.00000000000E+00  0.00000000000E+00  0.33424031083E+03  0.33424031083E+03  0.00000000000E+00 0. -1.
         -2   -1    0    0    0  501 -0.00000000000E+00 -0.00000000000E+00 -0.14197189210E+02  0.14197189210E+02  0.00000000000E+00 0.  1.
         23    2    1    2    0    0 -0.11495472744E+02  0.50048261485E+01  0.32296525139E+03  0.33556376628E+03  0.90218032892E+02 0.  0.
         11    1    3    3    0    0 -0.42480110230E+02  0.60298005830E+01  0.27583053571E+03  0.27914763601E+03  0.00000000000E+00 0. -1.
        -11    1    3    3    0    0  0.30984637486E+02 -0.10249744345E+01  0.47134715677E+02  0.56416130271E+02  0.00000000000E+00 0.  1.
         22    1    1    2    0    0  0.11495472744E+02 -0.50048261485E+01 -0.29221297723E+01  0.12873733755E+02  0.00000000000E+00 0.  1.
<mgrwt>
<rscale>  0 0.55480442E+02</rscale>
<asrwt>0</asrwt>
<pdfrwt beam="1">  1        2 0.51421580E-01 0.91085057E+02</pdfrwt>
<pdfrwt beam="2">  1       -2 0.21841832E-02 0.91085057E+02</pdfrwt>
<totfact> 0.57607053E+04</totfact>
</mgrwt>
</event>
<event>
 6    1  0.2852411E-002  0.9593664E+02  0.7546771E-02  0.1398865E+00
         -4   -1    0    0    0  501 -0.00000000000E+00  0.00000000000E+00  0.59825388522E+02  0.59825388522E+02  0.00000000000E+00 0.  1.
          4   -1    0    0  501    0  0.00000000000E+00 -0.00000000000E+00 -0.51085804828E+02  0.51085804828E+02  0.00000000000E+00 0. -1.
         23    2    1    2    0    0 -0.92271552618E+01  0.11105619217E+02  0.97871259756E+01  0.96434573674E+02  0.94843892752E+02 0.  0.
         11    1    3    3    0    0  0.39945116986E+02  0.16060341127E+02 -0.82283789891E+01  0.43832101808E+02  0.00000000000E+00 0. -1.
        -11    1    3    3    0    0 -0.49172272248E+02 -0.49547219101E+01  0.18015504965E+02  0.52602471866E+02  0.00000000000E+00 0.  1.
         22    1    1    2    0    0  0.92271552618E+01 -0.11105619217E+02 -0.10475422809E+01  0.14476619676E+02  0.00000000000E+00 0. -1.
<mgrwt>
<rscale>  0 0.59754439E+02</rscale>
<asrwt>0</asrwt>
<pdfrwt beam="1">  1        4 0.78593545E-02 0.95936641E+02</pdfrwt>
<pdfrwt beam="2">  1       -4 0.92039060E-02 0.95936641E+02</pdfrwt>
<totfact> 0.14574247E+04</totfact>
</mgrwt>
</event>
<event>
 6    1  0.2852411E-002  0.9588672E+02  0.7546771E-02  0.1350400E+00
          2   -1    0    0  501    0  0.00000000000E+00  0.00000000000E+00  0.79897999806E+03  0.79897999806E+03  0.00000000000E+00 0.  1.
         -2   -1    0    0    0  501 -0.00000000000E+00 -0.00000000000E+00 -0.66675703806E+01  0.66675703806E+01  0.00000000000E+00 0. -1.
         23    2    1    2    0    0 -0.68160715214E+01 -0.31358080322E+02  0.72223156298E+03  0.72856893567E+03  0.90357486848E+02 0.  0.
         11    1    3    3    0    0 -0.36622021404E+01 -0.93545979925E+01  0.68592261534E+03  0.68599617672E+03  0.00000000000E+00 0.  1.
        -11    1    3    3    0    0 -0.31538693810E+01 -0.22003482330E+02  0.36308947633E+02  0.42572758954E+02  0.00000000000E+00 0. -1.
         22    1    1    2    0    0  0.68160715214E+01  0.31358080322E+02  0.70080864704E+02  0.77078632773E+02  0.00000000000E+00 0. -1.
<mgrwt>
<rscale>  0 0.72931028E+02</rscale>
<asrwt>0</asrwt>
<pdfrwt beam="1">  1        2 0.12291992E+00 0.95886722E+02</pdfrwt>
<pdfrwt beam="2">  1       -2 0.10257807E-02 0.95886722E+02</pdfrwt>
<totfact> 0.65255911E+04</totfact>
</mgrwt>
</event>
<event>
 6    1  0.2852411E-002  0.1049047E+03  0.7546771E-02  0.1308535E+00
          4   -1    0    0  501    0  0.00000000000E+00  0.00000000000E+00  0.20979333715E+02  0.20979333715E+02  0.00000000000E+00 0.  1.
         -4   -1    0    0    0  501 -0.00000000000E+00 -0.00000000000E+00 -0.29375878589E+03  0.29375878589E+03  0.00000000000E+00 0. -1.
         23    2    1    2    0    0 -0.48733182684E+02 -0.15785858792E+02 -0.16714972487E+03  0.19734239684E+03  0.91547117025E+02 0.  0.
         13    1    3    3    0    0 -0.54149965402E+02 -0.26136118213E+02 -0.46193053220E+02  0.75822909428E+02  0.00000000000E+00 0.  1.
        -13    1    3    3    0    0  0.54167827186E+01  0.10350259421E+02 -0.12095667165E+03  0.12151948742E+03  0.00000000000E+00 0. -1.
         22    1    1    2    0    0  0.48733182684E+02  0.15785858792E+02 -0.10562972730E+03  0.11739572276E+03  0.00000000000E+00 0.  1.
<mgrwt>
<rscale>  0 0.87693827E+02</rscale>
<asrwt>0</asrwt>
<pdfrwt beam="1">  1        4 0.32275899E-02 0.10490468E+03</pdfrwt>
<pdfrwt beam="2">  1       -4 0.45193658E-01 0.10490468E+03</pdfrwt>
<totfact> 0.35205955E+03</totfact>
</mgrwt>
</event>
<event>
 6    1  0.2852411E-002  0.9454540E+02  0.7546771E-02  0.1361983E+00
         -2   -1    0    0    0  501 -0.00000000000E+00  0.00000000000E+00  0.10869860846E+03  0.10869860846E+03  0.00000000000E+00 0.  1.
          2   -1    0    0  501    0  0.00000000000E+00 -0.00000000000E+00 -0.38303106547E+02  0.38303106547E+02  0.00000000000E+00 0. -1.
         23    2    1    2    0    0 -0.26583240071E+02 -0.71304949025E+01  0.32108773129E+02  0.99848918576E+02  0.90450652948E+02 0.  0.
         13    1    3    3    0    0 -0.24042177304E+02 -0.47925452049E+02  0.19881406832E+02  0.57185186729E+02  0.00000000000E+00 0. -1.
        -13    1    3    3    0    0 -0.25410627668E+01  0.40794957146E+02  0.12227366297E+02  0.42663731847E+02  0.00000000000E+00 0.  1.
         22    1    1    2    0    0  0.26583240071E+02  0.71304949025E+01  0.38286728782E+02  0.47152796429E+02  0.00000000000E+00 0.  1.
<mgrwt>
<rscale>  0 0.69447089E+02</rscale>
<asrwt>0</asrwt>
<pdfrwt beam="1">  1        2 0.58927857E-02 0.94545403E+02</pdfrwt>
<pdfrwt beam="2">  1       -2 0.16722863E-01 0.94545403E+02</pdfrwt>
<totfact> 0.31592406E+04</totfact>
</mgrwt>
</event>
<event>
 6    1  0.2852411E-002  0.9249987E+02  0.7546771E-02  0.1399525E+00
         -1   -1    0    0    0  501 -0.00000000000E+00  0.00000000000E+00  0.54209827460E+02  0.54209827460E+02  0.00000000000E+00 0.  1.
          1   -1    0    0  501    0  0.00000000000E+00 -0.00000000000E+00 -0.54434290042E+02  0.54434290042E+02  0.00000000000E+00 0. -1.
         23    2    1    2    0    0  0.44667212227E+01  0.15302427288E+02 -0.25462749168E+01  0.92534906103E+02  0.91115912179E+02 0.  0.
         11    1    3    3    0    0  0.14054957759E+01  0.92225146698E+01 -0.46820292531E+02  0.47740653409E+02  0.00000000000E+00 0. -1.
        -11    1    3    3    0    0  0.30612254467E+01  0.60799126178E+01  0.44274017615E+02  0.44794252694E+02  0.00000000000E+00 0.  1.
         22    1    1    2    0    0 -0.44667212227E+01 -0.15302427288E+02  0.23218123340E+01  0.16109211399E+02  0.00000000000E+00 0. -1.
<mgrwt>
<rscale>  0 0.59598428E+02</rscale>
<asrwt>0</asrwt>
<pdfrwt beam="1">  1        1 0.83745061E-02 0.92499867E+02</pdfrwt>
<pdfrwt beam="2">  1       -1 0.83399735E-02 0.92499867E+02</pdfrwt>
<totfact> 0.56574130E+04</totfact>
</mgrwt>
</event>
<event>
 6    1  0.2852411E-002  0.9216143E+02  0.7546771E-02  0.1398355E+00
          2   -1    0    0  501    0  0.00000000000E+00  0.00000000000E+00  0.83324598593E+03  0.83324598593E+03  0.00000000000E+00 0.  1.
         -2   -1    0    0    0  501 -0.00000000000E+00 -0.00000000000E+00 -0.51438450318E+01  0.51438450318E+01  0.00000000000E+00 0. -1.
         23    2    1    2    0    0  0.15441146567E+02 -0.55816974265E+01  0.80376843087E+03  0.80903486891E+03  0.90687067955E+02 0.  0.
         11    1    3    3    0    0 -0.85694803991E+01 -0.37415673307E+02  0.18274634950E+03  0.18673402705E+03  0.00000000000E+00 0. -1.
        -11    1    3    3    0    0  0.24010626966E+02  0.31833975880E+02  0.62102208137E+03  0.62230084186E+03  0.00000000000E+00 0.  1.
         22    1    1    2    0    0 -0.15441146567E+02  0.55816974265E+01  0.24333710036E+02  0.29354962061E+02  0.00000000000E+00 0. -1.
<mgrwt>
<rscale>  0 0.59875441E+02</rscale>
<asrwt>0</asrwt>
<pdfrwt beam="1">  1        2 0.12819158E+00 0.92161427E+02</pdfrwt>
<pdfrwt beam="2">  1       -2 0.79136144E-03 0.92161427E+02</pdfrwt>
<totfact> 0.88991030E+04</totfact>
</mgrwt>
</event>
<event>
 6    1  0.2852411E-002  0.9480630E+02  0.7546771E-02  0.1375249E+00
          2   -1    0    0  501    0  0.00000000000E+00  0.00000000000E+00  0.10810326419E+03  0.10810326419E+03  0.00000000000E+00 0. -1.
         -2   -1    0    0    0  501 -0.00000000000E+00 -0.00000000000E+00 -0.35689688125E+02  0.35689688125E+02  0.00000000000E+00 0.  1.
         23    2    1    2    0    0 -0.73774467481E+01  0.20624207785E+02  0.76112855601E+02  0.12157878260E+03  0.92241253911E+02 0.  0.
         11    1    3    3    0    0 -0.33145240719E+02  0.36973238695E+02  0.76331707078E+02  0.91061280835E+02  0.00000000000E+00 0. -1.
        -11    1    3    3    0    0  0.25767793971E+02 -0.16349030910E+02 -0.21885147716E+00  0.30517501762E+02  0.00000000000E+00 0.  1.
         22    1    1    2    0    0  0.73774467481E+01 -0.20624207785E+02 -0.36992795329E+01  0.22214169720E+02  0.00000000000E+00 0.  1.
<mgrwt>
<rscale>  0 0.65729250E+02</rscale>
<asrwt>0</asrwt>
<pdfrwt beam="1">  1        2 0.16631271E-01 0.94806295E+02</pdfrwt>
<pdfrwt beam="2">  1       -2 0.54907213E-02 0.94806295E+02</pdfrwt>
<totfact> 0.50822709E+04</totfact>
</mgrwt>
</event>
<event>
 6    1  0.2852411E-002  0.1121495E+03  0.7546771E-02  0.1286665E+00
          2   -1    0    0  501    0  0.00000000000E+00  0.00000000000E+00  0.29465367897E+03  0.29465367897E+03  0.00000000000E+00 0. -1.
         -2   -1    0    0    0  501 -0.00000000000E+00 -0.00000000000E+00 -0.27005944948E+02  0.27005944948E+02  0.00000000000E+00 0.  1.
         23    2    1    2    0    0  0.19197469616E+02 -0.59839910472E+02  0.20019771735E+03  0.22947034865E+03  0.92887874094E+02 0.  0.
         13    1    3    3    0    0 -0.32827738596E+02 -0.26088161260E+02  0.12586324115E+03  0.13266426818E+03  0.00000000000E+00 0. -1.
        -13    1    3    3    0    0  0.52025208212E+02 -0.33751749211E+02  0.74334476199E+02  0.96806080470E+02  0.00000000000E+00 0.  1.
         22    1    1    2    0    0 -0.19197469616E+02  0.59839910472E+02  0.67450016674E+02  0.92189275267E+02  0.00000000000E+00 0.  1.
<mgrwt>
<rscale>  0 0.97031752E+02</rscale>
<asrwt>0</asrwt>
<pdfrwt beam="1">  1        2 0.45331333E-01 0.11214952E+03</pdfrwt>
<pdfrwt beam="2">  1       -2 0.41547610E-02 0.11214952E+03</pdfrwt>
<totfact> 0.26374678E+04</totfact>
</mgrwt>
</event>
<event>
 6    1  0.2852411E-002  0.9200877E+02  0.7546771E-02  0.1384301E+00
         -1   -1    0    0    0  501 -0.00000000000E+00  0.00000000000E+00  0.10984663579E+02  0.10984663579E+02  0.00000000000E+00 0.  1.
          1   -1    0    0  501    0  0.00000000000E+00 -0.00000000000E+00 -0.35722007307E+03  0.35722007307E+03  0.00000000000E+00 0. -1.
         23    2    1    2    0    0 -0.20603057463E+02  0.17018786605E+01 -0.32792570479E+03  0.34058902275E+03  0.89656188793E+02 0.  0.
         11    1    3    3    0    0  0.10648242138E+02 -0.37750938203E+02 -0.10591409649E+03  0.11294385433E+03  0.00000000000E+00 0. -1.
        -11    1    3    3    0    0 -0.31251299601E+02  0.39452816863E+02 -0.22201160830E+03  0.22764516842E+03  0.00000000000E+00 0.  1.
         22    1    1    2    0    0  0.20603057463E+02 -0.17018786605E+01 -0.18309704700E+02  0.27615713896E+02  0.00000000000E+00 0.  1.
<mgrwt>
<rscale>  0 0.63346702E+02</rscale>
<asrwt>0</asrwt>
<pdfrwt beam="1">  1        1 0.54956944E-01 0.92008774E+02</pdfrwt>
<pdfrwt beam="2">  1       -1 0.16899479E-02 0.92008774E+02</pdfrwt>
<totfact> 0.53894305E+04</totfact>
</mgrwt>
</event>
<event>
 6    1  0.2852411E-002  0.9182675E+02  0.7546771E-02  0.1345906E+00
         -4   -1    0    0    0  501 -0.00000000000E+00  0.00000000000E+00  0.41978014241E+03  0.41978014241E+03  0.00000000000E+00 0.  1.
          4   -1    0    0  501    0  0.00000000000E+00 -0.00000000000E+00 -0.10265112364E+02  0.10265112364E+02  0.00000000000E+00 0. -1.
         23    2    1    2    0    0  0.37988567725E+02 -0.10670659152E+02  0.28746610236E+03  0.30177626011E+03  0.82916565966E+02 0.  0.
         11    1    3    3    0    0  0.17828549025E+02  0.19564206709E+02  0.24259879186E+03  0.24403849933E+03  0.00000000000E+00 0.  1.
        -11    1    3    3    0    0  0.20160018699E+02 -0.30234865860E+02  0.44867310508E+02  0.57737760779E+02  0.00000000000E+00 0. -1.
         22    1    1    2    0    0 -0.37988567725E+02  0.10670659152E+02  0.12204892768E+03  0.12826899467E+03  0.00000000000E+00 0.  1.
<mgrwt>
<rscale>  0 0.74346884E+02</rscale>
<asrwt>0</asrwt>
<pdfrwt beam="1">  1        4 0.15792484E-02 0.91826745E+02</pdfrwt>
<pdfrwt beam="2">  1       -4 0.64581547E-01 0.91826745E+02</pdfrwt>
<totfact> 0.49050096E+03</totfact>
</mgrwt>
</event>
<event>
 6    1  0.2852411E-002  0.9090091E+02  0.7546771E-02  0.1350673E+00
          2   -1    0    0  501    0  0.00000000000E+00  0.00000000000E+00  0.22602782749E+03  0.22602782749E+03  0.00000000000E+00 0. -1.
         -2   -1    0    0    0  501 -0.00000000000E+00 -0.00000000000E+00 -0.22792114427E+02  0.22792114427E+02  0.00000000000E+00 0.  1.
         23    2    1    2    0    0 -0.26671267740E+02  0.26347872942E+02  0.18708256156E+03  0.20799726152E+03  0.82809474274E+02 0.  0.
         11    1    3    3    0    0 -0.40078407722E+02  0.44929264577E+02  0.16702545838E+03  0.17754554719E+03  0.00000000000E+00 0. -1.
        -11    1    3    3    0    0  0.13407139982E+02 -0.18581391635E+02  0.20057103177E+02  0.30451714327E+02  0.00000000000E+00 0.  1.
         22    1    1    2    0    0  0.26671267740E+02 -0.26347872942E+02  0.16153151510E+02  0.40822680401E+02  0.00000000000E+00 0.  1.
<mgrwt>
<rscale>  0 0.72846321E+02</rscale>
<asrwt>0</asrwt>
<pdfrwt beam="1">  1        2 0.34773510E-01 0.90900913E+02</pdfrwt>
<pdfrwt beam="2">  1       -2 0.35064793E-02 0.90900913E+02</pdfrwt>
<totfact> 0.43679455E+04</totfact>
</mgrwt>
</event>
<event>
 6    1  0.2852411E-002  0.9460037E+02  0.7546771E-02  0.1404762E+00
          2   -1    0    0  501    0  0.00000000000E+00  0.00000000000E+00  0.92978263002E+03  0.92978263002E+03  0.00000000000E+00 0. -1.
         -2   -1    0    0    0  501 -0.00000000000E+00 -0.00000000000E+00 -0.90872289052E+01  0.90872289052E+01  0.00000000000E+00 0.  1.
         23    2    1    2    0    0 -0.46216235826E+01  0.12918212296E+02  0.92029458309E+03  0.92514396119E+03  0.93600158443E+02 0.  0.
         11    1    3    3    0    0 -0.45289278357E+02 -0.11095877063E+02  0.51511710619E+03  0.51722323064E+03  0.00000000000E+00 0.  1.
        -11    1    3    3    0    0  0.40667654775E+02  0.24014089359E+02  0.40517747690E+03  0.40792073056E+03  0.00000000000E+00 0. -1.
         22    1    1    2    0    0  0.46216235826E+01 -0.12918212296E+02  0.40081802875E+00  0.13725897732E+02  0.00000000000E+00 0.  1.
<mgrwt>
<rscale>  0 0.58379247E+02</rscale>
<asrwt>0</asrwt>
<pdfrwt beam="1">  1        2 0.14304341E+00 0.94600366E+02</pdfrwt>
<pdfrwt beam="2">  1       -2 0.13980360E-02 0.94600366E+02</pdfrwt>
<totfact> 0.34645199E+04</totfact>
</mgrwt>
</event>
<event>
 6    1  0.2852411E-002  0.9872888E+02  0.7546771E-02  0.1357630E+00
          2   -1    0    0  501    0  0.00000000000E+00  0.00000000000E+00  0.52077809410E+03  0.52077809410E+03  0.00000000000E+00 0. -1.
         -2   -1    0    0    0  501 -0.00000000000E+00 -0.00000000000E+00 -0.85468181951E+01  0.85468181951E+01  0.00000000000E+00 0.  1.
         23    2    1    2    0    0  0.15516010542E+02 -0.20869977139E+02  0.46540625331E+03  0.47576293632E+03  0.95242261786E+02 0.  0.
         13    1    3    3    0    0  0.11421244241E+02 -0.61932108576E+01  0.32991204335E+01  0.13404658756E+02  0.00000000000E+00 0.  1.
        -13    1    3    3    0    0  0.40947663008E+01 -0.14676766282E+02  0.46210713288E+03  0.46235827757E+03  0.00000000000E+00 0. -1.
         22    1    1    2    0    0 -0.15516010542E+02  0.20869977139E+02  0.46825022591E+02  0.53561975968E+02  0.00000000000E+00 0.  1.
<mgrwt>
<rscale>  0 0.70729530E+02</rscale>
<asrwt>0</asrwt>
<pdfrwt beam="1">  1        2 0.80119682E-01 0.98728876E+02</pdfrwt>
<pdfrwt beam="2">  1       -2 0.13148955E-02 0.98728876E+02</pdfrwt>
<totfact> 0.75204089E+04</totfact>
</mgrwt>
</event>
<event>
 6    1  0.2852411E-002  0.9248114E+02  0.7546771E-02  0.1403588E+00
          2   -1    0    0  501    0  0.00000000000E+00  0.00000000000E+00  0.96816285695E+02  0.96816285695E+02  0.00000000000E+00 0. -1.
         -2   -1    0    0    0  501 -0.00000000000E+00 -0.00000000000E+00 -0.32945430785E+02  0.32945430785E+02  0.00000000000E+00 0.  1.
         23    2    1    2    0    0 -0.10994668400E+02 -0.10143064534E+02  0.67346892026E+02  0.11440439492E+03  0.91263339961E+02 0.  0.
         13    1    3    3    0    0  0.60878450961E+01 -0.41556493778E+02  0.66480385129E+02  0.78636159875E+02  0.00000000000E+00 0. -1.
        -13    1    3    3    0    0 -0.17082513497E+02  0.31413429244E+02  0.86650689668E+00  0.35768235048E+02  0.00000000000E+00 0.  1.
         22    1    1    2    0    0  0.10994668400E+02  0.10143064534E+02 -0.34760371158E+01  0.15357321557E+02  0.00000000000E+00 0. -1.
<mgrwt>
<rscale>  0 0.58649429E+02</rscale>
<asrwt>0</asrwt>
<pdfrwt beam="1">  1        2 0.14894813E-01 0.92481142E+02</pdfrwt>
<pdfrwt beam="2">  1       -2 0.50685279E-02 0.92481142E+02</pdfrwt>
<totfact> 0.64787565E+04</totfact>
</mgrwt>
</event>
<event>
 6    1  0.2852411E-002  0.9512846E+02  0.7546771E-02  0.1376659E+00
         -1   -1    0    0    0  501 -0.00000000000E+00  0.00000000000E+00  0.35656871740E+01  0.35656871740E+01  0.00000000000E+00 0.  1.
          1   -1    0    0  501    0  0.00000000000E+00 -0.00000000000E+00 -0.10025048075E+04  0.10025048075E+04  0.00000000000E+00 0. -1.
         23    2    1    2    0    0 -0.45314113674E+01  0.20696060842E+02 -0.89160269026E+03  0.89666313732E+03  0.92739225410E+02 0.  0.
         11    1    3    3    0    0  0.16189075284E+02 -0.33364505618E+02 -0.37284524501E+03  0.37468500519E+03  0.00000000000E+00 0.  1.
        -11    1    3    3    0    0 -0.20720486652E+02  0.54060566460E+02 -0.51875744525E+03  0.52197813213E+03  0.00000000000E+00 0. -1.
         22    1    1    2    0    0  0.45314113674E+01 -0.20696060842E+02 -0.10733643004E+03  0.10940735733E+03  0.00000000000E+00 0. -1.
<mgrwt>
<rscale>  0 0.65350182E+02</rscale>
<asrwt>0</asrwt>
<pdfrwt beam="1">  1        1 0.15423166E+00 0.95128463E+02</pdfrwt>
<pdfrwt beam="2">  1       -1 0.54856673E-03 0.95128463E+02</pdfrwt>
<totfact> 0.64069032E+04</totfact>
</mgrwt>
</event>
<event>
 6    1  0.2852411E-002  0.1235591E+03  0.7546771E-02  0.1255821E+00
          2   -1    0    0  501    0  0.00000000000E+00  0.00000000000E+00  0.75892526553E+02  0.75892526553E+02  0.00000000000E+00 0. -1.
         -2   -1    0    0    0  501 -0.00000000000E+00 -0.00000000000E+00 -0.17059791682E+03  0.17059791682E+03  0.00000000000E+00 0.  1.
         23    2    1    2    0    0  0.19253675345E+02 -0.83028667150E+02 -0.63444975316E+01  0.12372191749E+03  0.89456115693E+02 0.  0.
         13    1    3    3    0    0  0.34516601946E+02 -0.49665517301E+02 -0.41147798736E+02  0.73151901954E+02  0.00000000000E+00 0. -1.
        -13    1    3    3    0    0 -0.15262926601E+02 -0.33363149850E+02  0.34803301205E+02  0.50570015533E+02  0.00000000000E+00 0.  1.
         22    1    1    2    0    0 -0.19253675345E+02  0.83028667150E+02 -0.88360892734E+02  0.12276852588E+03  0.00000000000E+00 0.  1.
<mgrwt>
<rscale>  0 0.11260472E+03</rscale>
<asrwt>0</asrwt>
<pdfrwt beam="1">  1        2 0.11675773E-01 0.12355914E+03</pdfrwt>
<pdfrwt beam="2">  1       -2 0.26245833E-01 0.12355914E+03</pdfrwt>
<totfact> 0.64734588E+03</totfact>
</mgrwt>
</event>
<event>
 6    1  0.2852411E-002  0.9380866E+02  0.7546771E-02  0.1394610E+00
         -2   -1    0    0    0  501 -0.00000000000E+00  0.00000000000E+00  0.30837168495E+01  0.30837168495E+01  0.00000000000E+00 0. -1.
          2   -1    0    0  501    0  0.00000000000E+00 -0.00000000000E+00 -0.10385439719E+04  0.10385439719E+04  0.00000000000E+00 0.  1.
         23    2    1    2    0    0  0.15291138062E+02  0.62667148497E+01 -0.94717666560E+03  0.95181074834E+03  0.92341616730E+02 0.  0.
         11    1    3    3    0    0  0.36070680074E+02 -0.26047883292E+02 -0.72284726228E+03  0.72421526550E+03  0.00000000000E+00 0.  1.
        -11    1    3    3    0    0 -0.20779542011E+02  0.32314598141E+02 -0.22432940332E+03  0.22759548285E+03  0.00000000000E+00 0. -1.
         22    1    1    2    0    0 -0.15291138062E+02 -0.62667148497E+01 -0.88283589454E+02  0.89816940413E+02  0.00000000000E+00 0. -1.
<mgrwt>
<rscale>  0 0.60774382E+02</rscale>
<asrwt>0</asrwt>
<pdfrwt beam="1">  1        2 0.15977603E+00 0.93808661E+02</pdfrwt>
<pdfrwt beam="2">  1       -2 0.47441788E-03 0.93808661E+02</pdfrwt>
<totfact> 0.13735637E+05</totfact>
</mgrwt>
</event>
<event>
 6    1  0.2852411E-002  0.9330874E+02  0.7546771E-02  0.1385760E+00
         -1   -1    0    0    0  501 -0.00000000000E+00  0.00000000000E+00  0.15049175409E+02  0.15049175409E+02  0.00000000000E+00 0.  1.
          1   -1    0    0  501    0  0.00000000000E+00 -0.00000000000E+00 -0.27402948253E+03  0.27402948253E+03  0.00000000000E+00 0. -1.
         23    2    1    2    0    0  0.17668242239E+02  0.79108248146E+01 -0.25162754433E+03  0.26837090447E+03  0.91278548229E+02 0.  0.
         11    1    3    3    0    0 -0.10902463861E+02  0.38996160895E+02 -0.61649721792E+02  0.73758067218E+02  0.00000000000E+00 0. -1.
        -11    1    3    3    0    0  0.28570706100E+02 -0.31085336080E+02 -0.18997782254E+03  0.19461283726E+03  0.00000000000E+00 0.  1.
         22    1    1    2    0    0 -0.17668242239E+02 -0.79108248146E+01 -0.73527627881E+01  0.20707753468E+02  0.00000000000E+00 0. -1.
<mgrwt>
<rscale>  0 0.62973692E+02</rscale>
<asrwt>0</asrwt>
<pdfrwt beam="1">  1        1 0.42158380E-01 0.93308742E+02</pdfrwt>
<pdfrwt beam="2">  1       -1 0.23152578E-02 0.93308742E+02</pdfrwt>
<totfact> 0.47662304E+04</totfact>
</mgrwt>
</event>
<event>
 6    1  0.2852411E-002  0.9481105E+02  0.7546771E-02  0.1369552E+00
          2   -1    0    0  501    0  0.00000000000E+00  0.00000000000E+00  0.98419869434E+03  0.98419869434E+03  0.00000000000E+00 0. -1.
         -2   -1    0    0    0  501 -0.00000000000E+00 -0.00000000000E+00 -0.39187018677E+01  0.39187018677E+01  0.00000000000E+00 0.  1.
         23    2    1    2    0    0  0.25198276761E+01  0.23926299174E+02  0.87509220218E+03  0.88021332515E+03  0.91707786672E+02 0.  0.
         11    1    3    3    0    0  0.53912628595E+01  0.25477724753E+02  0.87633433977E+03  0.87672119584E+03  0.00000000000E+00 0. -1.
        -11    1    3    3    0    0 -0.28714351834E+01 -0.15514255788E+01 -0.12421375910E+01  0.34921293123E+01  0.00000000000E+00 0.  1.
         22    1    1    2    0    0 -0.25198276761E+01 -0.23926299174E+02  0.10518779029E+03  0.10790407105E+03  0.00000000000E+00 0.  1.
<mgrwt>
<rscale>  0 0.67291764E+02</rscale>
<asrwt>0</asrwt>
<pdfrwt beam="1">  1        2 0.15141499E+00 0.94811051E+02</pdfrwt>
<pdfrwt beam="2">  1       -2 0.60287800E-03 0.94811051E+02</pdfrwt>
<totfact> 0.10570904E+05</totfact>
</mgrwt>
</event>
<event>
 6    1  0.2852411E-002  0.9360907E+02  0.7546771E-02  0.1383514E+00
          3   -1    0    0  501    0  0.00000000000E+00  0.00000000000E+00  0.17956512530E+03  0.17956512530E+03  0.00000000000E+00 0. -1.
         -3   -1    0    0    0  501 -0.00000000000E+00 -0.00000000000E+00 -0.17944514312E+02  0.17944514312E+02  0.00000000000E+00 0.  1.
         23    2    1    2    0    0  0.21247321514E+00  0.19881758116E+02  0.13135333670E+03  0.16129586677E+03  0.91473100546E+02 0.  0.
         13    1    3    3    0    0 -0.22927754067E+02 -0.44014118183E+01  0.12499348729E+03  0.12715512651E+03  0.00000000000E+00 0. -1.
        -13    1    3    3    0    0  0.23140227282E+02  0.24283169935E+02  0.63598494075E+01  0.34140740256E+02  0.00000000000E+00 0.  1.
         22    1    1    2    0    0 -0.21247321514E+00 -0.19881758116E+02  0.30267274281E+02  0.36213772837E+02  0.00000000000E+00 0. -1.
<mgrwt>
<rscale>  0 0.63548944E+02</rscale>
<asrwt>0</asrwt>
<pdfrwt beam="1">  1        3 0.27625403E-01 0.93609068E+02</pdfrwt>
<pdfrwt beam="2">  1       -3 0.27606946E-02 0.93609068E+02</pdfrwt>
<totfact> 0.15002181E+04</totfact>
</mgrwt>
</event>
<event>
 6    1  0.2852411E-002  0.9006168E+02  0.7546771E-02  0.1400464E+00
         -1   -1    0    0    0  501 -0.00000000000E+00  0.00000000000E+00  0.63285429808E+01  0.63285429808E+01  0.00000000000E+00 0.  1.
          1   -1    0    0  501    0  0.00000000000E+00 -0.00000000000E+00 -0.67287008884E+03  0.67287008884E+03  0.00000000000E+00 0. -1.
         23    2    1    2    0    0  0.11125652014E+02 -0.12875055708E+02 -0.64720462967E+03  0.65344084621E+03  0.88439581803E+02 0.  0.
         13    1    3    3    0    0 -0.12695430616E+02  0.11230262677E+01 -0.11592547821E+02  0.17228531902E+02  0.00000000000E+00 0.  1.
        -13    1    3    3    0    0  0.23821082630E+02 -0.13998081976E+02 -0.63561208185E+03  0.63621231430E+03  0.00000000000E+00 0. -1.
         22    1    1    2    0    0 -0.11125652014E+02  0.12875055708E+02 -0.19336916192E+02  0.25757785620E+02  0.00000000000E+00 0.  1.
<mgrwt>
<rscale>  0 0.59377234E+02</rscale>
<asrwt>0</asrwt>
<pdfrwt beam="1">  1        1 0.10351851E+00 0.90061683E+02</pdfrwt>
<pdfrwt beam="2">  1       -1 0.97362166E-03 0.90061683E+02</pdfrwt>
<totfact> 0.51855060E+04</totfact>
</mgrwt>
</event>
<event>
 6    1  0.2852411E-002  0.9330865E+02  0.7546771E-02  0.1401748E+00
         -2   -1    0    0    0  501 -0.00000000000E+00  0.00000000000E+00  0.32694714870E+01  0.32694714870E+01  0.00000000000E+00 0.  1.
          2   -1    0    0  501    0  0.00000000000E+00 -0.00000000000E+00 -0.94124918536E+03  0.94124918536E+03  0.00000000000E+00 0. -1.
         23    2    1    2    0    0 -0.11244162050E+02 -0.99182511843E+01 -0.86476626668E+03  0.86978572076E+03  0.92096151701E+02 0.  0.
         13    1    3    3    0    0 -0.61364408959E+01  0.17743114960E+02 -0.36531308124E+02  0.41073233481E+02  0.00000000000E+00 0.  1.
        -13    1    3    3    0    0 -0.51077211539E+01 -0.27661366144E+02 -0.82823495856E+03  0.82871248728E+03  0.00000000000E+00 0. -1.
         22    1    1    2    0    0  0.11244162050E+02  0.99182511843E+01 -0.73213447187E+02  0.74732936084E+02  0.00000000000E+00 0.  1.
<mgrwt>
<rscale>  0 0.59076759E+02</rscale>
<asrwt>0</asrwt>
<pdfrwt beam="1">  1        2 0.14480764E+00 0.93308649E+02</pdfrwt>
<pdfrwt beam="2">  1       -2 0.50299536E-03 0.93308649E+02</pdfrwt>
<totfact> 0.14432818E+05</totfact>
</mgrwt>
</event>
<event>
 6    1  0.2852411E-002  0.1001923E+03  0.7546771E-02  0.1343186E+00
         -2   -1    0    0    0  501 -0.00000000000E+00  0.00000000000E+00  0.33003214345E+02  0.33003214345E+02  0.00000000000E+00 0.  1.
          2   -1    0    0  501    0  0.00000000000E+00 -0.00000000000E+00 -0.13812458127E+03  0.13812458127E+03  0.00000000000E+00 0. -1.
         23    2    1    2    0    0  0.16189856152E+02  0.27407908378E+02 -0.94067644165E+02  0.13743076799E+03  0.95000996988E+02 0.  0.
         11    1    3    3    0    0 -0.18784208507E+02 -0.90413815019E+01 -0.83184562781E+02  0.85757008774E+02  0.00000000000E+00 0.  1.
        -11    1    3    3    0    0  0.34974064659E+02  0.36449289880E+02 -0.10883081384E+02  0.51673759220E+02  0.00000000000E+00 0. -1.
         22    1    1    2    0    0 -0.16189856152E+02 -0.27407908378E+02 -0.11053722764E+02  0.33697027626E+02  0.00000000000E+00 0.  1.
<mgrwt>
<rscale>  0 0.75221715E+02</rscale>
<asrwt>0</asrwt>
<pdfrwt beam="1">  1        2 0.21249936E-01 0.10019229E+03</pdfrwt>
<pdfrwt beam="2">  1       -2 0.50774176E-02 0.10019229E+03</pdfrwt>
<totfact> 0.43641322E+04</totfact>
</mgrwt>
</event>
<event>
 6    1  0.2852411E-002  0.9379636E+02  0.7546771E-02  0.1380610E+00
         -1   -1    0    0    0  501 -0.00000000000E+00  0.00000000000E+00  0.20328205638E+03  0.20328205638E+03  0.00000000000E+00 0.  1.
          1   -1    0    0  501    0  0.00000000000E+00 -0.00000000000E+00 -0.17483936302E+02  0.17483936302E+02  0.00000000000E+00 0. -1.
         23    2    1    2    0    0  0.13253480536E+01 -0.20677479520E+02  0.12329119964E+03  0.15491441860E+03  0.91479191481E+02 0.  0.
         13    1    3    3    0    0 -0.41227022528E+02 -0.72063040191E+01  0.29993551399E+02  0.51489914834E+02  0.00000000000E+00 0. -1.
        -13    1    3    3    0    0  0.42552370581E+02 -0.13471175501E+02  0.93297648239E+02  0.10342450376E+03  0.00000000000E+00 0.  1.
         22    1    1    2    0    0 -0.13253480536E+01  0.20677479520E+02  0.62506920438E+02  0.65851574084E+02  0.00000000000E+00 0.  1.
<mgrwt>
<rscale>  0 0.64303774E+02</rscale>
<asrwt>0</asrwt>
<pdfrwt beam="1">  1        1 0.26898365E-02 0.93796360E+02</pdfrwt>
<pdfrwt beam="2">  1       -1 0.31274161E-01 0.93796360E+02</pdfrwt>
<totfact> 0.33121326E+04</totfact>
</mgrwt>
</event>
<event>
 6    1  0.2852411E-002  0.9422199E+02  0.7546771E-02  0.1370292E+00
         -2   -1    0    0    0  501 -0.00000000000E+00  0.00000000000E+00  0.39358046229E+01  0.39358046229E+01  0.00000000000E+00 0.  1.
          2   -1    0    0  501    0  0.00000000000E+00 -0.00000000000E+00 -0.99452898085E+03  0.99452898085E+03  0.00000000000E+00 0. -1.
         23    2    1    2    0    0  0.69600382003E+01  0.23192316315E+02 -0.89109633766E+03  0.89606387458E+03  0.91057447032E+02 0.  0.
         13    1    3    3    0    0  0.21413028516E+02  0.28577303169E+01 -0.82702217350E+03  0.82730427285E+03  0.00000000000E+00 0. -1.
        -13    1    3    3    0    0 -0.14452990316E+02  0.20334585998E+02 -0.64074164156E+02  0.68759601723E+02  0.00000000000E+00 0.  1.
         22    1    1    2    0    0 -0.69600382003E+01 -0.23192316315E+02 -0.99496838567E+02  0.10240091090E+03  0.00000000000E+00 0.  1.
<mgrwt>
<rscale>  0 0.67085952E+02</rscale>
<asrwt>0</asrwt>
<pdfrwt beam="1">  1        2 0.15300436E+00 0.94221995E+02</pdfrwt>
<pdfrwt beam="2">  1       -2 0.60550878E-03 0.94221995E+02</pdfrwt>
<totfact> 0.10351502E+05</totfact>
</mgrwt>
</event>
<event>
 6    1  0.2852411E-002  0.9119223E+02  0.7546771E-02  0.1428167E+00
          2   -1    0    0  501    0  0.00000000000E+00  0.00000000000E+00  0.62822216330E+03  0.62822216330E+03  0.00000000000E+00 0. -1.
         -2   -1    0    0    0  501 -0.00000000000E+00 -0.00000000000E+00 -0.44537231013E+01  0.44537231013E+01  0.00000000000E+00 0.  1.
         23    2    1    2    0    0  0.10612752064E+02 -0.10653207506E+01  0.59587687246E+03  0.60281445700E+03  0.90566312871E+02 0.  0.
         13    1    3    3    0    0  0.25918189894E+01 -0.39364645841E+02  0.45177832759E+03  0.45349746432E+03  0.00000000000E+00 0. -1.
        -13    1    3    3    0    0  0.80209330750E+01  0.38299325091E+02  0.14409854487E+03  0.14931699268E+03  0.00000000000E+00 0.  1.
         22    1    1    2    0    0 -0.10612752064E+02  0.10653207506E+01  0.27891567744E+02  0.29861429401E+02  0.00000000000E+00 0.  1.
<mgrwt>
<rscale>  0 0.53329763E+02</rscale>
<asrwt>0</asrwt>
<pdfrwt beam="1">  1        2 0.96649493E-01 0.91192228E+02</pdfrwt>
<pdfrwt beam="2">  1       -2 0.68518867E-03 0.91192228E+02</pdfrwt>
<totfact> 0.15199623E+05</totfact>
</mgrwt>
</event>
<event>
 6    1  0.2852411E-002  0.9380238E+02  0.7546771E-02  0.1391188E+00
          2   -1    0    0  501    0  0.00000000000E+00  0.00000000000E+00  0.40318803144E+03  0.40318803144E+03  0.00000000000E+00 0. -1.
         -2   -1    0    0    0  501 -0.00000000000E+00 -0.00000000000E+00 -0.11923927796E+02  0.11923927796E+02  0.00000000000E+00 0.  1.
         23    2    1    2    0    0 -0.72368705029E+01  0.15888628364E+02  0.38546613000E+03  0.39671529366E+03  0.92163257524E+02 0.  0.
         11    1    3    3    0    0 -0.31895306187E+02  0.15129446967E+02  0.55160334070E+02  0.65489489057E+02  0.00000000000E+00 0.  1.
        -11    1    3    3    0    0  0.24658435684E+02  0.75918139642E+00  0.33030579593E+03  0.33122580460E+03  0.00000000000E+00 0. -1.
         22    1    1    2    0    0  0.72368705029E+01 -0.15888628364E+02  0.57979736372E+01  0.18396665574E+02  0.00000000000E+00 0. -1.
<mgrwt>
<rscale>  0 0.61612095E+02</rscale>
<asrwt>0</asrwt>
<pdfrwt beam="1">  1        2 0.62028917E-01 0.93802382E+02</pdfrwt>
<pdfrwt beam="2">  1       -2 0.18344507E-02 0.93802382E+02</pdfrwt>
<totfact> 0.61033432E+04</totfact>
</mgrwt>
</event>
<event>
 6    1  0.2852411E-002  0.9264822E+02  0.7546771E-02  0.1391094E+00
          2   -1    0    0  501    0  0.00000000000E+00  0.00000000000E+00  0.41981661953E+03  0.41981661953E+03  0.00000000000E+00 0. -1.
         -2   -1    0    0    0  501 -0.00000000000E+00 -0.00000000000E+00 -0.14474628013E+02  0.14474628013E+02  0.00000000000E+00 0.  1.
         23    2    1    2    0    0  0.18141889544E+02 -0.44237478549E+00  0.40569598692E+03  0.41614051300E+03  0.90853557499E+02 0.  0.
         13    1    3    3    0    0 -0.87766000966E-01 -0.10165971615E+02  0.25100110917E+00  0.10169448525E+02  0.00000000000E+00 0.  1.
        -13    1    3    3    0    0  0.18229655545E+02  0.97235968295E+01  0.40544498581E+03  0.40597106448E+03  0.00000000000E+00 0. -1.
         22    1    1    2    0    0 -0.18141889544E+02  0.44237478549E+00 -0.35399539769E+00  0.18150734542E+02  0.00000000000E+00 0.  1.
<mgrwt>
<rscale>  0 0.61635470E+02</rscale>
<asrwt>0</asrwt>
<pdfrwt beam="1">  1        2 0.64587163E-01 0.92648221E+02</pdfrwt>
<pdfrwt beam="2">  1       -2 0.22268662E-02 0.92648221E+02</pdfrwt>
<totfact> 0.44187994E+04</totfact>
</mgrwt>
</event>
<event>
 6    1  0.2852411E-002  0.9289868E+02  0.7546771E-02  0.1412665E+00
         -1   -1    0    0    0  501 -0.00000000000E+00  0.00000000000E+00  0.18427231677E+03  0.18427231677E+03  0.00000000000E+00 0.  1.
          1   -1    0    0  501    0  0.00000000000E+00 -0.00000000000E+00 -0.15311104504E+02  0.15311104504E+02  0.00000000000E+00 0. -1.
         23    2    1    2    0    0  0.11494087183E+02  0.56411485166E+01  0.14130655423E+03  0.16910856758E+03  0.92012112043E+02 0.  0.
         13    1    3    3    0    0  0.44767436446E+02  0.13791400514E+02  0.11986863751E+03  0.12869660583E+03  0.00000000000E+00 0.  1.
        -13    1    3    3    0    0 -0.33273349263E+02 -0.81502519975E+01  0.21437916721E+02  0.40411961746E+02  0.00000000000E+00 0. -1.
         22    1    1    2    0    0 -0.11494087183E+02 -0.56411485166E+01  0.27654658028E+02  0.30474853689E+02  0.00000000000E+00 0. -1.
<mgrwt>
<rscale>  0 0.56603288E+02</rscale>
<asrwt>0</asrwt>
<pdfrwt beam="1">  1        1 0.23555547E-02 0.92898683E+02</pdfrwt>
<pdfrwt beam="2">  1       -1 0.28349586E-01 0.92898683E+02</pdfrwt>
<totfact> 0.46731669E+04</totfact>
</mgrwt>
</event>
<event>
 6    1  0.2852411E-002  0.9719798E+02  0.7546771E-02  0.1340888E+00
          1   -1    0    0  501    0  0.00000000000E+00  0.00000000000E+00  0.50704681678E+03  0.50704681678E+03  0.00000000000E+00 0. -1.
         -1   -1    0    0    0  501 -0.00000000000E+00 -0.00000000000E+00 -0.89171067536E+01  0.89171067536E+01  0.00000000000E+00 0.  1.
         23    2    1    2    0    0  0.17084563149E+02 -0.32002789295E+02  0.33295242764E+03  0.34684977440E+03  0.90174198690E+02 0.  0.
         13    1    3    3    0    0 -0.13405271705E+02 -0.56225209006E+02  0.21509571504E+03  0.22272660835E+03  0.00000000000E+00 0.  1.
        -13    1    3    3    0    0  0.30489834854E+02  0.24222419711E+02  0.11785671260E+03  0.12412316605E+03  0.00000000000E+00 0. -1.
         22    1    1    2    0    0 -0.17084563149E+02  0.32002789295E+02  0.16517728239E+03  0.16911414913E+03  0.00000000000E+00 0.  1.
<mgrwt>
<rscale>  0 0.75971800E+02</rscale>
<asrwt>0</asrwt>
<pdfrwt beam="1">  1        1 0.78007180E-01 0.97197978E+02</pdfrwt>
<pdfrwt beam="2">  1       -1 0.13718630E-02 0.97197978E+02</pdfrwt>
<totfact> 0.47007948E+04</totfact>
</mgrwt>
</event>
<event>
 6    1  0.2852411E-002  0.9228931E+02  0.7546771E-02  0.1419997E+00
          2   -1    0    0  501    0  0.00000000000E+00  0.00000000000E+00  0.15225273670E+04  0.15225273670E+04  0.00000000000E+00 0. -1.
         -2   -1    0    0    0  501 -0.00000000000E+00 -0.00000000000E+00 -0.20524131068E+01  0.20524131068E+01  0.00000000000E+00 0.  1.
         23    2    1    2    0    0 -0.34382620261E+01 -0.11140933938E+02  0.14644138485E+04  0.14673190642E+04  0.91549845785E+02 0.  0.
         13    1    3    3    0    0  0.87922351172E+00 -0.22261348858E+02  0.85540196501E+02  0.88393811459E+02  0.00000000000E+00 0.  1.
        -13    1    3    3    0    0 -0.43174855379E+01  0.11120414920E+02  0.13788736520E+04  0.13789252527E+04  0.00000000000E+00 0. -1.
         22    1    1    2    0    0  0.34382620261E+01  0.11140933938E+02  0.56061105372E+02  0.57260715943E+02  0.00000000000E+00 0.  1.
<mgrwt>
<rscale>  0 0.55021544E+02</rscale>
<asrwt>0</asrwt>
<pdfrwt beam="1">  1        2 0.23423408E+00 0.92289308E+02</pdfrwt>
<pdfrwt beam="2">  1       -2 0.31575708E-03 0.92289308E+02</pdfrwt>
<totfact> 0.13328009E+05</totfact>
</mgrwt>
</event>
<event>
 6    1  0.2852411E-002  0.9548098E+02  0.7546771E-02  0.1365998E+00
         -2   -1    0    0    0  501 -0.00000000000E+00  0.00000000000E+00  0.11126816088E+03  0.11126816088E+03  0.00000000000E+00 0.  1.
          2   -1    0    0  501    0  0.00000000000E+00 -0.00000000000E+00 -0.37521166926E+02  0.37521166926E+02  0.00000000000E+00 0. -1.
         23    2    1    2    0    0  0.67397610647E+00  0.24979378939E+02  0.78187365695E+02  0.12340940430E+03  0.92153097068E+02 0.  0.
         11    1    3    3    0    0  0.15778584368E+02 -0.23804340399E+02  0.64497877552E+02  0.70537837755E+02  0.00000000000E+00 0.  1.
        -11    1    3    3    0    0 -0.15104608261E+02  0.48783719338E+02  0.13689488143E+02  0.52871566544E+02  0.00000000000E+00 0. -1.
         22    1    1    2    0    0 -0.67397610647E+00 -0.24979378939E+02 -0.44403717406E+01  0.25379923506E+02  0.00000000000E+00 0. -1.
<mgrwt>
<rscale>  0 0.68292428E+02</rscale>
<asrwt>0</asrwt>
<pdfrwt beam="1">  1        2 0.57724873E-02 0.95480977E+02</pdfrwt>
<pdfrwt beam="2">  1       -2 0.17118178E-01 0.95480977E+02</pdfrwt>
<totfact> 0.31253813E+04</totfact>
</mgrwt>
</event>
<event>
 6    1  0.2852411E-002  0.9812063E+02  0.7546771E-02  0.1337830E+00
          2   -1    0    0  501    0  0.00000000000E+00  0.00000000000E+00  0.88529883986E+03  0.88529883986E+03  0.00000000000E+00 0. -1.
         -2   -1    0    0    0  501 -0.00000000000E+00 -0.00000000000E+00 -0.10018719351E+02  0.10018719351E+02  0.00000000000E+00 0.  1.
         23    2    1    2    0    0 -0.44653840380E+00  0.37181645023E+02  0.83402852250E+03  0.83978046835E+03  0.90801897290E+02 0.  0.
         13    1    3    3    0    0 -0.17905007220E+02  0.47503447925E+02  0.23555217098E+03  0.24096056130E+03  0.00000000000E+00 0. -1.
        -13    1    3    3    0    0  0.17458468816E+02 -0.10321802902E+02  0.59847635152E+03  0.59881990705E+03  0.00000000000E+00 0.  1.
         22    1    1    2    0    0  0.44653840380E+00 -0.37181645023E+02  0.41251598005E+02  0.55537090860E+02  0.00000000000E+00 0.  1.
<mgrwt>
<rscale>  0 0.76985731E+02</rscale>
<asrwt>0</asrwt>
<pdfrwt beam="1">  1        2 0.13619976E+00 0.98120633E+02</pdfrwt>
<pdfrwt beam="2">  1       -2 0.15413421E-02 0.98120633E+02</pdfrwt>
<totfact> 0.32224153E+04</totfact>
</mgrwt>
</event>
<event>
 6    1  0.2852411E-002  0.9691276E+02  0.7546771E-02  0.1347887E+00
          1   -1    0    0  501    0  0.00000000000E+00  0.00000000000E+00  0.20182729360E+02  0.20182729360E+02  0.00000000000E+00 0. -1.
         -1   -1    0    0    0  501 -0.00000000000E+00 -0.00000000000E+00 -0.28618090125E+03  0.28618090125E+03  0.00000000000E+00 0.  1.
         23    2    1    2    0    0  0.30062752575E+02 -0.12204972221E+02 -0.10816488443E+03  0.14522990642E+03  0.91320058348E+02 0.  0.
         13    1    3    3    0    0  0.19068945119E+02  0.39558114834E+02 -0.46111557388E+02  0.63676878394E+02  0.00000000000E+00 0. -1.
        -13    1    3    3    0    0  0.10993807456E+02 -0.51763087055E+02 -0.62053327038E+02  0.81553028026E+02  0.00000000000E+00 0.  1.
         22    1    1    2    0    0 -0.30062752575E+02  0.12204972221E+02 -0.15783328746E+03  0.16113372419E+03  0.00000000000E+00 0.  1.
<mgrwt>
<rscale>  0 0.73718311E+02</rscale>
<asrwt>0</asrwt>
<pdfrwt beam="1">  1        1 0.31050352E-02 0.96912762E+02</pdfrwt>
<pdfrwt beam="2">  1       -1 0.44027832E-01 0.96912762E+02</pdfrwt>
<totfact> 0.15180129E+04</totfact>
</mgrwt>
</event>
<event>
 6    1  0.2852411E-002  0.9046841E+02  0.7546771E-02  0.1400347E+00
         -2   -1    0    0    0  501 -0.00000000000E+00  0.00000000000E+00  0.32557379988E+02  0.32557379988E+02  0.00000000000E+00 0.  1.
          2   -1    0    0  501    0  0.00000000000E+00 -0.00000000000E+00 -0.11919667388E+03  0.11919667388E+03  0.00000000000E+00 0. -1.
         23    2    1    2    0    0  0.13420391664E+02  0.10137381889E+02 -0.96485680589E+02  0.13226496064E+03  0.88891280964E+02 0.  0.
         13    1    3    3    0    0  0.44671698945E+02  0.13773284404E+02 -0.22525212914E+02  0.51890743556E+02  0.00000000000E+00 0.  1.
        -13    1    3    3    0    0 -0.31251307282E+02 -0.36359025148E+01 -0.73960467675E+02  0.80374217088E+02  0.00000000000E+00 0. -1.
         22    1    1    2    0    0 -0.13420391664E+02 -0.10137381889E+02  0.98463866920E+01  0.19489093228E+02  0.00000000000E+00 0.  1.
<mgrwt>
<rscale>  0 0.59404827E+02</rscale>
<asrwt>0</asrwt>
<pdfrwt beam="1">  1        2 0.18337950E-01 0.90468410E+02</pdfrwt>
<pdfrwt beam="2">  1       -2 0.50088277E-02 0.90468410E+02</pdfrwt>
<totfact> 0.51825838E+04</totfact>
</mgrwt>
</event>
<event>
 6    1  0.2852411E-002  0.9273106E+02  0.7546771E-02  0.1408719E+00
         -2   -1    0    0    0  501 -0.00000000000E+00  0.00000000000E+00  0.31133169986E+01  0.31133169986E+01  0.00000000000E+00 0.  1.
          2   -1    0    0  501    0  0.00000000000E+00 -0.00000000000E+00 -0.11172088895E+04  0.11172088895E+04  0.00000000000E+00 0. -1.
         23    2    1    2    0    0 -0.38913948385E+01  0.13125602900E+02 -0.10731406330E+04  0.10771396698E+04  0.91714915215E+02 0.  0.
         11    1    3    3    0    0 -0.17324963908E+02  0.13023116042E+02 -0.10511288017E+04  0.10513522311E+04  0.00000000000E+00 0. -1.
        -11    1    3    3    0    0  0.13433569069E+02  0.10248685823E+00 -0.22011831285E+02  0.25787438764E+02  0.00000000000E+00 0.  1.
         22    1    1    2    0    0  0.38913948385E+01 -0.13125602900E+02 -0.40954939455E+02  0.43182536644E+02  0.00000000000E+00 0. -1.
<mgrwt>
<rscale>  0 0.57480720E+02</rscale>
<asrwt>0</asrwt>
<pdfrwt beam="1">  1        2 0.17187832E+00 0.92731063E+02</pdfrwt>
<pdfrwt beam="2">  1       -2 0.47897177E-03 0.92731063E+02</pdfrwt>
<totfact> 0.12210459E+05</totfact>
</mgrwt>
</event>
<event>
 6    1  0.2852411E-002  0.9332637E+02  0.7546771E-02  0.1396794E+00
         -2   -1    0    0    0  501 -0.00000000000E+00  0.00000000000E+00  0.10489595217E+03  0.10489595217E+03  0.00000000000E+00 0.  1.
          2   -1    0    0  501    0  0.00000000000E+00 -0.00000000000E+00 -0.30127499124E+02  0.30127499124E+02  0.00000000000E+00 0. -1.
         23    2    1    2    0    0 -0.13535024809E+02 -0.89183882105E+01  0.73445453882E+02  0.11876046043E+03  0.91907985078E+02 0.  0.
         11    1    3    3    0    0 -0.31026127599E+02  0.33093924971E+02  0.23136718732E+02  0.50922845732E+02  0.00000000000E+00 0. -1.
        -11    1    3    3    0    0  0.17491102790E+02 -0.42012313181E+02  0.50308735150E+02  0.67837614699E+02  0.00000000000E+00 0.  1.
         22    1    1    2    0    0  0.13535024809E+02  0.89183882105E+01  0.13229991597E+01  0.16262990858E+02  0.00000000000E+00 0.  1.
<mgrwt>
<rscale>  0 0.60248043E+02</rscale>
<asrwt>0</asrwt>
<pdfrwt beam="1">  1        2 0.46349999E-02 0.93326375E+02</pdfrwt>
<pdfrwt beam="2">  1       -2 0.16137839E-01 0.93326375E+02</pdfrwt>
<totfact> 0.45529451E+04</totfact>
</mgrwt>
</event>
<event>
 6    1  0.2852411E-002  0.9273549E+02  0.7546771E-02  0.1411556E+00
          3   -1    0    0  501    0  0.00000000000E+00  0.00000000000E+00  0.26394943808E+02  0.26394943808E+02  0.00000000000E+00 0. -1.
         -3   -1    0    0    0  501 -0.00000000000E+00 -0.00000000000E+00 -0.12027198673E+03  0.12027198673E+03  0.00000000000E+00 0.  1.
         23    2    1    2    0    0  0.12951748212E+02  0.19352580133E+01 -0.60273494283E+02  0.11060182987E+03  0.91806196148E+02 0.  0.
         13    1    3    3    0    0  0.47030518879E+02 -0.96529633760E+01 -0.56899883305E+02  0.74448949812E+02  0.00000000000E+00 0.  1.
        -13    1    3    3    0    0 -0.34078770667E+02  0.11588221389E+02 -0.33736109780E+01  0.36152880054E+02  0.00000000000E+00 0. -1.
         22    1    1    2    0    0 -0.12951748212E+02 -0.19352580133E+01 -0.33603548637E+02  0.36065100670E+02  0.00000000000E+00 0.  1.
<mgrwt>
<rscale>  0 0.56848011E+02</rscale>
<asrwt>0</asrwt>
<pdfrwt beam="1">  1        3 0.40607606E-02 0.92735488E+02</pdfrwt>
<pdfrwt beam="2">  1       -3 0.18503383E-01 0.92735488E+02</pdfrwt>
<totfact> 0.16799664E+04</totfact>
</mgrwt>
</event>
<event>
 6    1  0.2852411E-002  0.9920671E+02  0.7546771E-02  0.1321950E+00
          2   -1    0    0  501    0  0.00000000000E+00  0.00000000000E+00  0.53925547569E+03  0.53925547569E+03  0.00000000000E+00 0. -1.
         -2   -1    0    0    0  501 -0.00000000000E+00 -0.00000000000E+00 -0.10467197265E+02  0.10467197265E+02  0.00000000000E+00 0.  1.
         23    2    1    2    0    0 -0.48223059235E+01 -0.47329518870E+02  0.40836075545E+03  0.42023859563E+03  0.87055342592E+02 0.  0.
         11    1    3    3    0    0 -0.36546071112E+02 -0.29067573968E+02  0.10809685898E+03  0.11775173074E+03  0.00000000000E+00 0.  1.
        -11    1    3    3    0    0  0.31723765188E+02 -0.18261944903E+02  0.30026389647E+03  0.30248686489E+03  0.00000000000E+00 0. -1.
         22    1    1    2    0    0  0.48223059235E+01  0.47329518870E+02  0.12042752298E+03  0.12948407733E+03  0.00000000000E+00 0.  1.
<mgrwt>
<rscale>  0 0.82556154E+02</rscale>
<asrwt>0</asrwt>
<pdfrwt beam="1">  1        2 0.82962359E-01 0.99206707E+02</pdfrwt>
<pdfrwt beam="2">  1       -2 0.16103385E-02 0.99206707E+02</pdfrwt>
<totfact> 0.54216809E+04</totfact>
</mgrwt>
</event>
<event>
 6    1  0.2852411E-002  0.9476059E+02  0.7546771E-02  0.1375055E+00
         -3   -1    0    0    0  501 -0.00000000000E+00  0.00000000000E+00  0.25801084941E+03  0.25801084941E+03  0.00000000000E+00 0.  1.
          3   -1    0    0  501    0  0.00000000000E+00 -0.00000000000E+00 -0.13221812677E+02  0.13221812677E+02  0.00000000000E+00 0. -1.
         23    2    1    2    0    0 -0.20173615732E+02 -0.87912415360E+01  0.20161555254E+03  0.22277432496E+03  0.92169995861E+02 0.  0.
         11    1    3    3    0    0 -0.13171663731E+02  0.24957170889E+02  0.17976091053E+03  0.18196246332E+03  0.00000000000E+00 0.  1.
        -11    1    3    3    0    0 -0.70019520010E+01 -0.33748412425E+02  0.21854642009E+02  0.40811861638E+02  0.00000000000E+00 0. -1.
         22    1    1    2    0    0  0.20173615732E+02  0.87912415360E+01  0.43173484191E+02  0.48458337122E+02  0.00000000000E+00 0.  1.
<mgrwt>
<rscale>  0 0.65781793E+02</rscale>
<asrwt>0</asrwt>
<pdfrwt beam="1">  1        3 0.20341252E-02 0.94760587E+02</pdfrwt>
<pdfrwt beam="2">  1       -3 0.39693973E-01 0.94760587E+02</pdfrwt>
<totfact> 0.12197177E+04</totfact>
</mgrwt>
</event>
<event>
 6    1  0.2852411E-002  0.9319554E+02  0.7546771E-02  0.1377739E+00
          1   -1    0    0  501    0  0.00000000000E+00  0.00000000000E+00  0.65555438672E+02  0.65555438672E+02  0.00000000000E+00 0. -1.
         -1   -1    0    0    0  501 -0.00000000000E+00 -0.00000000000E+00 -0.50754628640E+02  0.50754628640E+02  0.00000000000E+00 0.  1.
         23    2    1    2    0    0 -0.12426765116E+02 -0.18320106079E+02  0.10880640320E+02  0.93828552493E+02  0.90528217431E+02 0.  0.
         11    1    3    3    0    0 -0.24915611661E+02 -0.20910882493E+02  0.46071740785E+02  0.56397322720E+02  0.00000000000E+00 0. -1.
        -11    1    3    3    0    0  0.12488846545E+02  0.25907764137E+01 -0.35191100464E+02  0.37431229773E+02  0.00000000000E+00 0.  1.
         22    1    1    2    0    0  0.12426765116E+02  0.18320106079E+02  0.39201697122E+01  0.22481514819E+02  0.00000000000E+00 0. -1.
<mgrwt>
<rscale>  0 0.65061862E+02</rscale>
<asrwt>0</asrwt>
<pdfrwt beam="1">  1        1 0.10085452E-01 0.93195541E+02</pdfrwt>
<pdfrwt beam="2">  1       -1 0.78084044E-02 0.93195541E+02</pdfrwt>
<totfact> 0.48922598E+04</totfact>
</mgrwt>
</event>
<event>
 6    1  0.2852411E-002  0.9612071E+02  0.7546771E-02  0.1373086E+00
          2   -1    0    0  501    0  0.00000000000E+00  0.00000000000E+00  0.31829254251E+03  0.31829254251E+03  0.00000000000E+00 0.  1.
         -2   -1    0    0    0  501 -0.00000000000E+00 -0.00000000000E+00 -0.47592299009E+02  0.47592299009E+02  0.00000000000E+00 0. -1.
         23    2    1    2    0    0 -0.15094027003E+02 -0.15700463573E+02  0.30802305384E+03  0.32267226951E+03  0.93620818235E+02 0.  0.
         13    1    3    3    0    0 -0.41827062521E+02  0.19783622340E+02  0.21021588101E+03  0.21524779093E+03  0.00000000000E+00 0.  1.
        -13    1    3    3    0    0  0.26733035518E+02 -0.35484085913E+02  0.97807172829E+02  0.10742447858E+03  0.00000000000E+00 0. -1.
         22    1    1    2    0    0  0.15094027003E+02  0.15700463573E+02 -0.37322810341E+02  0.43212572005E+02  0.00000000000E+00 0. -1.
<mgrwt>
<rscale>  0 0.66316760E+02</rscale>
<asrwt>0</asrwt>
<pdfrwt beam="1">  1        2 0.48968082E-01 0.96120715E+02</pdfrwt>
<pdfrwt beam="2">  1       -2 0.73218924E-02 0.96120715E+02</pdfrwt>
<totfact> 0.10247579E+04</totfact>
</mgrwt>
</event>
<event>
 6    1  0.2852411E-002  0.1032189E+03  0.7546771E-02  0.1303599E+00
         -2   -1    0    0    0  501 -0.00000000000E+00  0.00000000000E+00  0.98003255736E+01  0.98003255736E+01  0.00000000000E+00 0.  1.
          2   -1    0    0  501    0  0.00000000000E+00 -0.00000000000E+00 -0.93585843504E+03  0.93585843504E+03  0.00000000000E+00 0. -1.
         23    2    1    2    0    0 -0.49481969625E+02 -0.31855892499E+02 -0.79892980718E+03  0.80556997289E+03  0.84799063729E+02 0.  0.
         13    1    3    3    0    0  0.57560114470E+01 -0.35831097073E+01 -0.33297262045E+01  0.75536361806E+01  0.00000000000E+00 0.  1.
        -13    1    3    3    0    0 -0.55237981072E+02 -0.28272782792E+02 -0.79560008098E+03  0.79801633671E+03  0.00000000000E+00 0. -1.
         22    1    1    2    0    0  0.49481969625E+02  0.31855892499E+02 -0.12712830229E+03  0.14008878773E+03  0.00000000000E+00 0.  1.
<mgrwt>
<rscale>  0 0.89692299E+02</rscale>
<asrwt>0</asrwt>
<pdfrwt beam="1">  1        2 0.14397826E+00 0.10321892E+03</pdfrwt>
<pdfrwt beam="2">  1       -2 0.15077420E-02 0.10321892E+03</pdfrwt>
<totfact> 0.31099470E+04</totfact>
</mgrwt>
</event>
<event>
 6    1  0.2852411E-002  0.9267084E+02  0.7546771E-02  0.1407397E+00
         -2   -1    0    0    0  501 -0.00000000000E+00  0.00000000000E+00  0.44275096867E+01  0.44275096867E+01  0.00000000000E+00 0.  1.
          2   -1    0    0  501    0  0.00000000000E+00 -0.00000000000E+00 -0.75429270062E+03  0.75429270062E+03  0.00000000000E+00 0. -1.
         23    2    1    2    0    0  0.13510048973E+02 -0.36855023618E+01 -0.71743933805E+03  0.72339967399E+03  0.91606660171E+02 0.  0.
         11    1    3    3    0    0  0.13980290152E+02 -0.47034301162E+02 -0.40736399772E+03  0.41030854322E+03  0.00000000000E+00 0.  1.
        -11    1    3    3    0    0 -0.47024117905E+00  0.43348798800E+02 -0.31007534033E+03  0.31309113077E+03  0.00000000000E+00 0. -1.
         22    1    1    2    0    0 -0.13510048973E+02  0.36855023618E+01 -0.32425852881E+02  0.35320536320E+02  0.00000000000E+00 0. -1.
<mgrwt>
<rscale>  0 0.57778761E+02</rscale>
<asrwt>0</asrwt>
<pdfrwt beam="1">  1        2 0.11604492E+00 0.92670840E+02</pdfrwt>
<pdfrwt beam="2">  1       -2 0.68115601E-03 0.92670840E+02</pdfrwt>
<totfact> 0.12420560E+05</totfact>
</mgrwt>
</event>
<event>
 6    1  0.2852411E-002  0.9124034E+02  0.7546771E-02  0.1398077E+00
          2   -1    0    0  501    0  0.00000000000E+00  0.00000000000E+00  0.13043572624E+02  0.13043572624E+02  0.00000000000E+00 0. -1.
         -2   -1    0    0    0  501 -0.00000000000E+00 -0.00000000000E+00 -0.25025806847E+03  0.25025806847E+03  0.00000000000E+00 0.  1.
         23    2    1    2    0    0 -0.64653903121E+01 -0.15718569190E+02 -0.22368562520E+03  0.24157826589E+03  0.89643320667E+02 0.  0.
         13    1    3    3    0    0 -0.18478397065E+01 -0.36568486466E+02 -0.21568938607E+03  0.21877518136E+03  0.00000000000E+00 0.  1.
        -13    1    3    3    0    0 -0.46175506057E+01  0.20849917276E+02 -0.79962391271E+01  0.22803084532E+02  0.00000000000E+00 0. -1.
         22    1    1    2    0    0  0.64653903121E+01  0.15718569190E+02 -0.13528870645E+02  0.21723375203E+02  0.00000000000E+00 0. -1.
<mgrwt>
<rscale>  0 0.59941673E+02</rscale>
<asrwt>0</asrwt>
<pdfrwt beam="1">  1        2 0.20067037E-02 0.91240340E+02</pdfrwt>
<pdfrwt beam="2">  1       -2 0.38501237E-01 0.91240340E+02</pdfrwt>
<totfact> 0.30436027E+04</totfact>
</mgrwt>
</event>
<event>
 6    1  0.2852411E-002  0.9397671E+02  0.7546771E-02  0.1424000E+00
          2   -1    0    0  501    0  0.00000000000E+00  0.00000000000E+00  0.53004029971E+02  0.53004029971E+02  0.00000000000E+00 0.  1.
         -2   -1    0    0    0  501 -0.00000000000E+00 -0.00000000000E+00 -0.51487716677E+02  0.51487716677E+02  0.00000000000E+00 0. -1.
         23    2    1    2    0    0 -0.85661004044E+01 -0.58710705325E+01 -0.13187591314E+00  0.93976801427E+02  0.93401147048E+02 0.  0.
         11    1    3    3    0    0 -0.82136049230E+01 -0.46367215981E+02  0.16918535826E+02  0.50036175695E+02  0.00000000000E+00 0.  1.
        -11    1    3    3    0    0 -0.35249548142E+00  0.40496145449E+02 -0.17050411739E+02  0.43940625732E+02  0.00000000000E+00 0. -1.
         22    1    1    2    0    0  0.85661004044E+01  0.58710705325E+01  0.16481892077E+01  0.10514945221E+02  0.00000000000E+00 0. -1.
<mgrwt>
<rscale>  0 0.54183425E+02</rscale>
<asrwt>0</asrwt>
<pdfrwt beam="1">  1        2 0.81544661E-02 0.93976709E+02</pdfrwt>
<pdfrwt beam="2">  1       -2 0.79211872E-02 0.93976709E+02</pdfrwt>
<totfact> 0.68255579E+04</totfact>
</mgrwt>
</event>
<event>
 6    1  0.2852411E-002  0.9146199E+02  0.7546771E-02  0.1424428E+00
         -2   -1    0    0    0  501 -0.00000000000E+00  0.00000000000E+00  0.12154572503E+02  0.12154572503E+02  0.00000000000E+00 0.  1.
          2   -1    0    0  501    0  0.00000000000E+00 -0.00000000000E+00 -0.28166216152E+03  0.28166216152E+03  0.00000000000E+00 0. -1.
         23    2    1    2    0    0 -0.93248892960E+01  0.61892398520E+01 -0.26715851923E+03  0.28238089652E+03  0.90774644460E+02 0.  0.
         13    1    3    3    0    0 -0.15857406466E+02 -0.31749590615E+02 -0.47064355489E+02  0.58945291599E+02  0.00000000000E+00 0.  1.
        -13    1    3    3    0    0  0.65325171701E+01  0.37938830467E+02 -0.22009416374E+03  0.22343560493E+03  0.00000000000E+00 0. -1.
         22    1    1    2    0    0  0.93248892960E+01 -0.61892398520E+01 -0.23490697879E+01  0.11435837494E+02  0.00000000000E+00 0.  1.
<mgrwt>
<rscale>  0 0.54095004E+02</rscale>
<asrwt>0</asrwt>
<pdfrwt beam="1">  1        2 0.43332638E-01 0.91461994E+02</pdfrwt>
<pdfrwt beam="2">  1       -2 0.18699343E-02 0.91461994E+02</pdfrwt>
<totfact> 0.86168209E+04</totfact>
</mgrwt>
</event>
<event>
 6    1  0.2852411E-002  0.9553103E+02  0.7546771E-02  0.1354656E+00
         -3   -1    0    0    0  501 -0.00000000000E+00  0.00000000000E+00  0.34811525687E+02  0.34811525687E+02  0.00000000000E+00 0.  1.
          3   -1    0    0  501    0  0.00000000000E+00 -0.00000000000E+00 -0.11857614955E+03  0.11857614955E+03  0.00000000000E+00 0. -1.
         23    2    1    2    0    0  0.21669336502E+02  0.21014745049E+02 -0.76380893364E+02  0.12231197525E+03  0.90636630364E+02 0.  0.
         13    1    3    3    0    0  0.28886680858E+02 -0.31302189738E+02 -0.37212850729E+02  0.56560265848E+02  0.00000000000E+00 0. -1.
        -13    1    3    3    0    0 -0.72173443567E+01  0.52316934787E+02 -0.39168042635E+02  0.65751709399E+02  0.00000000000E+00 0.  1.
         22    1    1    2    0    0 -0.21669336502E+02 -0.21014745049E+02 -0.73837305001E+01  0.31075699992E+02  0.00000000000E+00 0.  1.
<mgrwt>
<rscale>  0 0.71624048E+02</rscale>
<asrwt>0</asrwt>
<pdfrwt beam="1">  1        3 0.18242485E-01 0.95531034E+02</pdfrwt>
<pdfrwt beam="2">  1       -3 0.53556193E-02 0.95531034E+02</pdfrwt>
<totfact> 0.11250968E+04</totfact>
</mgrwt>
</event>
<event>
 6    1  0.2852411E-002  0.8521342E+02  0.7546771E-02  0.1406390E+00
          4   -1    0    0  501    0  0.00000000000E+00  0.00000000000E+00  0.21069227215E+03  0.21069227215E+03  0.00000000000E+00 0. -1.
         -4   -1    0    0    0  501 -0.00000000000E+00 -0.00000000000E+00 -0.12957342209E+02  0.12957342209E+02  0.00000000000E+00 0.  1.
         23    2    1    2    0    0  0.17020149405E+02  0.67178823623E+01  0.17335935778E+03  0.19317037638E+03  0.83225668846E+02 0.  0.
         11    1    3    3    0    0  0.46554758014E+02 -0.11451938363E+01  0.61092759212E+02  0.76817850730E+02  0.00000000000E+00 0. -1.
        -11    1    3    3    0    0 -0.29534608609E+02  0.78630761987E+01  0.11226659856E+03  0.11635252565E+03  0.00000000000E+00 0.  1.
         22    1    1    2    0    0 -0.17020149405E+02 -0.67178823623E+01  0.24375572166E+02  0.30479237977E+02  0.00000000000E+00 0.  1.
<mgrwt>
<rscale>  0 0.58007172E+02</rscale>
<asrwt>0</asrwt>
<pdfrwt beam="1">  1        4 0.32414193E-01 0.85213423E+02</pdfrwt>
<pdfrwt beam="2">  1       -4 0.19934374E-02 0.85213423E+02</pdfrwt>
<totfact> 0.13296786E+04</totfact>
</mgrwt>
</event>
<event>
 6    1  0.2852411E-002  0.9261423E+02  0.7546771E-02  0.1357928E+00
         -2   -1    0    0    0  501 -0.00000000000E+00  0.00000000000E+00  0.86721842368E+01  0.86721842368E+01  0.00000000000E+00 0.  1.
          2   -1    0    0  501    0  0.00000000000E+00 -0.00000000000E+00 -0.46870517506E+03  0.46870517506E+03  0.00000000000E+00 0. -1.
         23    2    1    2    0    0 -0.87945812390E+01 -0.30087103751E+02 -0.38650980728E+03  0.39745091193E+03  0.87148251815E+02 0.  0.
         13    1    3    3    0    0 -0.37440925896E+02 -0.13019070525E+02 -0.32565769825E+03  0.32806135944E+03  0.00000000000E+00 0. -1.
        -13    1    3    3    0    0  0.28646344657E+02 -0.17068033226E+02 -0.60852109036E+02  0.69389552488E+02  0.00000000000E+00 0.  1.
         22    1    1    2    0    0  0.87945812390E+01  0.30087103751E+02 -0.73523183542E+02  0.79926447371E+02  0.00000000000E+00 0. -1.
<mgrwt>
<rscale>  0 0.70640572E+02</rscale>
<asrwt>0</asrwt>
<pdfrwt beam="1">  1        2 0.72108483E-01 0.92614234E+02</pdfrwt>
<pdfrwt beam="2">  1       -2 0.13341823E-02 0.92614234E+02</pdfrwt>
<totfact> 0.81839115E+04</totfact>
</mgrwt>
</event>
<event>
 6    1  0.2852411E-002  0.9016216E+02  0.7546771E-02  0.1389415E+00
          1   -1    0    0  501    0  0.00000000000E+00  0.00000000000E+00  0.93590388525E+03  0.93590388525E+03  0.00000000000E+00 0. -1.
         -1   -1    0    0    0  501 -0.00000000000E+00 -0.00000000000E+00 -0.41033974686E+01  0.41033974686E+01  0.00000000000E+00 0.  1.
         23    2    1    2    0    0 -0.65306816348E+01  0.19145221570E+02  0.87646587892E+03  0.88109117075E+03  0.87863672540E+02 0.  0.
         13    1    3    3    0    0  0.56817878286E+01 -0.34481367656E+02  0.31127072883E+03  0.31322629847E+03  0.00000000000E+00 0.  1.
        -13    1    3    3    0    0 -0.12212469463E+02  0.53626589226E+02  0.56519515009E+03  0.56786487228E+03  0.00000000000E+00 0. -1.
         22    1    1    2    0    0  0.65306816348E+01 -0.19145221570E+02  0.55334608860E+02  0.58916111967E+02  0.00000000000E+00 0.  1.
<mgrwt>
<rscale>  0 0.62052424E+02</rscale>
<asrwt>0</asrwt>
<pdfrwt beam="1">  1        1 0.14398504E+00 0.90162155E+02</pdfrwt>
<pdfrwt beam="2">  1       -1 0.63129266E-03 0.90162155E+02</pdfrwt>
<totfact> 0.58480202E+04</totfact>
</mgrwt>
</event>
<event>
 6    1  0.2852411E-002  0.9234158E+02  0.7546771E-02  0.1383446E+00
          2   -1    0    0  501    0  0.00000000000E+00  0.00000000000E+00  0.13021010053E+02  0.13021010053E+02  0.00000000000E+00 0. -1.
         -2   -1    0    0    0  501 -0.00000000000E+00 -0.00000000000E+00 -0.28198104127E+03  0.28198104127E+03  0.00000000000E+00 0.  1.
         23    2    1    2    0    0  0.11643023949E+02  0.17158497127E+02 -0.16581664353E+03  0.18979495815E+03  0.89983291990E+02 0.  0.
         11    1    3    3    0    0 -0.16023839252E+02 -0.70195706481E+01  0.23590609983E+01  0.17652279322E+02  0.00000000000E+00 0. -1.
        -11    1    3    3    0    0  0.27666863201E+02  0.24178067775E+02 -0.16817570452E+03  0.17214267882E+03  0.00000000000E+00 0.  1.
         22    1    1    2    0    0 -0.11643023949E+02 -0.17158497127E+02 -0.10314338769E+03  0.10520709318E+03  0.00000000000E+00 0.  1.
<mgrwt>
<rscale>  0 0.63566492E+02</rscale>
<asrwt>0</asrwt>
<pdfrwt beam="1">  1        2 0.20032326E-02 0.92341577E+02</pdfrwt>
<pdfrwt beam="2">  1       -2 0.43381693E-01 0.92341577E+02</pdfrwt>
<totfact> 0.24401713E+04</totfact>
</mgrwt>
</event>
<event>
 6    1  0.2852411E-002  0.9503660E+02  0.7546771E-02  0.1357159E+00
          2   -1    0    0  501    0  0.00000000000E+00  0.00000000000E+00  0.40272322098E+02  0.40272322098E+02  0.00000000000E+00 0. -1.
         -2   -1    0    0    0  501 -0.00000000000E+00 -0.00000000000E+00 -0.10044764701E+03  0.10044764701E+03  0.00000000000E+00 0.  1.
         23    2    1    2    0    0  0.51017527225E-02  0.29388645238E+02 -0.32746588192E+02  0.10052011721E+03  0.90378440072E+02 0.  0.
         13    1    3    3    0    0 -0.34432629451E+02 -0.14512437696E+02 -0.35174154571E+01  0.37531174112E+02  0.00000000000E+00 0.  1.
        -13    1    3    3    0    0  0.34437731203E+02  0.43901082934E+02 -0.29229172735E+02  0.62988943093E+02  0.00000000000E+00 0. -1.
         22    1    1    2    0    0 -0.51017527225E-02 -0.29388645238E+02 -0.27428736720E+02  0.40199851903E+02  0.00000000000E+00 0.  1.
<mgrwt>
<rscale>  0 0.70870101E+02</rscale>
<asrwt>0</asrwt>
<pdfrwt beam="1">  1        2 0.61957419E-02 0.95036598E+02</pdfrwt>
<pdfrwt beam="2">  1       -2 0.15453484E-01 0.95036598E+02</pdfrwt>
<totfact> 0.33737852E+04</totfact>
</mgrwt>
</event>
<event>
 6    1  0.2852411E-002  0.9335428E+02  0.7546771E-02  0.1383580E+00
          1   -1    0    0  501    0  0.00000000000E+00  0.00000000000E+00  0.95653327075E+02  0.95653327075E+02  0.00000000000E+00 0. -1.
         -1   -1    0    0    0  501 -0.00000000000E+00 -0.00000000000E+00 -0.35832587858E+02  0.35832587858E+02  0.00000000000E+00 0.  1.
         23    2    1    2    0    0 -0.18123133034E+02  0.85176969262E+01  0.60849308992E+02  0.11143455419E+03  0.91181260962E+02 0.  0.
         11    1    3    3    0    0  0.15120416890E+02 -0.20288013515E+02 -0.10678288098E+02  0.27463727642E+02  0.00000000000E+00 0.  1.
        -11    1    3    3    0    0 -0.33243549924E+02  0.28805710441E+02  0.71527597090E+02  0.83970826547E+02  0.00000000000E+00 0. -1.
         22    1    1    2    0    0  0.18123133034E+02 -0.85176969262E+01 -0.10285697742E+01  0.20051360744E+02  0.00000000000E+00 0.  1.
<mgrwt>
<rscale>  0 0.63532157E+02</rscale>
<asrwt>0</asrwt>
<pdfrwt beam="1">  1        1 0.14715896E-01 0.93354279E+02</pdfrwt>
<pdfrwt beam="2">  1       -1 0.55127059E-02 0.93354279E+02</pdfrwt>
<totfact> 0.50206680E+04</totfact>
</mgrwt>
</event>
<event>
 6    1  0.2852411E-002  0.9010302E+02  0.7546771E-02  0.1423124E+00
         -2   -1    0    0    0  501 -0.00000000000E+00  0.00000000000E+00  0.23424621161E+02  0.23424621161E+02  0.00000000000E+00 0.  1.
          2   -1    0    0  501    0  0.00000000000E+00 -0.00000000000E+00 -0.17508603677E+03  0.17508603677E+03  0.00000000000E+00 0. -1.
         23    2    1    2    0    0 -0.11927137209E+02  0.59314604524E+00 -0.16022048662E+03  0.18381827485E+03  0.89308148636E+02 0.  0.
         13    1    3    3    0    0  0.17520505923E+02 -0.34347728152E+02 -0.10665160308E+03  0.11340766728E+03  0.00000000000E+00 0. -1.
        -13    1    3    3    0    0 -0.29447643132E+02  0.34940874197E+02 -0.53568883533E+02  0.70410607572E+02  0.00000000000E+00 0.  1.
         22    1    1    2    0    0  0.11927137209E+02 -0.59314604524E+00  0.85590710049E+01  0.14692383084E+02  0.00000000000E+00 0.  1.
<mgrwt>
<rscale>  0 0.54365408E+02</rscale>
<asrwt>0</asrwt>
<pdfrwt beam="1">  1        2 0.26936312E-01 0.90103018E+02</pdfrwt>
<pdfrwt beam="2">  1       -2 0.36037880E-02 0.90103018E+02</pdfrwt>
<totfact> 0.55054095E+04</totfact>
</mgrwt>
</event>
<event>
 6    1  0.2852411E-002  0.9619243E+02  0.7546771E-02  0.1417280E+00
         -1   -1    0    0    0  501 -0.00000000000E+00  0.00000000000E+00  0.58622304790E+02  0.58622304790E+02  0.00000000000E+00 0.  1.
          1   -1    0    0  501    0  0.00000000000E+00 -0.00000000000E+00 -0.55308109325E+02  0.55308109325E+02  0.00000000000E+00 0. -1.
         23    2    1    2    0    0  0.10168896162E+02  0.34470661143E+01  0.15779724165E+02  0.97478115804E+02  0.95591289624E+02 0.  0.
         13    1    3    3    0    0  0.65073199956E+01 -0.42618723893E+02  0.25731387312E+02  0.50207620266E+02  0.00000000000E+00 0.  1.
        -13    1    3    3    0    0  0.36615761666E+01  0.46065790007E+02 -0.99516631469E+01  0.47270495538E+02  0.00000000000E+00 0. -1.
         22    1    1    2    0    0 -0.10168896162E+02 -0.34470661143E+01 -0.12465528700E+02  0.16452298311E+02  0.00000000000E+00 0. -1.
<mgrwt>
<rscale>  0 0.55600541E+02</rscale>
<asrwt>0</asrwt>
<pdfrwt beam="1">  1        1 0.85089399E-02 0.96192429E+02</pdfrwt>
<pdfrwt beam="2">  1       -1 0.90188161E-02 0.96192429E+02</pdfrwt>
<totfact> 0.49531160E+04</totfact>
</mgrwt>
</event>
<event>
 6    1  0.2852411E-002  0.9241285E+02  0.7546771E-02  0.1392118E+00
         -2   -1    0    0    0  501 -0.00000000000E+00  0.00000000000E+00  0.45043353481E+01  0.45043353481E+01  0.00000000000E+00 0.  1.
          2   -1    0    0  501    0  0.00000000000E+00 -0.00000000000E+00 -0.12676152865E+04  0.12676152865E+04  0.00000000000E+00 0. -1.
         23    2    1    2    0    0  0.10555236267E+02  0.14566142435E+02 -0.12367970102E+04  0.12402447256E+04  0.90645185211E+02 0.  0.
         11    1    3    3    0    0 -0.21430233043E+02 -0.27367644353E+02 -0.70016737073E+03  0.70102966405E+03  0.00000000000E+00 0. -1.
        -11    1    3    3    0    0  0.31985469310E+02  0.41933786788E+02 -0.53662963944E+03  0.53921506159E+03  0.00000000000E+00 0.  1.
         22    1    1    2    0    0 -0.10555236267E+02 -0.14566142435E+02 -0.26313940982E+02  0.31874896205E+02  0.00000000000E+00 0. -1.
<mgrwt>
<rscale>  0 0.61382972E+02</rscale>
<asrwt>0</asrwt>
<pdfrwt beam="1">  1        2 0.19501771E+00 0.92412851E+02</pdfrwt>
<pdfrwt beam="2">  1       -2 0.69297477E-03 0.92412851E+02</pdfrwt>
<totfact> 0.60152531E+04</totfact>
</mgrwt>
</event>
<event>
 6    1  0.2852411E-002  0.1051260E+03  0.7546771E-02  0.1312616E+00
         -2   -1    0    0    0  501 -0.00000000000E+00  0.00000000000E+00  0.70744901594E+02  0.70744901594E+02  0.00000000000E+00 0.  1.
          2   -1    0    0  501    0  0.00000000000E+00 -0.00000000000E+00 -0.82360828185E+03  0.82360828185E+03  0.00000000000E+00 0. -1.
         23    2    1    2    0    0 -0.72421035705E+01 -0.46714050632E+02 -0.81192541002E+03  0.81870284339E+03  0.93897943266E+02 0.  0.
         11    1    3    3    0    0  0.67757187695E+01 -0.69998194110E+02 -0.42095241863E+03  0.42678635908E+03  0.00000000000E+00 0. -1.
        -11    1    3    3    0    0 -0.14017822340E+02  0.23284143479E+02 -0.39097299139E+03  0.39191648431E+03  0.00000000000E+00 0.  1.
         22    1    1    2    0    0  0.72421035705E+01  0.46714050632E+02  0.59062029763E+02  0.75650340054E+02  0.00000000000E+00 0.  1.
<mgrwt>
<rscale>  0 0.86086249E+02</rscale>
<asrwt>0</asrwt>
<pdfrwt beam="1">  1        2 0.12670897E+00 0.10512599E+03</pdfrwt>
<pdfrwt beam="2">  1       -2 0.10883831E-01 0.10512599E+03</pdfrwt>
<totfact> 0.19471636E+03</totfact>
</mgrwt>
</event>
<event>
 6    1  0.2852411E-002  0.9091962E+02  0.7546771E-02  0.1399594E+00
          2   -1    0    0  501    0  0.00000000000E+00  0.00000000000E+00  0.79396764997E+03  0.79396764997E+03  0.00000000000E+00 0. -1.
         -2   -1    0    0    0  501 -0.00000000000E+00 -0.00000000000E+00 -0.44368585870E+01  0.44368585870E+01  0.00000000000E+00 0.  1.
         23    2    1    2    0    0  0.55877155421E+01  0.15809952283E+02  0.74962911979E+03  0.75512263530E+03  0.89359946053E+02 0.  0.
         11    1    3    3    0    0 -0.29750490192E+01  0.42426766327E+02  0.65676249265E+03  0.65813817179E+03  0.00000000000E+00 0. -1.
        -11    1    3    3    0    0  0.85627645612E+01 -0.26616814045E+02  0.92866627140E+02  0.96984463515E+02  0.00000000000E+00 0.  1.
         22    1    1    2    0    0 -0.55877155421E+01 -0.15809952283E+02  0.39901671590E+02  0.43281873248E+02  0.00000000000E+00 0.  1.
<mgrwt>
<rscale>  0 0.59582087E+02</rscale>
<asrwt>0</asrwt>
<pdfrwt beam="1">  1        2 0.12214876E+00 0.90919619E+02</pdfrwt>
<pdfrwt beam="2">  1       -2 0.68259426E-03 0.90919619E+02</pdfrwt>
<totfact> 0.11609548E+05</totfact>
</mgrwt>
</event>
<event>
 6    1  0.2852411E-002  0.9047076E+02  0.7546771E-02  0.1427308E+00
          2   -1    0    0  501    0  0.00000000000E+00  0.00000000000E+00  0.18559430618E+03  0.18559430618E+03  0.00000000000E+00 0. -1.
         -2   -1    0    0    0  501 -0.00000000000E+00 -0.00000000000E+00 -0.21352976456E+02  0.21352976456E+02  0.00000000000E+00 0.  1.
         23    2    1    2    0    0  0.92526213300E+01 -0.60717050806E+01  0.17136868153E+03  0.19378385801E+03  0.89791324824E+02 0.  0.
         13    1    3    3    0    0 -0.25977958626E+01  0.72008499340E+01 -0.94106526082E+01  0.12131000191E+02  0.00000000000E+00 0.  1.
        -13    1    3    3    0    0  0.11850417193E+02 -0.13272555015E+02  0.18077933414E+03  0.18165285782E+03  0.00000000000E+00 0. -1.
         22    1    1    2    0    0 -0.92526213300E+01  0.60717050806E+01 -0.71273518046E+01  0.13163424623E+02  0.00000000000E+00 0.  1.
<mgrwt>
<rscale>  0 0.53504194E+02</rscale>
<asrwt>0</asrwt>
<pdfrwt beam="1">  1        2 0.28552969E-01 0.90470761E+02</pdfrwt>
<pdfrwt beam="2">  1       -2 0.32850734E-02 0.90470761E+02</pdfrwt>
<totfact> 0.59229415E+04</totfact>
</mgrwt>
</event>
<event>
 6    1  0.2852411E-002  0.9078860E+02  0.7546771E-02  0.1428850E+00
          2   -1    0    0  501    0  0.00000000000E+00  0.00000000000E+00  0.12317434009E+04  0.12317434009E+04  0.00000000000E+00 0. -1.
         -2   -1    0    0    0  501 -0.00000000000E+00 -0.00000000000E+00 -0.22291042910E+01  0.22291042910E+01  0.00000000000E+00 0.  1.
         23    2    1    2    0    0  0.18464823163E+01 -0.10536822037E+02  0.11689828818E+04  0.11725031120E+04  0.90156173871E+02 0.  0.
         11    1    3    3    0    0 -0.11753146697E+02  0.29025292338E+02  0.87483170906E+03  0.87539198261E+03  0.00000000000E+00 0. -1.
        -11    1    3    3    0    0  0.13599629013E+02 -0.39562114375E+02  0.29415117275E+03  0.29711112943E+03  0.00000000000E+00 0.  1.
         22    1    1    2    0    0 -0.18464823163E+01  0.10536822037E+02  0.60531414828E+02  0.61469393170E+02  0.00000000000E+00 0. -1.
<mgrwt>
<rscale>  0 0.53191584E+02</rscale>
<asrwt>0</asrwt>
<pdfrwt beam="1">  1        2 0.18949844E+00 0.90788600E+02</pdfrwt>
<pdfrwt beam="2">  1       -2 0.34294011E-03 0.90788600E+02</pdfrwt>
<totfact> 0.16810743E+05</totfact>
</mgrwt>
</event>
<event>
 6    1  0.2852411E-002  0.9088282E+02  0.7546771E-02  0.1430312E+00
         -2   -1    0    0    0  501 -0.00000000000E+00  0.00000000000E+00  0.16657556584E+01  0.16657556584E+01  0.00000000000E+00 0.  1.
          2   -1    0    0  501    0  0.00000000000E+00 -0.00000000000E+00 -0.18769429542E+04  0.18769429542E+04  0.00000000000E+00 0. -1.
         23    2    1    2    0    0  0.49960239943E+01 -0.91558524267E+01 -0.18249734924E+04  0.18272350518E+04  0.90282316767E+02 0.  0.
         13    1    3    3    0    0  0.10808622947E+02  0.37936886545E+02 -0.11022219955E+04  0.11029276318E+04  0.00000000000E+00 0. -1.
        -13    1    3    3    0    0 -0.58125989530E+01 -0.47092738972E+02 -0.72275149695E+03  0.72430742003E+03  0.00000000000E+00 0.  1.
         22    1    1    2    0    0 -0.49960239943E+01  0.91558524267E+01 -0.50303706133E+02  0.51373658037E+02  0.00000000000E+00 0.  1.
<mgrwt>
<rscale>  0 0.52897471E+02</rscale>
<asrwt>0</asrwt>
<pdfrwt beam="1">  1        2 0.28876187E+00 0.90882818E+02</pdfrwt>
<pdfrwt beam="2">  1       -2 0.25626884E-03 0.90882818E+02</pdfrwt>
<totfact> 0.11791809E+05</totfact>
</mgrwt>
</event>
<event>
 6    1  0.2852411E-002  0.9415151E+02  0.7546771E-02  0.1373147E+00
          4   -1    0    0  501    0  0.00000000000E+00  0.00000000000E+00  0.30371510117E+02  0.30371510117E+02  0.00000000000E+00 0. -1.
         -4   -1    0    0    0  501 -0.00000000000E+00 -0.00000000000E+00 -0.15421453205E+03  0.15421453205E+03  0.00000000000E+00 0.  1.
         23    2    1    2    0    0 -0.23028096581E+02  0.23849364577E+01 -0.48787671671E+02  0.10604123485E+03  0.91260755129E+02 0.  0.
         11    1    3    3    0    0  0.25034568605E+02  0.10351320093E+02  0.10720318229E+02  0.29134252622E+02  0.00000000000E+00 0. -1.
        -11    1    3    3    0    0 -0.48062665186E+02 -0.79663836351E+01 -0.59507989900E+02  0.76906982225E+02  0.00000000000E+00 0.  1.
         22    1    1    2    0    0  0.23028096581E+02 -0.23849364577E+01 -0.75055350257E+02  0.78544807316E+02  0.00000000000E+00 0.  1.
<mgrwt>
<rscale>  0 0.66300095E+02</rscale>
<asrwt>0</asrwt>
<pdfrwt beam="1">  1        4 0.46725400E-02 0.94151509E+02</pdfrwt>
<pdfrwt beam="2">  1       -4 0.23725313E-01 0.94151509E+02</pdfrwt>
<totfact> 0.64997055E+03</totfact>
</mgrwt>
</event>
<event>
 6    1  0.2852411E-002  0.1144957E+03  0.7546771E-02  0.1354587E+00
          4   -1    0    0  501    0  0.00000000000E+00  0.00000000000E+00  0.98034950994E+01  0.98034950994E+01  0.00000000000E+00 0.  1.
         -4   -1    0    0    0  501 -0.00000000000E+00 -0.00000000000E+00 -0.45693343220E+03  0.45693343220E+03  0.00000000000E+00 0. -1.
         23    2    1    2    0    0  0.16624964467E+02 -0.56348899916E+01 -0.35691569740E+03  0.37483072254E+03  0.11314200847E+03 0.  0.
         13    1    3    3    0    0  0.34734762222E+01 -0.11872866314E+02  0.44689860897E+01  0.13153015937E+02  0.00000000000E+00 0.  1.
        -13    1    3    3    0    0  0.13151488245E+02  0.62379763222E+01 -0.36138468349E+03  0.36167770661E+03  0.00000000000E+00 0. -1.
         22    1    1    2    0    0 -0.16624964467E+02  0.56348899916E+01 -0.90214239701E+02  0.91906204761E+02  0.00000000000E+00 0.  1.
<mgrwt>
<rscale>  0 0.71644940E+02</rscale>
<asrwt>0</asrwt>
<pdfrwt beam="1">  1        4 0.15082305E-02 0.11449566E+03</pdfrwt>
<pdfrwt beam="2">  1       -4 0.70297429E-01 0.11449566E+03</pdfrwt>
<totfact> 0.46586941E+03</totfact>
</mgrwt>
</event>
<event>
 6    1  0.2852411E-002  0.9525905E+02  0.7546771E-02  0.1421481E+00
         -4   -1    0    0    0  501 -0.00000000000E+00  0.00000000000E+00  0.13251536064E+03  0.13251536064E+03  0.00000000000E+00 0.  1.
          4   -1    0    0  501    0  0.00000000000E+00 -0.00000000000E+00 -0.23132411020E+02  0.23132411020E+02  0.00000000000E+00 0. -1.
         23    2    1    2    0    0  0.55314276661E+01  0.87640319053E+01  0.79684574841E+02  0.12419306753E+03  0.94693619680E+02 0.  0.
         11    1    3    3    0    0  0.81691243969E+01 -0.42125963507E+02  0.25993948029E+02  0.50169878702E+02  0.00000000000E+00 0.  1.
        -11    1    3    3    0    0 -0.26376967308E+01  0.50889995412E+02  0.53690626811E+02  0.74023188830E+02  0.00000000000E+00 0. -1.
         22    1    1    2    0    0 -0.55314276661E+01 -0.87640319053E+01  0.29698374781E+02  0.31454704129E+02  0.00000000000E+00 0.  1.
<mgrwt>
<rscale>  0 0.54708867E+02</rscale>
<asrwt>0</asrwt>
<pdfrwt beam="1">  1        4 0.35588325E-02 0.95259050E+02</pdfrwt>
<pdfrwt beam="2">  1       -4 0.20386978E-01 0.95259050E+02</pdfrwt>
<totfact> 0.13174493E+04</totfact>
</mgrwt>
</event>
<event>
 6    1  0.2852411E-002  0.9260821E+02  0.7546771E-02  0.1374983E+00
         -2   -1    0    0    0  501 -0.00000000000E+00  0.00000000000E+00  0.49905937977E+02  0.49905937977E+02  0.00000000000E+00 0.  1.
          2   -1    0    0  501    0  0.00000000000E+00 -0.00000000000E+00 -0.69292622048E+02  0.69292622048E+02  0.00000000000E+00 0. -1.
         23    2    1    2    0    0 -0.21713207731E+02 -0.92568932374E+01 -0.22735252684E+02  0.95358124329E+02  0.89549576764E+02 0.  0.
         13    1    3    3    0    0 -0.18878886998E+02  0.39494281196E+02 -0.10837392855E+02  0.45096116300E+02  0.00000000000E+00 0. -1.
        -13    1    3    3    0    0 -0.28343207330E+01 -0.48751174433E+02 -0.11897859829E+02  0.50262008029E+02  0.00000000000E+00 0.  1.
         22    1    1    2    0    0  0.21713207731E+02  0.92568932374E+01  0.33485686133E+01  0.23840435695E+02  0.00000000000E+00 0. -1.
<mgrwt>
<rscale>  0 0.65801223E+02</rscale>
<asrwt>0</asrwt>
<pdfrwt beam="1">  1        2 0.10660403E-01 0.92608208E+02</pdfrwt>
<pdfrwt beam="2">  1       -2 0.76778366E-02 0.92608208E+02</pdfrwt>
<totfact> 0.51490994E+04</totfact>
</mgrwt>
</event>
<event>
 6    1  0.2852411E-002  0.9040802E+02  0.7546771E-02  0.1404308E+00
          2   -1    0    0  501    0  0.00000000000E+00  0.00000000000E+00  0.15509434591E+03  0.15509434591E+03  0.00000000000E+00 0.  1.
         -2   -1    0    0    0  501 -0.00000000000E+00 -0.00000000000E+00 -0.18968644625E+02  0.18968644625E+02  0.00000000000E+00 0. -1.
         23    2    1    2    0    0 -0.13432150913E+02 -0.83785958551E+01  0.12666588559E+03  0.15562087407E+03  0.89011158440E+02 0.  0.
         13    1    3    3    0    0  0.16470794037E+02  0.19023503025E+02  0.28415287499E+01  0.25323013431E+02  0.00000000000E+00 0. -1.
        -13    1    3    3    0    0 -0.29902944950E+02 -0.27402098881E+02  0.12382435684E+03  0.13029786064E+03  0.00000000000E+00 0.  1.
         22    1    1    2    0    0  0.13432150913E+02  0.83785958551E+01  0.94598156872E+01  0.18442116459E+02  0.00000000000E+00 0.  1.
<mgrwt>
<rscale>  0 0.58483445E+02</rscale>
<asrwt>0</asrwt>
<pdfrwt beam="1">  1        2 0.23860668E-01 0.90408019E+02</pdfrwt>
<pdfrwt beam="2">  1       -2 0.29182531E-02 0.90408019E+02</pdfrwt>
<totfact> 0.85481220E+04</totfact>
</mgrwt>
</event>
<event>
 6    1  0.2852411E-002  0.9494366E+02  0.7546771E-02  0.1363647E+00
          2   -1    0    0  501    0  0.00000000000E+00  0.00000000000E+00  0.93858581763E+02  0.93858581763E+02  0.00000000000E+00 0.  1.
         -2   -1    0    0    0  501 -0.00000000000E+00 -0.00000000000E+00 -0.39706028181E+02  0.39706028181E+02  0.00000000000E+00 0. -1.
         23    2    1    2    0    0  0.24354048327E+02  0.10271900119E+02  0.48170342473E+02  0.10646445401E+03  0.91190276189E+02 0.  0.
         13    1    3    3    0    0 -0.60997855674E+01  0.11923474655E+02  0.68509239499E+02  0.69806106671E+02  0.00000000000E+00 0.  1.
        -13    1    3    3    0    0  0.30453833894E+02 -0.16515745363E+01 -0.20338897026E+02  0.36658347338E+02  0.00000000000E+00 0. -1.
         22    1    1    2    0    0 -0.24354048327E+02 -0.10271900119E+02  0.59822111086E+01  0.27100155935E+02  0.00000000000E+00 0. -1.
<mgrwt>
<rscale>  0 0.68965279E+02</rscale>
<asrwt>0</asrwt>
<pdfrwt beam="1">  1        2 0.14439782E-01 0.94943657E+02</pdfrwt>
<pdfrwt beam="2">  1       -2 0.61086198E-02 0.94943657E+02</pdfrwt>
<totfact> 0.50991980E+04</totfact>
</mgrwt>
</event>
<event>
 6    1  0.2852411E-002  0.9334498E+02  0.7546771E-02  0.1417031E+00
          2   -1    0    0  501    0  0.00000000000E+00  0.00000000000E+00  0.36088281261E+02  0.36088281261E+02  0.00000000000E+00 0. -1.
         -2   -1    0    0    0  501 -0.00000000000E+00 -0.00000000000E+00 -0.10016185115E+03  0.10016185115E+03  0.00000000000E+00 0.  1.
         23    2    1    2    0    0 -0.51446680492E+01  0.10614332698E+02 -0.26742925769E+02  0.97100309189E+02  0.92596729412E+02 0.  0.
         11    1    3    3    0    0  0.46739044384E+01 -0.25971270009E+02 -0.47180224123E+02  0.54058540462E+02  0.00000000000E+00 0.  1.
        -11    1    3    3    0    0 -0.98185724876E+01  0.36585602707E+02  0.20437298354E+02  0.43041768727E+02  0.00000000000E+00 0. -1.
         22    1    1    2    0    0  0.51446680492E+01 -0.10614332698E+02 -0.37330644123E+02  0.39149823226E+02  0.00000000000E+00 0. -1.
<mgrwt>
<rscale>  0 0.55654013E+02</rscale>
<asrwt>0</asrwt>
<pdfrwt beam="1">  1        2 0.55520434E-02 0.93344984E+02</pdfrwt>
<pdfrwt beam="2">  1       -2 0.15409515E-01 0.93344984E+02</pdfrwt>
<totfact> 0.38893281E+04</totfact>
</mgrwt>
</event>
<event>
 6    1  0.2852411E-002  0.8911605E+02  0.7546771E-02  0.1409775E+00
         -2   -1    0    0    0  501 -0.00000000000E+00  0.00000000000E+00  0.44476889240E+02  0.44476889240E+02  0.00000000000E+00 0.  1.
          2   -1    0    0  501    0  0.00000000000E+00 -0.00000000000E+00 -0.70654360935E+03  0.70654360935E+03  0.00000000000E+00 0. -1.
         23    2    1    2    0    0 -0.15147776677E+02  0.86551354271E+00 -0.70234666002E+03  0.70797775459E+03  0.87814952600E+02 0.  0.
         11    1    3    3    0    0  0.33506640575E+01 -0.21811932457E+02 -0.62325208751E+03  0.62364264763E+03  0.00000000000E+00 0. -1.
        -11    1    3    3    0    0 -0.18498440735E+02  0.22677445999E+02 -0.79094572507E+02  0.84335106964E+02  0.00000000000E+00 0.  1.
         22    1    1    2    0    0  0.15147776677E+02 -0.86551354271E+00  0.40279939910E+02  0.43042744001E+02  0.00000000000E+00 0.  1.
<mgrwt>
<rscale>  0 0.57244150E+02</rscale>
<asrwt>0</asrwt>
<pdfrwt beam="1">  1        2 0.10869901E+00 0.89116049E+02</pdfrwt>
<pdfrwt beam="2">  1       -2 0.68425989E-02 0.89116049E+02</pdfrwt>
<totfact> 0.47570534E+03</totfact>
</mgrwt>
</event>
<event>
 6    1  0.2852411E-002  0.9347695E+02  0.7546771E-02  0.1384591E+00
          2   -1    0    0  501    0  0.00000000000E+00  0.00000000000E+00  0.92527643441E+03  0.92527643441E+03  0.00000000000E+00 0. -1.
         -2   -1    0    0    0  501 -0.00000000000E+00 -0.00000000000E+00 -0.41165971688E+01  0.41165971688E+01  0.00000000000E+00 0.  1.
         23    2    1    2    0    0  0.12749185362E+01  0.19580417746E+02  0.86223079913E+03  0.86728305083E+03  0.91394316591E+02 0.  0.
         13    1    3    3    0    0 -0.26123791729E+02  0.46546584694E+02  0.57902394299E+03  0.58147894510E+03  0.00000000000E+00 0. -1.
        -13    1    3    3    0    0  0.27398710265E+02 -0.26966166948E+02  0.28320685614E+03  0.28580410573E+03  0.00000000000E+00 0.  1.
         22    1    1    2    0    0 -0.12749185362E+01 -0.19580417746E+02  0.58929038107E+02  0.62109980748E+02  0.00000000000E+00 0.  1.
<mgrwt>
<rscale>  0 0.63272288E+02</rscale>
<asrwt>0</asrwt>
<pdfrwt beam="1">  1        2 0.14235005E+00 0.93476945E+02</pdfrwt>
<pdfrwt beam="2">  1       -2 0.63332338E-03 0.93476945E+02</pdfrwt>
<totfact> 0.10681480E+05</totfact>
</mgrwt>
</event>
<event>
 6    1  0.2852411E-002  0.9133937E+02  0.7546771E-02  0.1426241E+00
          3   -1    0    0  501    0  0.00000000000E+00  0.00000000000E+00  0.21546471958E+02  0.21546471958E+02  0.00000000000E+00 0. -1.
         -3   -1    0    0    0  501 -0.00000000000E+00 -0.00000000000E+00 -0.12165011763E+03  0.12165011763E+03  0.00000000000E+00 0.  1.
         23    2    1    2    0    0 -0.10920803311E+02  0.45916237374E+00 -0.87127171226E+02  0.12623004415E+03  0.90682993472E+02 0.  0.
         11    1    3    3    0    0 -0.11793164489E+02 -0.12370952547E+02 -0.10378667748E+03  0.10518456930E+03  0.00000000000E+00 0.  1.
        -11    1    3    3    0    0  0.87236117840E+00  0.12830114920E+02  0.16659506258E+02  0.21045474850E+02  0.00000000000E+00 0. -1.
         22    1    1    2    0    0  0.10920803311E+02 -0.45916237374E+00 -0.12976474446E+02  0.16966545438E+02  0.00000000000E+00 0. -1.
<mgrwt>
<rscale>  0 0.53722106E+02</rscale>
<asrwt>0</asrwt>
<pdfrwt beam="1">  1        3 0.33148419E-02 0.91339368E+02</pdfrwt>
<pdfrwt beam="2">  1       -3 0.18715402E-01 0.91339368E+02</pdfrwt>
<totfact> 0.22451533E+04</totfact>
</mgrwt>
</event>
<event>
 6    1  0.2852411E-002  0.9096567E+02  0.7546771E-02  0.1430704E+00
          1   -1    0    0  501    0  0.00000000000E+00  0.00000000000E+00  0.10670472038E+04  0.10670472038E+04  0.00000000000E+00 0. -1.
         -1   -1    0    0    0  501 -0.00000000000E+00 -0.00000000000E+00 -0.39513996691E+01  0.39513996691E+01  0.00000000000E+00 0.  1.
         23    2    1    2    0    0  0.37715138354E+01 -0.96277107285E+01  0.10516381417E+04  0.10555650310E+04  0.90376083658E+02 0.  0.
         11    1    3    3    0    0  0.27300679989E+02 -0.34246785782E+02  0.84543973977E+03  0.84657340087E+03  0.00000000000E+00 0. -1.
        -11    1    3    3    0    0 -0.23529166153E+02  0.24619075054E+02  0.20619840190E+03  0.20899163013E+03  0.00000000000E+00 0.  1.
         22    1    1    2    0    0 -0.37715138354E+01  0.96277107285E+01  0.11457662460E+02  0.15433572481E+02  0.00000000000E+00 0.  1.
<mgrwt>
<rscale>  0 0.52818865E+02</rscale>
<asrwt>0</asrwt>
<pdfrwt beam="1">  1        1 0.16416088E+00 0.90965673E+02</pdfrwt>
<pdfrwt beam="2">  1       -1 0.60790849E-03 0.90965673E+02</pdfrwt>
<totfact> 0.49659566E+04</totfact>
</mgrwt>
</event>
<event>
 6    1  0.2852411E-002  0.9458381E+02  0.7546771E-02  0.1376463E+00
          2   -1    0    0  501    0  0.00000000000E+00  0.00000000000E+00  0.32135102376E+03  0.32135102376E+03  0.00000000000E+00 0. -1.
         -2   -1    0    0    0  501 -0.00000000000E+00 -0.00000000000E+00 -0.13884974770E+02  0.13884974770E+02  0.00000000000E+00 0.  1.
         23    2    1    2    0    0 -0.21220667333E+02  0.41564429816E+01  0.29603262712E+03  0.31077550230E+03  0.92078791075E+02 0.  0.
         13    1    3    3    0    0 -0.50203317996E+02 -0.11817843854E+02  0.24183152293E+03  0.24727013579E+03  0.00000000000E+00 0. -1.
        -13    1    3    3    0    0  0.28982650663E+02  0.15974286836E+02  0.54201104197E+02  0.63505366510E+02  0.00000000000E+00 0.  1.
         22    1    1    2    0    0  0.21220667333E+02 -0.41564429816E+01  0.11433421863E+02  0.24460496230E+02  0.00000000000E+00 0.  1.
<mgrwt>
<rscale>  0 0.65402758E+02</rscale>
<asrwt>0</asrwt>
<pdfrwt beam="1">  1        2 0.49438613E-01 0.94583807E+02</pdfrwt>
<pdfrwt beam="2">  1       -2 0.21361502E-02 0.94583807E+02</pdfrwt>
<totfact> 0.62290190E+04</totfact>
</mgrwt>
</event>
<event>
 6    1  0.2852411E-002  0.9788749E+02  0.7546771E-02  0.1353142E+00
         -2   -1    0    0    0  501 -0.00000000000E+00  0.00000000000E+00  0.42154600391E+02  0.42154600391E+02  0.00000000000E+00 0.  1.
          2   -1    0    0  501    0  0.00000000000E+00 -0.00000000000E+00 -0.10115459413E+03  0.10115459413E+03  0.00000000000E+00 0. -1.
         23    2    1    2    0    0  0.20630271459E+02  0.20077696269E+02 -0.59434819647E+02  0.11451837895E+03  0.93558748078E+02 0.  0.
         13    1    3    3    0    0  0.49350082773E+02  0.38995133200E+02 -0.32263082026E+02  0.70689161439E+02  0.00000000000E+00 0. -1.
        -13    1    3    3    0    0 -0.28719811314E+02 -0.18917436931E+02 -0.27171737621E+02  0.43829217507E+02  0.00000000000E+00 0.  1.
         22    1    1    2    0    0 -0.20630271459E+02 -0.20077696269E+02  0.43482590656E+00  0.28790815576E+02  0.00000000000E+00 0.  1.
<mgrwt>
<rscale>  0 0.72085267E+02</rscale>
<asrwt>0</asrwt>
<pdfrwt beam="1">  1        2 0.15562245E-01 0.97887493E+02</pdfrwt>
<pdfrwt beam="2">  1       -2 0.64853231E-02 0.97887493E+02</pdfrwt>
<totfact> 0.42896119E+04</totfact>
</mgrwt>
</event>
<event>
 6    1  0.2852411E-002  0.9029438E+02  0.7546771E-02  0.1420331E+00
         -1   -1    0    0    0  501 -0.00000000000E+00  0.00000000000E+00  0.14876222345E+02  0.14876222345E+02  0.00000000000E+00 0.  1.
          1   -1    0    0  501    0  0.00000000000E+00 -0.00000000000E+00 -0.18202156298E+03  0.18202156298E+03  0.00000000000E+00 0. -1.
         23    2    1    2    0    0  0.10327227256E+02 -0.68374976142E+01 -0.15594142613E+03  0.18019656691E+03  0.89440881847E+02 0.  0.
         13    1    3    3    0    0 -0.33067097619E+02 -0.24988934355E+02 -0.91152218623E+02  0.10013294535E+03  0.00000000000E+00 0. -1.
        -13    1    3    3    0    0  0.43394324875E+02  0.18151436741E+02 -0.64789207507E+02  0.80063621555E+02  0.00000000000E+00 0.  1.
         22    1    1    2    0    0 -0.10327227256E+02  0.68374976142E+01 -0.11203914510E+02  0.16701218422E+02  0.00000000000E+00 0.  1.
<mgrwt>
<rscale>  0 0.54950893E+02</rscale>
<asrwt>0</asrwt>
<pdfrwt beam="1">  1        1 0.28003318E-01 0.90294376E+02</pdfrwt>
<pdfrwt beam="2">  1       -1 0.22886495E-02 0.90294376E+02</pdfrwt>
<totfact> 0.79591058E+04</totfact>
</mgrwt>
</event>
<event>
 6    1  0.2852411E-002  0.9142220E+02  0.7546771E-02  0.1421983E+00
          2   -1    0    0  501    0  0.00000000000E+00  0.00000000000E+00  0.23384974408E+03  0.23384974408E+03  0.00000000000E+00 0. -1.
         -2   -1    0    0    0  501 -0.00000000000E+00 -0.00000000000E+00 -0.11377238239E+02  0.11377238239E+02  0.00000000000E+00 0.  1.
         23    2    1    2    0    0  0.11608147526E+02  0.77469965639E+00  0.20069049893E+03  0.22053275074E+03  0.90678931053E+02 0.  0.
         11    1    3    3    0    0  0.26067547555E+02 -0.28094165368E+02  0.35579215013E+02  0.52294165106E+02  0.00000000000E+00 0.  1.
        -11    1    3    3    0    0 -0.14459400030E+02  0.28868865024E+02  0.16511128392E+03  0.16823858563E+03  0.00000000000E+00 0. -1.
         22    1    1    2    0    0 -0.11608147526E+02 -0.77469965639E+00  0.21782006909E+02  0.24694231584E+02  0.00000000000E+00 0. -1.
<mgrwt>
<rscale>  0 0.54603529E+02</rscale>
<asrwt>0</asrwt>
<pdfrwt beam="1">  1        2 0.35976880E-01 0.91422195E+02</pdfrwt>
<pdfrwt beam="2">  1       -2 0.17503445E-02 0.91422195E+02</pdfrwt>
<totfact> 0.11515409E+05</totfact>
</mgrwt>
</event>
<event>
 6    1  0.2852411E-002  0.9123049E+02  0.7546771E-02  0.1400133E+00
          2   -1    0    0  501    0  0.00000000000E+00  0.00000000000E+00  0.12088741718E+04  0.12088741718E+04  0.00000000000E+00 0.  1.
         -2   -1    0    0    0  501 -0.00000000000E+00 -0.00000000000E+00 -0.52590649271E+01  0.52590649271E+01  0.00000000000E+00 0. -1.
         23    2    1    2    0    0  0.16322671497E+02 -0.20932573291E+01  0.11878360666E+04  0.11913343455E+04  0.89733996798E+02 0.  0.
         11    1    3    3    0    0  0.14232133163E+02  0.29706254706E+02  0.17965643550E+03  0.18265117026E+03  0.00000000000E+00 0. -1.
        -11    1    3    3    0    0  0.20905383337E+01 -0.31799512035E+02  0.10081796311E+04  0.10086831752E+04  0.00000000000E+00 0.  1.
         22    1    1    2    0    0 -0.16322671497E+02  0.20932573291E+01  0.15779040210E+02  0.22798891222E+02  0.00000000000E+00 0. -1.
<mgrwt>
<rscale>  0 0.59454995E+02</rscale>
<asrwt>0</asrwt>
<pdfrwt beam="1">  1        2 0.18598042E+00 0.91230486E+02</pdfrwt>
<pdfrwt beam="2">  1       -2 0.80908787E-03 0.91230486E+02</pdfrwt>
<totfact> 0.51928874E+04</totfact>
</mgrwt>
</event>
<event>
 6    1  0.2852411E-002  0.9438893E+02  0.7546771E-02  0.1418802E+00
          2   -1    0    0  501    0  0.00000000000E+00  0.00000000000E+00  0.65620650092E+03  0.65620650092E+03  0.00000000000E+00 0.  1.
         -2   -1    0    0    0  501 -0.00000000000E+00 -0.00000000000E+00 -0.45468514392E+01  0.45468514392E+01  0.00000000000E+00 0. -1.
         23    2    1    2    0    0 -0.10486930287E+01 -0.11051233212E+02  0.62127758409E+03  0.62840680061E+03  0.93733884211E+02 0.  0.
         11    1    3    3    0    0 -0.39531711171E+02  0.10538832762E+02  0.16483884705E+03  0.16984012683E+03  0.00000000000E+00 0. -1.
        -11    1    3    3    0    0  0.38483018142E+02 -0.21590065975E+02  0.45643873704E+03  0.45856667379E+03  0.00000000000E+00 0.  1.
         22    1    1    2    0    0  0.10486930287E+01  0.11051233212E+02  0.30382065394E+02  0.32346551752E+02  0.00000000000E+00 0.  1.
<mgrwt>
<rscale>  0 0.55275178E+02</rscale>
<asrwt>0</asrwt>
<pdfrwt beam="1">  1        2 0.10095477E+00 0.94388932E+02</pdfrwt>
<pdfrwt beam="2">  1       -2 0.69951613E-03 0.94388932E+02</pdfrwt>
<totfact> 0.14120125E+05</totfact>
</mgrwt>
</event>
<event>
 6    1  0.2852411E-002  0.9414240E+02  0.7546771E-02  0.1423774E+00
          2   -1    0    0  501    0  0.00000000000E+00  0.00000000000E+00  0.32495204265E+03  0.32495204265E+03  0.00000000000E+00 0. -1.
         -2   -1    0    0    0  501 -0.00000000000E+00 -0.00000000000E+00 -0.13726440332E+02  0.13726440332E+02  0.00000000000E+00 0.  1.
         23    2    1    2    0    0  0.65685622355E+00 -0.10345277267E+02  0.31411335359E+03  0.32791765917E+03  0.93569952810E+02 0.  0.
         13    1    3    3    0    0  0.19813638400E+01  0.13631501260E+02  0.29948065074E+03  0.29979727116E+03  0.00000000000E+00 0. -1.
        -13    1    3    3    0    0 -0.13245076164E+01 -0.23976778527E+02  0.14632702855E+02  0.28120388010E+02  0.00000000000E+00 0.  1.
         22    1    1    2    0    0 -0.65685622355E+00  0.10345277267E+02 -0.28877512688E+01  0.10760823817E+02  0.00000000000E+00 0. -1.
<mgrwt>
<rscale>  0 0.54230413E+02</rscale>
<asrwt>0</asrwt>
<pdfrwt beam="1">  1        2 0.49992616E-01 0.94142404E+02</pdfrwt>
<pdfrwt beam="2">  1       -2 0.21117603E-02 0.94142404E+02</pdfrwt>
<totfact> 0.62555637E+04</totfact>
</mgrwt>
</event>
<event>
 6    1  0.2852411E-002  0.9247395E+02  0.7546771E-02  0.1376137E+00
          2   -1    0    0  501    0  0.00000000000E+00  0.00000000000E+00  0.24254535390E+03  0.24254535390E+03  0.00000000000E+00 0. -1.
         -2   -1    0    0    0  501 -0.00000000000E+00 -0.00000000000E+00 -0.19402420531E+02  0.19402420531E+02  0.00000000000E+00 0.  1.
         23    2    1    2    0    0 -0.23218915584E+02 -0.14168377106E+01  0.21978211853E+03  0.23844414607E+03  0.89500311168E+02 0.  0.
         13    1    3    3    0    0 -0.27007716772E+02  0.29827033235E+02  0.43031459293E+02  0.58913285137E+02  0.00000000000E+00 0.  1.
        -13    1    3    3    0    0  0.37888011880E+01 -0.31243870945E+02  0.17675065924E+03  0.17953086093E+03  0.00000000000E+00 0. -1.
         22    1    1    2    0    0  0.23218915584E+02  0.14168377106E+01  0.33608148450E+01  0.23503628367E+02  0.00000000000E+00 0. -1.
<mgrwt>
<rscale>  0 0.65490273E+02</rscale>
<asrwt>0</asrwt>
<pdfrwt beam="1">  1        2 0.37314668E-01 0.92473949E+02</pdfrwt>
<pdfrwt beam="2">  1       -2 0.29849879E-02 0.92473949E+02</pdfrwt>
<totfact> 0.51390846E+04</totfact>
</mgrwt>
</event>
<event>
 6    1  0.2852411E-002  0.9325934E+02  0.7546771E-02  0.1380097E+00
          2   -1    0    0  501    0  0.00000000000E+00  0.00000000000E+00  0.10978079206E+04  0.10978079206E+04  0.00000000000E+00 0. -1.
         -2   -1    0    0    0  501 -0.00000000000E+00 -0.00000000000E+00 -0.36826638001E+01  0.36826638001E+01  0.00000000000E+00 0.  1.
         23    2    1    2    0    0 -0.11219454949E+02 -0.18054832080E+02  0.10233874876E+04  0.10276279747E+04  0.90804467575E+02 0.  0.
         11    1    3    3    0    0  0.24293624859E+02 -0.39387618523E+02  0.71115414155E+03  0.71265824751E+03  0.00000000000E+00 0. -1.
        -11    1    3    3    0    0 -0.35513079808E+02  0.21332786443E+02  0.31223334609E+03  0.31496972716E+03  0.00000000000E+00 0.  1.
         22    1    1    2    0    0  0.11219454949E+02  0.18054832080E+02  0.70737769173E+02  0.73862609745E+02  0.00000000000E+00 0.  1.
<mgrwt>
<rscale>  0 0.64438276E+02</rscale>
<asrwt>0</asrwt>
<pdfrwt beam="1">  1        2 0.16889327E+00 0.93259340E+02</pdfrwt>
<pdfrwt beam="2">  1       -2 0.56656454E-03 0.93259340E+02</pdfrwt>
<totfact> 0.98992588E+04</totfact>
</mgrwt>
</event>
<event>
 6    1  0.2852411E-002  0.9043257E+02  0.7546771E-02  0.1426422E+00
         -2   -1    0    0    0  501 -0.00000000000E+00  0.00000000000E+00  0.49201030189E+02  0.49201030189E+02  0.00000000000E+00 0.  1.
          2   -1    0    0  501    0  0.00000000000E+00 -0.00000000000E+00 -0.90000249932E+02  0.90000249932E+02  0.00000000000E+00 0. -1.
         23    2    1    2    0    0  0.11222538146E+02  0.44936949427E+00 -0.65770483886E+02  0.11182042315E+03  0.89732397650E+02 0.  0.
         11    1    3    3    0    0 -0.17933618686E+02 -0.29075874894E+02 -0.61181246311E+02  0.70072577234E+02  0.00000000000E+00 0. -1.
        -11    1    3    3    0    0  0.29156156832E+02  0.29525244388E+02 -0.45892375754E+01  0.41747845919E+02  0.00000000000E+00 0.  1.
         22    1    1    2    0    0 -0.11222538146E+02 -0.44936949427E+00  0.24971264144E+02  0.27380856968E+02  0.00000000000E+00 0.  1.
<mgrwt>
<rscale>  0 0.53685056E+02</rscale>
<asrwt>0</asrwt>
<pdfrwt beam="1">  1        2 0.13846192E-01 0.90432574E+02</pdfrwt>
<pdfrwt beam="2">  1       -2 0.75693894E-02 0.90432574E+02</pdfrwt>
<totfact> 0.38466936E+04</totfact>
</mgrwt>
</event>
<event>
 6    1  0.2852411E-002  0.9562112E+02  0.7546771E-02  0.1346307E+00
          2   -1    0    0  501    0  0.00000000000E+00  0.00000000000E+00  0.28362451253E+03  0.28362451253E+03  0.00000000000E+00 0. -1.
         -2   -1    0    0    0  501 -0.00000000000E+00 -0.00000000000E+00 -0.98693251928E+02  0.98693251928E+02  0.00000000000E+00 0.  1.
         23    2    1    2    0    0 -0.18676927319E+02 -0.29251507671E+02  0.27214357715E+03  0.28845367935E+03  0.89100618595E+02 0.  0.
         13    1    3    3    0    0 -0.51366958748E+02 -0.27521747904E+02  0.21329826530E+03  0.22111571866E+03  0.00000000000E+00 0. -1.
        -13    1    3    3    0    0  0.32690031429E+02 -0.17297597670E+01  0.58845311849E+02  0.67337960693E+02  0.00000000000E+00 0.  1.
         22    1    1    2    0    0  0.18676927319E+02  0.29251507671E+02 -0.87212316546E+02  0.93864085104E+02  0.00000000000E+00 0.  1.
<mgrwt>
<rscale>  0 0.74219025E+02</rscale>
<asrwt>0</asrwt>
<pdfrwt beam="1">  1        2 0.43634540E-01 0.95621120E+02</pdfrwt>
<pdfrwt beam="2">  1       -2 0.15183577E-01 0.95621120E+02</pdfrwt>
<totfact> 0.36864099E+03</totfact>
</mgrwt>
</event>
<event>
 6    1  0.2852411E-002  0.9374082E+02  0.7546771E-02  0.1405104E+00
         -2   -1    0    0    0  501 -0.00000000000E+00  0.00000000000E+00  0.16298893906E+02  0.16298893906E+02  0.00000000000E+00 0. -1.
          2   -1    0    0  501    0  0.00000000000E+00 -0.00000000000E+00 -0.28185590617E+03  0.28185590617E+03  0.00000000000E+00 0.  1.
         23    2    1    2    0    0 -0.11947019094E+02  0.73471081756E+01 -0.26799720413E+03  0.28391872617E+03  0.92685653595E+02 0.  0.
         11    1    3    3    0    0  0.35784757011E+02 -0.59702458276E+00 -0.55928187940E+02  0.66399303302E+02  0.00000000000E+00 0. -1.
        -11    1    3    3    0    0 -0.47731776105E+02  0.79441327584E+01 -0.21206901619E+03  0.21751942287E+03  0.00000000000E+00 0.  1.
         22    1    1    2    0    0  0.11947019094E+02 -0.73471081756E+01  0.24401918733E+01  0.14236073902E+02  0.00000000000E+00 0. -1.
<mgrwt>
<rscale>  0 0.58300895E+02</rscale>
<asrwt>0</asrwt>
<pdfrwt beam="1">  1        2 0.43362444E-01 0.93740822E+02</pdfrwt>
<pdfrwt beam="2">  1       -2 0.25075223E-02 0.93740822E+02</pdfrwt>
<totfact> 0.56623182E+04</totfact>
</mgrwt>
</event>
<event>
 6    1  0.2852411E-002  0.9311034E+02  0.7546771E-02  0.1423619E+00
         -2   -1    0    0    0  501 -0.00000000000E+00  0.00000000000E+00  0.78011177678E+01  0.78011177678E+01  0.00000000000E+00 0.  1.
          2   -1    0    0  501    0  0.00000000000E+00 -0.00000000000E+00 -0.34578708462E+03  0.34578708462E+03  0.00000000000E+00 0. -1.
         23    2    1    2    0    0  0.10367411576E+02 -0.28042244960E+01 -0.30059884656E+03  0.31468905508E+03  0.92488853025E+02 0.  0.
         13    1    3    3    0    0  0.35696662268E+02  0.14484146863E+02 -0.26463988208E+03  0.26742907358E+03  0.00000000000E+00 0. -1.
        -13    1    3    3    0    0 -0.25329250692E+02 -0.17288371359E+02 -0.35958964487E+02  0.47259981505E+02  0.00000000000E+00 0.  1.
         22    1    1    2    0    0 -0.10367411576E+02  0.28042244960E+01 -0.37387120287E+02  0.38899147306E+02  0.00000000000E+00 0.  1.
<mgrwt>
<rscale>  0 0.54262421E+02</rscale>
<asrwt>0</asrwt>
<pdfrwt beam="1">  1        2 0.53198010E-01 0.93110337E+02</pdfrwt>
<pdfrwt beam="2">  1       -2 0.12001720E-02 0.93110337E+02</pdfrwt>
<totfact> 0.13128230E+05</totfact>
</mgrwt>
</event>
<event>
 6    1  0.2852411E-002  0.9166407E+02  0.7546771E-02  0.1406094E+00
         -3   -1    0    0    0  501 -0.00000000000E+00  0.00000000000E+00  0.35602347223E+03  0.35602347223E+03  0.00000000000E+00 0.  1.
          3   -1    0    0  501    0  0.00000000000E+00 -0.00000000000E+00 -0.80274858031E+01  0.80274858031E+01  0.00000000000E+00 0. -1.
         23    2    1    2    0    0  0.16671712733E+01 -0.14674385381E+02  0.28650481894E+03  0.30081109146E+03  0.90466482290E+02 0.  0.
         11    1    3    3    0    0  0.33679128931E+02 -0.19431137813E+02  0.56776957314E+02  0.68814792916E+02  0.00000000000E+00 0. -1.
        -11    1    3    3    0    0 -0.32011957658E+02  0.47567524320E+01  0.22972786163E+03  0.23199629854E+03  0.00000000000E+00 0.  1.
         22    1    1    2    0    0 -0.16671712733E+01  0.14674385381E+02  0.61491167486E+02  0.63239866580E+02  0.00000000000E+00 0. -1.
<mgrwt>
<rscale>  0 0.58074509E+02</rscale>
<asrwt>0</asrwt>
<pdfrwt beam="1">  1        3 0.12349981E-02 0.91664069E+02</pdfrwt>
<pdfrwt beam="2">  1       -3 0.54772830E-01 0.91664069E+02</pdfrwt>
<totfact> 0.13617062E+04</totfact>
</mgrwt>
</event>
<event>
 6    1  0.2852411E-002  0.9613517E+02  0.7546771E-02  0.1345637E+00
          4   -1    0    0  501    0  0.00000000000E+00  0.00000000000E+00  0.43946980380E+03  0.43946980380E+03  0.00000000000E+00 0.  1.
         -4   -1    0    0    0  501 -0.00000000000E+00 -0.00000000000E+00 -0.31078808116E+02  0.31078808116E+02  0.00000000000E+00 0. -1.
         23    2    1    2    0    0  0.26563534834E+02  0.22087261525E+02  0.42245026780E+03  0.43325073480E+03  0.89713443450E+02 0.  0.
         13    1    3    3    0    0  0.13614313689E+02  0.13533972159E+02  0.41600305473E+03  0.41644574615E+03  0.00000000000E+00 0.  1.
        -13    1    3    3    0    0  0.12949221144E+02  0.85532893662E+01  0.64472130697E+01  0.16804988652E+02  0.00000000000E+00 0. -1.
         22    1    1    2    0    0 -0.26563534834E+02 -0.22087261525E+02 -0.14059272120E+02  0.37297877112E+02  0.00000000000E+00 0. -1.
<mgrwt>
<rscale>  0 0.74432582E+02</rscale>
<asrwt>0</asrwt>
<pdfrwt beam="1">  1        4 0.67610735E-01 0.96135168E+02</pdfrwt>
<pdfrwt beam="2">  1       -4 0.47813554E-02 0.96135168E+02</pdfrwt>
<totfact> 0.80906542E+02</totfact>
</mgrwt>
</event>
<event>
 6    1  0.2852411E-002  0.9757953E+02  0.7546771E-02  0.1366653E+00
         -2   -1    0    0    0  501 -0.00000000000E+00  0.00000000000E+00  0.17182542098E+02  0.17182542098E+02  0.00000000000E+00 0.  1.
          2   -1    0    0  501    0  0.00000000000E+00 -0.00000000000E+00 -0.44351052211E+03  0.44351052211E+03  0.00000000000E+00 0. -1.
         23    2    1    2    0    0 -0.10105013747E+02 -0.20835679252E+02 -0.42651560784E+03  0.43753551604E+03  0.94792020936E+02 0.  0.
         13    1    3    3    0    0 -0.15868223506E+02  0.23162130865E+01 -0.40527455974E+03  0.40559170866E+03  0.00000000000E+00 0. -1.
        -13    1    3    3    0    0  0.57632097599E+01 -0.23151892339E+02 -0.21241048098E+02  0.31943807379E+02  0.00000000000E+00 0.  1.
         22    1    1    2    0    0  0.10105013747E+02  0.20835679252E+02  0.18762783209E+00  0.23157548163E+02  0.00000000000E+00 0.  1.
<mgrwt>
<rscale>  0 0.68106508E+02</rscale>
<asrwt>0</asrwt>
<pdfrwt beam="1">  1        2 0.68232384E-01 0.97579527E+02</pdfrwt>
<pdfrwt beam="2">  1       -2 0.26434682E-02 0.97579527E+02</pdfrwt>
<totfact> 0.32727052E+04</totfact>
</mgrwt>
</event>
<event>
 6    1  0.2852411E-002  0.9337429E+02  0.7546771E-02  0.1379182E+00
          2   -1    0    0  501    0  0.00000000000E+00  0.00000000000E+00  0.19326491713E+04  0.19326491713E+04  0.00000000000E+00 0. -1.
         -2   -1    0    0    0  501 -0.00000000000E+00 -0.00000000000E+00 -0.59208290316E+01  0.59208290316E+01  0.00000000000E+00 0.  1.
         23    2    1    2    0    0 -0.61803843871E+01 -0.20589372812E+02  0.19073311464E+04  0.19096153698E+04  0.90866049238E+02 0.  0.
         11    1    3    3    0    0  0.61705935280E+01 -0.36183864905E+02  0.18047443864E+04  0.18051176274E+04  0.00000000000E+00 0. -1.
        -11    1    3    3    0    0 -0.12350977915E+02  0.15594492093E+02  0.10258676000E+03  0.10449774240E+03  0.00000000000E+00 0.  1.
         22    1    1    2    0    0  0.61803843871E+01  0.20589372812E+02  0.19397195813E+02  0.28954630534E+02  0.00000000000E+00 0.  1.
<mgrwt>
<rscale>  0 0.64679219E+02</rscale>
<asrwt>0</asrwt>
<pdfrwt beam="1">  1        2 0.29733014E+00 0.93374292E+02</pdfrwt>
<pdfrwt beam="2">  1       -2 0.91089832E-03 0.93374292E+02</pdfrwt>
<totfact> 0.18739727E+04</totfact>
</mgrwt>
</event>
<event>
 6    1  0.2852411E-002  0.1001772E+03  0.7546771E-02  0.1407736E+00
         -2   -1    0    0    0  501 -0.00000000000E+00  0.00000000000E+00  0.83403562799E+02  0.83403562799E+02  0.00000000000E+00 0.  1.
          2   -1    0    0  501    0  0.00000000000E+00 -0.00000000000E+00 -0.49294203187E+02  0.49294203187E+02  0.00000000000E+00 0. -1.
         23    2    1    2    0    0  0.68740979670E+01 -0.86222542586E+01  0.35834960134E+01  0.10024125909E+03  0.99568429179E+02 0.  0.
         13    1    3    3    0    0  0.27479738256E+02  0.87314159515E+01  0.43437541395E+02  0.52136298695E+02  0.00000000000E+00 0.  1.
        -13    1    3    3    0    0 -0.20605640289E+02 -0.17353670210E+02 -0.39854045382E+02  0.48104960396E+02  0.00000000000E+00 0. -1.
         22    1    1    2    0    0 -0.68740979670E+01  0.86222542586E+01  0.30525863599E+02  0.32456506895E+02  0.00000000000E+00 0.  1.
<mgrwt>
<rscale>  0 0.57702118E+02</rscale>
<asrwt>0</asrwt>
<pdfrwt beam="1">  1        2 0.75837235E-02 0.10017719E+03</pdfrwt>
<pdfrwt beam="2">  1       -2 0.12831317E-01 0.10017719E+03</pdfrwt>
<totfact> 0.35514975E+04</totfact>
</mgrwt>
</event>
<event>
 6    1  0.2852411E-002  0.9307527E+02  0.7546771E-02  0.1397673E+00
         -2   -1    0    0    0  501 -0.00000000000E+00  0.00000000000E+00  0.80830653426E+01  0.80830653426E+01  0.00000000000E+00 0.  1.
          2   -1    0    0  501    0  0.00000000000E+00 -0.00000000000E+00 -0.37057440099E+03  0.37057440099E+03  0.00000000000E+00 0. -1.
         23    2    1    2    0    0  0.15101464533E+02 -0.56216284638E+01 -0.31783057764E+03  0.33117862638E+03  0.91669785367E+02 0.  0.
         11    1    3    3    0    0  0.42640188389E+02 -0.19069549324E+02 -0.91008977568E+02  0.10229597927E+03  0.00000000000E+00 0.  1.
        -11    1    3    3    0    0 -0.27538723856E+02  0.13447920860E+02 -0.22682160007E+03  0.22888264711E+03  0.00000000000E+00 0. -1.
         22    1    1    2    0    0 -0.15101464533E+02  0.56216284638E+01 -0.44660758007E+02  0.47478839955E+02  0.00000000000E+00 0. -1.
<mgrwt>
<rscale>  0 0.60037933E+02</rscale>
<asrwt>0</asrwt>
<pdfrwt beam="1">  1        2 0.57011460E-01 0.93075273E+02</pdfrwt>
<pdfrwt beam="2">  1       -2 0.12435482E-02 0.93075273E+02</pdfrwt>
<totfact> 0.11606926E+05</totfact>
</mgrwt>
</event>
<event>
 6    1  0.2852411E-002  0.9357921E+02  0.7546771E-02  0.1382605E+00
         -2   -1    0    0    0  501 -0.00000000000E+00  0.00000000000E+00  0.16798456036E+02  0.16798456036E+02  0.00000000000E+00 0.  1.
          2   -1    0    0  501    0  0.00000000000E+00 -0.00000000000E+00 -0.19970446293E+03  0.19970446293E+03  0.00000000000E+00 0. -1.
         23    2    1    2    0    0 -0.19789881745E+02  0.40392663475E+01 -0.16409130386E+03  0.18889951080E+03  0.91373486779E+02 0.  0.
         13    1    3    3    0    0  0.71124033513E+00 -0.97069536099E+00  0.11742354555E+02  0.11803855421E+02  0.00000000000E+00 0.  1.
        -13    1    3    3    0    0 -0.20501122081E+02  0.50099617085E+01 -0.17583365841E+03  0.17709565538E+03  0.00000000000E+00 0. -1.
         22    1    1    2    0    0  0.19789881745E+02 -0.40392663475E+01 -0.18814703040E+02  0.27603408170E+02  0.00000000000E+00 0. -1.
<mgrwt>
<rscale>  0 0.63783903E+02</rscale>
<asrwt>0</asrwt>
<pdfrwt beam="1">  1        2 0.30723764E-01 0.93579213E+02</pdfrwt>
<pdfrwt beam="2">  1       -2 0.25843778E-02 0.93579213E+02</pdfrwt>
<totfact> 0.77969755E+04</totfact>
</mgrwt>
</event>
<event>
 6    1  0.2852411E-002  0.9050876E+02  0.7546771E-02  0.1415320E+00
          1   -1    0    0  501    0  0.00000000000E+00  0.00000000000E+00  0.11338881838E+04  0.11338881838E+04  0.00000000000E+00 0. -1.
         -1   -1    0    0    0  501 -0.00000000000E+00 -0.00000000000E+00 -0.44076517388E+01  0.44076517388E+01  0.00000000000E+00 0.  1.
         23    2    1    2    0    0 -0.13286436987E+02 -0.10946464511E-01  0.11149074099E+04  0.11185751505E+04  0.89528236940E+02 0.  0.
         11    1    3    3    0    0  0.35402615367E+01 -0.33822114387E+02  0.87952323674E+03  0.88018043198E+03  0.00000000000E+00 0. -1.
        -11    1    3    3    0    0 -0.16826698523E+02  0.33811167923E+02  0.23538417314E+03  0.23839471854E+03  0.00000000000E+00 0.  1.
         22    1    1    2    0    0  0.13286436987E+02  0.10946464511E-01  0.14573122162E+02  0.19720685007E+02  0.00000000000E+00 0.  1.
<mgrwt>
<rscale>  0 0.56023484E+02</rscale>
<asrwt>0</asrwt>
<pdfrwt beam="1">  1        1 0.17444410E+00 0.90508755E+02</pdfrwt>
<pdfrwt beam="2">  1       -1 0.67810117E-03 0.90508755E+02</pdfrwt>
<totfact> 0.38271012E+04</totfact>
</mgrwt>
</event>
<event>
 6    1  0.2852411E-002  0.9149951E+02  0.7546771E-02  0.1395074E+00
          2   -1    0    0  501    0  0.00000000000E+00  0.00000000000E+00  0.10967039256E+04  0.10967039256E+04  0.00000000000E+00 0. -1.
         -2   -1    0    0    0  501 -0.00000000000E+00 -0.00000000000E+00 -0.50104874193E+01  0.50104874193E+01  0.00000000000E+00 0.  1.
         23    2    1    2    0    0 -0.48310916403E+01  0.17004134221E+02  0.10691909753E+04  0.10730990175E+04  0.89775718175E+02 0.  0.
         11    1    3    3    0    0  0.23589023316E+02  0.39192875738E+02  0.34613583092E+03  0.34914543814E+03  0.00000000000E+00 0.  1.
        -11    1    3    3    0    0 -0.28420114956E+02 -0.22188741517E+02  0.72305514442E+03  0.72395357935E+03  0.00000000000E+00 0. -1.
         22    1    1    2    0    0  0.48310916403E+01 -0.17004134221E+02  0.22502462837E+02  0.28615395520E+02  0.00000000000E+00 0. -1.
<mgrwt>
<rscale>  0 0.60662017E+02</rscale>
<asrwt>0</asrwt>
<pdfrwt beam="1">  1        2 0.16872349E+00 0.91499506E+02</pdfrwt>
<pdfrwt beam="2">  1       -2 0.77084509E-03 0.91499506E+02</pdfrwt>
<totfact> 0.64132202E+04</totfact>
</mgrwt>
</event>
<event>
 6    1  0.2852411E-002  0.9721540E+02  0.7546771E-02  0.1419553E+00
         -2   -1    0    0    0  501 -0.00000000000E+00  0.00000000000E+00  0.38283268418E+01  0.38283268418E+01  0.00000000000E+00 0.  1.
          2   -1    0    0  501    0  0.00000000000E+00 -0.00000000000E+00 -0.75578532152E+03  0.75578532152E+03  0.00000000000E+00 0. -1.
         23    2    1    2    0    0  0.79457705463E+01 -0.61434201336E+01 -0.69691245566E+03  0.70366029139E+03  0.96695180576E+02 0.  0.
         11    1    3    3    0    0 -0.21125140868E+02 -0.40253360947E+02 -0.48112099918E+03  0.48326392426E+03  0.00000000000E+00 0. -1.
        -11    1    3    3    0    0  0.29070911414E+02  0.34109940814E+02 -0.21579145649E+03  0.22039636713E+03  0.00000000000E+00 0.  1.
         22    1    1    2    0    0 -0.79457705463E+01  0.61434201336E+01 -0.55044539012E+02  0.55953356964E+02  0.00000000000E+00 0. -1.
<mgrwt>
<rscale>  0 0.55115693E+02</rscale>
<asrwt>0</asrwt>
<pdfrwt beam="1">  1        2 0.11627465E+00 0.97215404E+02</pdfrwt>
<pdfrwt beam="2">  1       -2 0.58897346E-03 0.97215404E+02</pdfrwt>
<totfact> 0.15309427E+05</totfact>
</mgrwt>
</event>
<event>
 6    1  0.2852411E-002  0.1010335E+03  0.7546771E-02  0.1316372E+00
          2   -1    0    0  501    0  0.00000000000E+00  0.00000000000E+00  0.22323882940E+03  0.22323882940E+03  0.00000000000E+00 0.  1.
         -2   -1    0    0    0  501 -0.00000000000E+00 -0.00000000000E+00 -0.10131955283E+03  0.10131955283E+03  0.00000000000E+00 0. -1.
         23    2    1    2    0    0  0.10934893274E+02 -0.48550616528E+02  0.20452538298E+03  0.22811926635E+03  0.87926293793E+02 0.  0.
         13    1    3    3    0    0  0.36997305692E+02  0.14334806242E+00  0.39609359078E+02  0.54200761099E+02  0.00000000000E+00 0. -1.
        -13    1    3    3    0    0 -0.26062412418E+02 -0.48693964590E+02  0.16491602390E+03  0.17391850525E+03  0.00000000000E+00 0.  1.
         22    1    1    2    0    0 -0.10934893274E+02  0.48550616528E+02 -0.82606106406E+02  0.96439115880E+02  0.00000000000E+00 0. -1.
<mgrwt>
<rscale>  0 0.84641619E+02</rscale>
<asrwt>0</asrwt>
<pdfrwt beam="1">  1        2 0.34344435E-01 0.10103350E+03</pdfrwt>
<pdfrwt beam="2">  1       -2 0.15587624E-01 0.10103350E+03</pdfrwt>
<totfact> 0.45615584E+03</totfact>
</mgrwt>
</event>
<event>
 6    1  0.2852411E-002  0.9368678E+02  0.7546771E-02  0.1422471E+00
         -2   -1    0    0    0  501 -0.00000000000E+00  0.00000000000E+00  0.56105709346E+01  0.56105709346E+01  0.00000000000E+00 0. -1.
          2   -1    0    0  501    0  0.00000000000E+00 -0.00000000000E+00 -0.91267168757E+03  0.91267168757E+03  0.00000000000E+00 0.  1.
         23    2    1    2    0    0  0.76508225775E+01 -0.75232742352E+01 -0.90119826076E+03  0.90605491945E+03  0.93070280529E+02 0.  0.
         11    1    3    3    0    0  0.85937473131E+01 -0.26722954261E+02 -0.82760993734E+02  0.87391938193E+02  0.00000000000E+00 0. -1.
        -11    1    3    3    0    0 -0.94292473568E+00  0.19199680026E+02 -0.81843726703E+03  0.81866298126E+03  0.00000000000E+00 0.  1.
         22    1    1    2    0    0 -0.76508225775E+01  0.75232742352E+01 -0.58628558707E+01  0.12227339052E+02  0.00000000000E+00 0. -1.
<mgrwt>
<rscale>  0 0.54501633E+02</rscale>
<asrwt>0</asrwt>
<pdfrwt beam="1">  1        2 0.14041092E+00 0.93686775E+02</pdfrwt>
<pdfrwt beam="2">  1       -2 0.86316546E-03 0.93686775E+02</pdfrwt>
<totfact> 0.70289695E+04</totfact>
</mgrwt>
</event>
<event>
 6    1  0.2852411E-002  0.9297422E+02  0.7546771E-02  0.1362282E+00
          3   -1    0    0  501    0  0.00000000000E+00  0.00000000000E+00  0.28183007822E+02  0.28183007822E+02  0.00000000000E+00 0. -1.
         -3   -1    0    0    0  501 -0.00000000000E+00 -0.00000000000E+00 -0.22570477898E+03  0.22570477898E+03  0.00000000000E+00 0.  1.
         23    2    1    2    0    0 -0.19030205326E+02 -0.21613422707E+02 -0.54027066811E+02  0.10753199111E+03  0.88402015864E+02 0.  0.
         13    1    3    3    0    0 -0.22703597522E+01  0.29791635808E+02  0.16480196093E+01  0.29923436737E+02  0.00000000000E+00 0. -1.
        -13    1    3    3    0    0 -0.16759845574E+02 -0.51405058515E+02 -0.55675086420E+02  0.77608554377E+02  0.00000000000E+00 0.  1.
         22    1    1    2    0    0  0.19030205326E+02  0.21613422707E+02 -0.14349470435E+03  0.14635579569E+03  0.00000000000E+00 0. -1.
<mgrwt>
<rscale>  0 0.69360166E+02</rscale>
<asrwt>0</asrwt>
<pdfrwt beam="1">  1        3 0.43358474E-02 0.92974218E+02</pdfrwt>
<pdfrwt beam="2">  1       -3 0.34723812E-01 0.92974218E+02</pdfrwt>
<totfact> 0.49008830E+03</totfact>
</mgrwt>
</event>
<event>
 6    1  0.2852411E-002  0.1048626E+03  0.7546771E-02  0.1319190E+00
          2   -1    0    0  501    0  0.00000000000E+00  0.00000000000E+00  0.13472783695E+04  0.13472783695E+04  0.00000000000E+00 0. -1.
         -2   -1    0    0    0  501 -0.00000000000E+00 -0.00000000000E+00 -0.72145152253E+02  0.72145152253E+02  0.00000000000E+00 0.  1.
         23    2    1    2    0    0  0.40162522787E+01  0.42128044450E+02  0.13388407960E+04  0.13429411186E+04  0.95944092056E+02 0.  0.
         13    1    3    3    0    0 -0.22603274726E+02  0.53340627020E+02  0.46107672554E+03  0.46470192313E+03  0.00000000000E+00 0.  1.
        -13    1    3    3    0    0  0.26619527004E+02 -0.11212582570E+02  0.87776407042E+03  0.87823919552E+03  0.00000000000E+00 0. -1.
         22    1    1    2    0    0 -0.40162522787E+01 -0.42128044450E+02 -0.63707578673E+02  0.76482403152E+02  0.00000000000E+00 0.  1.
<mgrwt>
<rscale>  0 0.83579458E+02</rscale>
<asrwt>0</asrwt>
<pdfrwt beam="1">  1        2 0.20727358E+00 0.10486263E+03</pdfrwt>
<pdfrwt beam="2">  1       -2 0.11099255E-01 0.10486263E+03</pdfrwt>
<totfact> 0.94251269E+02</totfact>
</mgrwt>
</event>
<event>
 6    1  0.2852411E-002  0.9321684E+02  0.7546771E-02  0.1415332E+00
          2   -1    0    0  501    0  0.00000000000E+00  0.00000000000E+00  0.35012608619E+03  0.35012608619E+03  0.00000000000E+00 0. -1.
         -2   -1    0    0    0  501 -0.00000000000E+00 -0.00000000000E+00 -0.98640168346E+01  0.98640168346E+01  0.00000000000E+00 0.  1.
         23    2    1    2    0    0  0.12103822755E+02  0.11623098808E+01  0.33305758641E+03  0.34585652371E+03  0.92420374598E+02 0.  0.
         11    1    3    3    0    0 -0.52139962044E+00 -0.96806028154E+00  0.33305100764E+03  0.33305282267E+03  0.00000000000E+00 0. -1.
        -11    1    3    3    0    0  0.12625222376E+02  0.21303701624E+01  0.65787667837E-02  0.12803701041E+02  0.00000000000E+00 0.  1.
         22    1    1    2    0    0 -0.12103822755E+02 -0.11623098808E+01  0.72044829410E+01  0.14133579306E+02  0.00000000000E+00 0.  1.
<mgrwt>
<rscale>  0 0.56020854E+02</rscale>
<asrwt>0</asrwt>
<pdfrwt beam="1">  1        2 0.53865542E-01 0.93216839E+02</pdfrwt>
<pdfrwt beam="2">  1       -2 0.15175413E-02 0.93216839E+02</pdfrwt>
<totfact> 0.92782216E+04</totfact>
</mgrwt>
</event>
<event>
 6    1  0.2852411E-002  0.9027748E+02  0.7546771E-02  0.1384348E+00
          4   -1    0    0  501    0  0.00000000000E+00  0.00000000000E+00  0.86057086696E+02  0.86057086696E+02  0.00000000000E+00 0. -1.
         -4   -1    0    0    0  501 -0.00000000000E+00 -0.00000000000E+00 -0.54633860105E+02  0.54633860105E+02  0.00000000000E+00 0.  1.
         23    2    1    2    0    0  0.11292218478E+02 -0.18727707410E+02  0.57210962207E+02  0.10687898840E+03  0.87588713547E+02 0.  0.
         13    1    3    3    0    0 -0.15347968472E+02  0.12008239381E+02 -0.14599328368E+02  0.24349503857E+02  0.00000000000E+00 0.  1.
        -13    1    3    3    0    0  0.26640186951E+02 -0.30735946791E+02  0.71810290575E+02  0.82529484539E+02  0.00000000000E+00 0. -1.
         22    1    1    2    0    0 -0.11292218478E+02  0.18727707410E+02 -0.25787735616E+02  0.33811958405E+02  0.00000000000E+00 0.  1.
<mgrwt>
<rscale>  0 0.63334516E+02</rscale>
<asrwt>0</asrwt>
<pdfrwt beam="1">  1        4 0.13239552E-01 0.90277483E+02</pdfrwt>
<pdfrwt beam="2">  1       -4 0.84052092E-02 0.90277483E+02</pdfrwt>
<totfact> 0.69473110E+03</totfact>
</mgrwt>
</event>
<event>
 6    1  0.2852411E-002  0.8669307E+02  0.7546771E-02  0.1402411E+00
         -2   -1    0    0    0  501 -0.00000000000E+00  0.00000000000E+00  0.88593796113E+01  0.88593796113E+01  0.00000000000E+00 0.  1.
          2   -1    0    0  501    0  0.00000000000E+00 -0.00000000000E+00 -0.16718064392E+04  0.16718064392E+04  0.00000000000E+00 0. -1.
         23    2    1    2    0    0 -0.11696827581E+02  0.14332462463E+02 -0.16596037843E+04  0.16618665437E+04  0.84696239488E+02 0.  0.
         13    1    3    3    0    0  0.28103970980E+02 -0.13854373167E+02 -0.36432693672E+03  0.36567183875E+03  0.00000000000E+00 0.  1.
        -13    1    3    3    0    0 -0.39800798561E+02  0.28186835631E+02 -0.12952768476E+04  0.12961947050E+04  0.00000000000E+00 0. -1.
         22    1    1    2    0    0  0.11696827581E+02 -0.14332462463E+02 -0.33432753226E+01  0.18799275135E+02  0.00000000000E+00 0.  1.
<mgrwt>
<rscale>  0 0.58922190E+02</rscale>
<asrwt>0</asrwt>
<pdfrwt beam="1">  1        2 0.25720080E+00 0.86693069E+02</pdfrwt>
<pdfrwt beam="2">  1       -2 0.13629825E-02 0.86693069E+02</pdfrwt>
<totfact> 0.14240513E+04</totfact>
</mgrwt>
</event>
<event>
 6    1  0.2852411E-002  0.1088259E+03  0.7546771E-02  0.1290409E+00
          2   -1    0    0  501    0  0.00000000000E+00  0.00000000000E+00  0.15792056109E+04  0.15792056109E+04  0.00000000000E+00 0. -1.
         -2   -1    0    0    0  501 -0.00000000000E+00 -0.00000000000E+00 -0.15330333752E+02  0.15330333752E+02  0.00000000000E+00 0.  1.
         23    2    1    2    0    0  0.61748056138E+02 -0.17243003890E+02  0.15003205067E+04  0.15042621807E+04  0.87937145965E+02 0.  0.
         11    1    3    3    0    0 -0.19226283670E+02  0.95189361175E+01  0.19980928492E+03  0.20095773304E+03  0.00000000000E+00 0.  1.
        -11    1    3    3    0    0  0.80974339808E+02 -0.26761940007E+02  0.13005112218E+04  0.13033044476E+04  0.00000000000E+00 0. -1.
         22    1    1    2    0    0 -0.61748056138E+02  0.17243003890E+02  0.63554770383E+02  0.90273763954E+02  0.00000000000E+00 0.  1.
<mgrwt>
<rscale>  0 0.95341383E+02</rscale>
<asrwt>0</asrwt>
<pdfrwt beam="1">  1        2 0.24295458E+00 0.10882594E+03</pdfrwt>
<pdfrwt beam="2">  1       -2 0.23585141E-02 0.10882594E+03</pdfrwt>
<totfact> 0.73007291E+03</totfact>
</mgrwt>
</event>
<event>
 6    1  0.2852411E-002  0.1017296E+03  0.7546771E-02  0.1335636E+00
          2   -1    0    0  501    0  0.00000000000E+00  0.00000000000E+00  0.56048015269E+03  0.56048015269E+03  0.00000000000E+00 0. -1.
         -2   -1    0    0    0  501 -0.00000000000E+00 -0.00000000000E+00 -0.83111597254E+01  0.83111597254E+01  0.00000000000E+00 0.  1.
         23    2    1    2    0    0  0.25715830856E+02 -0.23245129215E+02  0.40175133373E+03  0.41443098009E+03  0.95641325315E+02 0.  0.
         11    1    3    3    0    0  0.13792700975E+02  0.27167562642E+02  0.47635518942E+02  0.56546067281E+02  0.00000000000E+00 0.  1.
        -11    1    3    3    0    0  0.11923129881E+02 -0.50412691857E+02  0.35411581479E+03  0.35788491280E+03  0.00000000000E+00 0. -1.
         22    1    1    2    0    0 -0.25715830856E+02  0.23245129215E+02  0.15041765923E+03  0.15436033233E+03  0.00000000000E+00 0.  1.
<mgrwt>
<rscale>  0 0.77724362E+02</rscale>
<asrwt>0</asrwt>
<pdfrwt beam="1">  1        2 0.86227686E-01 0.10172956E+03</pdfrwt>
<pdfrwt beam="2">  1       -2 0.12786404E-02 0.10172956E+03</pdfrwt>
<totfact> 0.72473225E+04</totfact>
</mgrwt>
</event>
<event>
 6    1  0.2852411E-002  0.9676201E+02  0.7546771E-02  0.1352882E+00
         -2   -1    0    0    0  501 -0.00000000000E+00  0.00000000000E+00  0.31101086541E+03  0.31101086541E+03  0.00000000000E+00 0. -1.
          2   -1    0    0  501    0  0.00000000000E+00 -0.00000000000E+00 -0.13716876788E+02  0.13716876788E+02  0.00000000000E+00 0.  1.
         23    2    1    2    0    0  0.73969038560E+01  0.29007775788E+02  0.25637452096E+03  0.27402697221E+03  0.92014788281E+02 0.  0.
         11    1    3    3    0    0  0.13001766231E+02  0.24924219426E+02  0.26296310214E+03  0.26446144469E+03  0.00000000000E+00 0. -1.
        -11    1    3    3    0    0 -0.56048623747E+01  0.40835563619E+01 -0.65885811852E+01  0.95655275251E+01  0.00000000000E+00 0.  1.
         22    1    1    2    0    0 -0.73969038560E+01 -0.29007775788E+02  0.40919467664E+02  0.50700769981E+02  0.00000000000E+00 0.  1.
<mgrwt>
<rscale>  0 0.72165092E+02</rscale>
<asrwt>0</asrwt>
<pdfrwt beam="1">  1        2 0.21102890E-02 0.96762010E+02</pdfrwt>
<pdfrwt beam="2">  1       -2 0.47847820E-01 0.96762010E+02</pdfrwt>
<totfact> 0.18948977E+04</totfact>
</mgrwt>
</event>
<event>
 6    1  0.2852411E-002  0.9342346E+02  0.7546771E-02  0.1376994E+00
          1   -1    0    0  501    0  0.00000000000E+00  0.00000000000E+00  0.20956376941E+03  0.20956376941E+03  0.00000000000E+00 0. -1.
         -1   -1    0    0    0  501 -0.00000000000E+00 -0.00000000000E+00 -0.22038997819E+02  0.22038997819E+02  0.00000000000E+00 0.  1.
         23    2    1    2    0    0  0.19794646524E+02  0.10150058487E+02  0.18735622467E+03  0.20935686589E+03  0.90736380000E+02 0.  0.
         13    1    3    3    0    0 -0.28668522683E+02  0.28683157127E+02  0.67395811058E+02  0.78656233343E+02  0.00000000000E+00 0.  1.
        -13    1    3    3    0    0  0.48463169207E+02 -0.18533098640E+02  0.11996041361E+03  0.13070063255E+03  0.00000000000E+00 0. -1.
         22    1    1    2    0    0 -0.19794646524E+02 -0.10150058487E+02  0.16854692217E+00  0.22245901338E+02  0.00000000000E+00 0.  1.
<mgrwt>
<rscale>  0 0.65260641E+02</rscale>
<asrwt>0</asrwt>
<pdfrwt beam="1">  1        1 0.32240579E-01 0.93423457E+02</pdfrwt>
<pdfrwt beam="2">  1       -1 0.33906152E-02 0.93423457E+02</pdfrwt>
<totfact> 0.38214269E+04</totfact>
</mgrwt>
</event>
<event>
 6    1  0.2852411E-002  0.9378843E+02  0.7546771E-02  0.1407712E+00
         -3   -1    0    0    0  501 -0.00000000000E+00  0.00000000000E+00  0.75824956261E+02  0.75824956261E+02  0.00000000000E+00 0.  1.
          3   -1    0    0  501    0  0.00000000000E+00 -0.00000000000E+00 -0.39095584193E+02  0.39095584193E+02  0.00000000000E+00 0. -1.
         23    2    1    2    0    0 -0.11013932121E+02  0.77067569045E+01  0.24957733193E+02  0.97052348477E+02  0.92820089937E+02 0.  0.
         11    1    3    3    0    0 -0.34455501595E+02 -0.85305255950E+01  0.48480915506E+02  0.60086193301E+02  0.00000000000E+00 0.  1.
        -11    1    3    3    0    0  0.23441569474E+02  0.16237282499E+02 -0.23523182312E+02  0.36966155176E+02  0.00000000000E+00 0. -1.
         22    1    1    2    0    0  0.11013932121E+02 -0.77067569045E+01  0.11771638874E+02  0.17868191977E+02  0.00000000000E+00 0.  1.
<mgrwt>
<rscale>  0 0.57707461E+02</rscale>
<asrwt>0</asrwt>
<pdfrwt beam="1">  1        3 0.60147053E-02 0.93788432E+02</pdfrwt>
<pdfrwt beam="2">  1       -3 0.11665378E-01 0.93788432E+02</pdfrwt>
<totfact> 0.19871116E+04</totfact>
</mgrwt>
</event>
<event>
 6    1  0.2852411E-002  0.9317644E+02  0.7546771E-02  0.1380487E+00
          2   -1    0    0  501    0  0.00000000000E+00  0.00000000000E+00  0.39631066530E+03  0.39631066530E+03  0.00000000000E+00 0. -1.
         -2   -1    0    0    0  501 -0.00000000000E+00 -0.00000000000E+00 -0.88779570657E+01  0.88779570657E+01  0.00000000000E+00 0.  1.
         23    2    1    2    0    0  0.77471249933E+01  0.19710717386E+02  0.34989226588E+03  0.36208624265E+03  0.90737638627E+02 0.  0.
         13    1    3    3    0    0 -0.38572630110E+01 -0.17871286943E+02  0.11903169212E+02  0.21816205266E+02  0.00000000000E+00 0.  1.
        -13    1    3    3    0    0  0.11604388004E+02  0.37582004329E+02  0.33798909667E+03  0.34027003738E+03  0.00000000000E+00 0. -1.
         22    1    1    2    0    0 -0.77471249933E+01 -0.19710717386E+02  0.37540442350E+02  0.43102379718E+02  0.00000000000E+00 0.  1.
<mgrwt>
<rscale>  0 0.64335928E+02</rscale>
<asrwt>0</asrwt>
<pdfrwt beam="1">  1        2 0.60970858E-01 0.93176442E+02</pdfrwt>
<pdfrwt beam="2">  1       -2 0.13658399E-02 0.93176442E+02</pdfrwt>
<totfact> 0.94659181E+04</totfact>
</mgrwt>
</event>
<event>
 6    1  0.2852411E-002  0.9499667E+02  0.7546771E-02  0.1393394E+00
         -2   -1    0    0    0  501 -0.00000000000E+00  0.00000000000E+00  0.11216399075E+03  0.11216399075E+03  0.00000000000E+00 0.  1.
          2   -1    0    0  501    0  0.00000000000E+00 -0.00000000000E+00 -0.35094813853E+02  0.35094813853E+02  0.00000000000E+00 0. -1.
         23    2    1    2    0    0 -0.10648221369E+02 -0.12242610919E+02  0.33440439396E+02  0.10071062659E+03  0.93600754168E+02 0.  0.
         11    1    3    3    0    0  0.33180040062E+01 -0.28522505169E+02 -0.25241173703E+02  0.38231653137E+02  0.00000000000E+00 0. -1.
        -11    1    3    3    0    0 -0.13966225375E+02  0.16279894249E+02  0.58681613098E+02  0.62478973454E+02  0.00000000000E+00 0.  1.
         22    1    1    2    0    0  0.10648221369E+02  0.12242610919E+02  0.43628737503E+02  0.46548178016E+02  0.00000000000E+00 0.  1.
<mgrwt>
<rscale>  0 0.61070386E+02</rscale>
<asrwt>0</asrwt>
<pdfrwt beam="1">  1        2 0.53992022E-02 0.94996670E+02</pdfrwt>
<pdfrwt beam="2">  1       -2 0.17255998E-01 0.94996670E+02</pdfrwt>
<totfact> 0.33580056E+04</totfact>
</mgrwt>
</event>
<event>
 6    1  0.2852411E-002  0.1000046E+03  0.7546771E-02  0.1329605E+00
         -4   -1    0    0    0  501 -0.00000000000E+00  0.00000000000E+00  0.52668767927E+02  0.52668767927E+02  0.00000000000E+00 0.  1.
          4   -1    0    0  501    0  0.00000000000E+00 -0.00000000000E+00 -0.11428334311E+03  0.11428334311E+03  0.00000000000E+00 0. -1.
         23    2    1    2    0    0  0.34364237650E+02 -0.21540059000E+02 -0.74157206020E+02  0.12449987248E+03  0.91411443871E+02 0.  0.
         11    1    3    3    0    0 -0.23782644477E+02 -0.30267393982E+02 -0.43856340091E+02  0.58353302246E+02  0.00000000000E+00 0. -1.
        -11    1    3    3    0    0  0.58146882128E+02  0.87273349822E+01 -0.30300865929E+02  0.66146570229E+02  0.00000000000E+00 0.  1.
         22    1    1    2    0    0 -0.34364237650E+02  0.21540059000E+02  0.12542630832E+02  0.42452238565E+02  0.00000000000E+00 0. -1.
<mgrwt>
<rscale>  0 0.79805295E+02</rscale>
<asrwt>0</asrwt>
<pdfrwt beam="1">  1        4 0.17582053E-01 0.10000464E+03</pdfrwt>
<pdfrwt beam="2">  1       -4 0.81028873E-02 0.10000464E+03</pdfrwt>
<totfact> 0.46412641E+03</totfact>
</mgrwt>
</event>
<event>
 6    1  0.2852411E-002  0.8924437E+02  0.7546771E-02  0.1352720E+00
         -2   -1    0    0    0  501 -0.00000000000E+00  0.00000000000E+00  0.14182152359E+02  0.14182152359E+02  0.00000000000E+00 0.  1.
          2   -1    0    0  501    0  0.00000000000E+00 -0.00000000000E+00 -0.43337842600E+03  0.43337842600E+03  0.00000000000E+00 0. -1.
         23    2    1    2    0    0  0.29150864025E+02  0.24781656960E+02 -0.38818078303E+03  0.39830751700E+03  0.80626635744E+02 0.  0.
         11    1    3    3    0    0  0.18075477718E+02 -0.27283306688E+02 -0.20326183255E+03  0.20587975687E+03  0.00000000000E+00 0.  1.
        -11    1    3    3    0    0  0.11075386307E+02  0.52064963648E+02 -0.18491895048E+03  0.19242776012E+03  0.00000000000E+00 0. -1.
         22    1    1    2    0    0 -0.29150864025E+02 -0.24781656960E+02 -0.31015490611E+02  0.49253061356E+02  0.00000000000E+00 0.  1.
<mgrwt>
<rscale>  0 0.72214545E+02</rscale>
<asrwt>0</asrwt>
<pdfrwt beam="1">  1        2 0.66673588E-01 0.89244371E+02</pdfrwt>
<pdfrwt beam="2">  1       -2 0.21818701E-02 0.89244371E+02</pdfrwt>
<totfact> 0.43796928E+04</totfact>
</mgrwt>
</event>
<event>
 6    1  0.2852411E-002  0.1182048E+03  0.7546771E-02  0.1268002E+00
         -2   -1    0    0    0  501 -0.00000000000E+00  0.00000000000E+00  0.86233260409E+01  0.86233260409E+01  0.00000000000E+00 0.  1.
          2   -1    0    0  501    0  0.00000000000E+00 -0.00000000000E+00 -0.11027708881E+04  0.11027708881E+04  0.00000000000E+00 0. -1.
         23    2    1    2    0    0  0.72570259529E+02  0.24758733867E+02 -0.68487103555E+03  0.69499691273E+03  0.89960746438E+02 0.  0.
         13    1    3    3    0    0 -0.20425004006E+02  0.80084033642E+01 -0.88054279574E+02  0.90746192562E+02  0.00000000000E+00 0. -1.
        -13    1    3    3    0    0  0.92995263535E+02  0.16750330502E+02 -0.59681675598E+03  0.60425072017E+03  0.00000000000E+00 0.  1.
         22    1    1    2    0    0 -0.72570259529E+02 -0.24758733867E+02 -0.40927652656E+03  0.41639730146E+03  0.00000000000E+00 0. -1.
<mgrwt>
<rscale>  0 0.10608239E+03</rscale>
<asrwt>0</asrwt>
<pdfrwt beam="1">  1        2 0.16965692E+00 0.11820479E+03</pdfrwt>
<pdfrwt beam="2">  1       -2 0.13266666E-02 0.11820479E+03</pdfrwt>
<totfact> 0.30171888E+04</totfact>
</mgrwt>
</event>
<event>
 6    1  0.2852411E-002  0.9395557E+02  0.7546771E-02  0.1372609E+00
         -1   -1    0    0    0  501 -0.00000000000E+00  0.00000000000E+00  0.15632081864E+03  0.15632081864E+03  0.00000000000E+00 0.  1.
          1   -1    0    0  501    0  0.00000000000E+00 -0.00000000000E+00 -0.22065118067E+02  0.22065118067E+02  0.00000000000E+00 0. -1.
         23    2    1    2    0    0  0.33164185798E+01  0.23268566097E+02  0.10707758980E+03  0.14245441147E+03  0.90968259904E+02 0.  0.
         11    1    3    3    0    0  0.44552544142E+02 -0.33115802037E+01  0.46182853471E+02  0.64255363260E+02  0.00000000000E+00 0.  1.
        -11    1    3    3    0    0 -0.41236125562E+02  0.26580146300E+02  0.60894736329E+02  0.78199048212E+02  0.00000000000E+00 0. -1.
         22    1    1    2    0    0 -0.33164185798E+01 -0.23268566097E+02  0.27178110769E+02  0.35931525230E+02  0.00000000000E+00 0.  1.
<mgrwt>
<rscale>  0 0.66447102E+02</rscale>
<asrwt>0</asrwt>
<pdfrwt beam="1">  1        1 0.33946336E-02 0.93955570E+02</pdfrwt>
<pdfrwt beam="2">  1       -1 0.24049356E-01 0.93955570E+02</pdfrwt>
<totfact> 0.37102674E+04</totfact>
</mgrwt>
</event>
<event>
 6    1  0.2852411E-002  0.9182381E+02  0.7546771E-02  0.1421668E+00
          2   -1    0    0  501    0  0.00000000000E+00  0.00000000000E+00  0.23716021975E+04  0.23716021975E+04  0.00000000000E+00 0. -1.
         -2   -1    0    0    0  501 -0.00000000000E+00 -0.00000000000E+00 -0.33613208385E+01  0.33613208385E+01  0.00000000000E+00 0.  1.
         23    2    1    2    0    0  0.11535169225E+02  0.24092846586E+00  0.23572207571E+04  0.23590085438E+04  0.91096070855E+02 0.  0.
         11    1    3    3    0    0  0.26374348985E+02 -0.29121878155E+02  0.19702706451E+04  0.19706623519E+04  0.00000000000E+00 0. -1.
        -11    1    3    3    0    0 -0.14839179760E+02  0.29362806621E+02  0.38695011193E+03  0.38834619194E+03  0.00000000000E+00 0.  1.
         22    1    1    2    0    0 -0.11535169225E+02 -0.24092846586E+00  0.11020119572E+02  0.15954974489E+02  0.00000000000E+00 0.  1.
<mgrwt>
<rscale>  0 0.54669633E+02</rscale>
<asrwt>0</asrwt>
<pdfrwt beam="1">  1        2 0.36486054E+00 0.91823811E+02</pdfrwt>
<pdfrwt beam="2">  1       -2 0.51712818E-03 0.91823811E+02</pdfrwt>
<totfact> 0.24858897E+04</totfact>
</mgrwt>
</event>
<event>
 6    1  0.2852411E-002  0.9205294E+02  0.7546771E-02  0.1396394E+00
          2   -1    0    0  501    0  0.00000000000E+00  0.00000000000E+00  0.74058820603E+03  0.74058820603E+03  0.00000000000E+00 0. -1.
         -2   -1    0    0    0  501 -0.00000000000E+00 -0.00000000000E+00 -0.58754667394E+01  0.58754667394E+01  0.00000000000E+00 0.  1.
         23    2    1    2    0    0 -0.15496091713E+02 -0.69878960835E+01  0.71285502312E+03  0.71877397601E+03  0.90469801936E+02 0.  0.
         13    1    3    3    0    0 -0.65082656041E+01 -0.69218301152E+01  0.70888416561E+03  0.70894783271E+03  0.00000000000E+00 0. -1.
        -13    1    3    3    0    0 -0.89878261092E+01 -0.66065968302E-01  0.39708575076E+01  0.98261433038E+01  0.00000000000E+00 0.  1.
         22    1    1    2    0    0  0.15496091713E+02  0.69878960835E+01  0.21857716174E+02  0.27689696755E+02  0.00000000000E+00 0.  1.
<mgrwt>
<rscale>  0 0.60343833E+02</rscale>
<asrwt>0</asrwt>
<pdfrwt beam="1">  1        2 0.11393657E+00 0.92052945E+02</pdfrwt>
<pdfrwt beam="2">  1       -2 0.90391855E-03 0.92052945E+02</pdfrwt>
<totfact> 0.85094246E+04</totfact>
</mgrwt>
</event>
<event>
 6    1  0.2852411E-002  0.9107951E+02  0.7546771E-02  0.1416930E+00
         -2   -1    0    0    0  501 -0.00000000000E+00  0.00000000000E+00  0.47781127526E+02  0.47781127526E+02  0.00000000000E+00 0.  1.
          2   -1    0    0  501    0  0.00000000000E+00 -0.00000000000E+00 -0.76933204165E+02  0.76933204165E+02  0.00000000000E+00 0. -1.
         23    2    1    2    0    0 -0.84274534123E+01 -0.95244037650E+01 -0.47241100229E+02  0.10260214020E+03  0.90187257331E+02 0.  0.
         13    1    3    3    0    0 -0.24610402370E+02 -0.33585302817E+02 -0.58237005113E+02  0.71590454913E+02  0.00000000000E+00 0. -1.
        -13    1    3    3    0    0  0.16182948958E+02  0.24060899052E+02  0.10995904884E+02  0.31011685288E+02  0.00000000000E+00 0.  1.
         22    1    1    2    0    0  0.84274534123E+01  0.95244037650E+01  0.18089023590E+02  0.22112191491E+02  0.00000000000E+00 0.  1.
<mgrwt>
<rscale>  0 0.55675797E+02</rscale>
<asrwt>0</asrwt>
<pdfrwt beam="1">  1        2 0.11835877E-01 0.91079513E+02</pdfrwt>
<pdfrwt beam="2">  1       -2 0.73509428E-02 0.91079513E+02</pdfrwt>
<totfact> 0.48432748E+04</totfact>
</mgrwt>
</event>
<event>
 6    1  0.2852411E-002  0.9637800E+02  0.7546771E-02  0.1363252E+00
          2   -1    0    0  501    0  0.00000000000E+00  0.00000000000E+00  0.16014038031E+04  0.16014038031E+04  0.00000000000E+00 0. -1.
         -2   -1    0    0    0  501 -0.00000000000E+00 -0.00000000000E+00 -0.32006628571E+01  0.32006628571E+01  0.00000000000E+00 0.  1.
         23    2    1    2    0    0 -0.42317696488E+00  0.25432920769E+02  0.15022063795E+04  0.15052948963E+04  0.92960776164E+02 0.  0.
         11    1    3    3    0    0 -0.31139945016E+01  0.11631876066E+02  0.14711998747E+04  0.14712491525E+04  0.00000000000E+00 0. -1.
        -11    1    3    3    0    0  0.26908175368E+01  0.13801044703E+02  0.31006504774E+02  0.34045743819E+02  0.00000000000E+00 0.  1.
         22    1    1    2    0    0  0.42317696488E+00 -0.25432920769E+02  0.95996760775E+02  0.99309569613E+02  0.00000000000E+00 0.  1.
<mgrwt>
<rscale>  0 0.69079234E+02</rscale>
<asrwt>0</asrwt>
<pdfrwt beam="1">  1        2 0.24636918E+00 0.96377998E+02</pdfrwt>
<pdfrwt beam="2">  1       -2 0.49241095E-03 0.96377998E+02</pdfrwt>
<totfact> 0.65594943E+04</totfact>
</mgrwt>
</event>
<event>
 6    1  0.2852411E-002  0.9317155E+02  0.7546771E-02  0.1380852E+00
          2   -1    0    0  501    0  0.00000000000E+00  0.00000000000E+00  0.29650103592E+04  0.29650103592E+04  0.00000000000E+00 0. -1.
         -2   -1    0    0    0  501 -0.00000000000E+00 -0.00000000000E+00 -0.15611451136E+02  0.15611451136E+02  0.00000000000E+00 0.  1.
         23    2    1    2    0    0  0.12325870814E+02 -0.17071710124E+02  0.29568262959E+04  0.29582938801E+04  0.90761040489E+02 0.  0.
         13    1    3    3    0    0  0.84505124246E+00 -0.52358540430E+02  0.21179597369E+04  0.21186069900E+04  0.00000000000E+00 0. -1.
        -13    1    3    3    0    0  0.11480819572E+02  0.35286830306E+02  0.83886655898E+03  0.83968689009E+03  0.00000000000E+00 0.  1.
         22    1    1    2    0    0 -0.12325870814E+02  0.17071710124E+02 -0.74273878546E+01  0.22327930227E+02  0.00000000000E+00 0.  1.
<mgrwt>
<rscale>  0 0.64240411E+02</rscale>
<asrwt>0</asrwt>
<pdfrwt beam="1">  1        2 0.45615499E+00 0.93171545E+02</pdfrwt>
<pdfrwt beam="2">  1       -2 0.24017641E-02 0.93171545E+02</pdfrwt>
<totfact> 0.13437933E+03</totfact>
</mgrwt>
</event>
<event>
 6    1  0.2852411E-002  0.9226243E+02  0.7546771E-02  0.1398280E+00
         -2   -1    0    0    0  501 -0.00000000000E+00  0.00000000000E+00  0.30639086533E+02  0.30639086533E+02  0.00000000000E+00 0. -1.
          2   -1    0    0  501    0  0.00000000000E+00 -0.00000000000E+00 -0.96500583879E+02  0.96500583879E+02  0.00000000000E+00 0.  1.
         23    2    1    2    0    0 -0.14286842413E+02  0.80215428433E+01 -0.57874088296E+02  0.10891173254E+03  0.90795905045E+02 0.  0.
         13    1    3    3    0    0 -0.16690265845E+02  0.29271415653E+02  0.12054085316E+02  0.35786613714E+02  0.00000000000E+00 0. -1.
        -13    1    3    3    0    0  0.24034234325E+01 -0.21249872810E+02 -0.69928173612E+02  0.73125118826E+02  0.00000000000E+00 0.  1.
         22    1    1    2    0    0  0.14286842413E+02 -0.80215428433E+01 -0.79874090495E+01  0.18227937871E+02  0.00000000000E+00 0.  1.
<mgrwt>
<rscale>  0 0.59893322E+02</rscale>
<asrwt>0</asrwt>
<pdfrwt beam="1">  1        2 0.14846244E-01 0.92262427E+02</pdfrwt>
<pdfrwt beam="2">  1       -2 0.47137056E-02 0.92262427E+02</pdfrwt>
<totfact> 0.72407236E+04</totfact>
</mgrwt>
</event>
<event>
 6    1  0.2852411E-002  0.9596386E+02  0.7546771E-02  0.1390155E+00
          2   -1    0    0  501    0  0.00000000000E+00  0.00000000000E+00  0.24470890078E+03  0.24470890078E+03  0.00000000000E+00 0.  1.
         -2   -1    0    0    0  501 -0.00000000000E+00 -0.00000000000E+00 -0.14164235086E+02  0.14164235086E+02  0.00000000000E+00 0. -1.
         23    2    1    2    0    0 -0.83253259066E+01 -0.14336686652E+02  0.21766143735E+03  0.23787720273E+03  0.94520953412E+02 0.  0.
         13    1    3    3    0    0 -0.44392785531E+02 -0.11438253939E+02  0.17961152701E+03  0.18536950584E+03  0.00000000000E+00 0.  1.
        -13    1    3    3    0    0  0.36067459624E+02 -0.28984327131E+01  0.38049910343E+02  0.52507696894E+02  0.00000000000E+00 0. -1.
         22    1    1    2    0    0  0.83253259066E+01  0.14336686652E+02  0.12883228339E+02  0.20995933131E+02  0.00000000000E+00 0. -1.
<mgrwt>
<rscale>  0 0.61868284E+02</rscale>
<asrwt>0</asrwt>
<pdfrwt beam="1">  1        2 0.37647520E-01 0.95963859E+02</pdfrwt>
<pdfrwt beam="2">  1       -2 0.21791133E-02 0.95963859E+02</pdfrwt>
<totfact> 0.80701897E+04</totfact>
</mgrwt>
</event>
<event>
 6    1  0.2852411E-002  0.9359160E+02  0.7546771E-02  0.1426063E+00
          2   -1    0    0  501    0  0.00000000000E+00  0.00000000000E+00  0.39174610467E+03  0.39174610467E+03  0.00000000000E+00 0. -1.
         -2   -1    0    0    0  501 -0.00000000000E+00 -0.00000000000E+00 -0.71884656614E+01  0.71884656614E+01  0.00000000000E+00 0.  1.
         23    2    1    2    0    0  0.44052238846E+01  0.91860327128E+01  0.36586358932E+03  0.37764474440E+03  0.93035465213E+02 0.  0.
         11    1    3    3    0    0  0.30650468333E+02  0.26830627178E+02  0.77510600172E+02  0.87562702692E+02  0.00000000000E+00 0.  1.
        -11    1    3    3    0    0 -0.26245244448E+02 -0.17644594465E+02  0.28835298915E+03  0.29008204171E+03  0.00000000000E+00 0. -1.
         22    1    1    2    0    0 -0.44052238846E+01 -0.91860327128E+01  0.18694049688E+02  0.21289825932E+02  0.00000000000E+00 0. -1.
<mgrwt>
<rscale>  0 0.53758440E+02</rscale>
<asrwt>0</asrwt>
<pdfrwt beam="1">  1        2 0.60268615E-01 0.93591597E+02</pdfrwt>
<pdfrwt beam="2">  1       -2 0.11059181E-02 0.93591597E+02</pdfrwt>
<totfact> 0.12944683E+05</totfact>
</mgrwt>
</event>
<event>
 6    1  0.2852411E-002  0.9650693E+02  0.7546771E-02  0.1417996E+00
         -2   -1    0    0    0  501 -0.00000000000E+00  0.00000000000E+00  0.23572273943E+03  0.23572273943E+03  0.00000000000E+00 0.  1.
          2   -1    0    0  501    0  0.00000000000E+00 -0.00000000000E+00 -0.12786021404E+02  0.12786021404E+02  0.00000000000E+00 0. -1.
         23    2    1    2    0    0  0.49097740139E+00 -0.10504285216E+02  0.17929488040E+03  0.20361788138E+03  0.95932301199E+02 0.  0.
         11    1    3    3    0    0  0.74149995484E+01  0.36514281004E+02  0.32914344172E+02  0.49715480364E+02  0.00000000000E+00 0. -1.
        -11    1    3    3    0    0 -0.69240221470E+01 -0.47018566220E+02  0.14638053623E+03  0.15390240102E+03  0.00000000000E+00 0.  1.
         22    1    1    2    0    0 -0.49097740139E+00  0.10504285216E+02  0.43641837626E+02  0.44890879453E+02  0.00000000000E+00 0. -1.
<mgrwt>
<rscale>  0 0.55447117E+02</rscale>
<asrwt>0</asrwt>
<pdfrwt beam="1">  1        2 0.19670804E-02 0.96506930E+02</pdfrwt>
<pdfrwt beam="2">  1       -2 0.36265034E-01 0.96506930E+02</pdfrwt>
<totfact> 0.35210677E+04</totfact>
</mgrwt>
</event>
<event>
 6    1  0.2852411E-002  0.9052279E+02  0.7546771E-02  0.1402501E+00
         -2   -1    0    0    0  501 -0.00000000000E+00  0.00000000000E+00  0.21259738585E+03  0.21259738585E+03  0.00000000000E+00 0.  1.
          2   -1    0    0  501    0  0.00000000000E+00 -0.00000000000E+00 -0.13404394498E+02  0.13404394498E+02  0.00000000000E+00 0. -1.
         23    2    1    2    0    0 -0.97480903989E+01 -0.12972050322E+02  0.16746191471E+03  0.19036246805E+03  0.89056594415E+02 0.  0.
         11    1    3    3    0    0 -0.27998394294E+02 -0.29140175517E+02  0.15976177865E+03  0.16479346416E+03  0.00000000000E+00 0.  1.
        -11    1    3    3    0    0  0.18250303896E+02  0.16168125194E+02  0.77001360551E+01  0.25569003888E+02  0.00000000000E+00 0. -1.
         22    1    1    2    0    0  0.97480903989E+01  0.12972050322E+02  0.31731076645E+02  0.35639312298E+02  0.00000000000E+00 0.  1.
<mgrwt>
<rscale>  0 0.58901274E+02</rscale>
<asrwt>0</asrwt>
<pdfrwt beam="1">  1        2 0.20622147E-02 0.90522795E+02</pdfrwt>
<pdfrwt beam="2">  1       -2 0.32707288E-01 0.90522795E+02</pdfrwt>
<totfact> 0.39528312E+04</totfact>
</mgrwt>
</event>
<event>
 6    1  0.2852411E-002  0.8983821E+02  0.7546771E-02  0.1412376E+00
         -2   -1    0    0    0  501 -0.00000000000E+00  0.00000000000E+00  0.21389244153E+02  0.21389244153E+02  0.00000000000E+00 0.  1.
          2   -1    0    0  501    0  0.00000000000E+00 -0.00000000000E+00 -0.15180625983E+03  0.15180625983E+03  0.00000000000E+00 0. -1.
         23    2    1    2    0    0  0.12269243597E+02  0.71908636559E+01 -0.13113419391E+03  0.15895622019E+03  0.88705469200E+02 0.  0.
         11    1    3    3    0    0  0.11060978215E+02 -0.40566837199E+02 -0.59825323551E+02  0.73123750296E+02  0.00000000000E+00 0.  1.
        -11    1    3    3    0    0  0.12082653817E+01  0.47757700855E+02 -0.71308870356E+02  0.85832469891E+02  0.00000000000E+00 0. -1.
         22    1    1    2    0    0 -0.12269243597E+02 -0.71908636559E+01  0.71717822505E+00  0.14239283801E+02  0.00000000000E+00 0.  1.
<mgrwt>
<rscale>  0 0.56666965E+02</rscale>
<asrwt>0</asrwt>
<pdfrwt beam="1">  1        2 0.23354809E-01 0.89838205E+02</pdfrwt>
<pdfrwt beam="2">  1       -2 0.32906530E-02 0.89838205E+02</pdfrwt>
<totfact> 0.73407407E+04</totfact>
</mgrwt>
</event>
<event>
 6    1  0.2852411E-002  0.9938678E+02  0.7546771E-02  0.1322982E+00
          2   -1    0    0  501    0  0.00000000000E+00  0.00000000000E+00  0.52279207602E+03  0.52279207602E+03  0.00000000000E+00 0. -1.
         -2   -1    0    0    0  501 -0.00000000000E+00 -0.00000000000E+00 -0.10866772422E+02  0.10866772422E+02  0.00000000000E+00 0.  1.
         23    2    1    2    0    0 -0.46448631829E+02  0.77089626212E+00  0.40612210199E+03  0.41810631861E+03  0.87861608550E+02 0.  0.
         13    1    3    3    0    0  0.14140189307E+02  0.24534768468E+02  0.19885979165E+03  0.20086591685E+03  0.00000000000E+00 0. -1.
        -13    1    3    3    0    0 -0.60588821135E+02 -0.23763872206E+02  0.20726231034E+03  0.21724040176E+03  0.00000000000E+00 0.  1.
         22    1    1    2    0    0  0.46448631829E+02 -0.77089626212E+00  0.10580320160E+03  0.11555252982E+03  0.00000000000E+00 0. -1.
<mgrwt>
<rscale>  0 0.82177826E+02</rscale>
<asrwt>0</asrwt>
<pdfrwt beam="1">  1        2 0.80429531E-01 0.99386779E+02</pdfrwt>
<pdfrwt beam="2">  1       -2 0.16718115E-02 0.99386779E+02</pdfrwt>
<totfact> 0.53170662E+04</totfact>
</mgrwt>
</event>
<event>
 6    1  0.2852411E-002  0.9494841E+02  0.7546771E-02  0.1384653E+00
         -2   -1    0    0    0  501 -0.00000000000E+00  0.00000000000E+00  0.91687769087E+01  0.91687769087E+01  0.00000000000E+00 0. -1.
          2   -1    0    0  501    0  0.00000000000E+00 -0.00000000000E+00 -0.41352240052E+03  0.41352240052E+03  0.00000000000E+00 0.  1.
         23    2    1    2    0    0  0.18191897578E+02 -0.43500345415E+01 -0.38160612449E+03  0.39324093712E+03  0.93087767406E+02 0.  0.
         11    1    3    3    0    0  0.14573868520E+02 -0.48502856502E+02 -0.20212466332E+03  0.20837299310E+03  0.00000000000E+00 0. -1.
        -11    1    3    3    0    0  0.36180290584E+01  0.44152821960E+02 -0.17948146116E+03  0.18486794401E+03  0.00000000000E+00 0.  1.
         22    1    1    2    0    0 -0.18191897578E+02  0.43500345415E+01 -0.22747499124E+02  0.29450240311E+02  0.00000000000E+00 0. -1.
<mgrwt>
<rscale>  0 0.63256300E+02</rscale>
<asrwt>0</asrwt>
<pdfrwt beam="1">  1        2 0.63618813E-01 0.94948409E+02</pdfrwt>
<pdfrwt beam="2">  1       -2 0.14105815E-02 0.94948409E+02</pdfrwt>
<totfact> 0.86672533E+04</totfact>
</mgrwt>
</event>
<event>
 6    1  0.2852411E-002  0.1392264E+03  0.7546771E-02  0.1228393E+00
         -1   -1    0    0    0  501 -0.00000000000E+00  0.00000000000E+00  0.33999910297E+03  0.33999910297E+03  0.00000000000E+00 0.  1.
          1   -1    0    0  501    0  0.00000000000E+00 -0.00000000000E+00 -0.51687493420E+02  0.51687493420E+02  0.00000000000E+00 0. -1.
         23    2    1    2    0    0 -0.56671849140E+02  0.86958052444E+02  0.84219719618E+02  0.16271738251E+03  0.92793232662E+02 0.  0.
         11    1    3    3    0    0 -0.74662778778E+02  0.35080408058E+02  0.37476644258E+02  0.90607198551E+02  0.00000000000E+00 0. -1.
        -11    1    3    3    0    0  0.17990929638E+02  0.51877644385E+02  0.46743075360E+02  0.72110183957E+02  0.00000000000E+00 0.  1.
         22    1    1    2    0    0  0.56671849140E+02 -0.86958052444E+02  0.20409188993E+03  0.22896921388E+03  0.00000000000E+00 0.  1.
<mgrwt>
<rscale>  0 0.12937050E+03</rscale>
<asrwt>0</asrwt>
<pdfrwt beam="1">  1        1 0.79519223E-02 0.13922638E+03</pdfrwt>
<pdfrwt beam="2">  1       -1 0.52307553E-01 0.13922638E+03</pdfrwt>
<totfact> 0.31915942E+03</totfact>
</mgrwt>
</event>
<event>
 6    1  0.2852411E-002  0.9504685E+02  0.7546771E-02  0.1381800E+00
          2   -1    0    0  501    0  0.00000000000E+00  0.00000000000E+00  0.89521615716E+02  0.89521615716E+02  0.00000000000E+00 0. -1.
         -2   -1    0    0    0  501 -0.00000000000E+00 -0.00000000000E+00 -0.86536590645E+02  0.86536590645E+02  0.00000000000E+00 0.  1.
         23    2    1    2    0    0 -0.19505667555E+02  0.98962470000E+00  0.62276940590E+02  0.11363239704E+03  0.93018567520E+02 0.  0.
         13    1    3    3    0    0 -0.51767961766E+02 -0.18372189760E+02  0.49361145311E+02  0.73851079128E+02  0.00000000000E+00 0. -1.
        -13    1    3    3    0    0  0.32262294211E+02  0.19361814460E+02  0.12915795279E+02  0.39781317910E+02  0.00000000000E+00 0.  1.
         22    1    1    2    0    0  0.19505667555E+02 -0.98962470000E+00 -0.59291915519E+02  0.62425809324E+02  0.00000000000E+00 0.  1.
<mgrwt>
<rscale>  0 0.63993088E+02</rscale>
<asrwt>0</asrwt>
<pdfrwt beam="1">  1        2 0.13772556E-01 0.95046853E+02</pdfrwt>
<pdfrwt beam="2">  1       -2 0.13313322E-01 0.95046853E+02</pdfrwt>
<totfact> 0.16155291E+04</totfact>
</mgrwt>
</event>
<event>
 6    1  0.2852411E-002  0.9215487E+02  0.7546771E-02  0.1409369E+00
         -2   -1    0    0    0  501 -0.00000000000E+00  0.00000000000E+00  0.72208124942E+02  0.72208124942E+02  0.00000000000E+00 0.  1.
          2   -1    0    0  501    0  0.00000000000E+00 -0.00000000000E+00 -0.55137280918E+02  0.55137280918E+02  0.00000000000E+00 0. -1.
         23    2    1    2    0    0  0.11525313290E+02  0.76037053339E+01 -0.14124402357E+02  0.93231001600E+02  0.91114607699E+02 0.  0.
         11    1    3    3    0    0 -0.88370715273E+01 -0.37157935489E+02  0.84557649072E+01  0.39119125286E+02  0.00000000000E+00 0.  1.
        -11    1    3    3    0    0  0.20362384818E+02  0.44761640822E+02 -0.22580167264E+02  0.54111876314E+02  0.00000000000E+00 0. -1.
         22    1    1    2    0    0 -0.11525313290E+02 -0.76037053339E+01  0.31195246381E+02  0.34114404260E+02  0.00000000000E+00 0. -1.
<mgrwt>
<rscale>  0 0.57334774E+02</rscale>
<asrwt>0</asrwt>
<pdfrwt beam="1">  1        2 0.84826585E-02 0.92154875E+02</pdfrwt>
<pdfrwt beam="2">  1       -2 0.11108942E-01 0.92154875E+02</pdfrwt>
<totfact> 0.38401214E+04</totfact>
</mgrwt>
</event>
<event>
 6    1  0.2852411E-002  0.9473681E+02  0.7546771E-02  0.1419746E+00
          2   -1    0    0  501    0  0.00000000000E+00  0.00000000000E+00  0.92000365595E+03  0.92000365595E+03  0.00000000000E+00 0.  1.
         -2   -1    0    0    0  501 -0.00000000000E+00 -0.00000000000E+00 -0.50231546428E+01  0.50231546428E+01  0.00000000000E+00 0. -1.
         23    2    1    2    0    0  0.20162298441E+01  0.10631046116E+02  0.90607097400E+03  0.91101024892E+03  0.94116839044E+02 0.  0.
         11    1    3    3    0    0  0.11258485393E+02  0.38470498339E+02  0.18273319329E+03  0.18707793207E+03  0.00000000000E+00 0. -1.
        -11    1    3    3    0    0 -0.92422555491E+01 -0.27839452222E+02  0.72333778070E+03  0.72393231685E+03  0.00000000000E+00 0.  1.
         22    1    1    2    0    0 -0.20162298441E+01 -0.10631046116E+02  0.89095273154E+01  0.14016561679E+02  0.00000000000E+00 0. -1.
<mgrwt>
<rscale>  0 0.55074609E+02</rscale>
<asrwt>0</asrwt>
<pdfrwt beam="1">  1        2 0.14153889E+00 0.94736813E+02</pdfrwt>
<pdfrwt beam="2">  1       -2 0.77279375E-03 0.94736813E+02</pdfrwt>
<totfact> 0.81435147E+04</totfact>
</mgrwt>
</event>
<event>
 6    1  0.2852411E-002  0.1027992E+03  0.7546771E-02  0.1338379E+00
          2   -1    0    0  501    0  0.00000000000E+00  0.00000000000E+00  0.67902980562E+03  0.67902980562E+03  0.00000000000E+00 0. -1.
         -2   -1    0    0    0  501 -0.00000000000E+00 -0.00000000000E+00 -0.66962603198E+01  0.66962603198E+01  0.00000000000E+00 0.  1.
         23    2    1    2    0    0  0.15631537500E+02 -0.27954459153E+02  0.51918620476E+03  0.52926551288E+03  0.97682501777E+02 0.  0.
         13    1    3    3    0    0  0.89580404778E+00  0.18244983650E+01  0.46943764178E+03  0.46944204198E+03  0.00000000000E+00 0. -1.
        -13    1    3    3    0    0  0.14735733452E+02 -0.29778957518E+02  0.49748562986E+02  0.59823470899E+02  0.00000000000E+00 0.  1.
         22    1    1    2    0    0 -0.15631537500E+02  0.27954459153E+02  0.15314734054E+03  0.15646055306E+03  0.00000000000E+00 0.  1.
<mgrwt>
<rscale>  0 0.76802410E+02</rscale>
<asrwt>0</asrwt>
<pdfrwt beam="1">  1        2 0.10446607E+00 0.10279916E+03</pdfrwt>
<pdfrwt beam="2">  1       -2 0.10301944E-02 0.10279916E+03</pdfrwt>
<totfact> 0.79416031E+04</totfact>
</mgrwt>
</event>
<event>
 6    1  0.2852411E-002  0.9528696E+02  0.7546771E-02  0.1359969E+00
         -2   -1    0    0    0  501 -0.00000000000E+00  0.00000000000E+00  0.27359192856E+01  0.27359192856E+01  0.00000000000E+00 0.  1.
          2   -1    0    0  501    0  0.00000000000E+00 -0.00000000000E+00 -0.15983320279E+04  0.15983320279E+04  0.00000000000E+00 0. -1.
         23    2    1    2    0    0 -0.17869475593E+02 -0.21308576683E+02 -0.14284112685E+04  0.14315859589E+04  0.91138532283E+02 0.  0.
         11    1    3    3    0    0  0.35333735276E+02  0.54147377503E+01 -0.54158425108E+03  0.54276264909E+03  0.00000000000E+00 0.  1.
        -11    1    3    3    0    0 -0.53203210869E+02 -0.26723314433E+02 -0.88682701740E+03  0.88882330976E+03  0.00000000000E+00 0. -1.
         22    1    1    2    0    0  0.17869475593E+02  0.21308576683E+02 -0.16718484011E+03  0.16948198830E+03  0.00000000000E+00 0.  1.
<mgrwt>
<rscale>  0 0.70036396E+02</rscale>
<asrwt>0</asrwt>
<pdfrwt beam="1">  1        2 0.24589715E+00 0.95286965E+02</pdfrwt>
<pdfrwt beam="2">  1       -2 0.42091080E-03 0.95286965E+02</pdfrwt>
<totfact> 0.81925314E+04</totfact>
</mgrwt>
</event>
<event>
 6    1  0.2852411E-002  0.9272033E+02  0.7546771E-02  0.1397083E+00
          2   -1    0    0  501    0  0.00000000000E+00  0.00000000000E+00  0.36935001868E+03  0.36935001868E+03  0.00000000000E+00 0. -1.
         -2   -1    0    0    0  501 -0.00000000000E+00 -0.00000000000E+00 -0.82084196033E+01  0.82084196033E+01  0.00000000000E+00 0.  1.
         23    2    1    2    0    0 -0.12154335769E+02  0.11089618627E+02  0.32239438414E+03  0.33546266433E+03  0.91248850491E+02 0.  0.
         13    1    3    3    0    0 -0.51243887522E+02  0.15093124893E+02  0.18762576977E+03  0.19508246438E+03  0.00000000000E+00 0. -1.
        -13    1    3    3    0    0  0.39089551753E+02 -0.40035062657E+01  0.13476861437E+03  0.14038019995E+03  0.00000000000E+00 0.  1.
         22    1    1    2    0    0  0.12154335769E+02 -0.11089618627E+02  0.38747214940E+02  0.42095773955E+02  0.00000000000E+00 0.  1.
<mgrwt>
<rscale>  0 0.60178835E+02</rscale>
<asrwt>0</asrwt>
<pdfrwt beam="1">  1        2 0.56823067E-01 0.92720333E+02</pdfrwt>
<pdfrwt beam="2">  1       -2 0.12628341E-02 0.92720333E+02</pdfrwt>
<totfact> 0.11388714E+05</totfact>
</mgrwt>
</event>
<event>
 6    1  0.2852411E-002  0.9340523E+02  0.7546771E-02  0.1411406E+00
          2   -1    0    0  501    0  0.00000000000E+00  0.00000000000E+00  0.81221028754E+03  0.81221028754E+03  0.00000000000E+00 0. -1.
         -2   -1    0    0    0  501 -0.00000000000E+00 -0.00000000000E+00 -0.38445321965E+01  0.38445321965E+01  0.00000000000E+00 0.  1.
         23    2    1    2    0    0 -0.52174360204E+01 -0.11738688137E+02  0.76886222085E+03  0.77451510771E+03  0.92517668487E+02 0.  0.
         11    1    3    3    0    0 -0.11706738584E+02  0.30163958353E+02  0.12051852686E+03  0.12478632709E+03  0.00000000000E+00 0.  1.
        -11    1    3    3    0    0  0.64893025632E+01 -0.41902646489E+02  0.64834369399E+03  0.64972878062E+03  0.00000000000E+00 0. -1.
         22    1    1    2    0    0  0.52174360204E+01  0.11738688137E+02  0.39503534494E+02  0.41539712027E+02  0.00000000000E+00 0.  1.
<mgrwt>
<rscale>  0 0.56881359E+02</rscale>
<asrwt>0</asrwt>
<pdfrwt beam="1">  1        2 0.12495529E+00 0.93405232E+02</pdfrwt>
<pdfrwt beam="2">  1       -2 0.59146714E-03 0.93405232E+02</pdfrwt>
<totfact> 0.13864272E+05</totfact>
</mgrwt>
</event>
<event>
 6    1  0.2852411E-002  0.9160194E+02  0.7546771E-02  0.1431184E+00
          3   -1    0    0  501    0  0.00000000000E+00  0.00000000000E+00  0.44185342293E+02  0.44185342293E+02  0.00000000000E+00 0. -1.
         -3   -1    0    0    0  501 -0.00000000000E+00 -0.00000000000E+00 -0.58686831772E+02  0.58686831772E+02  0.00000000000E+00 0.  1.
         23    2    1    2    0    0  0.10010198862E+02  0.92570573240E+00 -0.11164050396E+02  0.92279746960E+02  0.91048639009E+02 0.  0.
         13    1    3    3    0    0 -0.79953196840E+01  0.29932463048E+02 -0.37874296227E+02  0.48931991535E+02  0.00000000000E+00 0.  1.
        -13    1    3    3    0    0  0.18005518546E+02 -0.29006757315E+02  0.26710245830E+02  0.43347755425E+02  0.00000000000E+00 0. -1.
         22    1    1    2    0    0 -0.10010198862E+02 -0.92570573240E+00 -0.33374390828E+01  0.10592427106E+02  0.00000000000E+00 0. -1.
<mgrwt>
<rscale>  0 0.52723164E+02</rscale>
<asrwt>0</asrwt>
<pdfrwt beam="1">  1        3 0.67977450E-02 0.91601941E+02</pdfrwt>
<pdfrwt beam="2">  1       -3 0.90287434E-02 0.91601941E+02</pdfrwt>
<totfact> 0.24760031E+04</totfact>
</mgrwt>
</event>
<event>
 6    1  0.2852411E-002  0.9291387E+02  0.7546771E-02  0.1393879E+00
         -2   -1    0    0    0  501 -0.00000000000E+00  0.00000000000E+00  0.36383706296E+02  0.36383706296E+02  0.00000000000E+00 0. -1.
          2   -1    0    0  501    0  0.00000000000E+00 -0.00000000000E+00 -0.83331384233E+02  0.83331384233E+02  0.00000000000E+00 0.  1.
         23    2    1    2    0    0 -0.17160076350E+02  0.12753461503E+01 -0.39230990367E+02  0.10085661776E+03  0.91306582527E+02 0.  0.
         13    1    3    3    0    0  0.30812147912E+01 -0.28507059991E+02 -0.54626048808E+02  0.61694015612E+02  0.00000000000E+00 0.  1.
        -13    1    3    3    0    0 -0.20241291141E+02  0.29782406142E+02  0.15395058441E+02  0.39162602149E+02  0.00000000000E+00 0. -1.
         22    1    1    2    0    0  0.17160076350E+02 -0.12753461503E+01 -0.77166875699E+01  0.18858472769E+02  0.00000000000E+00 0.  1.
<mgrwt>
<rscale>  0 0.60952179E+02</rscale>
<asrwt>0</asrwt>
<pdfrwt beam="1">  1        2 0.12820213E-01 0.92913867E+02</pdfrwt>
<pdfrwt beam="2">  1       -2 0.55974933E-02 0.92913867E+02</pdfrwt>
<totfact> 0.66619750E+04</totfact>
</mgrwt>
</event>
<event>
 6    1  0.2852411E-002  0.9244910E+02  0.7546771E-02  0.1428362E+00
          2   -1    0    0  501    0  0.00000000000E+00  0.00000000000E+00  0.14334370457E+03  0.14334370457E+03  0.00000000000E+00 0. -1.
         -2   -1    0    0    0  501 -0.00000000000E+00 -0.00000000000E+00 -0.19371190548E+02  0.19371190548E+02  0.00000000000E+00 0.  1.
         23    2    1    2    0    0  0.66930597348E+01  0.77057343334E+01  0.12061588393E+03  0.15197048467E+03  0.91883955976E+02 0.  0.
         11    1    3    3    0    0  0.30945235831E+02  0.31835693659E+02  0.10570620431E+03  0.11465130021E+03  0.00000000000E+00 0. -1.
        -11    1    3    3    0    0 -0.24252176096E+02 -0.24129959326E+02  0.14909679622E+02  0.37319184461E+02  0.00000000000E+00 0.  1.
         22    1    1    2    0    0 -0.66930597348E+01 -0.77057343334E+01  0.33566300934E+01  0.10744410445E+02  0.00000000000E+00 0.  1.
<mgrwt>
<rscale>  0 0.53290239E+02</rscale>
<asrwt>0</asrwt>
<pdfrwt beam="1">  1        2 0.22052877E-01 0.92449104E+02</pdfrwt>
<pdfrwt beam="2">  1       -2 0.29801833E-02 0.92449104E+02</pdfrwt>
<totfact> 0.90718315E+04</totfact>
</mgrwt>
</event>
<event>
 6    1  0.2852411E-002  0.9140460E+02  0.7546771E-02  0.1412265E+00
          2   -1    0    0  501    0  0.00000000000E+00  0.00000000000E+00  0.11505793476E+04  0.11505793476E+04  0.00000000000E+00 0. -1.
         -2   -1    0    0    0  501 -0.00000000000E+00 -0.00000000000E+00 -0.29942360033E+01  0.29942360033E+01  0.00000000000E+00 0.  1.
         23    2    1    2    0    0  0.74610019222E+01  0.11282118418E+02  0.11075489251E+04  0.11113142772E+04  0.90398277377E+02 0.  0.
         13    1    3    3    0    0  0.10711946501E+02 -0.24865739151E+02  0.91345784059E+03  0.91385900297E+03  0.00000000000E+00 0. -1.
        -13    1    3    3    0    0 -0.32509445789E+01  0.36147857569E+02  0.19409108449E+03  0.19745527425E+03  0.00000000000E+00 0.  1.
         22    1    1    2    0    0 -0.74610019222E+01 -0.11282118418E+02  0.40036186551E+02  0.42259306422E+02  0.00000000000E+00 0.  1.
<mgrwt>
<rscale>  0 0.56691561E+02</rscale>
<asrwt>0</asrwt>
<pdfrwt beam="1">  1        2 0.17701185E+00 0.91404602E+02</pdfrwt>
<pdfrwt beam="2">  1       -2 0.46065261E-03 0.91404602E+02</pdfrwt>
<totfact> 0.12334249E+05</totfact>
</mgrwt>
</event>
<event>
 6    1  0.2852411E-002  0.9704057E+02  0.7546771E-02  0.1332596E+00
          2   -1    0    0  501    0  0.00000000000E+00  0.00000000000E+00  0.11287829312E+03  0.11287829312E+03  0.00000000000E+00 0.  1.
         -2   -1    0    0    0  501 -0.00000000000E+00 -0.00000000000E+00 -0.43147907022E+02  0.43147907022E+02  0.00000000000E+00 0. -1.
         23    2    1    2    0    0  0.25549759477E+02 -0.33480992050E+02  0.54107721360E+02  0.11110588523E+03  0.87424854505E+02 0.  0.
         11    1    3    3    0    0  0.35461581914E+02  0.89915863153E+01 -0.57618928250E+01  0.37034738088E+02  0.00000000000E+00 0. -1.
        -11    1    3    3    0    0 -0.99118224376E+01 -0.42472578365E+02  0.59869614185E+02  0.74071147147E+02  0.00000000000E+00 0.  1.
         22    1    1    2    0    0 -0.25549759477E+02  0.33480992050E+02  0.15622664741E+02  0.44920314909E+02  0.00000000000E+00 0.  1.
<mgrwt>
<rscale>  0 0.78763875E+02</rscale>
<asrwt>0</asrwt>
<pdfrwt beam="1">  1        2 0.17365891E-01 0.97040570E+02</pdfrwt>
<pdfrwt beam="2">  1       -2 0.66381396E-02 0.97040570E+02</pdfrwt>
<totfact> 0.36480348E+04</totfact>
</mgrwt>
</event>
<event>
 6    1  0.2852411E-002  0.9252504E+02  0.7546771E-02  0.1413622E+00
          2   -1    0    0  501    0  0.00000000000E+00  0.00000000000E+00  0.28849866653E+02  0.28849866653E+02  0.00000000000E+00 0. -1.
         -2   -1    0    0    0  501 -0.00000000000E+00 -0.00000000000E+00 -0.10611402169E+03  0.10611402169E+03  0.00000000000E+00 0.  1.
         23    2    1    2    0    0  0.74962475255E+01  0.10336162767E+02 -0.50735394240E+02  0.10552233375E+03  0.91639798684E+02 0.  0.
         11    1    3    3    0    0  0.17343908720E+02 -0.11812530679E+02  0.21069418445E+02  0.29736634718E+02  0.00000000000E+00 0. -1.
        -11    1    3    3    0    0 -0.98476611944E+01  0.22148693446E+02 -0.71804812686E+02  0.75785699028E+02  0.00000000000E+00 0.  1.
         22    1    1    2    0    0 -0.74962475255E+01 -0.10336162767E+02 -0.26528760800E+02  0.29441554601E+02  0.00000000000E+00 0. -1.
<mgrwt>
<rscale>  0 0.56393350E+02</rscale>
<asrwt>0</asrwt>
<pdfrwt beam="1">  1        2 0.44384409E-02 0.92525038E+02</pdfrwt>
<pdfrwt beam="2">  1       -2 0.16325234E-01 0.92525038E+02</pdfrwt>
<totfact> 0.47209086E+04</totfact>
</mgrwt>
</event>
<event>
 6    1  0.2852411E-002  0.9238602E+02  0.7546771E-02  0.1417823E+00
          2   -1    0    0  501    0  0.00000000000E+00  0.00000000000E+00  0.17751052400E+04  0.17751052400E+04  0.00000000000E+00 0. -1.
         -2   -1    0    0    0  501 -0.00000000000E+00 -0.00000000000E+00 -0.25895139737E+01  0.25895139737E+01  0.00000000000E+00 0.  1.
         23    2    1    2    0    0 -0.11642809158E+02 -0.29821898110E+01  0.17475127392E+04  0.17499531280E+04  0.91600917545E+02 0.  0.
         11    1    3    3    0    0  0.27062201742E+02  0.30431670949E+02  0.68295965964E+03  0.68417274577E+03  0.00000000000E+00 0. -1.
        -11    1    3    3    0    0 -0.38705010900E+02 -0.33413860760E+02  0.10645530796E+04  0.10657803822E+04  0.00000000000E+00 0.  1.
         22    1    1    2    0    0  0.11642809158E+02  0.29821898110E+01  0.25002986851E+02  0.27741625991E+02  0.00000000000E+00 0. -1.
<mgrwt>
<rscale>  0 0.55484133E+02</rscale>
<asrwt>0</asrwt>
<pdfrwt beam="1">  1        2 0.27309214E+00 0.92386019E+02</pdfrwt>
<pdfrwt beam="2">  1       -2 0.39838818E-03 0.92386019E+02</pdfrwt>
<totfact> 0.71835062E+04</totfact>
</mgrwt>
</event>
<event>
 6    1  0.2852411E-002  0.9906966E+02  0.7546771E-02  0.1340069E+00
          2   -1    0    0  501    0  0.00000000000E+00  0.00000000000E+00  0.13038474174E+04  0.13038474174E+04  0.00000000000E+00 0. -1.
         -2   -1    0    0    0  501 -0.00000000000E+00 -0.00000000000E+00 -0.44012285980E+01  0.44012285980E+01  0.00000000000E+00 0.  1.
         23    2    1    2    0    0 -0.24692537543E+02  0.24449896515E+02  0.11710534264E+04  0.11752365402E+04  0.92775422935E+02 0.  0.
         11    1    3    3    0    0 -0.11076961841E+02 -0.25259587843E+02  0.12930683231E+03  0.13221574318E+03  0.00000000000E+00 0.  1.
        -11    1    3    3    0    0 -0.13615575702E+02  0.49709484358E+02  0.10417465941E+04  0.10430207970E+04  0.00000000000E+00 0. -1.
         22    1    1    2    0    0  0.24692537543E+02 -0.24449896515E+02  0.12839276237E+03  0.13301210576E+03  0.00000000000E+00 0.  1.
<mgrwt>
<rscale>  0 0.76241644E+02</rscale>
<asrwt>0</asrwt>
<pdfrwt beam="1">  1        2 0.20059160E+00 0.99069662E+02</pdfrwt>
<pdfrwt beam="2">  1       -2 0.67711313E-03 0.99069662E+02</pdfrwt>
<totfact> 0.59888166E+04</totfact>
</mgrwt>
</event>
<event>
 6    1  0.2852411E-002  0.9649132E+02  0.7546771E-02  0.1395832E+00
         -2   -1    0    0    0  501 -0.00000000000E+00  0.00000000000E+00  0.63089693152E+01  0.63089693152E+01  0.00000000000E+00 0.  1.
          2   -1    0    0  501    0  0.00000000000E+00 -0.00000000000E+00 -0.76143530713E+03  0.76143530713E+03  0.00000000000E+00 0. -1.
         23    2    1    2    0    0 -0.12805238294E+02  0.76026471944E+01 -0.74087401013E+03  0.74713109579E+03  0.95335203591E+02 0.  0.
         13    1    3    3    0    0 -0.41257995419E+02 -0.11094618974E+02 -0.62233161211E+03  0.62379639963E+03  0.00000000000E+00 0. -1.
        -13    1    3    3    0    0  0.28452757125E+02  0.18697266168E+02 -0.11854239801E+03  0.12333469616E+03  0.00000000000E+00 0.  1.
         22    1    1    2    0    0  0.12805238294E+02 -0.76026471944E+01 -0.14252327685E+02  0.20613180652E+02  0.00000000000E+00 0.  1.
<mgrwt>
<rscale>  0 0.60479072E+02</rscale>
<asrwt>0</asrwt>
<pdfrwt beam="1">  1        2 0.11714384E+00 0.96491323E+02</pdfrwt>
<pdfrwt beam="2">  1       -2 0.97061107E-03 0.96491323E+02</pdfrwt>
<totfact> 0.74878061E+04</totfact>
</mgrwt>
</event>
<event>
 6    1  0.2852411E-002  0.9168197E+02  0.7546771E-02  0.1419286E+00
         -1   -1    0    0    0  501 -0.00000000000E+00  0.00000000000E+00  0.18688437643E+02  0.18688437643E+02  0.00000000000E+00 0.  1.
          1   -1    0    0  501    0  0.00000000000E+00 -0.00000000000E+00 -0.18638098728E+03  0.18638098728E+03  0.00000000000E+00 0. -1.
         23    2    1    2    0    0  0.97327546037E+01 -0.70595747640E+01 -0.16969710296E+03  0.19287998925E+03  0.90890150140E+02 0.  0.
         13    1    3    3    0    0  0.11240539924E+02 -0.19930231185E+01  0.87320415078E+01  0.14372558152E+02  0.00000000000E+00 0.  1.
        -13    1    3    3    0    0 -0.15077853207E+01 -0.50665516455E+01 -0.17842914446E+03  0.17850743110E+03  0.00000000000E+00 0. -1.
         22    1    1    2    0    0 -0.97327546037E+01  0.70595747640E+01  0.20045533203E+01  0.12189435673E+02  0.00000000000E+00 0.  1.
<mgrwt>
<rscale>  0 0.55172226E+02</rscale>
<asrwt>0</asrwt>
<pdfrwt beam="1">  1        1 0.28673997E-01 0.91681969E+02</pdfrwt>
<pdfrwt beam="2">  1       -1 0.28751443E-02 0.91681969E+02</pdfrwt>
<totfact> 0.55848886E+04</totfact>
</mgrwt>
</event>
<event>
 6    1  0.2852411E-002  0.1069418E+03  0.7546771E-02  0.1354113E+00
          2   -1    0    0  501    0  0.00000000000E+00  0.00000000000E+00  0.93437509436E+03  0.93437509436E+03  0.00000000000E+00 0. -1.
         -2   -1    0    0    0  501 -0.00000000000E+00 -0.00000000000E+00 -0.82063365117E+01  0.82063365117E+01  0.00000000000E+00 0.  1.
         23    2    1    2    0    0  0.20728007885E+02  0.64774993446E+01  0.90797419950E+03  0.91425034790E+03  0.10471362555E+03 0.  0.
         13    1    3    3    0    0 -0.15736254799E+02  0.34205316039E+02  0.71194207677E+03  0.71293699163E+03  0.00000000000E+00 0. -1.
        -13    1    3    3    0    0  0.36464262684E+02 -0.27727816695E+02  0.19603212273E+03  0.20131335628E+03  0.00000000000E+00 0.  1.
         22    1    1    2    0    0 -0.20728007885E+02 -0.64774993446E+01  0.18194558348E+02  0.28331082967E+02  0.00000000000E+00 0.  1.
<mgrwt>
<rscale>  0 0.71789072E+02</rscale>
<asrwt>0</asrwt>
<pdfrwt beam="1">  1        2 0.14374993E+00 0.10694181E+03</pdfrwt>
<pdfrwt beam="2">  1       -2 0.12625141E-02 0.10694181E+03</pdfrwt>
<totfact> 0.40307296E+04</totfact>
</mgrwt>
</event>
<event>
 6    1  0.2852411E-002  0.9195098E+02  0.7546771E-02  0.1416471E+00
         -3   -1    0    0    0  501 -0.00000000000E+00  0.00000000000E+00  0.72568149052E+01  0.72568149052E+01  0.00000000000E+00 0.  1.
          3   -1    0    0  501    0  0.00000000000E+00 -0.00000000000E+00 -0.39811276344E+03  0.39811276344E+03  0.00000000000E+00 0. -1.
         23    2    1    2    0    0  0.12018970508E+01 -0.12389204731E+02 -0.36832279947E+03  0.37962701132E+03  0.91104589139E+02 0.  0.
         13    1    3    3    0    0 -0.30525992696E+02 -0.23365426091E+02 -0.30965690647E+03  0.31203393901E+03  0.00000000000E+00 0.  1.
        -13    1    3    3    0    0  0.31727889747E+02  0.10976221360E+02 -0.58665892999E+02  0.67593072311E+02  0.00000000000E+00 0. -1.
         22    1    1    2    0    0 -0.12018970508E+01  0.12389204731E+02 -0.22533149064E+02  0.25742567026E+02  0.00000000000E+00 0.  1.
<mgrwt>
<rscale>  0 0.55774624E+02</rscale>
<asrwt>0</asrwt>
<pdfrwt beam="1">  1        3 0.61248115E-01 0.91950982E+02</pdfrwt>
<pdfrwt beam="2">  1       -3 0.11164331E-02 0.91950982E+02</pdfrwt>
<totfact> 0.12631614E+04</totfact>
</mgrwt>
</event>
<event>
 6    1  0.2852411E-002  0.9396340E+02  0.7546771E-02  0.1382746E+00
         -2   -1    0    0    0  501 -0.00000000000E+00  0.00000000000E+00  0.69521697488E+01  0.69521697488E+01  0.00000000000E+00 0.  1.
          2   -1    0    0  501    0  0.00000000000E+00 -0.00000000000E+00 -0.56771690841E+03  0.56771690841E+03  0.00000000000E+00 0. -1.
         23    2    1    2    0    0  0.97317188967E+01  0.17364532601E+02 -0.52827409498E+03  0.53656559706E+03  0.91830752887E+02 0.  0.
         11    1    3    3    0    0 -0.34287101821E+02  0.27205998697E+02 -0.34766329488E+03  0.35040767446E+03  0.00000000000E+00 0. -1.
        -11    1    3    3    0    0  0.44018820718E+02 -0.98414660962E+01 -0.18061080010E+03  0.18615792260E+03  0.00000000000E+00 0.  1.
         22    1    1    2    0    0 -0.97317188967E+01 -0.17364532601E+02 -0.32490643687E+02  0.38103481105E+02  0.00000000000E+00 0.  1.
<mgrwt>
<rscale>  0 0.63747465E+02</rscale>
<asrwt>0</asrwt>
<pdfrwt beam="1">  1        2 0.87341028E-01 0.93963400E+02</pdfrwt>
<pdfrwt beam="2">  1       -2 0.10695650E-02 0.93963400E+02</pdfrwt>
<totfact> 0.91139149E+04</totfact>
</mgrwt>
</event>
<event>
 6    1  0.2852411E-002  0.1019386E+03  0.7546771E-02  0.1321692E+00
          2   -1    0    0  501    0  0.00000000000E+00  0.00000000000E+00  0.10069661624E+04  0.10069661624E+04  0.00000000000E+00 0. -1.
         -2   -1    0    0    0  501 -0.00000000000E+00 -0.00000000000E+00 -0.97461762640E+01  0.97461762640E+01  0.00000000000E+00 0.  1.
         23    2    1    2    0    0  0.36280490876E+01  0.43903538296E+02  0.93463466485E+03  0.94017734108E+03  0.91928192187E+02 0.  0.
         11    1    3    3    0    0  0.17207757117E+01  0.28441501793E+02  0.91338080588E+03  0.91382513461E+03  0.00000000000E+00 0. -1.
        -11    1    3    3    0    0  0.19072733758E+01  0.15462036504E+02  0.21253858970E+02  0.26352206467E+02  0.00000000000E+00 0.  1.
         22    1    1    2    0    0 -0.36280490876E+01 -0.43903538296E+02  0.62585321280E+02  0.76534997582E+02  0.00000000000E+00 0.  1.
<mgrwt>
<rscale>  0 0.82651036E+02</rscale>
<asrwt>0</asrwt>
<pdfrwt beam="1">  1        2 0.15491779E+00 0.10193859E+03</pdfrwt>
<pdfrwt beam="2">  1       -2 0.14994125E-02 0.10193859E+03</pdfrwt>
<totfact> 0.28388935E+04</totfact>
</mgrwt>
</event>
<event>
 6    1  0.2852411E-002  0.9241699E+02  0.7546771E-02  0.1411067E+00
          2   -1    0    0  501    0  0.00000000000E+00  0.00000000000E+00  0.19527196745E+03  0.19527196745E+03  0.00000000000E+00 0. -1.
         -2   -1    0    0    0  501 -0.00000000000E+00 -0.00000000000E+00 -0.22458053955E+02  0.22458053955E+02  0.00000000000E+00 0.  1.
         23    2    1    2    0    0  0.40873440047E+01  0.12690715017E+02  0.18017934557E+03  0.20249813976E+03  0.91450201798E+02 0.  0.
         13    1    3    3    0    0  0.45048884186E+02  0.98160681760E+01  0.12831285726E+03  0.13634495406E+03  0.00000000000E+00 0. -1.
        -13    1    3    3    0    0 -0.40961540181E+02  0.28746468406E+01  0.51866488315E+02  0.66153185702E+02  0.00000000000E+00 0.  1.
         22    1    1    2    0    0 -0.40873440047E+01 -0.12690715017E+02 -0.73654320767E+01  0.15231881641E+02  0.00000000000E+00 0.  1.
<mgrwt>
<rscale>  0 0.56956502E+02</rscale>
<asrwt>0</asrwt>
<pdfrwt beam="1">  1        2 0.30041840E-01 0.92416990E+02</pdfrwt>
<pdfrwt beam="2">  1       -2 0.34550854E-02 0.92416990E+02</pdfrwt>
<totfact> 0.52255461E+04</totfact>
</mgrwt>
</event>
<event>
 6    1  0.2852411E-002  0.8384982E+02  0.7546771E-02  0.1411725E+00
         -2   -1    0    0    0  501 -0.00000000000E+00  0.00000000000E+00  0.55939693807E+01  0.55939693807E+01  0.00000000000E+00 0.  1.
          2   -1    0    0  501    0  0.00000000000E+00 -0.00000000000E+00 -0.47613173550E+03  0.47613173550E+03  0.00000000000E+00 0. -1.
         23    2    1    2    0    0  0.15033277352E+02  0.92844017349E+01 -0.41702973720E+03  0.42537582731E+03  0.81967025116E+02 0.  0.
         13    1    3    3    0    0  0.38912100018E+02  0.27593876531E+02 -0.32674363327E+03  0.33020747332E+03  0.00000000000E+00 0. -1.
        -13    1    3    3    0    0 -0.23878822667E+02 -0.18309474796E+02 -0.90286103924E+02  0.95168353989E+02  0.00000000000E+00 0.  1.
         22    1    1    2    0    0 -0.15033277352E+02 -0.92844017349E+01 -0.53508028921E+02  0.56349877573E+02  0.00000000000E+00 0.  1.
<mgrwt>
<rscale>  0 0.56810766E+02</rscale>
<asrwt>0</asrwt>
<pdfrwt beam="1">  1        2 0.73251052E-01 0.83849823E+02</pdfrwt>
<pdfrwt beam="2">  1       -2 0.86061048E-03 0.83849823E+02</pdfrwt>
<totfact> 0.14751081E+05</totfact>
</mgrwt>
</event>
<event>
 6    1  0.2852411E-002  0.9266615E+02  0.7546771E-02  0.1408269E+00
         -1   -1    0    0    0  501 -0.00000000000E+00  0.00000000000E+00  0.12519525019E+02  0.12519525019E+02  0.00000000000E+00 0.  1.
          1   -1    0    0  501    0  0.00000000000E+00 -0.00000000000E+00 -0.23734861062E+03  0.23734861062E+03  0.00000000000E+00 0. -1.
         23    2    1    2    0    0 -0.93118607201E+01  0.10206338342E+02 -0.21034093461E+03  0.22984848001E+03  0.91630425606E+02 0.  0.
         11    1    3    3    0    0 -0.98203655307E+01 -0.40643842896E+02 -0.94856031213E+02  0.10366305129E+03  0.00000000000E+00 0. -1.
        -11    1    3    3    0    0  0.50850481069E+00  0.50850181237E+02 -0.11548490340E+03  0.12618542872E+03  0.00000000000E+00 0.  1.
         22    1    1    2    0    0  0.93118607201E+01 -0.10206338342E+02 -0.14488150984E+02  0.20019655625E+02  0.00000000000E+00 0. -1.
<mgrwt>
<rscale>  0 0.57581890E+02</rscale>
<asrwt>0</asrwt>
<pdfrwt beam="1">  1        1 0.36515171E-01 0.92666148E+02</pdfrwt>
<pdfrwt beam="2">  1       -1 0.19260808E-02 0.92666148E+02</pdfrwt>
<totfact> 0.73826514E+04</totfact>
</mgrwt>
</event>
<event>
 6    1  0.2852411E-002  0.9228619E+02  0.7546771E-02  0.1420501E+00
          1   -1    0    0  501    0  0.00000000000E+00  0.00000000000E+00  0.13319728422E+03  0.13319728422E+03  0.00000000000E+00 0. -1.
         -1   -1    0    0    0  501 -0.00000000000E+00 -0.00000000000E+00 -0.23894916475E+02  0.23894916475E+02  0.00000000000E+00 0.  1.
         23    2    1    2    0    0 -0.65545274185E+01 -0.95350937244E+01  0.11208784053E+03  0.14519099485E+03  0.91557966060E+02 0.  0.
         11    1    3    3    0    0  0.19030857043E+02 -0.35360739906E+02  0.17399927085E+02  0.43764288056E+02  0.00000000000E+00 0.  1.
        -11    1    3    3    0    0 -0.25585384461E+02  0.25825646182E+02  0.94687913441E+02  0.10142670679E+03  0.00000000000E+00 0. -1.
         22    1    1    2    0    0  0.65545274185E+01  0.95350937244E+01 -0.27854727810E+01  0.11901205848E+02  0.00000000000E+00 0. -1.
<mgrwt>
<rscale>  0 0.54915120E+02</rscale>
<asrwt>0</asrwt>
<pdfrwt beam="1">  1        1 0.20491890E-01 0.92286191E+02</pdfrwt>
<pdfrwt beam="2">  1       -1 0.36761411E-02 0.92286191E+02</pdfrwt>
<totfact> 0.59501219E+04</totfact>
</mgrwt>
</event>
<event>
 6    1  0.2852411E-002  0.9228831E+02  0.7546771E-02  0.1419169E+00
         -2   -1    0    0    0  501 -0.00000000000E+00  0.00000000000E+00  0.16389440035E+03  0.16389440035E+03  0.00000000000E+00 0.  1.
          2   -1    0    0  501    0  0.00000000000E+00 -0.00000000000E+00 -0.16532806911E+02  0.16532806911E+02  0.00000000000E+00 0. -1.
         23    2    1    2    0    0 -0.11628529853E+02  0.20586039515E+01  0.12981391788E+03  0.15927581312E+03  0.91529617129E+02 0.  0.
         11    1    3    3    0    0 -0.50525401499E+02 -0.98999147246E+01  0.68654392315E+02  0.85815208980E+02  0.00000000000E+00 0.  1.
        -11    1    3    3    0    0  0.38896871646E+02  0.11958518676E+02  0.61159525568E+02  0.73460604139E+02  0.00000000000E+00 0. -1.
         22    1    1    2    0    0  0.11628529853E+02 -0.20586039515E+01  0.17547675560E+02  0.21151394146E+02  0.00000000000E+00 0. -1.
<mgrwt>
<rscale>  0 0.55197121E+02</rscale>
<asrwt>0</asrwt>
<pdfrwt beam="1">  1        2 0.25435089E-02 0.92288306E+02</pdfrwt>
<pdfrwt beam="2">  1       -2 0.25214522E-01 0.92288306E+02</pdfrwt>
<totfact> 0.47404153E+04</totfact>
</mgrwt>
</event>
<event>
 6    1  0.2852411E-002  0.9213479E+02  0.7546771E-02  0.1412366E+00
         -2   -1    0    0    0  501 -0.00000000000E+00  0.00000000000E+00  0.23532005968E+01  0.23532005968E+01  0.00000000000E+00 0.  1.
          2   -1    0    0  501    0  0.00000000000E+00 -0.00000000000E+00 -0.37855157096E+04  0.37855157096E+04  0.00000000000E+00 0. -1.
         23    2    1    2    0    0  0.10689802713E+02  0.77201575924E+01 -0.37606535564E+04  0.37617820234E+04  0.91186334837E+02 0.  0.
         11    1    3    3    0    0  0.48474749389E+02  0.18420846337E+02 -0.18596447243E+04  0.18603676060E+04  0.00000000000E+00 0. -1.
        -11    1    3    3    0    0 -0.37784946675E+02 -0.10700688745E+02 -0.19010088321E+04  0.19014144174E+04  0.00000000000E+00 0.  1.
         22    1    1    2    0    0 -0.10689802713E+02 -0.77201575924E+01 -0.22508952644E+02  0.26086886829E+02  0.00000000000E+00 0.  1.
<mgrwt>
<rscale>  0 0.56669148E+02</rscale>
<asrwt>0</asrwt>
<pdfrwt beam="1">  1        2 0.58238405E+00 0.92134795E+02</pdfrwt>
<pdfrwt beam="2">  1       -2 0.36203271E-03 0.92134795E+02</pdfrwt>
<totfact> 0.60558556E+03</totfact>
</mgrwt>
</event>
<event>
 6    1  0.2852411E-002  0.9363734E+02  0.7546771E-02  0.1381300E+00
          2   -1    0    0  501    0  0.00000000000E+00  0.00000000000E+00  0.69591834281E+03  0.69591834281E+03  0.00000000000E+00 0.  1.
         -2   -1    0    0    0  501 -0.00000000000E+00 -0.00000000000E+00 -0.10334564462E+02  0.10334564462E+02  0.00000000000E+00 0. -1.
         23    2    1    2    0    0  0.20429534934E+02 -0.25894307777E+01  0.67780089790E+03  0.68423826947E+03  0.91344847524E+02 0.  0.
         11    1    3    3    0    0  0.14498754340E+02  0.19912731241E+02  0.47490007669E+02  0.53497958571E+02  0.00000000000E+00 0. -1.
        -11    1    3    3    0    0  0.59307805942E+01 -0.22502162018E+02  0.63031089023E+03  0.63074031090E+03  0.00000000000E+00 0.  1.
         22    1    1    2    0    0 -0.20429534934E+02  0.25894307777E+01  0.77828804508E+01  0.22014637801E+02  0.00000000000E+00 0. -1.
<mgrwt>
<rscale>  0 0.64123415E+02</rscale>
<asrwt>0</asrwt>
<pdfrwt beam="1">  1        2 0.10706432E+00 0.93637344E+02</pdfrwt>
<pdfrwt beam="2">  1       -2 0.15899335E-02 0.93637344E+02</pdfrwt>
<totfact> 0.41122078E+04</totfact>
</mgrwt>
</event>
<event>
 6    1  0.2852411E-002  0.9324870E+02  0.7546771E-02  0.1418063E+00
         -2   -1    0    0    0  501 -0.00000000000E+00  0.00000000000E+00  0.62376255545E+01  0.62376255545E+01  0.00000000000E+00 0.  1.
          2   -1    0    0  501    0  0.00000000000E+00 -0.00000000000E+00 -0.44516176417E+03  0.44516176417E+03  0.00000000000E+00 0. -1.
         23    2    1    2    0    0 -0.10645942188E+02 -0.47192427102E+01 -0.40243352632E+03  0.41309570684E+03  0.92518714681E+02 0.  0.
         13    1    3    3    0    0 -0.15915262598E+02 -0.47501253510E+02 -0.22282370731E+03  0.22838579029E+03  0.00000000000E+00 0.  1.
        -13    1    3    3    0    0  0.52693204092E+01  0.42782010800E+02 -0.17960981901E+03  0.18470991655E+03  0.00000000000E+00 0. -1.
         22    1    1    2    0    0  0.10645942188E+02  0.47192427102E+01 -0.36490612294E+02  0.38303682883E+02  0.00000000000E+00 0. -1.
<mgrwt>
<rscale>  0 0.55432885E+02</rscale>
<asrwt>0</asrwt>
<pdfrwt beam="1">  1        2 0.68486445E-01 0.93248699E+02</pdfrwt>
<pdfrwt beam="2">  1       -2 0.95963443E-03 0.93248699E+02</pdfrwt>
<totfact> 0.13817815E+05</totfact>
</mgrwt>
</event>
<event>
 6    1  0.2852411E-002  0.1084188E+03  0.7546771E-02  0.1382238E+00
         -1   -1    0    0    0  501 -0.00000000000E+00  0.00000000000E+00  0.15821799209E+02  0.15821799209E+02  0.00000000000E+00 0.  1.
          1   -1    0    0  501    0  0.00000000000E+00 -0.00000000000E+00 -0.42832356099E+03  0.42832356099E+03  0.00000000000E+00 0. -1.
         23    2    1    2    0    0 -0.13131744565E+01  0.12999214761E+02 -0.41658073154E+03  0.43045806661E+03  0.10762870066E+03 0.  0.
         13    1    3    3    0    0  0.37561455891E+02  0.36377120328E+02 -0.12695809561E+03  0.13730446422E+03  0.00000000000E+00 0.  1.
        -13    1    3    3    0    0 -0.38874630348E+02 -0.23377905567E+02 -0.28962263593E+03  0.29315360239E+03  0.00000000000E+00 0. -1.
         22    1    1    2    0    0  0.13131744565E+01 -0.12999214761E+02  0.40789697591E+01  0.13687293591E+02  0.00000000000E+00 0.  1.
<mgrwt>
<rscale>  0 0.63879129E+02</rscale>
<asrwt>0</asrwt>
<pdfrwt beam="1">  1        1 0.65895920E-01 0.10841882E+03</pdfrwt>
<pdfrwt beam="2">  1       -1 0.24341234E-02 0.10841882E+03</pdfrwt>
<totfact> 0.26003430E+04</totfact>
</mgrwt>
</event>
<event>
 6    1  0.2852411E-002  0.9022042E+02  0.7546771E-02  0.1433968E+00
         -2   -1    0    0    0  501 -0.00000000000E+00  0.00000000000E+00  0.18918412136E+02  0.18918412136E+02  0.00000000000E+00 0.  1.
          2   -1    0    0  501    0  0.00000000000E+00 -0.00000000000E+00 -0.24271748398E+03  0.24271748398E+03  0.00000000000E+00 0. -1.
         23    2    1    2    0    0 -0.98299548914E+01 -0.22690575421E+01 -0.23181361001E+03  0.24875143037E+03  0.89654602170E+02 0.  0.
         13    1    3    3    0    0  0.27614704389E+02 -0.12178873424E+02 -0.27603988861E+02  0.40900819765E+02  0.00000000000E+00 0.  1.
        -13    1    3    3    0    0 -0.37444659281E+02  0.99098158818E+01 -0.20420962115E+03  0.20785061061E+03  0.00000000000E+00 0. -1.
         22    1    1    2    0    0  0.98299548914E+01  0.22690575421E+01  0.80145381720E+01  0.12884465740E+02  0.00000000000E+00 0. -1.
<mgrwt>
<rscale>  0 0.52171659E+02</rscale>
<asrwt>0</asrwt>
<pdfrwt beam="1">  1        2 0.37341150E-01 0.90220421E+02</pdfrwt>
<pdfrwt beam="2">  1       -2 0.29105251E-02 0.90220421E+02</pdfrwt>
<totfact> 0.53098763E+04</totfact>
</mgrwt>
</event>
<event>
 6    1  0.2852411E-002  0.9419187E+02  0.7546771E-02  0.1380874E+00
         -2   -1    0    0    0  501 -0.00000000000E+00  0.00000000000E+00  0.35873079517E+01  0.35873079517E+01  0.00000000000E+00 0.  1.
          2   -1    0    0  501    0  0.00000000000E+00 -0.00000000000E+00 -0.95433957851E+03  0.95433957851E+03  0.00000000000E+00 0. -1.
         23    2    1    2    0    0  0.12961159308E+02 -0.15717253208E+02 -0.84472024712E+03  0.84995553057E+03  0.91962407268E+02 0.  0.
         11    1    3    3    0    0  0.20611031514E+02 -0.26904843335E+02 -0.82676527609E+03  0.82745967090E+03  0.00000000000E+00 0. -1.
        -11    1    3    3    0    0 -0.76498722059E+01  0.11187590127E+02 -0.17954971030E+02  0.22495859671E+02  0.00000000000E+00 0.  1.
         22    1    1    2    0    0 -0.12961159308E+02  0.15717253208E+02 -0.10603202344E+03  0.10797135590E+03  0.00000000000E+00 0. -1.
<mgrwt>
<rscale>  0 0.64234622E+02</rscale>
<asrwt>0</asrwt>
<pdfrwt beam="1">  1        2 0.14682138E+00 0.94191868E+02</pdfrwt>
<pdfrwt beam="2">  1       -2 0.55189386E-03 0.94191868E+02</pdfrwt>
<totfact> 0.12458763E+05</totfact>
</mgrwt>
</event>
<event>
 6    1  0.2852411E-002  0.9770634E+02  0.7546771E-02  0.1401030E+00
         -2   -1    0    0    0  501 -0.00000000000E+00  0.00000000000E+00  0.29738822026E+02  0.29738822026E+02  0.00000000000E+00 0. -1.
          2   -1    0    0  501    0  0.00000000000E+00 -0.00000000000E+00 -0.11065213050E+03  0.11065213050E+03  0.00000000000E+00 0.  1.
         23    2    1    2    0    0 -0.12423103542E+02  0.44837764372E+01 -0.81405021740E+02  0.12717431397E+03  0.96809559526E+02 0.  0.
         13    1    3    3    0    0 -0.25869350437E+02 -0.13082617071E+02  0.11860052666E+02  0.31321542278E+02  0.00000000000E+00 0. -1.
        -13    1    3    3    0    0  0.13446246895E+02  0.17566393508E+02 -0.93265074406E+02  0.95852771688E+02  0.00000000000E+00 0.  1.
         22    1    1    2    0    0  0.12423103542E+02 -0.44837764372E+01  0.49171327017E+00  0.13216638555E+02  0.00000000000E+00 0. -1.
<mgrwt>
<rscale>  0 0.59244374E+02</rscale>
<asrwt>0</asrwt>
<pdfrwt beam="1">  1        2 0.17023405E-01 0.97706338E+02</pdfrwt>
<pdfrwt beam="2">  1       -2 0.45752034E-02 0.97706338E+02</pdfrwt>
<totfact> 0.65190357E+04</totfact>
</mgrwt>
</event>
<event>
 6    1  0.2852411E-002  0.9502641E+02  0.7546771E-02  0.1368593E+00
         -2   -1    0    0    0  501 -0.00000000000E+00  0.00000000000E+00  0.16704137710E+02  0.16704137710E+02  0.00000000000E+00 0.  1.
          2   -1    0    0  501    0  0.00000000000E+00 -0.00000000000E+00 -0.47418344241E+03  0.47418344241E+03  0.00000000000E+00 0. -1.
         23    2    1    2    0    0  0.23347937159E+02  0.66580004476E+01 -0.45682108750E+03  0.46659996209E+03  0.91872539412E+02 0.  0.
         11    1    3    3    0    0  0.23227218671E+02 -0.28289654853E+02 -0.38490989124E+03  0.38664639225E+03  0.00000000000E+00 0. -1.
        -11    1    3    3    0    0  0.12071848809E+00  0.34947655300E+02 -0.71911196258E+02  0.79953569847E+02  0.00000000000E+00 0.  1.
         22    1    1    2    0    0 -0.23347937159E+02 -0.66580004476E+01 -0.65821719628E+00  0.24287618027E+02  0.00000000000E+00 0.  1.
<mgrwt>
<rscale>  0 0.67559992E+02</rscale>
<asrwt>0</asrwt>
<pdfrwt beam="1">  1        2 0.72951287E-01 0.95026410E+02</pdfrwt>
<pdfrwt beam="2">  1       -2 0.25698677E-02 0.95026410E+02</pdfrwt>
<totfact> 0.31646597E+04</totfact>
</mgrwt>
</event>
<event>
 6    1  0.2852411E-002  0.1058515E+03  0.7546771E-02  0.1310351E+00
          2   -1    0    0  501    0  0.00000000000E+00  0.00000000000E+00  0.15838594390E+04  0.15838594390E+04  0.00000000000E+00 0. -1.
         -2   -1    0    0    0  501 -0.00000000000E+00 -0.00000000000E+00 -0.46055527576E+01  0.46055527576E+01  0.00000000000E+00 0.  1.
         23    2    1    2    0    0 -0.46887898026E+02 -0.11364245378E+02  0.13524785417E+04  0.13566144408E+04  0.94217378259E+02 0.  0.
         13    1    3    3    0    0  0.40913808509E+01 -0.32349596532E+02  0.92776333933E+03  0.92833617273E+03  0.00000000000E+00 0.  1.
        -13    1    3    3    0    0 -0.50979278877E+02  0.20985351154E+02  0.42471520233E+03  0.42827826810E+03  0.00000000000E+00 0. -1.
         22    1    1    2    0    0  0.46887898026E+02  0.11364245378E+02  0.22677534457E+03  0.23185055091E+03  0.00000000000E+00 0.  1.
<mgrwt>
<rscale>  0 0.86973456E+02</rscale>
<asrwt>0</asrwt>
<pdfrwt beam="1">  1        2 0.24367025E+00 0.10585148E+03</pdfrwt>
<pdfrwt beam="2">  1       -2 0.70854784E-03 0.10585148E+03</pdfrwt>
<totfact> 0.40452620E+04</totfact>
</mgrwt>
</event>
<event>
 6    1  0.2852411E-002  0.9386604E+02  0.7546771E-02  0.1400381E+00
          2   -1    0    0  501    0  0.00000000000E+00  0.00000000000E+00  0.39720155895E+03  0.39720155895E+03  0.00000000000E+00 0.  1.
         -2   -1    0    0    0  501 -0.00000000000E+00 -0.00000000000E+00 -0.18111630047E+02  0.18111630047E+02  0.00000000000E+00 0. -1.
         23    2    1    2    0    0  0.14721836776E+02  0.31236126437E+01  0.38706300029E+03  0.39828206158E+03  0.92651740134E+02 0.  0.
         11    1    3    3    0    0 -0.34329028556E+02  0.10902387614E+02  0.87391627730E+02  0.94523229179E+02  0.00000000000E+00 0. -1.
        -11    1    3    3    0    0  0.49050865332E+02 -0.77787749700E+01  0.29967137256E+03  0.30375883240E+03  0.00000000000E+00 0.  1.
         22    1    1    2    0    0 -0.14721836776E+02 -0.31236126437E+01 -0.79730713814E+01  0.17031127422E+02  0.00000000000E+00 0. -1.
<mgrwt>
<rscale>  0 0.59396709E+02</rscale>
<asrwt>0</asrwt>
<pdfrwt beam="1">  1        2 0.61107926E-01 0.93866045E+02</pdfrwt>
<pdfrwt beam="2">  1       -2 0.27864049E-02 0.93866045E+02</pdfrwt>
<totfact> 0.33928151E+04</totfact>
</mgrwt>
</event>
<event>
 6    1  0.2852411E-002  0.9687779E+02  0.7546771E-02  0.1347247E+00
          2   -1    0    0  501    0  0.00000000000E+00  0.00000000000E+00  0.48862375205E+02  0.48862375205E+02  0.00000000000E+00 0. -1.
         -2   -1    0    0    0  501 -0.00000000000E+00 -0.00000000000E+00 -0.86352952311E+02  0.86352952311E+02  0.00000000000E+00 0.  1.
         23    2    1    2    0    0 -0.32214963489E+02 -0.63711383236E+01 -0.31211744564E+02  0.10178152704E+03  0.91142256786E+02 0.  0.
         13    1    3    3    0    0 -0.61665706839E+02  0.70134030712E+01 -0.94134301491E+01  0.62773082525E+02  0.00000000000E+00 0. -1.
        -13    1    3    3    0    0  0.29450743350E+02 -0.13384541395E+02 -0.21798314415E+02  0.39008444516E+02  0.00000000000E+00 0.  1.
         22    1    1    2    0    0  0.32214963489E+02  0.63711383236E+01 -0.62788325413E+01  0.33433800475E+02  0.00000000000E+00 0.  1.
<mgrwt>
<rscale>  0 0.73920588E+02</rscale>
<asrwt>0</asrwt>
<pdfrwt beam="1">  1        2 0.75172886E-02 0.96877790E+02</pdfrwt>
<pdfrwt beam="2">  1       -2 0.13285069E-01 0.96877790E+02</pdfrwt>
<totfact> 0.33823318E+04</totfact>
</mgrwt>
</event>
<event>
 6    1  0.2852411E-002  0.9248214E+02  0.7546771E-02  0.1404165E+00
         -2   -1    0    0    0  501 -0.00000000000E+00  0.00000000000E+00  0.20243012238E+01  0.20243012238E+01  0.00000000000E+00 0.  1.
          2   -1    0    0  501    0  0.00000000000E+00 -0.00000000000E+00 -0.24866939316E+04  0.24866939316E+04  0.00000000000E+00 0. -1.
         23    2    1    2    0    0 -0.21600727377E+00 -0.14821614371E+02 -0.24379485911E+04  0.24397020883E+04  0.91286471969E+02 0.  0.
         13    1    3    3    0    0 -0.24420544390E+02 -0.38815263789E+02 -0.19615385707E+04  0.19620745531E+04  0.00000000000E+00 0. -1.
        -13    1    3    3    0    0  0.24204537116E+02  0.23993649418E+02 -0.47641002037E+03  0.47762753515E+03  0.00000000000E+00 0.  1.
         22    1    1    2    0    0  0.21600727377E+00  0.14821614371E+02 -0.46721039302E+02  0.49016144536E+02  0.00000000000E+00 0.  1.
<mgrwt>
<rscale>  0 0.58516565E+02</rscale>
<asrwt>0</asrwt>
<pdfrwt beam="1">  1        2 0.38256765E+00 0.92482144E+02</pdfrwt>
<pdfrwt beam="2">  1       -2 0.31143148E-03 0.92482144E+02</pdfrwt>
<totfact> 0.44017461E+04</totfact>
</mgrwt>
</event>
<event>
 6    1  0.2852411E-002  0.9322927E+02  0.7546771E-02  0.1379245E+00
          4   -1    0    0  501    0  0.00000000000E+00  0.00000000000E+00  0.20200493800E+02  0.20200493800E+02  0.00000000000E+00 0. -1.
         -4   -1    0    0    0  501 -0.00000000000E+00 -0.00000000000E+00 -0.20329692608E+03  0.20329692608E+03  0.00000000000E+00 0.  1.
         23    2    1    2    0    0 -0.30421632261E+01 -0.21359771047E+02 -0.96202358782E+02  0.13396488621E+03  0.90698414129E+02 0.  0.
         11    1    3    3    0    0  0.45072234351E+01  0.11344649393E+02 -0.99493398769E+02  0.10023947591E+03  0.00000000000E+00 0.  1.
        -11    1    3    3    0    0 -0.75493866611E+01 -0.32704420441E+02  0.32910399877E+01  0.33725410295E+02  0.00000000000E+00 0. -1.
         22    1    1    2    0    0  0.30421632261E+01  0.21359771047E+02 -0.86894073495E+02  0.89532533667E+02  0.00000000000E+00 0.  1.
<mgrwt>
<rscale>  0 0.64662657E+02</rscale>
<asrwt>0</asrwt>
<pdfrwt beam="1">  1        4 0.31077684E-02 0.93229271E+02</pdfrwt>
<pdfrwt beam="2">  1       -4 0.31276449E-01 0.93229271E+02</pdfrwt>
<totfact> 0.73771494E+03</totfact>
</mgrwt>
</event>
<event>
 6    1  0.2852411E-002  0.1131901E+03  0.7546771E-02  0.1284004E+00
          1   -1    0    0  501    0  0.00000000000E+00  0.00000000000E+00  0.10734650074E+04  0.10734650074E+04  0.00000000000E+00 0. -1.
         -1   -1    0    0    0  501 -0.00000000000E+00 -0.00000000000E+00 -0.77559454302E+01  0.77559454302E+01  0.00000000000E+00 0.  1.
         23    2    1    2    0    0  0.49253977978E+02  0.41293890051E+02  0.79315265486E+03  0.80118857120E+03  0.93171095376E+02 0.  0.
         13    1    3    3    0    0  0.28678883532E+02 -0.27999832155E+02  0.23827601917E+03  0.24162353005E+03  0.00000000000E+00 0. -1.
        -13    1    3    3    0    0  0.20575094445E+02  0.69293722207E+02  0.55487663569E+03  0.55956504116E+03  0.00000000000E+00 0.  1.
         22    1    1    2    0    0 -0.49253977978E+02 -0.41293890051E+02  0.27255640707E+03  0.28003238158E+03  0.00000000000E+00 0.  1.
<mgrwt>
<rscale>  0 0.98257337E+02</rscale>
<asrwt>0</asrwt>
<pdfrwt beam="1">  1        1 0.16514834E+00 0.11319007E+03</pdfrwt>
<pdfrwt beam="2">  1       -1 0.11932232E-02 0.11319007E+03</pdfrwt>
<totfact> 0.19362419E+04</totfact>
</mgrwt>
</event>
<event>
 6    1  0.2852411E-002  0.1004192E+03  0.7546771E-02  0.1362770E+00
         -2   -1    0    0    0  501 -0.00000000000E+00  0.00000000000E+00  0.50692997776E+01  0.50692997776E+01  0.00000000000E+00 0.  1.
          2   -1    0    0  501    0  0.00000000000E+00 -0.00000000000E+00 -0.74771135701E+03  0.74771135701E+03  0.00000000000E+00 0. -1.
         23    2    1    2    0    0  0.19345499515E+02  0.11817989955E+02 -0.61342951895E+03  0.62159455506E+03  0.97826902836E+02 0.  0.
         13    1    3    3    0    0  0.17766607484E+02  0.53448132731E+02 -0.41772082437E+03  0.42150093991E+03  0.00000000000E+00 0. -1.
        -13    1    3    3    0    0  0.15788920309E+01 -0.41630142776E+02 -0.19570869458E+03  0.20009361515E+03  0.00000000000E+00 0.  1.
         22    1    1    2    0    0 -0.19345499515E+02 -0.11817989955E+02 -0.12921253829E+03  0.13118610174E+03  0.00000000000E+00 0. -1.
<mgrwt>
<rscale>  0 0.69218758E+02</rscale>
<asrwt>0</asrwt>
<pdfrwt beam="1">  1        2 0.11503239E+00 0.10041920E+03</pdfrwt>
<pdfrwt beam="2">  1       -2 0.77989314E-03 0.10041920E+03</pdfrwt>
<totfact> 0.10484637E+05</totfact>
</mgrwt>
</event>
<event>
 6    1  0.2852411E-002  0.8975352E+02  0.7546771E-02  0.1433158E+00
         -1   -1    0    0    0  501 -0.00000000000E+00  0.00000000000E+00  0.24500033985E+01  0.24500033985E+01  0.00000000000E+00 0.  1.
          1   -1    0    0  501    0  0.00000000000E+00 -0.00000000000E+00 -0.10899581202E+04  0.10899581202E+04  0.00000000000E+00 0. -1.
         23    2    1    2    0    0  0.10055193555E+02 -0.25469608992E+01 -0.10350600476E+04  0.10389441742E+04  0.89152122489E+02 0.  0.
         11    1    3    3    0    0 -0.22170234666E+02  0.30475465014E+02 -0.65680912560E+03  0.65788942897E+03  0.00000000000E+00 0. -1.
        -11    1    3    3    0    0  0.32225428221E+02 -0.33022425913E+02 -0.37825092201E+03  0.38105474520E+03  0.00000000000E+00 0.  1.
         22    1    1    2    0    0 -0.10055193555E+02  0.25469608992E+01 -0.52448069220E+02  0.53463949463E+02  0.00000000000E+00 0. -1.
<mgrwt>
<rscale>  0 0.52331369E+02</rscale>
<asrwt>0</asrwt>
<pdfrwt beam="1">  1        1 0.16768575E+00 0.89753523E+02</pdfrwt>
<pdfrwt beam="2">  1       -1 0.37692385E-03 0.89753523E+02</pdfrwt>
<totfact> 0.93218283E+04</totfact>
</mgrwt>
</event>
<event>
 6    1  0.2852411E-002  0.9198302E+02  0.7546771E-02  0.1419349E+00
         -3   -1    0    0    0  501 -0.00000000000E+00  0.00000000000E+00  0.50838733037E+03  0.50838733037E+03  0.00000000000E+00 0.  1.
          3   -1    0    0  501    0  0.00000000000E+00 -0.00000000000E+00 -0.54019681162E+01  0.54019681162E+01  0.00000000000E+00 0. -1.
         23    2    1    2    0    0 -0.74328773863E+01  0.92858135650E+01  0.46401576877E+03  0.47304493426E+03  0.91210756838E+02 0.  0.
         11    1    3    3    0    0 -0.36555437824E+02 -0.24078473458E+02  0.29910882890E+03  0.30229483033E+03  0.00000000000E+00 0.  1.
        -11    1    3    3    0    0  0.29122560438E+02  0.33364287023E+02  0.16490693987E+03  0.17075010393E+03  0.00000000000E+00 0. -1.
         22    1    1    2    0    0  0.74328773863E+01 -0.92858135650E+01  0.38969593482E+02  0.40744364223E+02  0.00000000000E+00 0.  1.
<mgrwt>
<rscale>  0 0.55158866E+02</rscale>
<asrwt>0</asrwt>
<pdfrwt beam="1">  1        3 0.83107242E-03 0.91983021E+02</pdfrwt>
<pdfrwt beam="2">  1       -3 0.78213398E-01 0.91983021E+02</pdfrwt>
<totfact> 0.11705430E+04</totfact>
</mgrwt>
</event>
<event>
 6    1  0.2852411E-002  0.9550356E+02  0.7546771E-02  0.1351206E+00
         -2   -1    0    0    0  501 -0.00000000000E+00  0.00000000000E+00  0.10935812744E+02  0.10935812744E+02  0.00000000000E+00 0. -1.
          2   -1    0    0  501    0  0.00000000000E+00 -0.00000000000E+00 -0.75257360153E+03  0.75257360153E+03  0.00000000000E+00 0.  1.
         23    2    1    2    0    0 -0.25592857141E+02 -0.19268243481E+02 -0.71637104534E+03  0.72270907276E+03  0.89970382375E+02 0.  0.
         13    1    3    3    0    0 -0.28474018065E+02 -0.32505162720E+02 -0.70054644302E+03  0.70187796243E+03  0.00000000000E+00 0.  1.
        -13    1    3    3    0    0  0.28811609236E+01  0.13236919239E+02 -0.15824602316E+02  0.20831110332E+02  0.00000000000E+00 0. -1.
         22    1    1    2    0    0  0.25592857141E+02  0.19268243481E+02 -0.25266743451E+02  0.40800341519E+02  0.00000000000E+00 0. -1.
<mgrwt>
<rscale>  0 0.72681153E+02</rscale>
<asrwt>0</asrwt>
<pdfrwt beam="1">  1        2 0.11578053E+00 0.95503556E+02</pdfrwt>
<pdfrwt beam="2">  1       -2 0.16824331E-02 0.95503556E+02</pdfrwt>
<totfact> 0.34650426E+04</totfact>
</mgrwt>
</event>
<event>
 6    1  0.2852411E-002  0.9031930E+02  0.7546771E-02  0.1434236E+00
          2   -1    0    0  501    0  0.00000000000E+00  0.00000000000E+00  0.35816213870E+03  0.35816213870E+03  0.00000000000E+00 0. -1.
         -2   -1    0    0    0  501 -0.00000000000E+00 -0.00000000000E+00 -0.11891296573E+02  0.11891296573E+02  0.00000000000E+00 0.  1.
         23    2    1    2    0    0 -0.66167183351E+01 -0.75176698761E+01  0.34831292072E+03  0.35983255435E+03  0.89762353515E+02 0.  0.
         11    1    3    3    0    0 -0.44743267464E+02 -0.21432098647E+02  0.20082169961E+03  0.20685900964E+03  0.00000000000E+00 0. -1.
        -11    1    3    3    0    0  0.38126549129E+02  0.13914428770E+02  0.14749122111E+03  0.15297354471E+03  0.00000000000E+00 0.  1.
         22    1    1    2    0    0  0.66167183351E+01  0.75176698761E+01 -0.20420785913E+01  0.10220880924E+02  0.00000000000E+00 0.  1.
<mgrwt>
<rscale>  0 0.52118998E+02</rscale>
<asrwt>0</asrwt>
<pdfrwt beam="1">  1        2 0.55101859E-01 0.90319303E+02</pdfrwt>
<pdfrwt beam="2">  1       -2 0.18294305E-02 0.90319303E+02</pdfrwt>
<totfact> 0.69039438E+04</totfact>
</mgrwt>
</event>
<event>
 6    1  0.2852411E-002  0.9557364E+02  0.7546771E-02  0.1350994E+00
         -2   -1    0    0    0  501 -0.00000000000E+00  0.00000000000E+00  0.10181744647E+02  0.10181744647E+02  0.00000000000E+00 0.  1.
          2   -1    0    0  501    0  0.00000000000E+00 -0.00000000000E+00 -0.40524597117E+03  0.40524597117E+03  0.00000000000E+00 0. -1.
         23    2    1    2    0    0  0.18793615192E+02  0.25999267806E+02 -0.27422530148E+03  0.29040288747E+03  0.90028657541E+02 0.  0.
         13    1    3    3    0    0  0.31923189430E+01 -0.20347694433E+02 -0.12381466529E+02  0.24031651678E+02  0.00000000000E+00 0.  1.
        -13    1    3    3    0    0  0.15601296249E+02  0.46346962239E+02 -0.26184383495E+03  0.26637123579E+03  0.00000000000E+00 0. -1.
         22    1    1    2    0    0 -0.18793615192E+02 -0.25999267806E+02 -0.12083892504E+03  0.12502482835E+03  0.00000000000E+00 0.  1.
<mgrwt>
<rscale>  0 0.72746829E+02</rscale>
<asrwt>0</asrwt>
<pdfrwt beam="1">  1        2 0.62345524E-01 0.95573642E+02</pdfrwt>
<pdfrwt beam="2">  1       -2 0.15664225E-02 0.95573642E+02</pdfrwt>
<totfact> 0.76305716E+04</totfact>
</mgrwt>
</event>
<event>
 6    1  0.2852411E-002  0.8853995E+02  0.7546771E-02  0.1421828E+00
          2   -1    0    0  501    0  0.00000000000E+00  0.00000000000E+00  0.25835160470E+02  0.25835160470E+02  0.00000000000E+00 0. -1.
         -2   -1    0    0    0  501 -0.00000000000E+00 -0.00000000000E+00 -0.10041432946E+03  0.10041432946E+03  0.00000000000E+00 0.  1.
         23    2    1    2    0    0  0.11352826477E+02  0.59939284072E+01 -0.69002030889E+02  0.11225240752E+03  0.87604274322E+02 0.  0.
         11    1    3    3    0    0  0.39422757857E+02 -0.15039395592E+02 -0.96076693306E+01  0.43274063443E+02  0.00000000000E+00 0. -1.
        -11    1    3    3    0    0 -0.28069931380E+02  0.21033323999E+02 -0.59394361559E+02  0.68978344074E+02  0.00000000000E+00 0.  1.
         22    1    1    2    0    0 -0.11352826477E+02 -0.59939284072E+01 -0.55771381035E+01  0.13997082417E+02  0.00000000000E+00 0. -1.
<mgrwt>
<rscale>  0 0.54635971E+02</rscale>
<asrwt>0</asrwt>
<pdfrwt beam="1">  1        2 0.39746401E-02 0.88539950E+02</pdfrwt>
<pdfrwt beam="2">  1       -2 0.15448358E-01 0.88539950E+02</pdfrwt>
<totfact> 0.59257347E+04</totfact>
</mgrwt>
</event>
<event>
 6    1  0.2852411E-002  0.2695348E+03  0.7546771E-02  0.1104211E+00
         -2   -1    0    0    0  501 -0.00000000000E+00  0.00000000000E+00  0.13622638321E+03  0.13622638321E+03  0.00000000000E+00 0.  1.
          2   -1    0    0  501    0  0.00000000000E+00 -0.00000000000E+00 -0.53429275853E+03  0.53429275853E+03  0.00000000000E+00 0. -1.
         23    2    1    2    0    0  0.18483217182E+02 -0.25094100786E+03 -0.29221336957E+03  0.39753951325E+03  0.96622939800E+02 0.  0.
         11    1    3    3    0    0  0.46217033603E+02 -0.67912754590E+02 -0.11455028679E+03  0.14096072018E+03  0.00000000000E+00 0. -1.
        -11    1    3    3    0    0 -0.27733816421E+02 -0.18302825327E+03 -0.17766308278E+03  0.25657879307E+03  0.00000000000E+00 0.  1.
         22    1    1    2    0    0 -0.18483217182E+02  0.25094100786E+03 -0.10585300575E+03  0.27297962848E+03  0.00000000000E+00 0.  1.
<mgrwt>
<rscale>  0 0.26494014E+03</rscale>
<asrwt>0</asrwt>
<pdfrwt beam="1">  1        2 0.82198886E-01 0.26953481E+03</pdfrwt>
<pdfrwt beam="2">  1       -2 0.20957905E-01 0.26953481E+03</pdfrwt>
<totfact> 0.11201545E+03</totfact>
</mgrwt>
</event>
<event>
 6    1  0.2852411E-002  0.9408350E+02  0.7546771E-02  0.1371303E+00
          2   -1    0    0  501    0  0.00000000000E+00  0.00000000000E+00  0.28348245244E+03  0.28348245244E+03  0.00000000000E+00 0. -1.
         -2   -1    0    0    0  501 -0.00000000000E+00 -0.00000000000E+00 -0.34038294725E+02  0.34038294725E+02  0.00000000000E+00 0.  1.
         23    2    1    2    0    0 -0.97075297221E+01  0.21859626321E+02  0.27003793901E+03  0.28595837677E+03  0.90992446640E+02 0.  0.
         11    1    3    3    0    0  0.17650034912E+02  0.48417545618E+02  0.19622609394E+03  0.20288041403E+03  0.00000000000E+00 0. -1.
        -11    1    3    3    0    0 -0.27357564634E+02 -0.26557919297E+02  0.73811845076E+02  0.83077962743E+02  0.00000000000E+00 0.  1.
         22    1    1    2    0    0  0.97075297221E+01 -0.21859626321E+02 -0.20593781300E+02  0.31562370387E+02  0.00000000000E+00 0.  1.
<mgrwt>
<rscale>  0 0.66806256E+02</rscale>
<asrwt>0</asrwt>
<pdfrwt beam="1">  1        2 0.43612683E-01 0.94083499E+02</pdfrwt>
<pdfrwt beam="2">  1       -2 0.52366609E-02 0.94083499E+02</pdfrwt>
<totfact> 0.19121438E+04</totfact>
</mgrwt>
</event>
<event>
 6    1  0.2852411E-002  0.1064380E+03  0.7546771E-02  0.1299552E+00
          2   -1    0    0  501    0  0.00000000000E+00  0.00000000000E+00  0.38122115549E+02  0.38122115549E+02  0.00000000000E+00 0. -1.
         -2   -1    0    0    0  501 -0.00000000000E+00 -0.00000000000E+00 -0.19903364351E+03  0.19903364351E+03  0.00000000000E+00 0.  1.
         23    2    1    2    0    0 -0.21520773909E+02  0.53661625311E+02 -0.13957442555E+03  0.17552795949E+03  0.89366271903E+02 0.  0.
         11    1    3    3    0    0  0.15198480689E+02  0.40154224141E+02 -0.12757273924E+03  0.13460371217E+03  0.00000000000E+00 0.  1.
        -11    1    3    3    0    0 -0.36719254598E+02  0.13507401170E+02 -0.12001686310E+02  0.40924247322E+02  0.00000000000E+00 0. -1.
         22    1    1    2    0    0  0.21520773909E+02 -0.53661625311E+02 -0.21337102411E+02  0.61627799571E+02  0.00000000000E+00 0. -1.
<mgrwt>
<rscale>  0 0.91376575E+02</rscale>
<asrwt>0</asrwt>
<pdfrwt beam="1">  1        2 0.58649409E-02 0.10643798E+03</pdfrwt>
<pdfrwt beam="2">  1       -2 0.30620560E-01 0.10643798E+03</pdfrwt>
<totfact> 0.11441066E+04</totfact>
</mgrwt>
</event>
<event>
 6    1  0.2852411E-002  0.9572093E+02  0.7546771E-02  0.1360947E+00
         -1   -1    0    0    0  501 -0.00000000000E+00  0.00000000000E+00  0.29985846904E+02  0.29985846904E+02  0.00000000000E+00 0.  1.
          1   -1    0    0  501    0  0.00000000000E+00 -0.00000000000E+00 -0.14311714805E+03  0.14311714805E+03  0.00000000000E+00 0. -1.
         23    2    1    2    0    0  0.11896188144E+02 -0.24222979589E+02 -0.11018478607E+03  0.14595609857E+03  0.91838029133E+02 0.  0.
         11    1    3    3    0    0  0.48240366653E+02 -0.22981696984E+02 -0.89171861800E+02  0.10395629999E+03  0.00000000000E+00 0. -1.
        -11    1    3    3    0    0 -0.36344178509E+02 -0.12412826043E+01 -0.21012924271E+02  0.41999798576E+02  0.00000000000E+00 0.  1.
         22    1    1    2    0    0 -0.11896188144E+02  0.24222979589E+02 -0.29465150798E+01  0.27146896390E+02  0.00000000000E+00 0.  1.
<mgrwt>
<rscale>  0 0.69749624E+02</rscale>
<asrwt>0</asrwt>
<pdfrwt beam="1">  1        1 0.22018023E-01 0.95720926E+02</pdfrwt>
<pdfrwt beam="2">  1       -1 0.46132072E-02 0.95720926E+02</pdfrwt>
<totfact> 0.39272863E+04</totfact>
</mgrwt>
</event>
<event>
 6    1  0.2852411E-002  0.1134030E+03  0.7546771E-02  0.1288358E+00
         -2   -1    0    0    0  501 -0.00000000000E+00  0.00000000000E+00  0.10445912807E+02  0.10445912807E+02  0.00000000000E+00 0.  1.
          2   -1    0    0  501    0  0.00000000000E+00 -0.00000000000E+00 -0.14492392055E+04  0.14492392055E+04  0.00000000000E+00 0. -1.
         23    2    1    2    0    0 -0.42475848902E+02 -0.40771846344E+02 -0.13391785444E+04  0.13439715095E+04  0.96921118780E+02 0.  0.
         11    1    3    3    0    0 -0.67326316150E+02 -0.12048842009E+02 -0.61372458853E+03  0.61752398982E+03  0.00000000000E+00 0.  1.
        -11    1    3    3    0    0  0.24850467248E+02 -0.28723004336E+02 -0.72545395587E+03  0.72644751964E+03  0.00000000000E+00 0. -1.
         22    1    1    2    0    0  0.42475848902E+02  0.40771846344E+02 -0.99614748269E+02  0.11571360882E+03  0.00000000000E+00 0.  1.
<mgrwt>
<rscale>  0 0.96262138E+02</rscale>
<asrwt>0</asrwt>
<pdfrwt beam="1">  1        2 0.22295986E+00 0.11340302E+03</pdfrwt>
<pdfrwt beam="2">  1       -2 0.16070636E-02 0.11340302E+03</pdfrwt>
<totfact> 0.14847987E+04</totfact>
</mgrwt>
</event>
<event>
 6    1  0.2852411E-002  0.9356159E+02  0.7546771E-02  0.1423330E+00
          2   -1    0    0  501    0  0.00000000000E+00  0.00000000000E+00  0.16139337020E+04  0.16139337020E+04  0.00000000000E+00 0. -1.
         -2   -1    0    0    0  501 -0.00000000000E+00 -0.00000000000E+00 -0.20676248917E+01  0.20676248917E+01  0.00000000000E+00 0.  1.
         23    2    1    2    0    0 -0.38162665779E+01  0.99238091887E+01  0.15707084186E+04  0.15734925192E+04  0.92955504230E+02 0.  0.
         11    1    3    3    0    0  0.11752128561E+02  0.13764034768E+01  0.24759365973E+02  0.27441450684E+02  0.00000000000E+00 0.  1.
        -11    1    3    3    0    0 -0.15568395139E+02  0.85474057118E+01  0.15459490526E+04  0.15460510685E+04  0.00000000000E+00 0. -1.
         22    1    1    2    0    0  0.38162665779E+01 -0.99238091887E+01  0.41157658510E+02  0.42508807716E+02  0.00000000000E+00 0.  1.
<mgrwt>
<rscale>  0 0.54322537E+02</rscale>
<asrwt>0</asrwt>
<pdfrwt beam="1">  1        2 0.24829649E+00 0.93561593E+02</pdfrwt>
<pdfrwt beam="2">  1       -2 0.31809743E-03 0.93561593E+02</pdfrwt>
<totfact> 0.11873571E+05</totfact>
</mgrwt>
</event>
<event>
 6    1  0.2852411E-002  0.9401602E+02  0.7546771E-02  0.1385580E+00
         -2   -1    0    0    0  501 -0.00000000000E+00  0.00000000000E+00  0.45305862403E+01  0.45305862403E+01  0.00000000000E+00 0.  1.
          2   -1    0    0  501    0  0.00000000000E+00 -0.00000000000E+00 -0.91378384546E+03  0.91378384546E+03  0.00000000000E+00 0. -1.
         23    2    1    2    0    0 -0.16471056526E+02  0.94310792294E+01 -0.86589341781E+03  0.87098244669E+03  0.92080239282E+02 0.  0.
         13    1    3    3    0    0 -0.31727539078E+01 -0.44454227452E+01 -0.62112651769E+00  0.54967216497E+01  0.00000000000E+00 0.  1.
        -13    1    3    3    0    0 -0.13298302618E+02  0.13876501975E+02 -0.86527229129E+03  0.86548572504E+03  0.00000000000E+00 0. -1.
         22    1    1    2    0    0  0.16471056526E+02 -0.94310792294E+01 -0.43359841407E+02  0.47331985014E+02  0.00000000000E+00 0.  1.
<mgrwt>
<rscale>  0 0.63019583E+02</rscale>
<asrwt>0</asrwt>
<pdfrwt beam="1">  1        2 0.14058213E+00 0.94016017E+02</pdfrwt>
<pdfrwt beam="2">  1       -2 0.69701326E-03 0.94016017E+02</pdfrwt>
<totfact> 0.94932104E+04</totfact>
</mgrwt>
</event>
<event>
 6    1  0.2852411E-002  0.1022147E+03  0.7546771E-02  0.1321411E+00
         -2   -1    0    0    0  501 -0.00000000000E+00  0.00000000000E+00  0.16970256879E+02  0.16970256879E+02  0.00000000000E+00 0.  1.
          2   -1    0    0  501    0  0.00000000000E+00 -0.00000000000E+00 -0.31731483728E+03  0.31731483728E+03  0.00000000000E+00 0. -1.
         23    2    1    2    0    0  0.70210761799E+01 -0.43351719842E+02 -0.19533962497E+03  0.22046634443E+03  0.92299365221E+02 0.  0.
         13    1    3    3    0    0 -0.34080717212E+00 -0.71636081294E+02 -0.12140534355E+03  0.14096489540E+03  0.00000000000E+00 0.  1.
        -13    1    3    3    0    0  0.73618833520E+01  0.28284361452E+02 -0.73934281416E+02  0.79501449029E+02  0.00000000000E+00 0. -1.
         22    1    1    2    0    0 -0.70210761799E+01  0.43351719842E+02 -0.10500495543E+03  0.11381874972E+03  0.00000000000E+00 0. -1.
<mgrwt>
<rscale>  0 0.82754592E+02</rscale>
<asrwt>0</asrwt>
<pdfrwt beam="1">  1        2 0.48817667E-01 0.10221468E+03</pdfrwt>
<pdfrwt beam="2">  1       -2 0.26108088E-02 0.10221468E+03</pdfrwt>
<totfact> 0.47696965E+04</totfact>
</mgrwt>
</event>
<event>
 6    1  0.2852411E-002  0.9188490E+02  0.7546771E-02  0.1419838E+00
          4   -1    0    0  501    0  0.00000000000E+00  0.00000000000E+00  0.38068547659E+03  0.38068547659E+03  0.00000000000E+00 0.  1.
         -4   -1    0    0    0  501 -0.00000000000E+00 -0.00000000000E+00 -0.76936561458E+01  0.76936561458E+01  0.00000000000E+00 0. -1.
         23    2    1    2    0    0 -0.12858187055E+01  0.11772884315E+02  0.35600439849E+03  0.36767100294E+03  0.91118497172E+02 0.  0.
         11    1    3    3    0    0 -0.16503917127E+02 -0.32063478114E+02  0.79454978324E+02  0.87255598615E+02  0.00000000000E+00 0. -1.
        -11    1    3    3    0    0  0.15218098422E+02  0.43836362429E+02  0.27654942017E+03  0.28041540433E+03  0.00000000000E+00 0.  1.
         22    1    1    2    0    0  0.12858187055E+01 -0.11772884315E+02  0.16987421956E+02  0.20708129794E+02  0.00000000000E+00 0. -1.
<mgrwt>
<rscale>  0 0.55055101E+02</rscale>
<asrwt>0</asrwt>
<pdfrwt beam="1">  1        4 0.58566982E-01 0.91884899E+02</pdfrwt>
<pdfrwt beam="2">  1       -4 0.11836397E-02 0.91884899E+02</pdfrwt>
<totfact> 0.92956563E+03</totfact>
</mgrwt>
</event>
<event>
 6    1  0.2852411E-002  0.9171708E+02  0.7546771E-02  0.1388921E+00
         -2   -1    0    0    0  501 -0.00000000000E+00  0.00000000000E+00  0.32329842392E+01  0.32329842392E+01  0.00000000000E+00 0.  1.
          2   -1    0    0  501    0  0.00000000000E+00 -0.00000000000E+00 -0.10731873856E+04  0.10731873856E+04  0.00000000000E+00 0. -1.
         23    2    1    2    0    0  0.19268960271E+02 -0.19791110902E+01 -0.98617765032E+03  0.99043343057E+03  0.89648272041E+02 0.  0.
         11    1    3    3    0    0 -0.19043442495E+02  0.30878631811E+02 -0.57971580479E+03  0.58084985748E+03  0.00000000000E+00 0. -1.
        -11    1    3    3    0    0  0.38312402766E+02 -0.32857742902E+02 -0.40646184553E+03  0.40958357309E+03  0.00000000000E+00 0.  1.
         22    1    1    2    0    0 -0.19268960271E+02  0.19791110902E+01 -0.83776751018E+02  0.85986939251E+02  0.00000000000E+00 0.  1.
<mgrwt>
<rscale>  0 0.62175876E+02</rscale>
<asrwt>0</asrwt>
<pdfrwt beam="1">  1        2 0.16510594E+00 0.91717078E+02</pdfrwt>
<pdfrwt beam="2">  1       -2 0.49738161E-03 0.91717078E+02</pdfrwt>
<totfact> 0.12244437E+05</totfact>
</mgrwt>
</event>
<event>
 6    1  0.2852411E-002  0.9404104E+02  0.7546771E-02  0.1393289E+00
         -3   -1    0    0    0  501 -0.00000000000E+00  0.00000000000E+00  0.35567498861E+02  0.35567498861E+02  0.00000000000E+00 0.  1.
          3   -1    0    0  501    0  0.00000000000E+00 -0.00000000000E+00 -0.91129955721E+02  0.91129955721E+02  0.00000000000E+00 0. -1.
         23    2    1    2    0    0  0.15262941209E+02  0.69072578431E+01 -0.56859589523E+02  0.10989417697E+03  0.92536747438E+02 0.  0.
         13    1    3    3    0    0  0.31750348930E+02  0.40143936511E+02 -0.13708788783E+02  0.52986330178E+02  0.00000000000E+00 0. -1.
        -13    1    3    3    0    0 -0.16487407721E+02 -0.33236678668E+02 -0.43150800740E+02  0.56907846794E+02  0.00000000000E+00 0.  1.
         22    1    1    2    0    0 -0.15262941209E+02 -0.69072578431E+01  0.12971326623E+01  0.16803277609E+02  0.00000000000E+00 0.  1.
<mgrwt>
<rscale>  0 0.61095905E+02</rscale>
<asrwt>0</asrwt>
<pdfrwt beam="1">  1        3 0.14019993E-01 0.94041040E+02</pdfrwt>
<pdfrwt beam="2">  1       -3 0.54719229E-02 0.94041040E+02</pdfrwt>
<totfact> 0.16980227E+04</totfact>
</mgrwt>
</event>
<event>
 6    1  0.2852411E-002  0.8949275E+02  0.7546771E-02  0.1401686E+00
         -2   -1    0    0    0  501 -0.00000000000E+00  0.00000000000E+00  0.10939213980E+02  0.10939213980E+02  0.00000000000E+00 0. -1.
          2   -1    0    0  501    0  0.00000000000E+00 -0.00000000000E+00 -0.27052038617E+03  0.27052038617E+03  0.00000000000E+00 0.  1.
         23    2    1    2    0    0 -0.53681209888E+01  0.16141668746E+02 -0.23587601269E+03  0.25228247247E+03  0.87861153870E+02 0.  0.
         11    1    3    3    0    0 -0.53172501550E+01 -0.34624410112E+02 -0.62737767704E+02  0.71855065384E+02  0.00000000000E+00 0. -1.
        -11    1    3    3    0    0 -0.50870833848E-01  0.50766078858E+02 -0.17313824499E+03  0.18042740709E+03  0.00000000000E+00 0.  1.
         22    1    1    2    0    0  0.53681209888E+01 -0.16141668746E+02 -0.23705159496E+02  0.29177127679E+02  0.00000000000E+00 0. -1.
<mgrwt>
<rscale>  0 0.59091174E+02</rscale>
<asrwt>0</asrwt>
<pdfrwt beam="1">  1        2 0.41618519E-01 0.89492751E+02</pdfrwt>
<pdfrwt beam="2">  1       -2 0.16829561E-02 0.89492751E+02</pdfrwt>
<totfact> 0.10417543E+05</totfact>
</mgrwt>
</event>
<event>
 6    1  0.2852411E-002  0.9291290E+02  0.7546771E-02  0.1399091E+00
         -2   -1    0    0    0  501 -0.00000000000E+00  0.00000000000E+00  0.66103448329E+02  0.66103448329E+02  0.00000000000E+00 0. -1.
          2   -1    0    0  501    0  0.00000000000E+00 -0.00000000000E+00 -0.30409620257E+03  0.30409620257E+03  0.00000000000E+00 0.  1.
         23    2    1    2    0    0  0.55831761452E+01 -0.14821275211E+02 -0.29591097596E+03  0.31015498034E+03  0.91553067030E+02 0.  0.
         13    1    3    3    0    0 -0.16118642790E+02  0.30502675248E+02 -0.62438595802E+02  0.71335840139E+02  0.00000000000E+00 0. -1.
        -13    1    3    3    0    0  0.21701818935E+02 -0.45323950459E+02 -0.23347238016E+03  0.23881914020E+03  0.00000000000E+00 0.  1.
         22    1    1    2    0    0 -0.55831761452E+01  0.14821275211E+02  0.57918221721E+02  0.60044670555E+02  0.00000000000E+00 0. -1.
<mgrwt>
<rscale>  0 0.59701060E+02</rscale>
<asrwt>0</asrwt>
<pdfrwt beam="1">  1        2 0.46784030E-01 0.92912895E+02</pdfrwt>
<pdfrwt beam="2">  1       -2 0.10169761E-01 0.92912895E+02</pdfrwt>
<totfact> 0.64657662E+03</totfact>
</mgrwt>
</event>
<event>
 6    1  0.2852411E-002  0.9735693E+02  0.7546771E-02  0.1364690E+00
         -2   -1    0    0    0  501 -0.00000000000E+00  0.00000000000E+00  0.12341223382E+02  0.12341223382E+02  0.00000000000E+00 0.  1.
          2   -1    0    0  501    0  0.00000000000E+00 -0.00000000000E+00 -0.34693509480E+03  0.34693509480E+03  0.00000000000E+00 0. -1.
         23    2    1    2    0    0  0.70465261311E+01 -0.23037632236E+02 -0.30966571874E+03  0.32460934794E+03  0.94329133255E+02 0.  0.
         13    1    3    3    0    0 -0.71025882608E+01 -0.47341160738E+02 -0.27869231115E+03  0.28277382580E+03  0.00000000000E+00 0. -1.
        -13    1    3    3    0    0  0.14149114392E+02  0.24303528503E+02 -0.30973407585E+02  0.41835522146E+02  0.00000000000E+00 0.  1.
         22    1    1    2    0    0 -0.70465261311E+01  0.23037632236E+02 -0.24928152680E+02  0.34666970239E+02  0.00000000000E+00 0.  1.
<mgrwt>
<rscale>  0 0.68665686E+02</rscale>
<asrwt>0</asrwt>
<pdfrwt beam="1">  1        2 0.53374627E-01 0.97356928E+02</pdfrwt>
<pdfrwt beam="2">  1       -2 0.18986499E-02 0.97356928E+02</pdfrwt>
<totfact> 0.68372788E+04</totfact>
</mgrwt>
</event>
<event>
 6    1  0.2852411E-002  0.9784475E+02  0.7546771E-02  0.1349392E+00
          3   -1    0    0  501    0  0.00000000000E+00  0.00000000000E+00  0.54800147766E+02  0.54800147766E+02  0.00000000000E+00 0. -1.
         -3   -1    0    0    0  501 -0.00000000000E+00 -0.00000000000E+00 -0.76393951062E+02  0.76393951062E+02  0.00000000000E+00 0.  1.
         23    2    1    2    0    0  0.29448200383E+02  0.87692883265E+01 -0.10004226447E+02  0.98354865965E+02  0.92895092382E+02 0.  0.
         13    1    3    3    0    0 -0.32930366018E+02  0.69771832853E+01 -0.12482699346E+02  0.35901363144E+02  0.00000000000E+00 0.  1.
        -13    1    3    3    0    0  0.62378566400E+02  0.17921050412E+01  0.24784728996E+01  0.62453502820E+02  0.00000000000E+00 0. -1.
         22    1    1    2    0    0 -0.29448200383E+02 -0.87692883265E+01 -0.11589576848E+02  0.32839232863E+02  0.00000000000E+00 0. -1.
<mgrwt>
<rscale>  0 0.73245377E+02</rscale>
<asrwt>0</asrwt>
<pdfrwt beam="1">  1        3 0.84307920E-02 0.97844750E+02</pdfrwt>
<pdfrwt beam="2">  1       -3 0.11752916E-01 0.97844750E+02</pdfrwt>
<totfact> 0.11546845E+04</totfact>
</mgrwt>
</event>
<event>
 6    1  0.2852411E-002  0.9497121E+02  0.7546771E-02  0.1377016E+00
          2   -1    0    0  501    0  0.00000000000E+00  0.00000000000E+00  0.25382716470E+04  0.25382716470E+04  0.00000000000E+00 0. -1.
         -2   -1    0    0    0  501 -0.00000000000E+00 -0.00000000000E+00 -0.25149686557E+01  0.25149686557E+01  0.00000000000E+00 0.  1.
         23    2    1    2    0    0 -0.16589452741E+02  0.13147393329E+02  0.24674111374E+04  0.24692381925E+04  0.92582213639E+02 0.  0.
         13    1    3    3    0    0 -0.15597198114E+02  0.47321876553E+02  0.19812277109E+04  0.19818541508E+04  0.00000000000E+00 0.  1.
        -13    1    3    3    0    0 -0.99225462684E+00 -0.34174483224E+02  0.48618342645E+03  0.48738404162E+03  0.00000000000E+00 0. -1.
         22    1    1    2    0    0  0.16589452741E+02 -0.13147393329E+02  0.68345540927E+02  0.71548423170E+02  0.00000000000E+00 0.  1.
<mgrwt>
<rscale>  0 0.65254650E+02</rscale>
<asrwt>0</asrwt>
<pdfrwt beam="1">  1        2 0.39050128E+00 0.94971207E+02</pdfrwt>
<pdfrwt beam="2">  1       -2 0.38692029E-03 0.94971207E+02</pdfrwt>
<totfact> 0.30594245E+04</totfact>
</mgrwt>
</event>
<event>
 6    1  0.2852411E-002  0.9193393E+02  0.7546771E-02  0.1401284E+00
         -2   -1    0    0    0  501 -0.00000000000E+00  0.00000000000E+00  0.68918858204E+01  0.68918858204E+01  0.00000000000E+00 0.  1.
          2   -1    0    0  501    0  0.00000000000E+00 -0.00000000000E+00 -0.49470915325E+03  0.49470915325E+03  0.00000000000E+00 0. -1.
         23    2    1    2    0    0  0.11011045732E+02  0.11319152906E+02 -0.46402982018E+03  0.47304917403E+03  0.90567547635E+02 0.  0.
         13    1    3    3    0    0 -0.17464016478E+01  0.36669255917E+02 -0.80554764160E+02  0.88525444235E+02  0.00000000000E+00 0.  1.
        -13    1    3    3    0    0  0.12757447379E+02 -0.25350103011E+02 -0.38347505602E+03  0.38452372979E+03  0.00000000000E+00 0. -1.
         22    1    1    2    0    0 -0.11011045732E+02 -0.11319152906E+02 -0.23787447254E+02  0.28551865043E+02  0.00000000000E+00 0. -1.
<mgrwt>
<rscale>  0 0.59184992E+02</rscale>
<asrwt>0</asrwt>
<pdfrwt beam="1">  1        2 0.76109110E-01 0.91933928E+02</pdfrwt>
<pdfrwt beam="2">  1       -2 0.10602900E-02 0.91933928E+02</pdfrwt>
<totfact> 0.10691549E+05</totfact>
</mgrwt>
</event>
<event>
 6    1  0.2852411E-002  0.8954619E+02  0.7546771E-02  0.1428823E+00
          2   -1    0    0  501    0  0.00000000000E+00  0.00000000000E+00  0.68341260170E+02  0.68341260170E+02  0.00000000000E+00 0. -1.
         -2   -1    0    0    0  501 -0.00000000000E+00 -0.00000000000E+00 -0.60901091299E+02  0.60901091299E+02  0.00000000000E+00 0.  1.
         23    2    1    2    0    0  0.11059153180E+02  0.14462721482E+01  0.37574615811E+02  0.97110101864E+02  0.88848880457E+02 0.  0.
         11    1    3    3    0    0  0.89816268103E+01 -0.37682431078E+02 -0.52179816617E+01  0.39087882582E+02  0.00000000000E+00 0.  1.
        -11    1    3    3    0    0  0.20775263701E+01  0.39128703226E+02  0.42792597473E+02  0.58022219283E+02  0.00000000000E+00 0. -1.
         22    1    1    2    0    0 -0.11059153180E+02 -0.14462721482E+01 -0.30134446941E+02  0.32132249604E+02  0.00000000000E+00 0.  1.
<mgrwt>
<rscale>  0 0.53196907E+02</rscale>
<asrwt>0</asrwt>
<pdfrwt beam="1">  1        2 0.10514040E-01 0.89546190E+02</pdfrwt>
<pdfrwt beam="2">  1       -2 0.93693986E-02 0.89546190E+02</pdfrwt>
<totfact> 0.38391282E+04</totfact>
</mgrwt>
</event>
<event>
 6    1  0.2852411E-002  0.9139948E+02  0.7546771E-02  0.1407725E+00
          2   -1    0    0  501    0  0.00000000000E+00  0.00000000000E+00  0.11739924473E+02  0.11739924473E+02  0.00000000000E+00 0. -1.
         -2   -1    0    0    0  501 -0.00000000000E+00 -0.00000000000E+00 -0.25212206117E+03  0.25212206117E+03  0.00000000000E+00 0.  1.
         23    2    1    2    0    0  0.57452108875E+01 -0.13336726843E+02 -0.18148504111E+03  0.20320109544E+03  0.90238513463E+02 0.  0.
         11    1    3    3    0    0  0.21747857498E+02  0.92411818206E+01 -0.17249142048E+03  0.17410243791E+03  0.00000000000E+00 0.  1.
        -11    1    3    3    0    0 -0.16002646611E+02 -0.22577908664E+02 -0.89936206279E+01  0.29098657532E+02  0.00000000000E+00 0. -1.
         22    1    1    2    0    0 -0.57452108875E+01  0.13336726843E+02 -0.58897095597E+02  0.60660890207E+02  0.00000000000E+00 0.  1.
<mgrwt>
<rscale>  0 0.57704691E+02</rscale>
<asrwt>0</asrwt>
<pdfrwt beam="1">  1        2 0.18061423E-02 0.91399481E+02</pdfrwt>
<pdfrwt beam="2">  1       -2 0.38788009E-01 0.91399481E+02</pdfrwt>
<totfact> 0.34613727E+04</totfact>
</mgrwt>
</event>
<event>
 6    1  0.2852411E-002  0.9696659E+02  0.7546771E-02  0.1355579E+00
         -1   -1    0    0    0  501 -0.00000000000E+00  0.00000000000E+00  0.14814957069E+02  0.14814957069E+02  0.00000000000E+00 0.  1.
          1   -1    0    0  501    0  0.00000000000E+00 -0.00000000000E+00 -0.26920584668E+03  0.26920584668E+03  0.00000000000E+00 0. -1.
         23    2    1    2    0    0 -0.98032618500E+01 -0.26672595872E+02 -0.21010860940E+03  0.23140472585E+03  0.92709158583E+02 0.  0.
         11    1    3    3    0    0 -0.45556326566E+02  0.48563373742E+01 -0.72391187737E+02  0.85670572339E+02  0.00000000000E+00 0.  1.
        -11    1    3    3    0    0  0.35753064716E+02 -0.31528933246E+02 -0.13771742167E+03  0.14573415351E+03  0.00000000000E+00 0. -1.
         22    1    1    2    0    0  0.98032618500E+01  0.26672595872E+02 -0.44282280203E+02  0.52616077898E+02  0.00000000000E+00 0. -1.
<mgrwt>
<rscale>  0 0.71344666E+02</rscale>
<asrwt>0</asrwt>
<pdfrwt beam="1">  1        1 0.41416280E-01 0.96966589E+02</pdfrwt>
<pdfrwt beam="2">  1       -1 0.22792244E-02 0.96966589E+02</pdfrwt>
<totfact> 0.50063711E+04</totfact>
</mgrwt>
</event>
<event>
 6    1  0.2852411E-002  0.9202233E+02  0.7546771E-02  0.1394674E+00
         -2   -1    0    0    0  501 -0.00000000000E+00  0.00000000000E+00  0.47775031243E+03  0.47775031243E+03  0.00000000000E+00 0.  1.
          2   -1    0    0  501    0  0.00000000000E+00 -0.00000000000E+00 -0.63289974406E+01  0.63289974406E+01  0.00000000000E+00 0. -1.
         23    2    1    2    0    0  0.35507244026E+01 -0.17124567014E+02  0.41112923000E+03  0.42130197358E+03  0.90345175544E+02 0.  0.
         11    1    3    3    0    0  0.42229653629E+01  0.15980340112E+01  0.39890800419E+03  0.39893355706E+03  0.00000000000E+00 0.  1.
        -11    1    3    3    0    0 -0.67224096030E+00 -0.18722601025E+02  0.12221225814E+02  0.22368416516E+02  0.00000000000E+00 0. -1.
         22    1    1    2    0    0 -0.35507244026E+01  0.17124567014E+02  0.60292084988E+02  0.62777336288E+02  0.00000000000E+00 0. -1.
<mgrwt>
<rscale>  0 0.60758910E+02</rscale>
<asrwt>0</asrwt>
<pdfrwt beam="1">  1        2 0.97369229E-03 0.92022330E+02</pdfrwt>
<pdfrwt beam="2">  1       -2 0.73500020E-01 0.92022330E+02</pdfrwt>
<totfact> 0.22501348E+04</totfact>
</mgrwt>
</event>
<event>
 6    1  0.2852411E-002  0.9090296E+02  0.7546771E-02  0.1431185E+00
         -2   -1    0    0    0  501 -0.00000000000E+00  0.00000000000E+00  0.17772736037E+02  0.17772736037E+02  0.00000000000E+00 0.  1.
          2   -1    0    0  501    0  0.00000000000E+00 -0.00000000000E+00 -0.15897935198E+03  0.15897935198E+03  0.00000000000E+00 0. -1.
         23    2    1    2    0    0 -0.77719952570E+01 -0.67384103011E+01 -0.13922936979E+03  0.16627737628E+03  0.90319091925E+02 0.  0.
         11    1    3    3    0    0 -0.16439112649E+01  0.39817823523E+02 -0.89009902026E+02  0.97523967172E+02  0.00000000000E+00 0. -1.
        -11    1    3    3    0    0 -0.61280839920E+01 -0.46556233824E+02 -0.50219467769E+02  0.68753409110E+02  0.00000000000E+00 0.  1.
         22    1    1    2    0    0  0.77719952570E+01  0.67384103011E+01 -0.19772461523E+01  0.10474711739E+02  0.00000000000E+00 0.  1.
<mgrwt>
<rscale>  0 0.52722914E+02</rscale>
<asrwt>0</asrwt>
<pdfrwt beam="1">  1        2 0.24458362E-01 0.90902962E+02</pdfrwt>
<pdfrwt beam="2">  1       -2 0.27342670E-02 0.90902962E+02</pdfrwt>
<totfact> 0.91521156E+04</totfact>
</mgrwt>
</event>
<event>
 6    1  0.2852411E-002  0.9370115E+02  0.7546771E-02  0.1389283E+00
          4   -1    0    0  501    0  0.00000000000E+00  0.00000000000E+00  0.22458045762E+03  0.22458045762E+03  0.00000000000E+00 0. -1.
         -4   -1    0    0    0  501 -0.00000000000E+00 -0.00000000000E+00 -0.15304829352E+02  0.15304829352E+02  0.00000000000E+00 0.  1.
         23    2    1    2    0    0 -0.64904556112E+00  0.18048499357E+02  0.19670051222E+03  0.21787839866E+03  0.91944197803E+02 0.  0.
         11    1    3    3    0    0 -0.17573549194E+02 -0.22492941466E+02  0.15396701584E+03  0.15659056170E+03  0.00000000000E+00 0. -1.
        -11    1    3    3    0    0  0.16924503633E+02  0.40541440822E+02  0.42733496373E+02  0.61287836962E+02  0.00000000000E+00 0.  1.
         22    1    1    2    0    0  0.64904556112E+00 -0.18048499357E+02  0.12575116048E+02  0.22006888303E+02  0.00000000000E+00 0. -1.
<mgrwt>
<rscale>  0 0.62085348E+02</rscale>
<asrwt>0</asrwt>
<pdfrwt beam="1">  1        4 0.34550837E-01 0.93701148E+02</pdfrwt>
<pdfrwt beam="2">  1       -4 0.23545893E-02 0.93701148E+02</pdfrwt>
<totfact> 0.93952653E+03</totfact>
</mgrwt>
</event>
<event>
 6    1  0.2852411E-002  0.9764296E+02  0.7546771E-02  0.1339954E+00
         -2   -1    0    0    0  501 -0.00000000000E+00  0.00000000000E+00  0.41445568322E+01  0.41445568322E+01  0.00000000000E+00 0.  1.
          2   -1    0    0  501    0  0.00000000000E+00 -0.00000000000E+00 -0.11840052363E+04  0.11840052363E+04  0.00000000000E+00 0. -1.
         23    2    1    2    0    0  0.27775474918E+02 -0.23475244456E+02 -0.99255581648E+03  0.99734707877E+03  0.90617782976E+02 0.  0.
         13    1    3    3    0    0 -0.16356567404E+02 -0.44458332840E+02 -0.57306561313E+03  0.57502024104E+03  0.00000000000E+00 0. -1.
        -13    1    3    3    0    0  0.44132042322E+02  0.20983088384E+02 -0.41949020335E+03  0.42232683772E+03  0.00000000000E+00 0.  1.
         22    1    1    2    0    0 -0.27775474918E+02  0.23475244456E+02 -0.18730486295E+03  0.19080271432E+03  0.00000000000E+00 0.  1.
<mgrwt>
<rscale>  0 0.76279490E+02</rscale>
<asrwt>0</asrwt>
<pdfrwt beam="1">  1        2 0.18215486E+00 0.97642955E+02</pdfrwt>
<pdfrwt beam="2">  1       -2 0.63762338E-03 0.97642955E+02</pdfrwt>
<totfact> 0.75506660E+04</totfact>
</mgrwt>
</event>
<event>
 6    1  0.2852411E-002  0.9042139E+02  0.7546771E-02  0.1422414E+00
         -4   -1    0    0    0  501 -0.00000000000E+00  0.00000000000E+00  0.86622178929E+01  0.86622178929E+01  0.00000000000E+00 0.  1.
          4   -1    0    0  501    0  0.00000000000E+00 -0.00000000000E+00 -0.61509216830E+03  0.61509216830E+03  0.00000000000E+00 0. -1.
         23    2    1    2    0    0 -0.16956036999E+01  0.11824500103E+02 -0.60500450322E+03  0.61172418361E+03  0.89628868229E+02 0.  0.
         13    1    3    3    0    0 -0.25144826894E+02  0.11454025303E+02 -0.58293287050E+02  0.64510187802E+02  0.00000000000E+00 0.  1.
        -13    1    3    3    0    0  0.23449223194E+02  0.37047479996E+00 -0.54671121617E+03  0.54721399581E+03  0.00000000000E+00 0. -1.
         22    1    1    2    0    0  0.16956036999E+01 -0.11824500103E+02 -0.14254471894E+01  0.12030202587E+02  0.00000000000E+00 0. -1.
<mgrwt>
<rscale>  0 0.54513498E+02</rscale>
<asrwt>0</asrwt>
<pdfrwt beam="1">  1        4 0.94629590E-01 0.90421391E+02</pdfrwt>
<pdfrwt beam="2">  1       -4 0.13326485E-02 0.90421391E+02</pdfrwt>
<totfact> 0.27426352E+03</totfact>
</mgrwt>
</event>
<event>
 6    1  0.2852411E-002  0.9923741E+02  0.7546771E-02  0.1381282E+00
         -2   -1    0    0    0  501 -0.00000000000E+00  0.00000000000E+00  0.81493983381E+02  0.81493983381E+02  0.00000000000E+00 0.  1.
          2   -1    0    0  501    0  0.00000000000E+00 -0.00000000000E+00 -0.64104392514E+02  0.64104392514E+02  0.00000000000E+00 0. -1.
         23    2    1    2    0    0 -0.65050056372E+01 -0.16035657312E+02 -0.22816317358E+02  0.10182655322E+03  0.97716964749E+02 0.  0.
         13    1    3    3    0    0 -0.25682875184E+02  0.17730794388E+02  0.25171562481E+02  0.40094871307E+02  0.00000000000E+00 0.  1.
        -13    1    3    3    0    0  0.19177869547E+02 -0.33766451699E+02 -0.47987879839E+02  0.61731681916E+02  0.00000000000E+00 0. -1.
         22    1    1    2    0    0  0.65050056372E+01  0.16035657312E+02  0.40205908225E+02  0.43771822671E+02  0.00000000000E+00 0.  1.
<mgrwt>
<rscale>  0 0.64128109E+02</rscale>
<asrwt>0</asrwt>
<pdfrwt beam="1">  1        2 0.98622142E-02 0.99237405E+02</pdfrwt>
<pdfrwt beam="2">  1       -2 0.12537536E-01 0.99237405E+02</pdfrwt>
<totfact> 0.26616483E+04</totfact>
</mgrwt>
</event>
<event>
 6    1  0.2852411E-002  0.9254648E+02  0.7546771E-02  0.1417642E+00
         -2   -1    0    0    0  501 -0.00000000000E+00  0.00000000000E+00  0.39042135332E+02  0.39042135332E+02  0.00000000000E+00 0.  1.
          2   -1    0    0  501    0  0.00000000000E+00 -0.00000000000E+00 -0.74174436855E+02  0.74174436855E+02  0.00000000000E+00 0. -1.
         23    2    1    2    0    0  0.25863397910E+01 -0.11707531880E+02 -0.39269136941E+02  0.10053316320E+03  0.91766531648E+02 0.  0.
         13    1    3    3    0    0 -0.58537683094E+01 -0.18694672258E+02 -0.67481694389E+02  0.70267605992E+02  0.00000000000E+00 0. -1.
        -13    1    3    3    0    0  0.84401081005E+01  0.69871403773E+01  0.28212557448E+02  0.30265557209E+02  0.00000000000E+00 0.  1.
         22    1    1    2    0    0 -0.25863397910E+01  0.11707531880E+02  0.41368354180E+01  0.12683408987E+02  0.00000000000E+00 0.  1.
<mgrwt>
<rscale>  0 0.55523008E+02</rscale>
<asrwt>0</asrwt>
<pdfrwt beam="1">  1        2 0.11411452E-01 0.92546484E+02</pdfrwt>
<pdfrwt beam="2">  1       -2 0.60064824E-02 0.92546484E+02</pdfrwt>
<totfact> 0.68784774E+04</totfact>
</mgrwt>
</event>
<event>
 6    1  0.2852411E-002  0.9760587E+02  0.7546771E-02  0.1356358E+00
          2   -1    0    0  501    0  0.00000000000E+00  0.00000000000E+00  0.22449624959E+03  0.22449624959E+03  0.00000000000E+00 0. -1.
         -2   -1    0    0    0  501 -0.00000000000E+00 -0.00000000000E+00 -0.94161324672E+02  0.94161324672E+02  0.00000000000E+00 0.  1.
         23    2    1    2    0    0 -0.23741747391E+02  0.13872889272E+02  0.21151352340E+03  0.23294822543E+03  0.93652429347E+02 0.  0.
         11    1    3    3    0    0  0.34891309443E+02 -0.52356914974E+01  0.90334953510E+02  0.96980512299E+02  0.00000000000E+00 0.  1.
        -11    1    3    3    0    0 -0.58633056834E+02  0.19108580769E+02  0.12117856989E+03  0.13596771313E+03  0.00000000000E+00 0. -1.
         22    1    1    2    0    0  0.23741747391E+02 -0.13872889272E+02 -0.81178598483E+02  0.85709348834E+02  0.00000000000E+00 0.  1.
<mgrwt>
<rscale>  0 0.71110106E+02</rscale>
<asrwt>0</asrwt>
<pdfrwt beam="1">  1        2 0.34537885E-01 0.97605866E+02</pdfrwt>
<pdfrwt beam="2">  1       -2 0.14486358E-01 0.97605866E+02</pdfrwt>
<totfact> 0.50948151E+03</totfact>
</mgrwt>
</event>
<event>
 6    1  0.2852411E-002  0.1573053E+03  0.7546771E-02  0.1201082E+00
          2   -1    0    0  501    0  0.00000000000E+00  0.00000000000E+00  0.18736514267E+04  0.18736514267E+04  0.00000000000E+00 0. -1.
         -2   -1    0    0    0  501 -0.00000000000E+00 -0.00000000000E+00 -0.15651268302E+02  0.15651268302E+02  0.00000000000E+00 0.  1.
         23    2    1    2    0    0 -0.73787422753E+02 -0.10501893847E+03  0.15137958229E+04  0.15219470284E+04  0.90947252249E+02 0.  0.
         11    1    3    3    0    0 -0.29977405365E+02 -0.19063626659E+01  0.67937185483E+03  0.68003558450E+03  0.00000000000E+00 0.  1.
        -11    1    3    3    0    0 -0.43810017388E+02 -0.10311257581E+03  0.83442396806E+03  0.84191144391E+03  0.00000000000E+00 0. -1.
         22    1    1    2    0    0  0.73787422753E+02  0.10501893847E+03  0.34420433552E+03  0.36735566660E+03  0.00000000000E+00 0.  1.
<mgrwt>
<rscale>  0 0.14950510E+03</rscale>
<asrwt>0</asrwt>
<pdfrwt beam="1">  1        2 0.28825389E+00 0.15730532E+03</pdfrwt>
<pdfrwt beam="2">  1       -2 0.24078889E-02 0.15730532E+03</pdfrwt>
<totfact> 0.50551043E+03</totfact>
</mgrwt>
</event>
<event>
 6    1  0.2852411E-002  0.1020965E+03  0.7546771E-02  0.1323641E+00
         -2   -1    0    0    0  501 -0.00000000000E+00  0.00000000000E+00  0.11326066601E+02  0.11326066601E+02  0.00000000000E+00 0.  1.
          2   -1    0    0  501    0  0.00000000000E+00 -0.00000000000E+00 -0.52263915324E+03  0.52263915324E+03  0.00000000000E+00 0. -1.
         23    2    1    2    0    0  0.42298850998E+02  0.21749425027E+01 -0.43361875096E+03  0.44547605120E+03  0.92896543730E+02 0.  0.
         13    1    3    3    0    0 -0.13926644403E+02  0.63082934854E+01 -0.30078876723E+03  0.30117707164E+03  0.00000000000E+00 0. -1.
        -13    1    3    3    0    0  0.56225495401E+02 -0.41333509827E+01 -0.13282998373E+03  0.14429897955E+03  0.00000000000E+00 0.  1.
         22    1    1    2    0    0 -0.42298850998E+02 -0.21749425027E+01 -0.77694335684E+02  0.88489168648E+02  0.00000000000E+00 0.  1.
<mgrwt>
<rscale>  0 0.81937659E+02</rscale>
<asrwt>0</asrwt>
<pdfrwt beam="1">  1        2 0.80406016E-01 0.10209648E+03</pdfrwt>
<pdfrwt beam="2">  1       -2 0.17424719E-02 0.10209648E+03</pdfrwt>
<totfact> 0.50284219E+04</totfact>
</mgrwt>
</event>
<event>
 6    1  0.2852411E-002  0.1014997E+03  0.7546771E-02  0.1321083E+00
          2   -1    0    0  501    0  0.00000000000E+00  0.00000000000E+00  0.24239857719E+03  0.24239857719E+03  0.00000000000E+00 0.  1.
         -2   -1    0    0    0  501 -0.00000000000E+00 -0.00000000000E+00 -0.13611949761E+03  0.13611949761E+03  0.00000000000E+00 0. -1.
         23    2    1    2    0    0 -0.15350912635E+02  0.42422813730E+02  0.22753179115E+03  0.24914433052E+03  0.90922141416E+02 0.  0.
         13    1    3    3    0    0 -0.15315066538E+02  0.23543611975E+02  0.85625637707E+01  0.29362738739E+02  0.00000000000E+00 0. -1.
        -13    1    3    3    0    0 -0.35846096292E-01  0.18879201755E+02  0.21896922738E+03  0.21978159178E+03  0.00000000000E+00 0.  1.
         22    1    1    2    0    0  0.15350912635E+02 -0.42422813730E+02 -0.12125271158E+03  0.12937374428E+03  0.00000000000E+00 0. -1.
<mgrwt>
<rscale>  0 0.82875893E+02</rscale>
<asrwt>0</asrwt>
<pdfrwt beam="1">  1        2 0.37292089E-01 0.10149966E+03</pdfrwt>
<pdfrwt beam="2">  1       -2 0.20941461E-01 0.10149966E+03</pdfrwt>
<totfact> 0.25622931E+03</totfact>
</mgrwt>
</event>
<event>
 6    1  0.2852411E-002  0.9543132E+02  0.7546771E-02  0.1345926E+00
         -2   -1    0    0    0  501 -0.00000000000E+00  0.00000000000E+00  0.41020800177E+02  0.41020800177E+02  0.00000000000E+00 0. -1.
          2   -1    0    0  501    0  0.00000000000E+00 -0.00000000000E+00 -0.12817631226E+03  0.12817631226E+03  0.00000000000E+00 0.  1.
         23    2    1    2    0    0  0.34721529588E+02 -0.54210568253E+01 -0.93368893442E+02  0.13350987968E+03  0.88725223224E+02 0.  0.
         11    1    3    3    0    0  0.62357714259E+02 -0.11008816387E+02 -0.45570265076E+02  0.78014919246E+02  0.00000000000E+00 0. -1.
        -11    1    3    3    0    0 -0.27636184672E+02  0.55877595618E+01 -0.47798628366E+02  0.55494960436E+02  0.00000000000E+00 0.  1.
         22    1    1    2    0    0 -0.34721529588E+02  0.54210568253E+01  0.62133813560E+01  0.35687232757E+02  0.00000000000E+00 0.  1.
<mgrwt>
<rscale>  0 0.74340482E+02</rscale>
<asrwt>0</asrwt>
<pdfrwt beam="1">  1        2 0.19719432E-01 0.95431325E+02</pdfrwt>
<pdfrwt beam="2">  1       -2 0.63108925E-02 0.95431325E+02</pdfrwt>
<totfact> 0.34037963E+04</totfact>
</mgrwt>
</event>
<event>
 6    1  0.2852411E-002  0.9242917E+02  0.7546771E-02  0.1428499E+00
          2   -1    0    0  501    0  0.00000000000E+00  0.00000000000E+00  0.77898377907E+03  0.77898377907E+03  0.00000000000E+00 0. -1.
         -2   -1    0    0    0  501 -0.00000000000E+00 -0.00000000000E+00 -0.21539655292E+02  0.21539655292E+02  0.00000000000E+00 0.  1.
         23    2    1    2    0    0  0.10088101737E+02 -0.14515311748E+01  0.77485529258E+03  0.78034856042E+03  0.91865524421E+02 0.  0.
         13    1    3    3    0    0  0.43227039954E+02  0.12710308248E+02  0.60690948832E+03  0.60857970385E+03  0.00000000000E+00 0. -1.
        -13    1    3    3    0    0 -0.33138938217E+02 -0.14161839423E+02  0.16794580426E+03  0.17176885658E+03  0.00000000000E+00 0.  1.
         22    1    1    2    0    0 -0.10088101737E+02  0.14515311748E+01 -0.17411168801E+02  0.20174873938E+02  0.00000000000E+00 0.  1.
<mgrwt>
<rscale>  0 0.53262503E+02</rscale>
<asrwt>0</asrwt>
<pdfrwt beam="1">  1        2 0.11984364E+00 0.92429169E+02</pdfrwt>
<pdfrwt beam="2">  1       -2 0.33137937E-02 0.92429169E+02</pdfrwt>
<totfact> 0.12446190E+04</totfact>
</mgrwt>
</event>
<event>
 6    1  0.2852411E-002  0.9209772E+02  0.7546771E-02  0.1339825E+00
         -4   -1    0    0    0  501 -0.00000000000E+00  0.00000000000E+00  0.29091500541E+02  0.29091500541E+02  0.00000000000E+00 0.  1.
          4   -1    0    0  501    0  0.00000000000E+00 -0.00000000000E+00 -0.25504858767E+03  0.25504858767E+03  0.00000000000E+00 0. -1.
         23    2    1    2    0    0 -0.38544445590E+02  0.20026785154E+02 -0.53956098313E+02  0.10673916780E+03  0.81211101382E+02 0.  0.
         13    1    3    3    0    0  0.18613738132E+02  0.15834760709E+02  0.45292606727E+01  0.24854076048E+02  0.00000000000E+00 0.  1.
        -13    1    3    3    0    0 -0.57158183722E+02  0.41920244453E+01 -0.58485358986E+02  0.81885091751E+02  0.00000000000E+00 0. -1.
         22    1    1    2    0    0  0.38544445590E+02 -0.20026785154E+02 -0.17200098882E+03  0.17740092041E+03  0.00000000000E+00 0. -1.
<mgrwt>
<rscale>  0 0.76322193E+02</rscale>
<asrwt>0</asrwt>
<pdfrwt beam="1">  1        4 0.39238242E-01 0.92097717E+02</pdfrwt>
<pdfrwt beam="2">  1       -4 0.44756157E-02 0.92097717E+02</pdfrwt>
<totfact> 0.26866221E+03</totfact>
</mgrwt>
</event>
<event>
 6    1  0.2852411E-002  0.9805411E+02  0.7546771E-02  0.1385350E+00
          1   -1    0    0  501    0  0.00000000000E+00  0.00000000000E+00  0.21124989602E+03  0.21124989602E+03  0.00000000000E+00 0. -1.
         -1   -1    0    0    0  501 -0.00000000000E+00 -0.00000000000E+00 -0.19804456869E+02  0.19804456869E+02  0.00000000000E+00 0.  1.
         23    2    1    2    0    0  0.43145236645E+01 -0.16228841218E+02  0.19047716926E+03  0.21423389070E+03  0.96605473513E+02 0.  0.
         11    1    3    3    0    0  0.14959048125E+02 -0.41560033546E+02  0.35023756176E+02  0.56370852449E+02  0.00000000000E+00 0.  1.
        -11    1    3    3    0    0 -0.10644524460E+02  0.25331192328E+02  0.15545341309E+03  0.15786303825E+03  0.00000000000E+00 0. -1.
         22    1    1    2    0    0 -0.43145236645E+01  0.16228841218E+02  0.96826989187E+00  0.16820462191E+02  0.00000000000E+00 0.  1.
<mgrwt>
<rscale>  0 0.63078104E+02</rscale>
<asrwt>0</asrwt>
<pdfrwt beam="1">  1        1 0.32499982E-01 0.98054107E+02</pdfrwt>
<pdfrwt beam="2">  1       -1 0.30468397E-02 0.98054107E+02</pdfrwt>
<totfact> 0.44433975E+04</totfact>
</mgrwt>
</event>
<event>
 6    1  0.2852411E-002  0.1049433E+03  0.7546771E-02  0.1398247E+00
         -2   -1    0    0    0  501 -0.00000000000E+00  0.00000000000E+00  0.10709780246E+02  0.10709780246E+02  0.00000000000E+00 0.  1.
          2   -1    0    0  501    0  0.00000000000E+00 -0.00000000000E+00 -0.13569255017E+04  0.13569255017E+04  0.00000000000E+00 0. -1.
         23    2    1    2    0    0  0.11012547074E+02  0.16788059776E+01 -0.13513150228E+04  0.13553838553E+04  0.10435041730E+03 0.  0.
         13    1    3    3    0    0  0.39672944679E+02 -0.38700399605E+02 -0.70770083636E+03  0.70986768996E+03  0.00000000000E+00 0.  1.
        -13    1    3    3    0    0 -0.28660397605E+02  0.40379205582E+02 -0.64361418648E+03  0.64551616531E+03  0.00000000000E+00 0. -1.
         22    1    1    2    0    0 -0.11012547074E+02 -0.16788059776E+01  0.50993013395E+01  0.12251426722E+02  0.00000000000E+00 0.  1.
<mgrwt>
<rscale>  0 0.59901163E+02</rscale>
<asrwt>0</asrwt>
<pdfrwt beam="1">  1        2 0.20875776E+00 0.10494334E+03</pdfrwt>
<pdfrwt beam="2">  1       -2 0.16476586E-02 0.10494334E+03</pdfrwt>
<totfact> 0.15933382E+04</totfact>
</mgrwt>
</event>
<event>
 6    1  0.2852411E-002  0.9013633E+02  0.7546771E-02  0.1422745E+00
          2   -1    0    0  501    0  0.00000000000E+00  0.00000000000E+00  0.67395441979E+03  0.67395441979E+03  0.00000000000E+00 0.  1.
         -2   -1    0    0    0  501 -0.00000000000E+00 -0.00000000000E+00 -0.44081704001E+01  0.44081704001E+01  0.00000000000E+00 0. -1.
         23    2    1    2    0    0  0.44646731197E+01  0.11136484766E+02  0.64227120087E+03  0.64856522670E+03  0.89334222015E+02 0.  0.
         13    1    3    3    0    0  0.15245456190E+02 -0.24240645592E+02  0.52084985776E+03  0.52163647031E+03  0.00000000000E+00 0.  1.
        -13    1    3    3    0    0 -0.10780783070E+02  0.35377130358E+02  0.12142134311E+03  0.12692875639E+03  0.00000000000E+00 0. -1.
         22    1    1    2    0    0 -0.44646731197E+01 -0.11136484766E+02  0.27275048524E+02  0.29797363490E+02  0.00000000000E+00 0.  1.
<mgrwt>
<rscale>  0 0.54444385E+02</rscale>
<asrwt>0</asrwt>
<pdfrwt beam="1">  1        2 0.10368521E+00 0.90136329E+02</pdfrwt>
<pdfrwt beam="2">  1       -2 0.67818060E-03 0.90136329E+02</pdfrwt>
<totfact> 0.14206634E+05</totfact>
</mgrwt>
</event>
<event>
 6    1  0.2852411E-002  0.1264994E+03  0.7546771E-02  0.1355023E+00
          2   -1    0    0  501    0  0.00000000000E+00  0.00000000000E+00  0.92500718413E+02  0.92500718413E+02  0.00000000000E+00 0.  1.
         -2   -1    0    0    0  501 -0.00000000000E+00 -0.00000000000E+00 -0.57510561931E+02  0.57510561931E+02  0.00000000000E+00 0. -1.
         23    2    1    2    0    0  0.97313613622E+01  0.84991096339E+01  0.44359137512E+02  0.13405157909E+03  0.12583782626E+03 0.  0.
         13    1    3    3    0    0 -0.35775536563E+02 -0.42876655815E+02  0.80872597383E+01  0.56424289099E+02  0.00000000000E+00 0. -1.
        -13    1    3    3    0    0  0.45506897925E+02  0.51375765449E+02  0.36271877774E+02  0.77627289992E+02  0.00000000000E+00 0.  1.
         22    1    1    2    0    0 -0.97313613622E+01 -0.84991096339E+01 -0.93689810306E+01  0.15959701253E+02  0.00000000000E+00 0. -1.
<mgrwt>
<rscale>  0 0.71512915E+02</rscale>
<asrwt>0</asrwt>
<pdfrwt beam="1">  1        2 0.14230880E-01 0.12649938E+03</pdfrwt>
<pdfrwt beam="2">  1       -2 0.88477788E-02 0.12649938E+03</pdfrwt>
<totfact> 0.30520028E+04</totfact>
</mgrwt>
</event>
<event>
 6    1  0.2852411E-002  0.9208439E+02  0.7546771E-02  0.1389730E+00
         -2   -1    0    0    0  501 -0.00000000000E+00  0.00000000000E+00  0.39871747171E+02  0.39871747171E+02  0.00000000000E+00 0.  1.
          2   -1    0    0  501    0  0.00000000000E+00 -0.00000000000E+00 -0.11745661774E+03  0.11745661774E+03  0.00000000000E+00 0. -1.
         23    2    1    2    0    0 -0.20673331443E+01  0.18778388472E+02 -0.94517573975E+02  0.13195873376E+03  0.90125656092E+02 0.  0.
         13    1    3    3    0    0 -0.26056916461E+02 -0.15574270816E+02 -0.83188497202E+02  0.88554203026E+02  0.00000000000E+00 0. -1.
        -13    1    3    3    0    0  0.23989583317E+02  0.34352659288E+02 -0.11329076773E+02  0.43404530736E+02  0.00000000000E+00 0.  1.
         22    1    1    2    0    0  0.20673331443E+01 -0.18778388472E+02  0.16932703407E+02  0.25369631148E+02  0.00000000000E+00 0.  1.
<mgrwt>
<rscale>  0 0.61973798E+02</rscale>
<asrwt>0</asrwt>
<pdfrwt beam="1">  1        2 0.18070249E-01 0.92084394E+02</pdfrwt>
<pdfrwt beam="2">  1       -2 0.61341148E-02 0.92084394E+02</pdfrwt>
<totfact> 0.39021117E+04</totfact>
</mgrwt>
</event>
<event>
 6    1  0.2852411E-002  0.1210834E+03  0.7546771E-02  0.1264998E+00
          2   -1    0    0  501    0  0.00000000000E+00  0.00000000000E+00  0.14243894145E+04  0.14243894145E+04  0.00000000000E+00 0. -1.
         -2   -1    0    0    0  501 -0.00000000000E+00 -0.00000000000E+00 -0.13104914877E+02  0.13104914877E+02  0.00000000000E+00 0.  1.
         23    2    1    2    0    0 -0.69129374497E+02  0.30675030788E+02  0.12820608390E+04  0.12877659674E+04  0.94558784976E+02 0.  0.
         13    1    3    3    0    0 -0.95744373910E+01  0.48454048694E+02  0.82791455488E+03  0.82938650511E+03  0.00000000000E+00 0. -1.
        -13    1    3    3    0    0 -0.59554937106E+02 -0.17779017906E+02  0.45414628416E+03  0.45837946226E+03  0.00000000000E+00 0.  1.
         22    1    1    2    0    0  0.69129374497E+02 -0.30675030788E+02  0.12922366061E+03  0.14972836202E+03  0.00000000000E+00 0.  1.
<mgrwt>
<rscale>  0 0.10764314E+03</rscale>
<asrwt>0</asrwt>
<pdfrwt beam="1">  1        2 0.21913671E+00 0.12108341E+03</pdfrwt>
<pdfrwt beam="2">  1       -2 0.20161419E-02 0.12108341E+03</pdfrwt>
<totfact> 0.11068979E+04</totfact>
</mgrwt>
</event>
<event>
 6    1  0.2852411E-002  0.9704172E+02  0.7546771E-02  0.1343624E+00
         -2   -1    0    0    0  501 -0.00000000000E+00  0.00000000000E+00  0.24898930313E+02  0.24898930313E+02  0.00000000000E+00 0.  1.
          2   -1    0    0  501    0  0.00000000000E+00 -0.00000000000E+00 -0.21607612417E+03  0.21607612417E+03  0.00000000000E+00 0. -1.
         23    2    1    2    0    0  0.28478224004E+02  0.19950593213E+02 -0.17992897242E+03  0.20442976891E+03  0.90598343746E+02 0.  0.
         11    1    3    3    0    0 -0.22942082864E+02 -0.21152680517E+02 -0.58999759269E+02  0.66743888507E+02  0.00000000000E+00 0. -1.
        -11    1    3    3    0    0  0.51420306868E+02  0.41103273731E+02 -0.12092921315E+03  0.13768588041E+03  0.00000000000E+00 0.  1.
         22    1    1    2    0    0 -0.28478224004E+02 -0.19950593213E+02 -0.11248221439E+02  0.36545285572E+02  0.00000000000E+00 0. -1.
<mgrwt>
<rscale>  0 0.75079909E+02</rscale>
<asrwt>0</asrwt>
<pdfrwt beam="1">  1        2 0.33242480E-01 0.97041719E+02</pdfrwt>
<pdfrwt beam="2">  1       -2 0.38306047E-02 0.97041719E+02</pdfrwt>
<totfact> 0.40576258E+04</totfact>
</mgrwt>
</event>
<event>
 6    1  0.2852411E-002  0.9351961E+02  0.7546771E-02  0.1396518E+00
          1   -1    0    0  501    0  0.00000000000E+00  0.00000000000E+00  0.64401258163E+02  0.64401258163E+02  0.00000000000E+00 0. -1.
         -1   -1    0    0    0  501 -0.00000000000E+00 -0.00000000000E+00 -0.51519838897E+02  0.51519838897E+02  0.00000000000E+00 0.  1.
         23    2    1    2    0    0 -0.41967275377E+01  0.15625890015E+02  0.23677263831E+02  0.96470358755E+02  0.92109371592E+02 0.  0.
         13    1    3    3    0    0  0.24575964346E+02 -0.24278783066E+02 -0.11029308241E+02  0.36264072730E+02  0.00000000000E+00 0.  1.
        -13    1    3    3    0    0 -0.28772691884E+02  0.39904673080E+02  0.34706572072E+02  0.60206286025E+02  0.00000000000E+00 0. -1.
         22    1    1    2    0    0  0.41967275377E+01 -0.15625890015E+02 -0.10795844564E+02  0.19450738305E+02  0.00000000000E+00 0.  1.
<mgrwt>
<rscale>  0 0.60314158E+02</rscale>
<asrwt>0</asrwt>
<pdfrwt beam="1">  1        1 0.99078859E-02 0.93519609E+02</pdfrwt>
<pdfrwt beam="2">  1       -1 0.79261290E-02 0.93519609E+02</pdfrwt>
<totfact> 0.48992719E+04</totfact>
</mgrwt>
</event>
<event>
 6    1  0.2852411E-002  0.8828022E+02  0.7546771E-02  0.1385859E+00
         -2   -1    0    0    0  501 -0.00000000000E+00  0.00000000000E+00  0.48390920420E+01  0.48390920420E+01  0.00000000000E+00 0.  1.
          2   -1    0    0  501    0  0.00000000000E+00 -0.00000000000E+00 -0.81431673146E+03  0.81431673146E+03  0.00000000000E+00 0. -1.
         23    2    1    2    0    0  0.45476754871E+01  0.22364182774E+02 -0.75424731042E+03  0.75939607732E+03  0.85279299580E+02 0.  0.
         13    1    3    3    0    0  0.25662522733E+02  0.44025910388E+02 -0.60324641859E+03  0.60539498462E+03  0.00000000000E+00 0.  1.
        -13    1    3    3    0    0 -0.21114847246E+02 -0.21661727614E+02 -0.15100089183E+03  0.15400109270E+03  0.00000000000E+00 0. -1.
         22    1    1    2    0    0 -0.45476754871E+01 -0.22364182774E+02 -0.55230328995E+02  0.59759746188E+02  0.00000000000E+00 0. -1.
<mgrwt>
<rscale>  0 0.62948500E+02</rscale>
<asrwt>0</asrwt>
<pdfrwt beam="1">  1        2 0.12527953E+00 0.88280218E+02</pdfrwt>
<pdfrwt beam="2">  1       -2 0.74447547E-03 0.88280218E+02</pdfrwt>
<totfact> 0.99210063E+04</totfact>
</mgrwt>
</event>
<event>
 6    1  0.2852411E-002  0.1085977E+03  0.7546771E-02  0.1292171E+00
          2   -1    0    0  501    0  0.00000000000E+00  0.00000000000E+00  0.37557379006E+03  0.37557379006E+03  0.00000000000E+00 0.  1.
         -2   -1    0    0    0  501 -0.00000000000E+00 -0.00000000000E+00 -0.21680986115E+02  0.21680986115E+02  0.00000000000E+00 0. -1.
         23    2    1    2    0    0  0.34310548261E+02 -0.52150758144E+02  0.28117153728E+03  0.30141481623E+03  0.88862493603E+02 0.  0.
         13    1    3    3    0    0 -0.24986442794E+01 -0.13399698632E+02 -0.15200430503E+01  0.13715162322E+02  0.00000000000E+00 0. -1.
        -13    1    3    3    0    0  0.36809192541E+02 -0.38751059513E+02  0.28269158033E+03  0.28769965391E+03  0.00000000000E+00 0.  1.
         22    1    1    2    0    0 -0.34310548261E+02  0.52150758144E+02  0.72721266669E+02  0.95839959949E+02  0.00000000000E+00 0. -1.
<mgrwt>
<rscale>  0 0.94559585E+02</rscale>
<asrwt>0</asrwt>
<pdfrwt beam="1">  1        2 0.57780579E-01 0.10859769E+03</pdfrwt>
<pdfrwt beam="2">  1       -2 0.33355366E-02 0.10859769E+03</pdfrwt>
<totfact> 0.28134312E+04</totfact>
</mgrwt>
</event>
<event>
 6    1  0.2852411E-002  0.9496143E+02  0.7546771E-02  0.1365008E+00
         -2   -1    0    0    0  501 -0.00000000000E+00  0.00000000000E+00  0.47743628243E+02  0.47743628243E+02  0.00000000000E+00 0. -1.
          2   -1    0    0  501    0  0.00000000000E+00 -0.00000000000E+00 -0.76454316754E+02  0.76454316754E+02  0.00000000000E+00 0.  1.
         23    2    1    2    0    0 -0.10210813200E+02  0.23718728425E+02 -0.21112245785E+02  0.97280012013E+02  0.91382903383E+02 0.  0.
         11    1    3    3    0    0 -0.55896290957E+01  0.51815435809E+02  0.12130792556E+02  0.53509246580E+02  0.00000000000E+00 0. -1.
        -11    1    3    3    0    0 -0.46211841039E+01 -0.28096707385E+02 -0.33243038341E+02  0.43770765432E+02  0.00000000000E+00 0.  1.
         22    1    1    2    0    0  0.10210813200E+02 -0.23718728425E+02 -0.75984427257E+01  0.26917932984E+02  0.00000000000E+00 0. -1.
<mgrwt>
<rscale>  0 0.68574564E+02</rscale>
<asrwt>0</asrwt>
<pdfrwt beam="1">  1        2 0.11762203E-01 0.94961433E+02</pdfrwt>
<pdfrwt beam="2">  1       -2 0.73451736E-02 0.94961433E+02</pdfrwt>
<totfact> 0.49128399E+04</totfact>
</mgrwt>
</event>
<event>
 6    1  0.2852411E-002  0.9509085E+02  0.7546771E-02  0.1420749E+00
         -3   -1    0    0    0  501 -0.00000000000E+00  0.00000000000E+00  0.20904575129E+03  0.20904575129E+03  0.00000000000E+00 0.  1.
          3   -1    0    0  501    0  0.00000000000E+00 -0.00000000000E+00 -0.14182722160E+02  0.14182722160E+02  0.00000000000E+00 0. -1.
         23    2    1    2    0    0 -0.10522590577E+02 -0.54095984212E+00  0.15369104865E+03  0.18072965551E+03  0.94505303526E+02 0.  0.
         13    1    3    3    0    0  0.32219015114E+02 -0.21907421498E+02  0.33483214184E+02  0.51372421431E+02  0.00000000000E+00 0. -1.
        -13    1    3    3    0    0 -0.42741605691E+02  0.21366461656E+02  0.12020783447E+03  0.12935723408E+03  0.00000000000E+00 0.  1.
         22    1    1    2    0    0  0.10522590577E+02  0.54095984212E+00  0.41171980474E+02  0.42498817938E+02  0.00000000000E+00 0. -1.
<mgrwt>
<rscale>  0 0.54862805E+02</rscale>
<asrwt>0</asrwt>
<pdfrwt beam="1">  1        3 0.21819574E-02 0.95090851E+02</pdfrwt>
<pdfrwt beam="2">  1       -3 0.32160883E-01 0.95090851E+02</pdfrwt>
<totfact> 0.16303197E+04</totfact>
</mgrwt>
</event>
<event>
 6    1  0.2852411E-002  0.9238834E+02  0.7546771E-02  0.1389305E+00
          3   -1    0    0  501    0  0.00000000000E+00  0.00000000000E+00  0.49864073368E+02  0.49864073368E+02  0.00000000000E+00 0. -1.
         -3   -1    0    0    0  501 -0.00000000000E+00 -0.00000000000E+00 -0.73159468450E+02  0.73159468450E+02  0.00000000000E+00 0.  1.
         23    2    1    2    0    0  0.17564316298E+02 -0.67993868140E+01  0.86102992906E+00  0.92392352854E+02  0.90448154350E+02 0.  0.
         11    1    3    3    0    0 -0.11429615517E+01  0.36486343666E+02  0.19856092168E+02  0.41555072270E+02  0.00000000000E+00 0. -1.
        -11    1    3    3    0    0  0.18707277849E+02 -0.43285730480E+02 -0.18995062239E+02  0.50837280584E+02  0.00000000000E+00 0.  1.
         22    1    1    2    0    0 -0.17564316298E+02  0.67993868140E+01 -0.24156425011E+02  0.30631188964E+02  0.00000000000E+00 0. -1.
<mgrwt>
<rscale>  0 0.62079923E+02</rscale>
<asrwt>0</asrwt>
<pdfrwt beam="1">  1        3 0.76713959E-02 0.92388341E+02</pdfrwt>
<pdfrwt beam="2">  1       -3 0.11255303E-01 0.92388341E+02</pdfrwt>
<totfact> 0.14247253E+04</totfact>
</mgrwt>
</event>
<event>
 6    1  0.2852411E-002  0.9425236E+02  0.7546771E-02  0.1363432E+00
          1   -1    0    0  501    0  0.00000000000E+00  0.00000000000E+00  0.22984989894E+03  0.22984989894E+03  0.00000000000E+00 0. -1.
         -1   -1    0    0    0  501 -0.00000000000E+00 -0.00000000000E+00 -0.16279510060E+02  0.16279510060E+02  0.00000000000E+00 0.  1.
         23    2    1    2    0    0  0.24375576316E+02 -0.11876262124E+02  0.17787551662E+03  0.20130376646E+03  0.90267893838E+02 0.  0.
         13    1    3    3    0    0 -0.53386129750E+01 -0.19011242928E+02 -0.10624450567E+01  0.19775159561E+02  0.00000000000E+00 0.  1.
        -13    1    3    3    0    0  0.29714189291E+02  0.71349808038E+01  0.17893796167E+03  0.18152860690E+03  0.00000000000E+00 0. -1.
         22    1    1    2    0    0 -0.24375576316E+02  0.11876262124E+02  0.35694872261E+02  0.44825642533E+02  0.00000000000E+00 0.  1.
<mgrwt>
<rscale>  0 0.69027304E+02</rscale>
<asrwt>0</asrwt>
<pdfrwt beam="1">  1        1 0.35361521E-01 0.94252358E+02</pdfrwt>
<pdfrwt beam="2">  1       -1 0.25045402E-02 0.94252358E+02</pdfrwt>
<totfact> 0.52855369E+04</totfact>
</mgrwt>
</event>
<event>
 6    1  0.2852411E-002  0.9327412E+02  0.7546771E-02  0.1388951E+00
         -2   -1    0    0    0  501 -0.00000000000E+00  0.00000000000E+00  0.44463453114E+02  0.44463453114E+02  0.00000000000E+00 0. -1.
          2   -1    0    0  501    0  0.00000000000E+00 -0.00000000000E+00 -0.14634696315E+03  0.14634696315E+03  0.00000000000E+00 0.  1.
         23    2    1    2    0    0 -0.20006971184E+01 -0.18298573644E+02 -0.12829447211E+03  0.15861756761E+03  0.91439710161E+02 0.  0.
         11    1    3    3    0    0 -0.43897345347E+02 -0.25460401445E+02 -0.71577492146E+02  0.87741360555E+02  0.00000000000E+00 0. -1.
        -11    1    3    3    0    0  0.41896648229E+02  0.71618278005E+01 -0.56716979962E+02  0.70876207053E+02  0.00000000000E+00 0.  1.
         22    1    1    2    0    0  0.20006971184E+01  0.18298573644E+02  0.26410962077E+02  0.32192848650E+02  0.00000000000E+00 0. -1.
<mgrwt>
<rscale>  0 0.62168486E+02</rscale>
<asrwt>0</asrwt>
<pdfrwt beam="1">  1        2 0.22514918E-01 0.93274118E+02</pdfrwt>
<pdfrwt beam="2">  1       -2 0.68405312E-02 0.93274118E+02</pdfrwt>
<totfact> 0.25938915E+04</totfact>
</mgrwt>
</event>
<event>
 6    1  0.2852411E-002  0.9198517E+02  0.7546771E-02  0.1410542E+00
         -2   -1    0    0    0  501 -0.00000000000E+00  0.00000000000E+00  0.30795029040E+01  0.30795029040E+01  0.00000000000E+00 0.  1.
          2   -1    0    0  501    0  0.00000000000E+00 -0.00000000000E+00 -0.17467584417E+04  0.17467584417E+04  0.00000000000E+00 0. -1.
         23    2    1    2    0    0 -0.11888453068E+02 -0.66713101099E+01 -0.17204275820E+04  0.17228848875E+04  0.90969384508E+02 0.  0.
         11    1    3    3    0    0 -0.33165370191E+02  0.24175373553E+02 -0.44021948608E+03  0.44212847272E+03  0.00000000000E+00 0.  1.
        -11    1    3    3    0    0  0.21276917123E+02 -0.30846683663E+02 -0.12802080960E+04  0.12807564148E+04  0.00000000000E+00 0. -1.
         22    1    1    2    0    0  0.11888453068E+02  0.66713101099E+01 -0.23251356747E+02  0.26953057072E+02  0.00000000000E+00 0.  1.
<mgrwt>
<rscale>  0 0.57073071E+02</rscale>
<asrwt>0</asrwt>
<pdfrwt beam="1">  1        2 0.26873251E+00 0.91985165E+02</pdfrwt>
<pdfrwt beam="2">  1       -2 0.47376890E-03 0.91985165E+02</pdfrwt>
<totfact> 0.58219457E+04</totfact>
</mgrwt>
</event>
<event>
 6    1  0.2852411E-002  0.8736694E+02  0.7546771E-02  0.1411542E+00
         -3   -1    0    0    0  501 -0.00000000000E+00  0.00000000000E+00  0.34008507078E+02  0.34008507078E+02  0.00000000000E+00 0.  1.
          3   -1    0    0  501    0  0.00000000000E+00 -0.00000000000E+00 -0.13773166143E+03  0.13773166143E+03  0.00000000000E+00 0. -1.
         23    2    1    2    0    0  0.13402324955E+02 -0.81088589018E+01 -0.12046596795E+03  0.14881206971E+03  0.85951188188E+02 0.  0.
         13    1    3    3    0    0  0.54299677207E+01 -0.24546522509E+01  0.13360493309E+02  0.14629171152E+02  0.00000000000E+00 0.  1.
        -13    1    3    3    0    0  0.79723572343E+01 -0.56542066509E+01 -0.13382646126E+03  0.13418289856E+03  0.00000000000E+00 0. -1.
         22    1    1    2    0    0 -0.13402324955E+02  0.81088589018E+01  0.16742813603E+02  0.22928098792E+02  0.00000000000E+00 0.  1.
<mgrwt>
<rscale>  0 0.56851162E+02</rscale>
<asrwt>0</asrwt>
<pdfrwt beam="1">  1        3 0.21189487E-01 0.87366943E+02</pdfrwt>
<pdfrwt beam="2">  1       -3 0.52320780E-02 0.87366943E+02</pdfrwt>
<totfact> 0.88009518E+03</totfact>
</mgrwt>
</event>
<event>
 6    1  0.2852411E-002  0.1147874E+03  0.7546771E-02  0.1371925E+00
          2   -1    0    0  501    0  0.00000000000E+00  0.00000000000E+00  0.28245841533E+03  0.28245841533E+03  0.00000000000E+00 0. -1.
         -2   -1    0    0    0  501 -0.00000000000E+00 -0.00000000000E+00 -0.18107753489E+02  0.18107753489E+02  0.00000000000E+00 0.  1.
         23    2    1    2    0    0  0.12315843880E+02  0.42714443207E+01  0.26360070186E+03  0.28750907545E+03  0.11404478594E+03 0.  0.
         13    1    3    3    0    0  0.60821637738E+02 -0.29357053279E+01  0.18598699568E+03  0.19570143726E+03  0.00000000000E+00 0. -1.
        -13    1    3    3    0    0 -0.48505793858E+02  0.72071496486E+01  0.77613706183E+02  0.91807638197E+02  0.00000000000E+00 0.  1.
         22    1    1    2    0    0 -0.12315843880E+02 -0.42714443207E+01  0.74995997576E+00  0.13057093360E+02  0.00000000000E+00 0.  1.
<mgrwt>
<rscale>  0 0.66635060E+02</rscale>
<asrwt>0</asrwt>
<pdfrwt beam="1">  1        2 0.43455137E-01 0.11478736E+03</pdfrwt>
<pdfrwt beam="2">  1       -2 0.27858085E-02 0.11478736E+03</pdfrwt>
<totfact> 0.49751574E+04</totfact>
</mgrwt>
</event>
<event>
 6    1  0.2852411E-002  0.9366753E+02  0.7546771E-02  0.1390208E+00
          2   -1    0    0  501    0  0.00000000000E+00  0.00000000000E+00  0.32728855781E+03  0.32728855781E+03  0.00000000000E+00 0. -1.
         -2   -1    0    0    0  501 -0.00000000000E+00 -0.00000000000E+00 -0.11916606272E+02  0.11916606272E+02  0.00000000000E+00 0.  1.
         23    2    1    2    0    0 -0.16069753816E+02 -0.76851958074E+01  0.30392463693E+03  0.31803111785E+03  0.91958184863E+02 0.  0.
         13    1    3    3    0    0 -0.24336645559E+01 -0.46546039589E+02  0.21554562255E+03  0.22052748564E+03  0.00000000000E+00 0. -1.
        -13    1    3    3    0    0 -0.13636089260E+02  0.38860843781E+02  0.88379014384E+02  0.97503632205E+02  0.00000000000E+00 0.  1.
         22    1    1    2    0    0  0.16069753816E+02  0.76851958074E+01  0.11447314608E+02  0.21174046236E+02  0.00000000000E+00 0.  1.
<mgrwt>
<rscale>  0 0.61855090E+02</rscale>
<asrwt>0</asrwt>
<pdfrwt beam="1">  1        2 0.50352079E-01 0.93667534E+02</pdfrwt>
<pdfrwt beam="2">  1       -2 0.18333243E-02 0.93667534E+02</pdfrwt>
<totfact> 0.76024258E+04</totfact>
</mgrwt>
</event>
<event>
 6    1  0.2852411E-002  0.9828335E+02  0.7546771E-02  0.1334071E+00
         -1   -1    0    0    0  501 -0.00000000000E+00  0.00000000000E+00  0.13517717998E+02  0.13517717998E+02  0.00000000000E+00 0.  1.
          1   -1    0    0  501    0  0.00000000000E+00 -0.00000000000E+00 -0.64753960456E+03  0.64753960456E+03  0.00000000000E+00 0. -1.
         23    2    1    2    0    0  0.77043846045E+01 -0.38747313759E+02 -0.60264604671E+03  0.61060779142E+03  0.89993919008E+02 0.  0.
         13    1    3    3    0    0  0.28983222308E+02 -0.42999932256E+02 -0.17779175660E+03  0.18519970320E+03  0.00000000000E+00 0. -1.
        -13    1    3    3    0    0 -0.21278837704E+02  0.42526184971E+01 -0.42485429012E+03  0.42540808823E+03  0.00000000000E+00 0.  1.
         22    1    1    2    0    0 -0.77043846045E+01  0.38747313759E+02 -0.31375839845E+02  0.50449531134E+02  0.00000000000E+00 0.  1.
<mgrwt>
<rscale>  0 0.78257381E+02</rscale>
<asrwt>0</asrwt>
<pdfrwt beam="1">  1        1 0.99621460E-01 0.98283352E+02</pdfrwt>
<pdfrwt beam="2">  1       -1 0.20796493E-02 0.98283352E+02</pdfrwt>
<totfact> 0.18791452E+04</totfact>
</mgrwt>
</event>
<event>
 6    1  0.2852411E-002  0.9302478E+02  0.7546771E-02  0.1427222E+00
          2   -1    0    0  501    0  0.00000000000E+00  0.00000000000E+00  0.10792670152E+02  0.10792670152E+02  0.00000000000E+00 0. -1.
         -2   -1    0    0    0  501 -0.00000000000E+00 -0.00000000000E+00 -0.26326615692E+03  0.26326615692E+03  0.00000000000E+00 0.  1.
         23    2    1    2    0    0  0.71535776440E+01  0.72618092258E+01 -0.19961733516E+03  0.22022872109E+03  0.92464596217E+02 0.  0.
         11    1    3    3    0    0  0.13290730929E+01 -0.36406741210E+02 -0.37704934369E+02  0.52429756022E+02  0.00000000000E+00 0. -1.
        -11    1    3    3    0    0  0.58245045510E+01  0.43668550436E+02 -0.16191240079E+03  0.16779896507E+03  0.00000000000E+00 0.  1.
         22    1    1    2    0    0 -0.71535776440E+01 -0.72618092258E+01 -0.52856151611E+02  0.53830105976E+02  0.00000000000E+00 0.  1.
<mgrwt>
<rscale>  0 0.53521696E+02</rscale>
<asrwt>0</asrwt>
<pdfrwt beam="1">  1        2 0.16604108E-02 0.93024777E+02</pdfrwt>
<pdfrwt beam="2">  1       -2 0.40502485E-01 0.93024777E+02</pdfrwt>
<totfact> 0.35862858E+04</totfact>
</mgrwt>
</event>
<event>
 6    1  0.2852411E-002  0.9081951E+02  0.7546771E-02  0.1408380E+00
          1   -1    0    0  501    0  0.00000000000E+00  0.00000000000E+00  0.29759020850E+03  0.29759020850E+03  0.00000000000E+00 0. -1.
         -1   -1    0    0    0  501 -0.00000000000E+00 -0.00000000000E+00 -0.22144090953E+02  0.22144090953E+02  0.00000000000E+00 0.  1.
         23    2    1    2    0    0  0.77738969471E+01 -0.12417782419E+02  0.28703131105E+03  0.30105673264E+03  0.89630061657E+02 0.  0.
         11    1    3    3    0    0  0.26981602271E+02  0.27155740004E+02  0.71710971823E+02  0.81289018669E+02  0.00000000000E+00 0.  1.
        -11    1    3    3    0    0 -0.19207705324E+02 -0.39573522423E+02  0.21532033922E+03  0.21976771397E+03  0.00000000000E+00 0. -1.
         22    1    1    2    0    0 -0.77738969471E+01  0.12417782419E+02 -0.11585193494E+02  0.18677566818E+02  0.00000000000E+00 0.  1.
<mgrwt>
<rscale>  0 0.57556830E+02</rscale>
<asrwt>0</asrwt>
<pdfrwt beam="1">  1        1 0.45783106E-01 0.90819506E+02</pdfrwt>
<pdfrwt beam="2">  1       -1 0.34067834E-02 0.90819506E+02</pdfrwt>
<totfact> 0.24645473E+04</totfact>
</mgrwt>
</event>
<event>
 6    1  0.2852411E-002  0.9248658E+02  0.7546771E-02  0.1407467E+00
          1   -1    0    0  501    0  0.00000000000E+00  0.00000000000E+00  0.44310721023E+03  0.44310721023E+03  0.00000000000E+00 0. -1.
         -1   -1    0    0    0  501 -0.00000000000E+00 -0.00000000000E+00 -0.64307224266E+01  0.64307224266E+01  0.00000000000E+00 0.  1.
         23    2    1    2    0    0  0.14015864712E+02  0.12564957594E+01  0.38779578450E+03  0.39867196760E+03  0.91409758958E+02 0.  0.
         11    1    3    3    0    0  0.12753856549E+02  0.45979007262E+02  0.19496001444E+03  0.20071406826E+03  0.00000000000E+00 0. -1.
        -11    1    3    3    0    0  0.12620081633E+01 -0.44722511503E+02  0.19283577006E+03  0.19795789935E+03  0.00000000000E+00 0.  1.
         22    1    1    2    0    0 -0.14015864712E+02 -0.12564957594E+01  0.48880703305E+02  0.50865965053E+02  0.00000000000E+00 0.  1.
<mgrwt>
<rscale>  0 0.57762843E+02</rscale>
<asrwt>0</asrwt>
<pdfrwt beam="1">  1        1 0.68170316E-01 0.92486579E+02</pdfrwt>
<pdfrwt beam="2">  1       -1 0.98934226E-03 0.92486579E+02</pdfrwt>
<totfact> 0.88075091E+04</totfact>
</mgrwt>
</event>
<event>
 6    1  0.2852411E-002  0.9362197E+02  0.7546771E-02  0.1414815E+00
         -2   -1    0    0    0  501 -0.00000000000E+00  0.00000000000E+00  0.11666838271E+03  0.11666838271E+03  0.00000000000E+00 0. -1.
          2   -1    0    0  501    0  0.00000000000E+00 -0.00000000000E+00 -0.32268619885E+02  0.32268619885E+02  0.00000000000E+00 0.  1.
         23    2    1    2    0    0 -0.85457534458E+01  0.85645624000E+01  0.38091655787E+02  0.10107446601E+03  0.92836909725E+02 0.  0.
         13    1    3    3    0    0  0.27326683125E+02  0.38096936675E+02  0.22986339502E+02  0.52215859644E+02  0.00000000000E+00 0. -1.
        -13    1    3    3    0    0 -0.35872436571E+02 -0.29532374275E+02  0.15105316285E+02  0.48858606365E+02  0.00000000000E+00 0.  1.
         22    1    1    2    0    0  0.85457534458E+01 -0.85645624000E+01  0.46308107037E+02  0.47862536586E+02  0.00000000000E+00 0. -1.
<mgrwt>
<rscale>  0 0.56133117E+02</rscale>
<asrwt>0</asrwt>
<pdfrwt beam="1">  1        2 0.49644031E-02 0.93621971E+02</pdfrwt>
<pdfrwt beam="2">  1       -2 0.17948982E-01 0.93621971E+02</pdfrwt>
<totfact> 0.34994586E+04</totfact>
</mgrwt>
</event>
<event>
 6    1  0.2852411E-002  0.9178963E+02  0.7546771E-02  0.1425251E+00
         -1   -1    0    0    0  501 -0.00000000000E+00  0.00000000000E+00  0.26441013528E+02  0.26441013528E+02  0.00000000000E+00 0.  1.
          1   -1    0    0  501    0  0.00000000000E+00 -0.00000000000E+00 -0.12444048396E+03  0.12444048396E+03  0.00000000000E+00 0. -1.
         23    2    1    2    0    0  0.10068563891E+02  0.42640124429E+01 -0.10375122240E+03  0.13852672385E+03  0.91136048240E+02 0.  0.
         13    1    3    3    0    0  0.27612095588E+02 -0.30754608051E+02 -0.86220535285E+02  0.95615137107E+02  0.00000000000E+00 0. -1.
        -13    1    3    3    0    0 -0.17543531697E+02  0.35018620494E+02 -0.17530687116E+02  0.42911586739E+02  0.00000000000E+00 0.  1.
         22    1    1    2    0    0 -0.10068563891E+02 -0.42640124429E+01  0.57517519715E+01  0.12354773640E+02  0.00000000000E+00 0.  1.
<mgrwt>
<rscale>  0 0.53925287E+02</rscale>
<asrwt>0</asrwt>
<pdfrwt beam="1">  1        1 0.19144689E-01 0.91789635E+02</pdfrwt>
<pdfrwt beam="2">  1       -1 0.40678483E-02 0.91789635E+02</pdfrwt>
<totfact> 0.55911040E+04</totfact>
</mgrwt>
</event>
<event>
 6    1  0.2852411E-002  0.8790044E+02  0.7546771E-02  0.1402575E+00
          1   -1    0    0  501    0  0.00000000000E+00  0.00000000000E+00  0.12320059374E+03  0.12320059374E+03  0.00000000000E+00 0. -1.
         -1   -1    0    0    0  501 -0.00000000000E+00 -0.00000000000E+00 -0.23655825606E+02  0.23655825606E+02  0.00000000000E+00 0.  1.
         23    2    1    2    0    0  0.16806519475E+02  0.55588974184E+01  0.93043467405E+02  0.12799833491E+03  0.86099514955E+02 0.  0.
         11    1    3    3    0    0 -0.93760737091E+01  0.48644230233E+01  0.10027242530E+03  0.10082724158E+03  0.00000000000E+00 0. -1.
        -11    1    3    3    0    0  0.26182593184E+02  0.69447439507E+00 -0.72289578920E+01  0.27171093330E+02  0.00000000000E+00 0.  1.
         22    1    1    2    0    0 -0.16806519475E+02 -0.55588974184E+01  0.65013007252E+01  0.18858084434E+02  0.00000000000E+00 0.  1.
<mgrwt>
<rscale>  0 0.58884203E+02</rscale>
<asrwt>0</asrwt>
<pdfrwt beam="1">  1        1 0.18953937E-01 0.87900438E+02</pdfrwt>
<pdfrwt beam="2">  1       -1 0.36393579E-02 0.87900438E+02</pdfrwt>
<totfact> 0.66119603E+04</totfact>
</mgrwt>
</event>
<event>
 6    1  0.2852411E-002  0.9206254E+02  0.7546771E-02  0.1400922E+00
          2   -1    0    0  501    0  0.00000000000E+00  0.00000000000E+00  0.53855338909E+03  0.53855338909E+03  0.00000000000E+00 0. -1.
         -2   -1    0    0    0  501 -0.00000000000E+00 -0.00000000000E+00 -0.59693423193E+01  0.59693423193E+01  0.00000000000E+00 0.  1.
         23    2    1    2    0    0  0.12954565574E+02 -0.90724959771E+01  0.49873888702E+03  0.50716465610E+03  0.90693880808E+02 0.  0.
         11    1    3    3    0    0  0.42691895270E+02 -0.26942219246E+02  0.38374369473E+03  0.38705000238E+03  0.00000000000E+00 0. -1.
        -11    1    3    3    0    0 -0.29737329696E+02  0.17869723269E+02  0.11499519229E+03  0.12011465371E+03  0.00000000000E+00 0.  1.
         22    1    1    2    0    0 -0.12954565574E+02  0.90724959771E+01  0.33845159752E+02  0.37358075313E+02  0.00000000000E+00 0.  1.
<mgrwt>
<rscale>  0 0.59269756E+02</rscale>
<asrwt>0</asrwt>
<pdfrwt beam="1">  1        2 0.82854330E-01 0.92062538E+02</pdfrwt>
<pdfrwt beam="2">  1       -2 0.91836078E-03 0.92062538E+02</pdfrwt>
<totfact> 0.11950623E+05</totfact>
</mgrwt>
</event>
<event>
 6    1  0.2852411E-002  0.9393271E+02  0.7546771E-02  0.1377842E+00
         -1   -1    0    0    0  501 -0.00000000000E+00  0.00000000000E+00  0.72691981687E+01  0.72691981687E+01  0.00000000000E+00 0.  1.
          1   -1    0    0  501    0  0.00000000000E+00 -0.00000000000E+00 -0.52523954999E+03  0.52523954999E+03  0.00000000000E+00 0. -1.
         23    2    1    2    0    0  0.52449741235E+01 -0.20936417341E+02 -0.47741176898E+03  0.48656484795E+03  0.91419422291E+02 0.  0.
         13    1    3    3    0    0 -0.24966933901E+01 -0.56383305426E+02 -0.25122356503E+03  0.25748512624E+03  0.00000000000E+00 0.  1.
        -13    1    3    3    0    0  0.77416675136E+01  0.35446888085E+02 -0.22618820395E+03  0.22907972171E+03  0.00000000000E+00 0. -1.
         22    1    1    2    0    0 -0.52449741235E+01  0.20936417341E+02 -0.40558582841E+02  0.45943900212E+02  0.00000000000E+00 0.  1.
<mgrwt>
<rscale>  0 0.65034323E+02</rscale>
<asrwt>0</asrwt>
<pdfrwt beam="1">  1        1 0.80806117E-01 0.93932710E+02</pdfrwt>
<pdfrwt beam="2">  1       -1 0.11183377E-02 0.93932710E+02</pdfrwt>
<totfact> 0.59731718E+04</totfact>
</mgrwt>
</event>
<event>
 6    1  0.2852411E-002  0.9011294E+02  0.7546771E-02  0.1433281E+00
          4   -1    0    0  501    0  0.00000000000E+00  0.00000000000E+00  0.24316610165E+02  0.24316610165E+02  0.00000000000E+00 0. -1.
         -4   -1    0    0    0  501 -0.00000000000E+00 -0.00000000000E+00 -0.11464880291E+03  0.11464880291E+03  0.00000000000E+00 0.  1.
         23    2    1    2    0    0 -0.15909430533E+01  0.10105646457E+02 -0.63471022974E+02  0.11022210722E+03  0.89530368994E+02 0.  0.
         11    1    3    3    0    0  0.14982522170E+02  0.28664963630E+02  0.90208819017E+01  0.33578749542E+02  0.00000000000E+00 0. -1.
        -11    1    3    3    0    0 -0.16573465223E+02 -0.18559317173E+02 -0.72491904875E+02  0.76643357676E+02  0.00000000000E+00 0.  1.
         22    1    1    2    0    0  0.15909430533E+01 -0.10105646457E+02 -0.26861169770E+02  0.28743305856E+02  0.00000000000E+00 0.  1.
<mgrwt>
<rscale>  0 0.52307079E+02</rscale>
<asrwt>0</asrwt>
<pdfrwt beam="1">  1        4 0.37410170E-02 0.90112941E+02</pdfrwt>
<pdfrwt beam="2">  1       -4 0.17638277E-01 0.90112941E+02</pdfrwt>
<totfact> 0.15487244E+04</totfact>
</mgrwt>
</event>
<event>
 6    1  0.2852411E-002  0.1542205E+03  0.7546771E-02  0.1205481E+00
         -2   -1    0    0    0  501 -0.00000000000E+00  0.00000000000E+00  0.18440569583E+02  0.18440569583E+02  0.00000000000E+00 0.  1.
          2   -1    0    0  501    0  0.00000000000E+00 -0.00000000000E+00 -0.10489570084E+04  0.10489570084E+04  0.00000000000E+00 0. -1.
         23    2    1    2    0    0 -0.70583329821E+02 -0.10178451821E+03 -0.58397021181E+03  0.60399103137E+03  0.91879611951E+02 0.  0.
         11    1    3    3    0    0 -0.22374917214E+02 -0.60263595124E+02 -0.12430143108E+03  0.13993992849E+03  0.00000000000E+00 0.  1.
        -11    1    3    3    0    0 -0.48208412607E+02 -0.41520923083E+02 -0.45966878074E+03  0.46405110288E+03  0.00000000000E+00 0. -1.
         22    1    1    2    0    0  0.70583329821E+02  0.10178451821E+03 -0.44654622703E+03  0.46340654664E+03  0.00000000000E+00 0. -1.
<mgrwt>
<rscale>  0 0.14599639E+03</rscale>
<asrwt>0</asrwt>
<pdfrwt beam="1">  1        2 0.16137799E+00 0.15422048E+03</pdfrwt>
<pdfrwt beam="2">  1       -2 0.28370109E-02 0.15422048E+03</pdfrwt>
<totfact> 0.10955603E+04</totfact>
</mgrwt>
</event>
<event>
 6    1  0.2852411E-002  0.9120863E+02  0.7546771E-02  0.1415793E+00
          2   -1    0    0  501    0  0.00000000000E+00  0.00000000000E+00  0.31108494306E+02  0.31108494306E+02  0.00000000000E+00 0.  1.
         -2   -1    0    0    0  501 -0.00000000000E+00 -0.00000000000E+00 -0.87120970639E+02  0.87120970639E+02  0.00000000000E+00 0. -1.
         23    2    1    2    0    0 -0.55100968789E+01  0.11650892912E+02 -0.48260235752E+02  0.10318946138E+03  0.90293466605E+02 0.  0.
         11    1    3    3    0    0  0.21607021814E+02  0.24477433053E+02 -0.62094793934E+02  0.70155338744E+02  0.00000000000E+00 0. -1.
        -11    1    3    3    0    0 -0.27117118693E+02 -0.12826540141E+02  0.13834558182E+02  0.33034122635E+02  0.00000000000E+00 0.  1.
         22    1    1    2    0    0  0.55100968789E+01 -0.11650892912E+02 -0.77522405803E+01  0.15040003566E+02  0.00000000000E+00 0.  1.
<mgrwt>
<rscale>  0 0.55920961E+02</rscale>
<asrwt>0</asrwt>
<pdfrwt beam="1">  1        2 0.47859222E-02 0.91208632E+02</pdfrwt>
<pdfrwt beam="2">  1       -2 0.13403226E-01 0.91208632E+02</pdfrwt>
<totfact> 0.58759409E+04</totfact>
</mgrwt>
</event>
<event>
 6    1  0.2852411E-002  0.9561509E+02  0.7546771E-02  0.1393334E+00
         -2   -1    0    0    0  501 -0.00000000000E+00  0.00000000000E+00  0.27657945776E+03  0.27657945776E+03  0.00000000000E+00 0.  1.
          2   -1    0    0  501    0  0.00000000000E+00 -0.00000000000E+00 -0.11356502272E+02  0.11356502272E+02  0.00000000000E+00 0. -1.
         23    2    1    2    0    0  0.86238031054E+00  0.15904644965E+02  0.21645111350E+03  0.23662909887E+03  0.94279077563E+02 0.  0.
         13    1    3    3    0    0  0.78477049751E+01 -0.36455882912E+02  0.13067715817E+03  0.13589384659E+03  0.00000000000E+00 0. -1.
        -13    1    3    3    0    0 -0.69853246645E+01  0.52360527877E+02  0.85773955329E+02  0.10073525229E+03  0.00000000000E+00 0.  1.
         22    1    1    2    0    0 -0.86238031054E+00 -0.15904644965E+02  0.48771841986E+02  0.51306861158E+02  0.00000000000E+00 0. -1.
<mgrwt>
<rscale>  0 0.61085088E+02</rscale>
<asrwt>0</asrwt>
<pdfrwt beam="1">  1        2 0.17471544E-02 0.95615092E+02</pdfrwt>
<pdfrwt beam="2">  1       -2 0.42550681E-01 0.95615092E+02</pdfrwt>
<totfact> 0.30607344E+04</totfact>
</mgrwt>
</event>
<event>
 6    1  0.2852411E-002  0.9256526E+02  0.7546771E-02  0.1394826E+00
          2   -1    0    0  501    0  0.00000000000E+00  0.00000000000E+00  0.11598242669E+04  0.11598242669E+04  0.00000000000E+00 0. -1.
         -2   -1    0    0    0  501 -0.00000000000E+00 -0.00000000000E+00 -0.44759070245E+01  0.44759070245E+01  0.00000000000E+00 0.  1.
         23    2    1    2    0    0  0.13224021409E+02 -0.10906544186E+02  0.11294876507E+04  0.11332743181E+04  0.90964276667E+02 0.  0.
         11    1    3    3    0    0  0.41830957464E+02  0.21056354757E+02  0.72714831167E+03  0.72865483340E+03  0.00000000000E+00 0. -1.
        -11    1    3    3    0    0 -0.28606936055E+02 -0.31962898943E+02  0.40233933900E+03  0.40461948471E+03  0.00000000000E+00 0.  1.
         22    1    1    2    0    0 -0.13224021409E+02  0.10906544186E+02  0.25860709213E+02  0.31025855819E+02  0.00000000000E+00 0.  1.
<mgrwt>
<rscale>  0 0.60722209E+02</rscale>
<asrwt>0</asrwt>
<pdfrwt beam="1">  1        2 0.17843426E+00 0.92565258E+02</pdfrwt>
<pdfrwt beam="2">  1       -2 0.68860201E-03 0.92565258E+02</pdfrwt>
<totfact> 0.69434354E+04</totfact>
</mgrwt>
</event>
<event>
 6    1  0.2852411E-002  0.9090030E+02  0.7546771E-02  0.1396422E+00
         -2   -1    0    0    0  501 -0.00000000000E+00  0.00000000000E+00  0.54361677712E+02  0.54361677712E+02  0.00000000000E+00 0.  1.
          2   -1    0    0  501    0  0.00000000000E+00 -0.00000000000E+00 -0.55983279358E+02  0.55983279358E+02  0.00000000000E+00 0. -1.
         23    2    1    2    0    0  0.17525951450E+02 -0.20550682796E+01 -0.87351859696E+01  0.91319044167E+02  0.89171083170E+02 0.  0.
         11    1    3    3    0    0 -0.22898882811E+02 -0.30022131389E+02 -0.17110950217E+02  0.41454454820E+02  0.00000000000E+00 0. -1.
        -11    1    3    3    0    0  0.40424834261E+02  0.27967063109E+02  0.83757642473E+01  0.49864589347E+02  0.00000000000E+00 0.  1.
         22    1    1    2    0    0 -0.17525951450E+02  0.20550682796E+01  0.71135843243E+01  0.19025912903E+02  0.00000000000E+00 0.  1.
<mgrwt>
<rscale>  0 0.60337279E+02</rscale>
<asrwt>0</asrwt>
<pdfrwt beam="1">  1        2 0.86128122E-02 0.90900299E+02</pdfrwt>
<pdfrwt beam="2">  1       -2 0.83633350E-02 0.90900299E+02</pdfrwt>
<totfact> 0.58426755E+04</totfact>
</mgrwt>
</event>
<event>
 6    1  0.2852411E-002  0.9203752E+02  0.7546771E-02  0.1406771E+00
          2   -1    0    0  501    0  0.00000000000E+00  0.00000000000E+00  0.44545307512E+03  0.44545307512E+03  0.00000000000E+00 0. -1.
         -2   -1    0    0    0  501 -0.00000000000E+00 -0.00000000000E+00 -0.82538179677E+01  0.82538179677E+01  0.00000000000E+00 0.  1.
         23    2    1    2    0    0  0.25359263029E+01 -0.14211175692E+02  0.42486444540E+03  0.43471910708E+03  0.90898386414E+02 0.  0.
         13    1    3    3    0    0  0.17941777156E+02 -0.49358345658E+02  0.21090984491E+03  0.21735021586E+03  0.00000000000E+00 0.  1.
        -13    1    3    3    0    0 -0.15405850853E+02  0.35147169966E+02  0.21395460050E+03  0.21736889122E+03  0.00000000000E+00 0. -1.
         22    1    1    2    0    0 -0.25359263029E+01  0.14211175692E+02  0.12334811752E+02  0.18987786014E+02  0.00000000000E+00 0.  1.
<mgrwt>
<rscale>  0 0.57920577E+02</rscale>
<asrwt>0</asrwt>
<pdfrwt beam="1">  1        2 0.68531224E-01 0.92037520E+02</pdfrwt>
<pdfrwt beam="2">  1       -2 0.12698185E-02 0.92037520E+02</pdfrwt>
<totfact> 0.92626373E+04</totfact>
</mgrwt>
</event>
<event>
 6    1  0.2852411E-002  0.9577446E+02  0.7546771E-02  0.1356160E+00
          1   -1    0    0  501    0  0.00000000000E+00  0.00000000000E+00  0.38045472484E+03  0.38045472484E+03  0.00000000000E+00 0.  1.
         -1   -1    0    0    0  501 -0.00000000000E+00 -0.00000000000E+00 -0.10351040526E+02  0.10351040526E+02  0.00000000000E+00 0. -1.
         23    2    1    2    0    0 -0.11736855503E+02  0.26740665858E+02  0.29801363012E+03  0.31302535073E+03  0.91213647407E+02 0.  0.
         13    1    3    3    0    0  0.33274147831E+02  0.11552921503E+01  0.19402254244E+03  0.19685845318E+03  0.00000000000E+00 0.  1.
        -13    1    3    3    0    0 -0.45011003334E+02  0.25585373708E+02  0.10399108769E+03  0.11616689755E+03  0.00000000000E+00 0. -1.
         22    1    1    2    0    0  0.11736855503E+02 -0.26740665858E+02  0.72090054191E+02  0.77780414636E+02  0.00000000000E+00 0.  1.
<mgrwt>
<rscale>  0 0.71169555E+02</rscale>
<asrwt>0</asrwt>
<pdfrwt beam="1">  1        1 0.58531486E-01 0.95774456E+02</pdfrwt>
<pdfrwt beam="2">  1       -1 0.15924681E-02 0.95774456E+02</pdfrwt>
<totfact> 0.54539363E+04</totfact>
</mgrwt>
</event>
<event>
 6    1  0.2852411E-002  0.9136636E+02  0.7546771E-02  0.1420089E+00
         -2   -1    0    0    0  501 -0.00000000000E+00  0.00000000000E+00  0.31972967654E+01  0.31972967654E+01  0.00000000000E+00 0.  1.
          2   -1    0    0  501    0  0.00000000000E+00 -0.00000000000E+00 -0.10875334704E+04  0.10875334704E+04  0.00000000000E+00 0. -1.
         23    2    1    2    0    0 -0.20928456809E+01  0.11815491195E+02 -0.10561770505E+04  0.10601215847E+04  0.90574977350E+02 0.  0.
         11    1    3    3    0    0 -0.14283376620E+02  0.37771868140E+02 -0.92342512357E+03  0.92430768022E+03  0.00000000000E+00 0. -1.
        -11    1    3    3    0    0  0.12190530939E+02 -0.25956376945E+02 -0.13275192695E+03  0.13581390450E+03  0.00000000000E+00 0.  1.
         22    1    1    2    0    0  0.20928456809E+01 -0.11815491195E+02 -0.28159123159E+02  0.30609182484E+02  0.00000000000E+00 0.  1.
<mgrwt>
<rscale>  0 0.55002158E+02</rscale>
<asrwt>0</asrwt>
<pdfrwt beam="1">  1        2 0.16731303E+00 0.91366363E+02</pdfrwt>
<pdfrwt beam="2">  1       -2 0.49189125E-03 0.91366363E+02</pdfrwt>
<totfact> 0.12199769E+05</totfact>
</mgrwt>
</event>
<event>
 6    1  0.2852411E-002  0.7719936E+02  0.7546771E-02  0.1447202E+00
         -2   -1    0    0    0  501 -0.00000000000E+00  0.00000000000E+00  0.56555172112E+01  0.56555172112E+01  0.00000000000E+00 0.  1.
          2   -1    0    0  501    0  0.00000000000E+00 -0.00000000000E+00 -0.41601350912E+03  0.41601350912E+03  0.00000000000E+00 0. -1.
         23    2    1    2    0    0  0.90100344417E+01  0.96673913169E+01 -0.38874335979E+03  0.39633463277E+03  0.76059859164E+02 0.  0.
         13    1    3    3    0    0  0.19574287253E+02  0.39338053308E+02 -0.18340337220E+03  0.18859329811E+03  0.00000000000E+00 0.  1.
        -13    1    3    3    0    0 -0.10564252811E+02 -0.29670661991E+02 -0.20533998759E+03  0.20774133466E+03  0.00000000000E+00 0. -1.
         22    1    1    2    0    0 -0.90100344417E+01 -0.96673913169E+01 -0.21614632117E+02  0.25334393560E+02  0.00000000000E+00 0. -1.
<mgrwt>
<rscale>  0 0.49656715E+02</rscale>
<asrwt>0</asrwt>
<pdfrwt beam="1">  1        2 0.64002093E-01 0.77199361E+02</pdfrwt>
<pdfrwt beam="2">  1       -2 0.87007937E-03 0.77199361E+02</pdfrwt>
<totfact> 0.16532104E+05</totfact>
</mgrwt>
</event>
<event>
 6    1  0.2852411E-002  0.9595434E+02  0.7546771E-02  0.1352188E+00
         -2   -1    0    0    0  501 -0.00000000000E+00  0.00000000000E+00  0.14311070947E+02  0.14311070947E+02  0.00000000000E+00 0.  1.
          2   -1    0    0  501    0  0.00000000000E+00 -0.00000000000E+00 -0.28898951840E+03  0.28898951840E+03  0.00000000000E+00 0. -1.
         23    2    1    2    0    0 -0.25004750840E+02 -0.18428993061E+02 -0.22637420836E+03  0.24587093791E+03  0.90787502162E+02 0.  0.
         11    1    3    3    0    0 -0.43065953224E+02 -0.45941538366E+02 -0.14408062022E+03  0.15724034596E+03  0.00000000000E+00 0. -1.
        -11    1    3    3    0    0  0.18061202385E+02  0.27512545304E+02 -0.82293588138E+02  0.88630591949E+02  0.00000000000E+00 0.  1.
         22    1    1    2    0    0  0.25004750840E+02  0.18428993061E+02 -0.48304239099E+02  0.57429651442E+02  0.00000000000E+00 0.  1.
<mgrwt>
<rscale>  0 0.72378039E+02</rscale>
<asrwt>0</asrwt>
<pdfrwt beam="1">  1        2 0.44459923E-01 0.95954343E+02</pdfrwt>
<pdfrwt beam="2">  1       -2 0.22017034E-02 0.95954343E+02</pdfrwt>
<totfact> 0.66770057E+04</totfact>
</mgrwt>
</event>
<event>
 6    1  0.2852411E-002  0.9454678E+02  0.7546771E-02  0.1421402E+00
         -2   -1    0    0    0  501 -0.00000000000E+00  0.00000000000E+00  0.12386374762E+03  0.12386374762E+03  0.00000000000E+00 0.  1.
          2   -1    0    0  501    0  0.00000000000E+00 -0.00000000000E+00 -0.24972750498E+02  0.24972750498E+02  0.00000000000E+00 0. -1.
         23    2    1    2    0    0 -0.48080690355E+01  0.94607517756E+01  0.68801858873E+02  0.11693070566E+03  0.93949299035E+02 0.  0.
         11    1    3    3    0    0  0.61578301580E+01 -0.34918604611E+02  0.13952628504E+01  0.35484849988E+02  0.00000000000E+00 0. -1.
        -11    1    3    3    0    0 -0.10965899194E+02  0.44379356386E+02  0.67406596023E+02  0.81445855670E+02  0.00000000000E+00 0.  1.
         22    1    1    2    0    0  0.48080690355E+01 -0.94607517756E+01  0.30089138245E+02  0.31905792458E+02  0.00000000000E+00 0.  1.
<mgrwt>
<rscale>  0 0.54725359E+02</rscale>
<asrwt>0</asrwt>
<pdfrwt beam="1">  1        2 0.38419617E-02 0.94546783E+02</pdfrwt>
<pdfrwt beam="2">  1       -2 0.19055961E-01 0.94546783E+02</pdfrwt>
<totfact> 0.44301847E+04</totfact>
</mgrwt>
</event>
<event>
 6    1  0.2852411E-002  0.9349060E+02  0.7546771E-02  0.1377411E+00
         -2   -1    0    0    0  501 -0.00000000000E+00  0.00000000000E+00  0.27840952074E+02  0.27840952074E+02  0.00000000000E+00 0.  1.
          2   -1    0    0  501    0  0.00000000000E+00 -0.00000000000E+00 -0.12038315224E+03  0.12038315224E+03  0.00000000000E+00 0. -1.
         23    2    1    2    0    0  0.86928845767E+01  0.20260195580E+02 -0.70940086897E+02  0.11735837794E+03  0.90854010234E+02 0.  0.
         13    1    3    3    0    0  0.13184294233E+02  0.23218725123E+02 -0.91909929916E+02  0.95709822003E+02  0.00000000000E+00 0. -1.
        -13    1    3    3    0    0 -0.44914096566E+01 -0.29585295435E+01  0.20969843018E+02  0.21648555933E+02  0.00000000000E+00 0.  1.
         22    1    1    2    0    0 -0.86928845767E+01 -0.20260195580E+02 -0.21602113270E+02  0.30865726379E+02  0.00000000000E+00 0.  1.
<mgrwt>
<rscale>  0 0.65149363E+02</rscale>
<asrwt>0</asrwt>
<pdfrwt beam="1">  1        2 0.18520485E-01 0.93490603E+02</pdfrwt>
<pdfrwt beam="2">  1       -2 0.42832234E-02 0.93490603E+02</pdfrwt>
<totfact> 0.64908679E+04</totfact>
</mgrwt>
</event>
<event>
 6    1  0.2852411E-002  0.8841258E+02  0.7546771E-02  0.1400303E+00
         -2   -1    0    0    0  501 -0.00000000000E+00  0.00000000000E+00  0.95531052641E+01  0.95531052641E+01  0.00000000000E+00 0.  1.
          2   -1    0    0  501    0  0.00000000000E+00 -0.00000000000E+00 -0.30035341442E+03  0.30035341442E+03  0.00000000000E+00 0. -1.
         23    2    1    2    0    0 -0.11399332434E+02  0.13971578826E+02 -0.22709617889E+03  0.24369952604E+03  0.86554229992E+02 0.  0.
         13    1    3    3    0    0  0.34701477427E+02  0.22216893722E+02 -0.11755440798E+03  0.12456653538E+03  0.00000000000E+00 0. -1.
        -13    1    3    3    0    0 -0.46100809861E+02 -0.82453148968E+01 -0.10954177091E+03  0.11913299066E+03  0.00000000000E+00 0.  1.
         22    1    1    2    0    0  0.11399332434E+02 -0.13971578826E+02 -0.63704130260E+02  0.66206993641E+02  0.00000000000E+00 0.  1.
<mgrwt>
<rscale>  0 0.59414985E+02</rscale>
<asrwt>0</asrwt>
<pdfrwt beam="1">  1        2 0.46208210E-01 0.88412581E+02</pdfrwt>
<pdfrwt beam="2">  1       -2 0.14697088E-02 0.88412581E+02</pdfrwt>
<totfact> 0.11310165E+05</totfact>
</mgrwt>
</event>
<event>
 6    1  0.2852411E-002  0.9622776E+02  0.7546771E-02  0.1347603E+00
          2   -1    0    0  501    0  0.00000000000E+00  0.00000000000E+00  0.24454103764E+03  0.24454103764E+03  0.00000000000E+00 0. -1.
         -2   -1    0    0    0  501 -0.00000000000E+00 -0.00000000000E+00 -0.21438791005E+02  0.21438791005E+02  0.00000000000E+00 0.  1.
         23    2    1    2    0    0 -0.27691381579E+02 -0.18504699509E+02  0.20845966623E+03  0.22959794196E+03  0.90280374336E+02 0.  0.
         11    1    3    3    0    0 -0.33035902216E+02  0.18083391289E+02  0.17726230741E+03  0.18121894355E+03  0.00000000000E+00 0. -1.
        -11    1    3    3    0    0  0.53445206367E+01 -0.36588090799E+02  0.31197358818E+02  0.48378998402E+02  0.00000000000E+00 0.  1.
         22    1    1    2    0    0  0.27691381579E+02  0.18504699509E+02  0.14642580405E+02  0.36381886683E+02  0.00000000000E+00 0.  1.
<mgrwt>
<rscale>  0 0.73807979E+02</rscale>
<asrwt>0</asrwt>
<pdfrwt beam="1">  1        2 0.37621696E-01 0.96227764E+02</pdfrwt>
<pdfrwt beam="2">  1       -2 0.32982757E-02 0.96227764E+02</pdfrwt>
<totfact> 0.44274442E+04</totfact>
</mgrwt>
</event>
<event>
 6    1  0.2852411E-002  0.9279681E+02  0.7546771E-02  0.1410846E+00
          2   -1    0    0  501    0  0.00000000000E+00  0.00000000000E+00  0.15333410080E+02  0.15333410080E+02  0.00000000000E+00 0. -1.
         -2   -1    0    0    0  501 -0.00000000000E+00 -0.00000000000E+00 -0.18524532696E+03  0.18524532696E+03  0.00000000000E+00 0.  1.
         23    2    1    2    0    0  0.32174222130E+01  0.12817405471E+02 -0.14109033432E+03  0.16887193477E+03  0.91851021915E+02 0.  0.
         11    1    3    3    0    0  0.62013645097E+01  0.10019359176E+02 -0.15445062408E+03  0.15489945048E+03  0.00000000000E+00 0.  1.
        -11    1    3    3    0    0 -0.29839422967E+01  0.27980462944E+01  0.13360289764E+02  0.13972484291E+02  0.00000000000E+00 0. -1.
         22    1    1    2    0    0 -0.32174222130E+01 -0.12817405471E+02 -0.28821582562E+02  0.31706802268E+02  0.00000000000E+00 0.  1.
<mgrwt>
<rscale>  0 0.57005536E+02</rscale>
<asrwt>0</asrwt>
<pdfrwt beam="1">  1        2 0.23589862E-02 0.92796810E+02</pdfrwt>
<pdfrwt beam="2">  1       -2 0.28499281E-01 0.92796810E+02</pdfrwt>
<totfact> 0.42355394E+04</totfact>
</mgrwt>
</event>
<event>
 6    1  0.2852411E-002  0.9297677E+02  0.7546771E-02  0.1375960E+00
          2   -1    0    0  501    0  0.00000000000E+00  0.00000000000E+00  0.53293222803E+03  0.53293222803E+03  0.00000000000E+00 0. -1.
         -2   -1    0    0    0  501 -0.00000000000E+00 -0.00000000000E+00 -0.12032406524E+02  0.12032406524E+02  0.00000000000E+00 0.  1.
         23    2    1    2    0    0 -0.22862025061E+02 -0.20444055452E+01  0.51195621228E+03  0.52033051330E+03  0.90098989984E+02 0.  0.
         11    1    3    3    0    0  0.22879511507E+02 -0.23639829643E+02  0.32470846302E+03  0.32637080070E+03  0.00000000000E+00 0.  1.
        -11    1    3    3    0    0 -0.45741536568E+02  0.21595424098E+02  0.18724774927E+03  0.19395971261E+03  0.00000000000E+00 0. -1.
         22    1    1    2    0    0  0.22862025061E+02  0.20444055452E+01  0.89436092251E+01  0.24634121253E+02  0.00000000000E+00 0.  1.
<mgrwt>
<rscale>  0 0.65537806E+02</rscale>
<asrwt>0</asrwt>
<pdfrwt beam="1">  1        2 0.81989555E-01 0.92976770E+02</pdfrwt>
<pdfrwt beam="2">  1       -2 0.18511399E-02 0.92976770E+02</pdfrwt>
<totfact> 0.44628399E+04</totfact>
</mgrwt>
</event>
<event>
 6    1  0.2852411E-002  0.9450252E+02  0.7546771E-02  0.1385276E+00
         -4   -1    0    0    0  501 -0.00000000000E+00  0.00000000000E+00  0.20531449466E+02  0.20531449466E+02  0.00000000000E+00 0.  1.
          4   -1    0    0  501    0  0.00000000000E+00 -0.00000000000E+00 -0.20656503008E+03  0.20656503008E+03  0.00000000000E+00 0. -1.
         23    2    1    2    0    0 -0.16199797934E+02 -0.95009343029E+01 -0.18564264601E+03  0.20831207017E+03  0.92617629841E+02 0.  0.
         13    1    3    3    0    0  0.20215785978E+02 -0.30019541287E+01 -0.15018450585E+01  0.20492566210E+02  0.00000000000E+00 0.  1.
        -13    1    3    3    0    0 -0.36415583912E+02 -0.64989801742E+01 -0.18414080095E+03  0.18781950396E+03  0.00000000000E+00 0. -1.
         22    1    1    2    0    0  0.16199797934E+02  0.95009343029E+01 -0.39093460978E+00  0.18784409376E+02  0.00000000000E+00 0.  1.
<mgrwt>
<rscale>  0 0.63096957E+02</rscale>
<asrwt>0</asrwt>
<pdfrwt beam="1">  1        4 0.31779235E-01 0.94502521E+02</pdfrwt>
<pdfrwt beam="2">  1       -4 0.31586846E-02 0.94502521E+02</pdfrwt>
<totfact> 0.70065720E+03</totfact>
</mgrwt>
</event>
<event>
 6    1  0.2852411E-002  0.9065719E+02  0.7546771E-02  0.1405905E+00
          2   -1    0    0  501    0  0.00000000000E+00  0.00000000000E+00  0.80565700377E+03  0.80565700377E+03  0.00000000000E+00 0. -1.
         -2   -1    0    0    0  501 -0.00000000000E+00 -0.00000000000E+00 -0.36706802104E+01  0.36706802104E+01  0.00000000000E+00 0.  1.
         23    2    1    2    0    0 -0.71591533478E+01  0.13534959269E+02  0.73736384800E+03  0.74291599113E+03  0.89354781341E+02 0.  0.
         13    1    3    3    0    0  0.32284388653E+01  0.50728678038E+01  0.72388864526E+03  0.72391361884E+03  0.00000000000E+00 0. -1.
        -13    1    3    3    0    0 -0.10387592213E+02  0.84620914653E+01  0.13475202737E+02  0.19002372293E+02  0.00000000000E+00 0.  1.
         22    1    1    2    0    0  0.71591533478E+01 -0.13534959269E+02  0.64622475563E+02  0.66411692848E+02  0.00000000000E+00 0.  1.
<mgrwt>
<rscale>  0 0.58117595E+02</rscale>
<asrwt>0</asrwt>
<pdfrwt beam="1">  1        2 0.12394709E+00 0.90657187E+02</pdfrwt>
<pdfrwt beam="2">  1       -2 0.56472067E-03 0.90657187E+02</pdfrwt>
<totfact> 0.14878900E+05</totfact>
</mgrwt>
</event>
<event>
 6    1  0.2852411E-002  0.9437082E+02  0.7546771E-02  0.1365858E+00
          2   -1    0    0  501    0  0.00000000000E+00  0.00000000000E+00  0.71342235161E+03  0.71342235161E+03  0.00000000000E+00 0. -1.
         -2   -1    0    0    0  501 -0.00000000000E+00 -0.00000000000E+00 -0.71331369460E+01  0.71331369460E+01  0.00000000000E+00 0.  1.
         23    2    1    2    0    0 -0.11476429005E+02 -0.23264275851E+02  0.66589544892E+03  0.67254932995E+03  0.90735425074E+02 0.  0.
         11    1    3    3    0    0  0.25554783530E+02 -0.37693410612E+02  0.49514112803E+03  0.49723090896E+03  0.00000000000E+00 0. -1.
        -11    1    3    3    0    0 -0.37031212535E+02  0.14429134761E+02  0.17075432090E+03  0.17531842098E+03  0.00000000000E+00 0.  1.
         22    1    1    2    0    0  0.11476429005E+02  0.23264275851E+02  0.40393765739E+02  0.48006158606E+02  0.00000000000E+00 0.  1.
<mgrwt>
<rscale>  0 0.68332128E+02</rscale>
<asrwt>0</asrwt>
<pdfrwt beam="1">  1        2 0.10975723E+00 0.94370823E+02</pdfrwt>
<pdfrwt beam="2">  1       -2 0.10974063E-02 0.94370823E+02</pdfrwt>
<totfact> 0.67788258E+04</totfact>
</mgrwt>
</event>
<event>
 6    1  0.2852411E-002  0.9317227E+02  0.7546771E-02  0.1418130E+00
         -2   -1    0    0    0  501 -0.00000000000E+00  0.00000000000E+00  0.95702726080E+02  0.95702726080E+02  0.00000000000E+00 0.  1.
          2   -1    0    0  501    0  0.00000000000E+00 -0.00000000000E+00 -0.30148094238E+02  0.30148094238E+02  0.00000000000E+00 0. -1.
         23    2    1    2    0    0 -0.10284013082E+02 -0.54983432553E+01  0.48090719146E+02  0.10485127389E+03  0.92439600086E+02 0.  0.
         11    1    3    3    0    0  0.58784492288E+01 -0.36891037055E+02 -0.83477547236E+01  0.38277797602E+02  0.00000000000E+00 0. -1.
        -11    1    3    3    0    0 -0.16162462311E+02  0.31392693800E+02  0.56438473870E+02  0.66573476285E+02  0.00000000000E+00 0.  1.
         22    1    1    2    0    0  0.10284013082E+02  0.54983432553E+01  0.17463912696E+02  0.20999546430E+02  0.00000000000E+00 0.  1.
<mgrwt>
<rscale>  0 0.55418462E+02</rscale>
<asrwt>0</asrwt>
<pdfrwt beam="1">  1        2 0.46381684E-02 0.93172273E+02</pdfrwt>
<pdfrwt beam="2">  1       -2 0.14723496E-01 0.93172273E+02</pdfrwt>
<totfact> 0.52782425E+04</totfact>
</mgrwt>
</event>
<event>
 6    1  0.2852411E-002  0.9405989E+02  0.7546771E-02  0.1422660E+00
          2   -1    0    0  501    0  0.00000000000E+00  0.00000000000E+00  0.11982343946E+03  0.11982343946E+03  0.00000000000E+00 0.  1.
         -2   -1    0    0    0  501 -0.00000000000E+00 -0.00000000000E+00 -0.26216633080E+02  0.26216633080E+02  0.00000000000E+00 0. -1.
         23    2    1    2    0    0 -0.10401696260E+02 -0.18904580823E+01  0.96823862726E+02  0.13498934548E+03  0.93463864052E+02 0.  0.
         11    1    3    3    0    0  0.18171136920E+02 -0.19482913007E+01 -0.12403287152E+02  0.22086819331E+02  0.00000000000E+00 0. -1.
        -11    1    3    3    0    0 -0.28572833181E+02  0.57833218354E-01  0.10922714988E+03  0.11290252615E+03  0.00000000000E+00 0.  1.
         22    1    1    2    0    0  0.10401696260E+02  0.18904580823E+01 -0.32170563515E+01  0.11050727054E+02  0.00000000000E+00 0. -1.
<mgrwt>
<rscale>  0 0.54461999E+02</rscale>
<asrwt>0</asrwt>
<pdfrwt beam="1">  1        2 0.18434375E-01 0.94059890E+02</pdfrwt>
<pdfrwt beam="2">  1       -2 0.40333282E-02 0.94059890E+02</pdfrwt>
<totfact> 0.71357878E+04</totfact>
</mgrwt>
</event>
<event>
 6    1  0.2852411E-002  0.8899014E+02  0.7546771E-02  0.1397135E+00
         -1   -1    0    0    0  501 -0.00000000000E+00  0.00000000000E+00  0.13850991387E+02  0.13850991387E+02  0.00000000000E+00 0.  1.
          1   -1    0    0  501    0  0.00000000000E+00 -0.00000000000E+00 -0.31556041740E+03  0.31556041740E+03  0.00000000000E+00 0. -1.
         23    2    1    2    0    0 -0.12349407120E+02 -0.13901505350E+02 -0.29725619400E+03  0.31029097514E+03  0.87025770197E+02 0.  0.
         11    1    3    3    0    0 -0.10309446762E+02 -0.42197121992E+02 -0.25925289215E+03  0.26286677973E+03  0.00000000000E+00 0. -1.
        -11    1    3    3    0    0 -0.20399603581E+01  0.28295616643E+02 -0.38003301851E+02  0.47424195417E+02  0.00000000000E+00 0.  1.
         22    1    1    2    0    0  0.12349407120E+02  0.13901505350E+02 -0.44532320113E+01  0.19120433639E+02  0.00000000000E+00 0.  1.
<mgrwt>
<rscale>  0 0.60166286E+02</rscale>
<asrwt>0</asrwt>
<pdfrwt beam="1">  1        1 0.48547755E-01 0.88990136E+02</pdfrwt>
<pdfrwt beam="2">  1       -1 0.21309218E-02 0.88990136E+02</pdfrwt>
<totfact> 0.44895276E+04</totfact>
</mgrwt>
</event>
<event>
 6    1  0.2852411E-002  0.9300810E+02  0.7546771E-02  0.1402397E+00
          1   -1    0    0  501    0  0.00000000000E+00  0.00000000000E+00  0.41697771362E+02  0.41697771362E+02  0.00000000000E+00 0. -1.
         -1   -1    0    0    0  501 -0.00000000000E+00 -0.00000000000E+00 -0.70849097334E+02  0.70849097334E+02  0.00000000000E+00 0.  1.
         23    2    1    2    0    0 -0.71622085444E+01  0.13162464104E+02 -0.20488186224E+02  0.95237978412E+02  0.91793022964E+02 0.  0.
         11    1    3    3    0    0 -0.18648659661E+02  0.36717661406E+02 -0.43831229382E+02  0.60142629103E+02  0.00000000000E+00 0.  1.
        -11    1    3    3    0    0  0.11486451117E+02 -0.23555197302E+02  0.23343043159E+02  0.35095349309E+02  0.00000000000E+00 0. -1.
         22    1    1    2    0    0  0.71622085444E+01 -0.13162464104E+02 -0.86631397487E+01  0.17308890283E+02  0.00000000000E+00 0.  1.
<mgrwt>
<rscale>  0 0.58925619E+02</rscale>
<asrwt>0</asrwt>
<pdfrwt beam="1">  1        1 0.64150418E-02 0.93008100E+02</pdfrwt>
<pdfrwt beam="2">  1       -1 0.10899861E-01 0.93008100E+02</pdfrwt>
<totfact> 0.53932887E+04</totfact>
</mgrwt>
</event>
<event>
 6    1  0.2852411E-002  0.9248883E+02  0.7546771E-02  0.1383914E+00
          2   -1    0    0  501    0  0.00000000000E+00  0.00000000000E+00  0.20101167565E+03  0.20101167565E+03  0.00000000000E+00 0. -1.
         -2   -1    0    0    0  501 -0.00000000000E+00 -0.00000000000E+00 -0.26555434929E+02  0.26555434929E+02  0.00000000000E+00 0.  1.
         23    2    1    2    0    0  0.18992851239E+02  0.76642074000E+01  0.18325825737E+03  0.20527487045E+03  0.90192655300E+02 0.  0.
         11    1    3    3    0    0  0.31136907030E+02  0.42989701482E+02  0.12805557455E+03  0.13862125229E+03  0.00000000000E+00 0. -1.
        -11    1    3    3    0    0 -0.12144055791E+02 -0.35325494082E+02  0.55202682816E+02  0.66653618155E+02  0.00000000000E+00 0.  1.
         22    1    1    2    0    0 -0.18992851239E+02 -0.76642074000E+01 -0.88020166443E+01  0.22292240136E+02  0.00000000000E+00 0.  1.
<mgrwt>
<rscale>  0 0.63446019E+02</rscale>
<asrwt>0</asrwt>
<pdfrwt beam="1">  1        2 0.30924872E-01 0.92488829E+02</pdfrwt>
<pdfrwt beam="2">  1       -2 0.40854517E-02 0.92488829E+02</pdfrwt>
<totfact> 0.39623621E+04</totfact>
</mgrwt>
</event>
<event>
 6    1  0.2852411E-002  0.9378870E+02  0.7546771E-02  0.1376083E+00
         -1   -1    0    0    0  501 -0.00000000000E+00  0.00000000000E+00  0.10643758255E+03  0.10643758255E+03  0.00000000000E+00 0. -1.
          1   -1    0    0  501    0  0.00000000000E+00 -0.00000000000E+00 -0.34640014321E+02  0.34640014321E+02  0.00000000000E+00 0.  1.
         23    2    1    2    0    0 -0.11419037704E+02 -0.19174257798E+02  0.39379455488E+02  0.10172050580E+03  0.91094858257E+02 0.  0.
         11    1    3    3    0    0  0.23733359237E+02  0.19302315874E+02 -0.76365723291E+01  0.31530445219E+02  0.00000000000E+00 0.  1.
        -11    1    3    3    0    0 -0.35152396941E+02 -0.38476573672E+02  0.47016027818E+02  0.70190060578E+02  0.00000000000E+00 0. -1.
         22    1    1    2    0    0  0.11419037704E+02  0.19174257798E+02  0.32418112739E+02  0.39357091073E+02  0.00000000000E+00 0.  1.
<mgrwt>
<rscale>  0 0.65504574E+02</rscale>
<asrwt>0</asrwt>
<pdfrwt beam="1">  1        1 0.53292330E-02 0.93788698E+02</pdfrwt>
<pdfrwt beam="2">  1       -1 0.16375013E-01 0.93788698E+02</pdfrwt>
<totfact> 0.37028587E+04</totfact>
</mgrwt>
</event>
<event>
 6    1  0.2852411E-002  0.9920328E+02  0.7546771E-02  0.1335966E+00
          2   -1    0    0  501    0  0.00000000000E+00  0.00000000000E+00  0.41616932871E+03  0.41616932871E+03  0.00000000000E+00 0. -1.
         -2   -1    0    0    0  501 -0.00000000000E+00 -0.00000000000E+00 -0.20106630059E+02  0.20106630059E+02  0.00000000000E+00 0.  1.
         23    2    1    2    0    0 -0.56803169986E+00 -0.37162334108E+02  0.38488601259E+03  0.39746513492E+03  0.91977872626E+02 0.  0.
         11    1    3    3    0    0 -0.33069358349E+02 -0.41693629813E+02  0.32359983460E+03  0.32794632820E+03  0.00000000000E+00 0. -1.
        -11    1    3    3    0    0  0.32501326649E+02  0.45312957052E+01  0.61286177992E+02  0.69518806719E+02  0.00000000000E+00 0.  1.
         22    1    1    2    0    0  0.56803169986E+00  0.37162334108E+02  0.11176686056E+02  0.38810823845E+02  0.00000000000E+00 0.  1.
<mgrwt>
<rscale>  0 0.77612729E+02</rscale>
<asrwt>0</asrwt>
<pdfrwt beam="1">  1        2 0.64026044E-01 0.99203280E+02</pdfrwt>
<pdfrwt beam="2">  1       -2 0.30933280E-02 0.99203280E+02</pdfrwt>
<totfact> 0.27910672E+04</totfact>
</mgrwt>
</event>
<event>
 6    1  0.2852411E-002  0.9271351E+02  0.7546771E-02  0.1422276E+00
          4   -1    0    0  501    0  0.00000000000E+00  0.00000000000E+00  0.59842189574E+02  0.59842189574E+02  0.00000000000E+00 0. -1.
         -4   -1    0    0    0  501 -0.00000000000E+00 -0.00000000000E+00 -0.47701290313E+02  0.47701290313E+02  0.00000000000E+00 0.  1.
         23    2    1    2    0    0 -0.25047550013E+01  0.10818508159E+02  0.18792738611E+02  0.94598948875E+02  0.92046076436E+02 0.  0.
         13    1    3    3    0    0 -0.43535888594E+02  0.88357879537E+01 -0.85679311969E+01  0.45242172687E+02  0.00000000000E+00 0. -1.
        -13    1    3    3    0    0  0.41031133593E+02  0.19827202051E+01  0.27360669808E+02  0.49356776188E+02  0.00000000000E+00 0.  1.
         22    1    1    2    0    0  0.25047550013E+01 -0.10818508159E+02 -0.66518393492E+01  0.12944531012E+02  0.00000000000E+00 0.  1.
<mgrwt>
<rscale>  0 0.54542340E+02</rscale>
<asrwt>0</asrwt>
<pdfrwt beam="1">  1        4 0.92064907E-02 0.92713506E+02</pdfrwt>
<pdfrwt beam="2">  1       -4 0.73386601E-02 0.92713506E+02</pdfrwt>
<totfact> 0.16130651E+04</totfact>
</mgrwt>
</event>
<event>
 6    1  0.2852411E-002  0.8824640E+02  0.7546771E-02  0.1419491E+00
         -1   -1    0    0    0  501 -0.00000000000E+00  0.00000000000E+00  0.54581327775E+02  0.54581327775E+02  0.00000000000E+00 0.  1.
          1   -1    0    0  501    0  0.00000000000E+00 -0.00000000000E+00 -0.74494719371E+02  0.74494719371E+02  0.00000000000E+00 0. -1.
         23    2    1    2    0    0  0.47798753929E+00  0.13432245810E+02 -0.46158590217E+02  0.99589369641E+02  0.87216818305E+02 0.  0.
         11    1    3    3    0    0 -0.15849950726E+02  0.42450474824E+02 -0.48294961473E+02  0.66224369038E+02  0.00000000000E+00 0. -1.
        -11    1    3    3    0    0  0.16327938265E+02 -0.29018229014E+02  0.21363712566E+01  0.33365000603E+02  0.00000000000E+00 0.  1.
         22    1    1    2    0    0 -0.47798753929E+00 -0.13432245810E+02  0.26245198620E+02  0.29486677504E+02  0.00000000000E+00 0.  1.
<mgrwt>
<rscale>  0 0.55128808E+02</rscale>
<asrwt>0</asrwt>
<pdfrwt beam="1">  1        1 0.11460726E-01 0.88246400E+02</pdfrwt>
<pdfrwt beam="2">  1       -1 0.83971273E-02 0.88246400E+02</pdfrwt>
<totfact> 0.36874238E+04</totfact>
</mgrwt>
</event>
<event>
 6    1  0.2852411E-002  0.9102172E+02  0.7546771E-02  0.1385412E+00
          1   -1    0    0  501    0  0.00000000000E+00  0.00000000000E+00  0.21927993898E+03  0.21927993898E+03  0.00000000000E+00 0. -1.
         -1   -1    0    0    0  501 -0.00000000000E+00 -0.00000000000E+00 -0.17281513329E+02  0.17281513329E+02  0.00000000000E+00 0.  1.
         23    2    1    2    0    0 -0.10179557066E+01  0.20947540007E+02  0.19367557309E+03  0.21399808508E+03  0.88572665874E+02 0.  0.
         11    1    3    3    0    0 -0.17563547616E+02  0.52077777505E+02  0.13150381521E+03  0.14252658183E+03  0.00000000000E+00 0.  1.
        -11    1    3    3    0    0  0.16545591909E+02 -0.31130237498E+02  0.62171757882E+02  0.71471503247E+02  0.00000000000E+00 0. -1.
         22    1    1    2    0    0  0.10179557066E+01 -0.20947540007E+02  0.83228525670E+01  0.22563367235E+02  0.00000000000E+00 0.  1.
<mgrwt>
<rscale>  0 0.63062338E+02</rscale>
<asrwt>0</asrwt>
<pdfrwt beam="1">  1        1 0.33735373E-01 0.91021716E+02</pdfrwt>
<pdfrwt beam="2">  1       -1 0.26586945E-02 0.91021716E+02</pdfrwt>
<totfact> 0.51149724E+04</totfact>
</mgrwt>
</event>
<event>
 6    1  0.2852411E-002  0.7717473E+02  0.7546771E-02  0.1451019E+00
          2   -1    0    0  501    0  0.00000000000E+00  0.00000000000E+00  0.61332996880E+02  0.61332996880E+02  0.00000000000E+00 0. -1.
         -2   -1    0    0    0  501 -0.00000000000E+00 -0.00000000000E+00 -0.33268717826E+02  0.33268717826E+02  0.00000000000E+00 0.  1.
         23    2    1    2    0    0 -0.32051640440E+01 -0.12085596906E+02  0.28003067024E+02  0.82098176166E+02  0.76155131395E+02 0.  0.
         13    1    3    3    0    0 -0.39107337008E+02 -0.12095437178E+02  0.18736957383E+02  0.45019517772E+02  0.00000000000E+00 0.  1.
        -13    1    3    3    0    0  0.35902172965E+02  0.98402719769E-02  0.92661096408E+01  0.37078658394E+02  0.00000000000E+00 0. -1.
         22    1    1    2    0    0  0.32051640440E+01  0.12085596906E+02  0.61212029850E-01  0.12503538541E+02  0.00000000000E+00 0. -1.
<mgrwt>
<rscale>  0 0.48962464E+02</rscale>
<asrwt>0</asrwt>
<pdfrwt beam="1">  1        2 0.94358457E-02 0.77174729E+02</pdfrwt>
<pdfrwt beam="2">  1       -2 0.51182643E-02 0.77174729E+02</pdfrwt>
<totfact> 0.10667336E+05</totfact>
</mgrwt>
</event>
<event>
 6    1  0.2852411E-002  0.9227891E+02  0.7546771E-02  0.1379340E+00
          2   -1    0    0  501    0  0.00000000000E+00  0.00000000000E+00  0.26867338052E+03  0.26867338052E+03  0.00000000000E+00 0.  1.
         -2   -1    0    0    0  501 -0.00000000000E+00 -0.00000000000E+00 -0.19917562685E+02  0.19917562685E+02  0.00000000000E+00 0. -1.
         23    2    1    2    0    0  0.22209836085E+02 -0.44304230529E+00  0.24985337262E+03  0.26634959136E+03  0.89565193592E+02 0.  0.
         11    1    3    3    0    0 -0.36690457846E+01 -0.10389232160E+02  0.23430296313E+03  0.23456188218E+03  0.00000000000E+00 0.  1.
        -11    1    3    3    0    0  0.25878881869E+02  0.99461898551E+01  0.15550409489E+02  0.31787709177E+02  0.00000000000E+00 0. -1.
         22    1    1    2    0    0 -0.22209836085E+02  0.44304230529E+00 -0.10975547830E+01  0.22241351845E+02  0.00000000000E+00 0. -1.
<mgrwt>
<rscale>  0 0.64637533E+02</rscale>
<asrwt>0</asrwt>
<pdfrwt beam="1">  1        2 0.41334364E-01 0.92278909E+02</pdfrwt>
<pdfrwt beam="2">  1       -2 0.30642406E-02 0.92278909E+02</pdfrwt>
<totfact> 0.44415279E+04</totfact>
</mgrwt>
</event>
<event>
 6    1  0.2852411E-002  0.9435253E+02  0.7546771E-02  0.1336381E+00
         -1   -1    0    0    0  501 -0.00000000000E+00  0.00000000000E+00  0.25020832688E+02  0.25020832688E+02  0.00000000000E+00 0.  1.
          1   -1    0    0  501    0  0.00000000000E+00 -0.00000000000E+00 -0.20173567476E+03  0.20173567476E+03  0.00000000000E+00 0. -1.
         23    2    1    2    0    0  0.42747535579E+02  0.34607813371E+01 -0.91883734919E+02  0.13170049477E+03  0.84042077403E+02 0.  0.
         13    1    3    3    0    0  0.39516575528E+02 -0.36174054802E+02 -0.43074211602E+02  0.68742342755E+02  0.00000000000E+00 0.  1.
        -13    1    3    3    0    0  0.32309600502E+01  0.39634836139E+02 -0.48809523317E+02  0.62958152014E+02  0.00000000000E+00 0. -1.
         22    1    1    2    0    0 -0.42747535579E+02 -0.34607813371E+01 -0.84831107150E+02  0.95056012676E+02  0.00000000000E+00 0. -1.
<mgrwt>
<rscale>  0 0.77472501E+02</rscale>
<asrwt>0</asrwt>
<pdfrwt beam="1">  1        1 0.31036257E-01 0.94352528E+02</pdfrwt>
<pdfrwt beam="2">  1       -1 0.38493590E-02 0.94352528E+02</pdfrwt>
<totfact> 0.33356387E+04</totfact>
</mgrwt>
</event>
<event>
 6    1  0.2852411E-002  0.9359436E+02  0.7546771E-02  0.1374495E+00
         -2   -1    0    0    0  501 -0.00000000000E+00  0.00000000000E+00  0.59516828565E+02  0.59516828565E+02  0.00000000000E+00 0.  1.
          2   -1    0    0  501    0  0.00000000000E+00 -0.00000000000E+00 -0.75367174840E+02  0.75367174840E+02  0.00000000000E+00 0. -1.
         23    2    1    2    0    0  0.83464836128E+01  0.21485722325E+02 -0.39745103229E+02  0.10168371030E+03  0.90711651163E+02 0.  0.
         11    1    3    3    0    0  0.15188798870E+02  0.20330064107E+02 -0.68004249733E+02  0.72585047354E+02  0.00000000000E+00 0. -1.
        -11    1    3    3    0    0 -0.68423152574E+01  0.11556582173E+01  0.28259146503E+02  0.29098662943E+02  0.00000000000E+00 0.  1.
         22    1    1    2    0    0 -0.83464836128E+01 -0.21485722325E+02  0.23894756955E+02  0.33200293108E+02  0.00000000000E+00 0.  1.
<mgrwt>
<rscale>  0 0.65933288E+02</rscale>
<asrwt>0</asrwt>
<pdfrwt beam="1">  1        2 0.11594950E-01 0.93594357E+02</pdfrwt>
<pdfrwt beam="2">  1       -2 0.91564351E-02 0.93594357E+02</pdfrwt>
<totfact> 0.35580193E+04</totfact>
</mgrwt>
</event>
<event>
 6    1  0.2852411E-002  0.1027381E+03  0.7546771E-02  0.1381394E+00
         -2   -1    0    0    0  501 -0.00000000000E+00  0.00000000000E+00  0.91230212064E+01  0.91230212064E+01  0.00000000000E+00 0. -1.
          2   -1    0    0  501    0  0.00000000000E+00 -0.00000000000E+00 -0.65143620249E+03  0.65143620249E+03  0.00000000000E+00 0.  1.
         23    2    1    2    0    0 -0.17949606632E+01 -0.15463250837E+02 -0.63518096498E+03  0.64343606629E+03  0.10155185432E+03 0.  0.
         13    1    3    3    0    0  0.30517330392E+02  0.10985578878E+00 -0.61702048631E+02  0.68836489799E+02  0.00000000000E+00 0. -1.
        -13    1    3    3    0    0 -0.32312291055E+02 -0.15573106626E+02 -0.57347891635E+03  0.57459957649E+03  0.00000000000E+00 0.  1.
         22    1    1    2    0    0  0.17949606632E+01  0.15463250837E+02 -0.71322163013E+01  0.17123157407E+02  0.00000000000E+00 0.  1.
<mgrwt>
<rscale>  0 0.64098871E+02</rscale>
<asrwt>0</asrwt>
<pdfrwt beam="1">  1        2 0.10022098E+00 0.10273808E+03</pdfrwt>
<pdfrwt beam="2">  1       -2 0.14035413E-02 0.10273808E+03</pdfrwt>
<totfact> 0.53617620E+04</totfact>
</mgrwt>
</event>
<event>
 6    1  0.2852411E-002  0.9468638E+02  0.7546771E-02  0.1370111E+00
          2   -1    0    0  501    0  0.00000000000E+00  0.00000000000E+00  0.16640754242E+02  0.16640754242E+02  0.00000000000E+00 0. -1.
         -2   -1    0    0    0  501 -0.00000000000E+00 -0.00000000000E+00 -0.24216333040E+03  0.24216333040E+03  0.00000000000E+00 0.  1.
         23    2    1    2    0    0 -0.11309523750E+01 -0.23904777313E+02 -0.13316633102E+03  0.16339762025E+03  0.91612188897E+02 0.  0.
         13    1    3    3    0    0  0.22327527022E+02  0.25735701103E+02 -0.80076435730E+02  0.87023447033E+02  0.00000000000E+00 0.  1.
        -13    1    3    3    0    0 -0.23458479397E+02 -0.49640478415E+02 -0.53089895293E+02  0.76374173221E+02  0.00000000000E+00 0. -1.
         22    1    1    2    0    0  0.11309523750E+01  0.23904777313E+02 -0.92356245133E+02  0.95406464386E+02  0.00000000000E+00 0. -1.
<mgrwt>
<rscale>  0 0.67136421E+02</rscale>
<asrwt>0</asrwt>
<pdfrwt beam="1">  1        2 0.25601161E-02 0.94686380E+02</pdfrwt>
<pdfrwt beam="2">  1       -2 0.37255896E-01 0.94686380E+02</pdfrwt>
<totfact> 0.23439529E+04</totfact>
</mgrwt>
</event>
<event>
 6    1  0.2852411E-002  0.9674020E+02  0.7546771E-02  0.1349936E+00
          2   -1    0    0  501    0  0.00000000000E+00  0.00000000000E+00  0.25766316610E+03  0.25766316610E+03  0.00000000000E+00 0.  1.
         -2   -1    0    0    0  501 -0.00000000000E+00 -0.00000000000E+00 -0.28561807100E+02  0.28561807100E+02  0.00000000000E+00 0. -1.
         23    2    1    2    0    0 -0.29006534452E+02 -0.12275664321E+02  0.23504243007E+03  0.25417240231E+03  0.91469094171E+02 0.  0.
         13    1    3    3    0    0 -0.54372267092E+02  0.16810710942E+02  0.15936835322E+03  0.16922533923E+03  0.00000000000E+00 0. -1.
        -13    1    3    3    0    0  0.25365732640E+02 -0.29086375263E+02  0.75674076849E+02  0.84947063077E+02  0.00000000000E+00 0.  1.
         22    1    1    2    0    0  0.29006534452E+02  0.12275664321E+02 -0.59410710653E+01  0.32052570893E+02  0.00000000000E+00 0. -1.
<mgrwt>
<rscale>  0 0.73075716E+02</rscale>
<asrwt>0</asrwt>
<pdfrwt beam="1">  1        2 0.39640486E-01 0.96740199E+02</pdfrwt>
<pdfrwt beam="2">  1       -2 0.43941243E-02 0.96740199E+02</pdfrwt>
<totfact> 0.27504181E+04</totfact>
</mgrwt>
</event>
<event>
 6    1  0.2852411E-002  0.9642358E+02  0.7546771E-02  0.1351396E+00
         -3   -1    0    0    0  501 -0.00000000000E+00  0.00000000000E+00  0.12137603867E+03  0.12137603867E+03  0.00000000000E+00 0.  1.
          3   -1    0    0  501    0  0.00000000000E+00 -0.00000000000E+00 -0.38308341958E+02  0.38308341958E+02  0.00000000000E+00 0. -1.
         23    2    1    2    0    0  0.71789740514E+01  0.30184246985E+02  0.35213388257E+02  0.10265227325E+03  0.91295564273E+02 0.  0.
         11    1    3    3    0    0 -0.25638231007E+02  0.38259523116E+02  0.47996863881E+02  0.66519237373E+02  0.00000000000E+00 0.  1.
        -11    1    3    3    0    0  0.32817205059E+02 -0.80752761314E+01 -0.12783475625E+02  0.36133035874E+02  0.00000000000E+00 0. -1.
         22    1    1    2    0    0 -0.71789740514E+01 -0.30184246985E+02  0.47854308450E+02  0.57032107376E+02  0.00000000000E+00 0.  1.
<mgrwt>
<rscale>  0 0.72622243E+02</rscale>
<asrwt>0</asrwt>
<pdfrwt beam="1">  1        3 0.58935911E-02 0.96423578E+02</pdfrwt>
<pdfrwt beam="2">  1       -3 0.18673237E-01 0.96423578E+02</pdfrwt>
<totfact> 0.93101011E+03</totfact>
</mgrwt>
</event>
<event>
 6    1  0.2852411E-002  0.9672672E+02  0.7546771E-02  0.1404738E+00
          3   -1    0    0  501    0  0.00000000000E+00  0.00000000000E+00  0.33237383198E+02  0.33237383198E+02  0.00000000000E+00 0. -1.
         -3   -1    0    0    0  501 -0.00000000000E+00 -0.00000000000E+00 -0.94436246252E+02  0.94436246252E+02  0.00000000000E+00 0.  1.
         23    2    1    2    0    0  0.90484003609E+01  0.91097078416E+01 -0.44138721100E+02  0.10632160918E+03  0.95870733555E+02 0.  0.
         13    1    3    3    0    0  0.20508072652E+02 -0.84190899910E+01  0.25390636627E+02  0.33706773036E+02  0.00000000000E+00 0. -1.
        -13    1    3    3    0    0 -0.11459672292E+02  0.17528797833E+02 -0.69529357726E+02  0.72614836145E+02  0.00000000000E+00 0.  1.
         22    1    1    2    0    0 -0.90484003609E+01 -0.91097078416E+01 -0.17060141954E+02  0.21352020269E+02  0.00000000000E+00 0. -1.
<mgrwt>
<rscale>  0 0.58384741E+02</rscale>
<asrwt>0</asrwt>
<pdfrwt beam="1">  1        3 0.51134436E-02 0.96726718E+02</pdfrwt>
<pdfrwt beam="2">  1       -3 0.14528653E-01 0.96726718E+02</pdfrwt>
<totfact> 0.17912986E+04</totfact>
</mgrwt>
</event>
<event>
 6    1  0.2852411E-002  0.9203142E+02  0.7546771E-02  0.1395111E+00
          2   -1    0    0  501    0  0.00000000000E+00  0.00000000000E+00  0.54119217862E+03  0.54119217862E+03  0.00000000000E+00 0. -1.
         -2   -1    0    0    0  501 -0.00000000000E+00 -0.00000000000E+00 -0.11120807825E+02  0.11120807825E+02  0.00000000000E+00 0.  1.
         23    2    1    2    0    0  0.17314504173E+02 -0.12864989806E+01  0.52663248570E+03  0.53461346484E+03  0.90378839690E+02 0.  0.
         13    1    3    3    0    0 -0.32410790657E+02 -0.93410752149E+01  0.11305173706E+03  0.11797631241E+03  0.00000000000E+00 0.  1.
        -13    1    3    3    0    0  0.49725294830E+02  0.80545762343E+01  0.41358074864E+03  0.41663715243E+03  0.00000000000E+00 0. -1.
         22    1    1    2    0    0 -0.17314504173E+02  0.12864989806E+01  0.34388851027E+01  0.17699521608E+02  0.00000000000E+00 0. -1.
<mgrwt>
<rscale>  0 0.60653166E+02</rscale>
<asrwt>0</asrwt>
<pdfrwt beam="1">  1        2 0.83260315E-01 0.92031417E+02</pdfrwt>
<pdfrwt beam="2">  1       -2 0.17108939E-02 0.92031417E+02</pdfrwt>
<totfact> 0.49067263E+04</totfact>
</mgrwt>
</event>
<event>
 6    1  0.2852411E-002  0.9306985E+02  0.7546771E-02  0.1373822E+00
          1   -1    0    0  501    0  0.00000000000E+00  0.00000000000E+00  0.81872399729E+02  0.81872399729E+02  0.00000000000E+00 0. -1.
         -1   -1    0    0    0  501 -0.00000000000E+00 -0.00000000000E+00 -0.41955639207E+02  0.41955639207E+02  0.00000000000E+00 0.  1.
         23    2    1    2    0    0 -0.29306225401E+00  0.23701032173E+02  0.36070179731E+02  0.99815105018E+02  0.90000958397E+02 0.  0.
         11    1    3    3    0    0  0.11093706141E+02  0.50916115218E+02  0.45148612132E+02  0.68948664108E+02  0.00000000000E+00 0. -1.
        -11    1    3    3    0    0 -0.11386768395E+02 -0.27215083045E+02 -0.90784324009E+01  0.30866440911E+02  0.00000000000E+00 0.  1.
         22    1    1    2    0    0  0.29306225401E+00 -0.23701032173E+02  0.38465807909E+01  0.24012933917E+02  0.00000000000E+00 0.  1.
<mgrwt>
<rscale>  0 0.66116047E+02</rscale>
<asrwt>0</asrwt>
<pdfrwt beam="1">  1        1 0.12595754E-01 0.93069852E+02</pdfrwt>
<pdfrwt beam="2">  1       -1 0.64547137E-02 0.93069852E+02</pdfrwt>
<totfact> 0.48590763E+04</totfact>
</mgrwt>
</event>
<event>
 6    1  0.2852411E-002  0.9152380E+02  0.7546771E-02  0.1383527E+00
         -2   -1    0    0    0  501 -0.00000000000E+00  0.00000000000E+00  0.49101863113E+03  0.49101863113E+03  0.00000000000E+00 0.  1.
          2   -1    0    0  501    0  0.00000000000E+00 -0.00000000000E+00 -0.66796195131E+01  0.66796195131E+01  0.00000000000E+00 0. -1.
         23    2    1    2    0    0  0.12986651359E+02  0.16843727076E+02  0.42263679032E+03  0.43243318825E+03  0.89018208915E+02 0.  0.
         11    1    3    3    0    0  0.22356286927E+02  0.44752032417E+02  0.14806142340E+03  0.15628414209E+03  0.00000000000E+00 0. -1.
        -11    1    3    3    0    0 -0.93696355675E+01 -0.27908305341E+02  0.27457536692E+03  0.27614904616E+03  0.00000000000E+00 0.  1.
         22    1    1    2    0    0 -0.12986651359E+02 -0.16843727076E+02  0.61702221302E+02  0.65265062391E+02  0.00000000000E+00 0.  1.
<mgrwt>
<rscale>  0 0.63545758E+02</rscale>
<asrwt>0</asrwt>
<pdfrwt beam="1">  1        2 0.10276342E-02 0.91523799E+02</pdfrwt>
<pdfrwt beam="2">  1       -2 0.75541299E-01 0.91523799E+02</pdfrwt>
<totfact> 0.19695487E+04</totfact>
</mgrwt>
</event>
<event>
 6    1  0.2852411E-002  0.9786836E+02  0.7546771E-02  0.1347202E+00
         -2   -1    0    0    0  501 -0.00000000000E+00  0.00000000000E+00  0.86359375092E+01  0.86359375092E+01  0.00000000000E+00 0.  1.
          2   -1    0    0  501    0  0.00000000000E+00 -0.00000000000E+00 -0.63755630751E+03  0.63755630751E+03  0.00000000000E+00 0. -1.
         23    2    1    2    0    0 -0.29622557530E+02 -0.11773253514E+02 -0.57719597574E+03  0.58543437825E+03  0.92531677881E+02 0.  0.
         13    1    3    3    0    0  0.97405263228E+00 -0.15009118271E+01 -0.51806930855E+03  0.51807239839E+03  0.00000000000E+00 0. -1.
        -13    1    3    3    0    0 -0.30596610162E+02 -0.10272341687E+02 -0.59126667195E+02  0.67361979861E+02  0.00000000000E+00 0.  1.
         22    1    1    2    0    0  0.29622557530E+02  0.11773253514E+02 -0.51724394260E+02  0.60757866771E+02  0.00000000000E+00 0.  1.
<mgrwt>
<rscale>  0 0.73934833E+02</rscale>
<asrwt>0</asrwt>
<pdfrwt beam="1">  1        2 0.98085548E-01 0.97868365E+02</pdfrwt>
<pdfrwt beam="2">  1       -2 0.13286063E-02 0.97868365E+02</pdfrwt>
<totfact> 0.59087422E+04</totfact>
</mgrwt>
</event>
<event>
 6    1  0.2852411E-002  0.9387069E+02  0.7546771E-02  0.1356813E+00
          1   -1    0    0  501    0  0.00000000000E+00  0.00000000000E+00  0.13163770546E+03  0.13163770546E+03  0.00000000000E+00 0. -1.
         -1   -1    0    0    0  501 -0.00000000000E+00 -0.00000000000E+00 -0.38420173055E+02  0.38420173055E+02  0.00000000000E+00 0.  1.
         23    2    1    2    0    0  0.23459516687E+02  0.19764956988E+02  0.10153055708E+03  0.13827566922E+03  0.88716989532E+02 0.  0.
         13    1    3    3    0    0 -0.26469794399E+02  0.31419635689E+02  0.33043101555E+02  0.52722766266E+02  0.00000000000E+00 0.  1.
        -13    1    3    3    0    0  0.49929311085E+02 -0.11654678701E+02  0.68487455520E+02  0.85552902959E+02  0.00000000000E+00 0. -1.
         22    1    1    2    0    0 -0.23459516687E+02 -0.19764956988E+02 -0.83130246736E+01  0.31782209287E+02  0.00000000000E+00 0.  1.
<mgrwt>
<rscale>  0 0.70973522E+02</rscale>
<asrwt>0</asrwt>
<pdfrwt beam="1">  1        1 0.20251954E-01 0.93870691E+02</pdfrwt>
<pdfrwt beam="2">  1       -1 0.59107959E-02 0.93870691E+02</pdfrwt>
<totfact> 0.30239963E+04</totfact>
</mgrwt>
</event>
<event>
 6    1  0.2852411E-002  0.1169421E+03  0.7546771E-02  0.1273270E+00
          2   -1    0    0  501    0  0.00000000000E+00  0.00000000000E+00  0.51610803585E+03  0.51610803585E+03  0.00000000000E+00 0. -1.
         -2   -1    0    0    0  501 -0.00000000000E+00 -0.00000000000E+00 -0.22243956316E+02  0.22243956316E+02  0.00000000000E+00 0.  1.
         23    2    1    2    0    0  0.62747185413E+02  0.34331994431E+02  0.41815534425E+03  0.43419966277E+03  0.92517890772E+02 0.  0.
         11    1    3    3    0    0 -0.66348493453E+01 -0.52781765785E+01 -0.24084559788E-02  0.84782297462E+01  0.00000000000E+00 0.  1.
        -11    1    3    3    0    0  0.69382034758E+02  0.39610171010E+02  0.41815775270E+03  0.42572143303E+03  0.00000000000E+00 0. -1.
         22    1    1    2    0    0 -0.62747185413E+02 -0.34331994431E+02  0.75708735286E+02  0.10415232939E+03  0.00000000000E+00 0.  1.
<mgrwt>
<rscale>  0 0.10341734E+03</rscale>
<asrwt>0</asrwt>
<pdfrwt beam="1">  1        2 0.79401228E-01 0.11694210E+03</pdfrwt>
<pdfrwt beam="2">  1       -2 0.34221475E-02 0.11694210E+03</pdfrwt>
<totfact> 0.19403003E+04</totfact>
</mgrwt>
</event>
<event>
 6    1  0.2852411E-002  0.9236862E+02  0.7546771E-02  0.1420912E+00
          2   -1    0    0  501    0  0.00000000000E+00  0.00000000000E+00  0.75866213274E+03  0.75866213274E+03  0.00000000000E+00 0. -1.
         -2   -1    0    0    0  501 -0.00000000000E+00 -0.00000000000E+00 -0.35891866124E+01  0.35891866124E+01  0.00000000000E+00 0.  1.
         23    2    1    2    0    0  0.81924265948E+00 -0.11437687137E+02  0.69291984719E+03  0.69904926596E+03  0.91654076630E+02 0.  0.
         11    1    3    3    0    0  0.44911519727E+01  0.15133664571E+01  0.68115423458E+03  0.68117072163E+03  0.00000000000E+00 0. -1.
        -11    1    3    3    0    0 -0.36719093133E+01 -0.12951053594E+02  0.11765612615E+02  0.17878544331E+02  0.00000000000E+00 0.  1.
         22    1    1    2    0    0 -0.81924265948E+00  0.11437687137E+02  0.62153098936E+02  0.63202053391E+02  0.00000000000E+00 0. -1.
<mgrwt>
<rscale>  0 0.54828414E+02</rscale>
<asrwt>0</asrwt>
<pdfrwt beam="1">  1        2 0.11671712E+00 0.92368618E+02</pdfrwt>
<pdfrwt beam="2">  1       -2 0.55218316E-03 0.92368618E+02</pdfrwt>
<totfact> 0.16560723E+05</totfact>
</mgrwt>
</event>
<event>
 6    1  0.2852411E-002  0.9289946E+02  0.7546771E-02  0.1428609E+00
          2   -1    0    0  501    0  0.00000000000E+00  0.00000000000E+00  0.12969874550E+04  0.12969874550E+04  0.00000000000E+00 0. -1.
         -2   -1    0    0    0  501 -0.00000000000E+00 -0.00000000000E+00 -0.24849752772E+01  0.24849752772E+01  0.00000000000E+00 0.  1.
         23    2    1    2    0    0 -0.89879806740E+01 -0.44317927859E+01  0.12630552692E+04  0.12664671029E+04  0.92357377407E+02 0.  0.
         13    1    3    3    0    0 -0.42447627141E+01 -0.32771204336E+02  0.17860384084E+03  0.18163507868E+03  0.00000000000E+00 0.  1.
        -13    1    3    3    0    0 -0.47432179599E+01  0.28339411550E+02  0.10844514283E+04  0.10848320242E+04  0.00000000000E+00 0. -1.
         22    1    1    2    0    0  0.89879806740E+01  0.44317927859E+01  0.31447210573E+02  0.33005327399E+02  0.00000000000E+00 0.  1.
<mgrwt>
<rscale>  0 0.53240227E+02</rscale>
<asrwt>0</asrwt>
<pdfrwt beam="1">  1        2 0.19953599E+00 0.92899460E+02</pdfrwt>
<pdfrwt beam="2">  1       -2 0.38230493E-03 0.92899460E+02</pdfrwt>
<totfact> 0.13372204E+05</totfact>
</mgrwt>
</event>
<event>
 6    1  0.2852411E-002  0.9627667E+02  0.7546771E-02  0.1373901E+00
         -2   -1    0    0    0  501 -0.00000000000E+00  0.00000000000E+00  0.10288935665E+02  0.10288935665E+02  0.00000000000E+00 0. -1.
          2   -1    0    0  501    0  0.00000000000E+00 -0.00000000000E+00 -0.35284676809E+03  0.35284676809E+03  0.00000000000E+00 0.  1.
         23    2    1    2    0    0 -0.18522925122E+02  0.10686421210E+02 -0.30593750828E+03  0.32072878812E+03  0.93871711399E+02 0.  0.
         11    1    3    3    0    0 -0.13644187647E+02 -0.46673300477E+00 -0.30806789662E+03  0.30837024926E+03  0.00000000000E+00 0.  1.
        -11    1    3    3    0    0 -0.48787374755E+01  0.11153154215E+02  0.21303883431E+01  0.12358538861E+02  0.00000000000E+00 0. -1.
         22    1    1    2    0    0  0.18522925122E+02 -0.10686421210E+02 -0.36620324140E+02  0.42406915633E+02  0.00000000000E+00 0. -1.
<mgrwt>
<rscale>  0 0.66094564E+02</rscale>
<asrwt>0</asrwt>
<pdfrwt beam="1">  1        2 0.54284116E-01 0.96276667E+02</pdfrwt>
<pdfrwt beam="2">  1       -2 0.15829132E-02 0.96276667E+02</pdfrwt>
<totfact> 0.87048268E+04</totfact>
</mgrwt>
</event>
<event>
 6    1  0.2852411E-002  0.1061872E+03  0.7546771E-02  0.1307564E+00
         -2   -1    0    0    0  501 -0.00000000000E+00  0.00000000000E+00  0.78447727415E+01  0.78447727415E+01  0.00000000000E+00 0.  1.
          2   -1    0    0  501    0  0.00000000000E+00 -0.00000000000E+00 -0.19642563622E+04  0.19642563622E+04  0.00000000000E+00 0. -1.
         23    2    1    2    0    0 -0.41613247600E+02 -0.28208394091E+02 -0.18629722357E+04  0.18659960517E+04  0.93532549552E+02 0.  0.
         13    1    3    3    0    0 -0.51805018271E+01  0.25805470906E+02 -0.19702208145E+03  0.19877238366E+03  0.00000000000E+00 0.  1.
        -13    1    3    3    0    0 -0.36432745773E+02 -0.54013864997E+02 -0.16659501543E+04  0.16672236680E+04  0.00000000000E+00 0. -1.
         22    1    1    2    0    0  0.41613247600E+02  0.28208394091E+02 -0.93439353704E+02  0.10610508326E+03  0.00000000000E+00 0.  1.
<mgrwt>
<rscale>  0 0.88082117E+02</rscale>
<asrwt>0</asrwt>
<pdfrwt beam="1">  1        2 0.30219379E+00 0.10618716E+03</pdfrwt>
<pdfrwt beam="2">  1       -2 0.12068861E-02 0.10618716E+03</pdfrwt>
<totfact> 0.12193001E+04</totfact>
</mgrwt>
</event>
<event>
 6    1  0.2852411E-002  0.9281177E+02  0.7546771E-02  0.1401382E+00
          2   -1    0    0  501    0  0.00000000000E+00  0.00000000000E+00  0.40976321456E+03  0.40976321456E+03  0.00000000000E+00 0. -1.
         -2   -1    0    0    0  501 -0.00000000000E+00 -0.00000000000E+00 -0.72080839546E+01  0.72080839546E+01  0.00000000000E+00 0.  1.
         23    2    1    2    0    0  0.14366881586E+02  0.53302621835E+01  0.35883454358E+03  0.37064302733E+03  0.91537997891E+02 0.  0.
         11    1    3    3    0    0  0.15749328132E+02  0.31054180299E+02  0.51119168798E+02  0.61851215584E+02  0.00000000000E+00 0.  1.
        -11    1    3    3    0    0 -0.13824465458E+01 -0.25723918115E+02  0.30771537478E+03  0.30879181174E+03  0.00000000000E+00 0. -1.
         22    1    1    2    0    0 -0.14366881586E+02 -0.53302621835E+01  0.43720587025E+02  0.46328271188E+02  0.00000000000E+00 0. -1.
<mgrwt>
<rscale>  0 0.59162147E+02</rscale>
<asrwt>0</asrwt>
<pdfrwt beam="1">  1        2 0.63040476E-01 0.92811767E+02</pdfrwt>
<pdfrwt beam="2">  1       -2 0.11089363E-02 0.92811767E+02</pdfrwt>
<totfact> 0.12282282E+05</totfact>
</mgrwt>
</event>
<event>
 6    1  0.2852411E-002  0.9152355E+02  0.7546771E-02  0.1403348E+00
          2   -1    0    0  501    0  0.00000000000E+00  0.00000000000E+00  0.69089877992E+02  0.69089877992E+02  0.00000000000E+00 0. -1.
         -2   -1    0    0    0  501 -0.00000000000E+00 -0.00000000000E+00 -0.42655905458E+02  0.42655905458E+02  0.00000000000E+00 0.  1.
         23    2    1    2    0    0 -0.11536650094E+02  0.10339183006E+02  0.29074487792E+02  0.96030653115E+02  0.90202923993E+02 0.  0.
         11    1    3    3    0    0  0.25655535051E+02  0.17353308078E+02  0.45279457319E+02  0.54859575601E+02  0.00000000000E+00 0. -1.
        -11    1    3    3    0    0 -0.37192185144E+02 -0.70141250725E+01 -0.16204969527E+02  0.41171077515E+02  0.00000000000E+00 0.  1.
         22    1    1    2    0    0  0.11536650094E+02 -0.10339183006E+02 -0.26405152576E+01  0.15715130335E+02  0.00000000000E+00 0.  1.
<mgrwt>
<rscale>  0 0.58704916E+02</rscale>
<asrwt>0</asrwt>
<pdfrwt beam="1">  1        2 0.10629212E-01 0.91523552E+02</pdfrwt>
<pdfrwt beam="2">  1       -2 0.65624470E-02 0.91523552E+02</pdfrwt>
<totfact> 0.65453739E+04</totfact>
</mgrwt>
</event>
<event>
 6    1  0.2852411E-002  0.9128796E+02  0.7546771E-02  0.1429034E+00
         -2   -1    0    0    0  501 -0.00000000000E+00  0.00000000000E+00  0.26926726242E+02  0.26926726242E+02  0.00000000000E+00 0.  1.
          2   -1    0    0  501    0  0.00000000000E+00 -0.00000000000E+00 -0.10303835046E+03  0.10303835046E+03  0.00000000000E+00 0. -1.
         23    2    1    2    0    0  0.87126308097E+01 -0.58481315209E+01 -0.77011659520E+02  0.11943318981E+03  0.90682856975E+02 0.  0.
         13    1    3    3    0    0 -0.26265071922E+02  0.24454224327E+02 -0.60413519041E+02  0.70268459308E+02  0.00000000000E+00 0. -1.
        -13    1    3    3    0    0  0.34977702732E+02 -0.30302355848E+02 -0.16598140478E+02  0.49164730505E+02  0.00000000000E+00 0.  1.
         22    1    1    2    0    0 -0.87126308097E+01  0.58481315209E+01  0.90003530119E+00  0.10531886890E+02  0.00000000000E+00 0. -1.
<mgrwt>
<rscale>  0 0.53154342E+02</rscale>
<asrwt>0</asrwt>
<pdfrwt beam="1">  1        2 0.15852055E-01 0.91287957E+02</pdfrwt>
<pdfrwt beam="2">  1       -2 0.41425731E-02 0.91287957E+02</pdfrwt>
<totfact> 0.81120111E+04</totfact>
</mgrwt>
</event>
<event>
 6    1  0.2852411E-002  0.9494580E+02  0.7546771E-02  0.1372218E+00
          3   -1    0    0  501    0  0.00000000000E+00  0.00000000000E+00  0.25034915503E+02  0.25034915503E+02  0.00000000000E+00 0. -1.
         -3   -1    0    0    0  501 -0.00000000000E+00 -0.00000000000E+00 -0.15299033135E+03  0.15299033135E+03  0.00000000000E+00 0.  1.
         23    2    1    2    0    0 -0.10168202785E+02 -0.20544918332E+02 -0.77333139790E+02  0.12245456348E+03  0.92136961044E+02 0.  0.
         13    1    3    3    0    0  0.76593799260E+01  0.34012482477E+02 -0.15704429759E+02  0.38237993922E+02  0.00000000000E+00 0. -1.
        -13    1    3    3    0    0 -0.17827582711E+02 -0.54557400808E+02 -0.61628710031E+02  0.84216569559E+02  0.00000000000E+00 0.  1.
         22    1    1    2    0    0  0.10168202785E+02  0.20544918332E+02 -0.50622276053E+02  0.55570683368E+02  0.00000000000E+00 0. -1.
<mgrwt>
<rscale>  0 0.66554431E+02</rscale>
<asrwt>0</asrwt>
<pdfrwt beam="1">  1        3 0.38515256E-02 0.94945804E+02</pdfrwt>
<pdfrwt beam="2">  1       -3 0.23536973E-01 0.94945804E+02</pdfrwt>
<totfact> 0.12025382E+04</totfact>
</mgrwt>
</event>
<event>
 6    1  0.2852411E-002  0.9088672E+02  0.7546771E-02  0.1394128E+00
          2   -1    0    0  501    0  0.00000000000E+00  0.00000000000E+00  0.32028126555E+03  0.32028126555E+03  0.00000000000E+00 0.  1.
         -2   -1    0    0    0  501 -0.00000000000E+00 -0.00000000000E+00 -0.10942046171E+02  0.10942046171E+02  0.00000000000E+00 0. -1.
         23    2    1    2    0    0 -0.74121783192E+01  0.16744271365E+02  0.29268271673E+03  0.30646952228E+03  0.89022943132E+02 0.  0.
         13    1    3    3    0    0 -0.92932616934E+01 -0.23313788481E+02  0.23718287657E+02  0.34531936170E+02  0.00000000000E+00 0. -1.
        -13    1    3    3    0    0  0.18810833742E+01  0.40058059847E+02  0.26896442908E+03  0.27193758612E+03  0.00000000000E+00 0.  1.
         22    1    1    2    0    0  0.74121783192E+01 -0.16744271365E+02  0.16656502643E+02  0.24753789433E+02  0.00000000000E+00 0. -1.
<mgrwt>
<rscale>  0 0.60891446E+02</rscale>
<asrwt>0</asrwt>
<pdfrwt beam="1">  1        2 0.49274034E-01 0.90886717E+02</pdfrwt>
<pdfrwt beam="2">  1       -2 0.16833920E-02 0.90886717E+02</pdfrwt>
<totfact> 0.87498373E+04</totfact>
</mgrwt>
</event>
<event>
 6    1  0.2852411E-002  0.9093914E+02  0.7546771E-02  0.1432388E+00
          2   -1    0    0  501    0  0.00000000000E+00  0.00000000000E+00  0.21809923611E+03  0.21809923611E+03  0.00000000000E+00 0. -1.
         -2   -1    0    0    0  501 -0.00000000000E+00 -0.00000000000E+00 -0.15475323888E+02  0.15475323888E+02  0.00000000000E+00 0.  1.
         23    2    1    2    0    0  0.36226014517E+01  0.94161285169E+01  0.20403867857E+03  0.22338690662E+03  0.90377768164E+02 0.  0.
         11    1    3    3    0    0 -0.10161157847E+02 -0.20603339484E+02  0.76104388729E+01  0.24200526988E+02  0.00000000000E+00 0.  1.
        -11    1    3    3    0    0  0.13783759299E+02  0.30019468001E+02  0.19642823970E+03  0.19918637963E+03  0.00000000000E+00 0. -1.
         22    1    1    2    0    0 -0.36226014517E+01 -0.94161285169E+01 -0.14147663506E+01  0.10187653378E+02  0.00000000000E+00 0.  1.
<mgrwt>
<rscale>  0 0.52483710E+02</rscale>
<asrwt>0</asrwt>
<pdfrwt beam="1">  1        2 0.33553726E-01 0.90939143E+02</pdfrwt>
<pdfrwt beam="2">  1       -2 0.23808192E-02 0.90939143E+02</pdfrwt>
<totfact> 0.79604185E+04</totfact>
</mgrwt>
</event>
<event>
 6    1  0.2852411E-002  0.1006856E+03  0.7546771E-02  0.1352072E+00
          2   -1    0    0  501    0  0.00000000000E+00  0.00000000000E+00  0.76939816600E+03  0.76939816600E+03  0.00000000000E+00 0. -1.
         -2   -1    0    0    0  501 -0.00000000000E+00 -0.00000000000E+00 -0.69595960716E+01  0.69595960716E+01  0.00000000000E+00 0.  1.
         23    2    1    2    0    0 -0.73575317384E+01 -0.25914967453E+02  0.71283856528E+03  0.71991416835E+03  0.97014796945E+02 0.  0.
         11    1    3    3    0    0 -0.94510844387E+01 -0.33625027400E+02  0.71081501455E+03  0.71167264271E+03  0.00000000000E+00 0. -1.
        -11    1    3    3    0    0  0.20935527003E+01  0.77100599466E+01  0.20235507234E+01  0.82415256366E+01  0.00000000000E+00 0.  1.
         22    1    1    2    0    0  0.73575317384E+01  0.25914967453E+02  0.49600004653E+02  0.56443593729E+02  0.00000000000E+00 0.  1.
<mgrwt>
<rscale>  0 0.72413837E+02</rscale>
<asrwt>0</asrwt>
<pdfrwt beam="1">  1        2 0.11836888E+00 0.10068560E+03</pdfrwt>
<pdfrwt beam="2">  1       -2 0.10707077E-02 0.10068560E+03</pdfrwt>
<totfact> 0.64667092E+04</totfact>
</mgrwt>
</event>
<event>
 6    1  0.2852411E-002  0.9517191E+02  0.7546771E-02  0.1384968E+00
         -2   -1    0    0    0  501 -0.00000000000E+00  0.00000000000E+00  0.78713758497E+02  0.78713758497E+02  0.00000000000E+00 0.  1.
          2   -1    0    0  501    0  0.00000000000E+00 -0.00000000000E+00 -0.27820642449E+03  0.27820642449E+03  0.00000000000E+00 0. -1.
         23    2    1    2    0    0 -0.18267892674E+02 -0.27839040919E+01 -0.26882129435E+03  0.28517114303E+03  0.93360733151E+02 0.  0.
         13    1    3    3    0    0  0.31901802418E+02  0.22040351628E+02 -0.97042099170E+02  0.10450201485E+03  0.00000000000E+00 0.  1.
        -13    1    3    3    0    0 -0.50169695093E+02 -0.24824255720E+02 -0.17177919518E+03  0.18066912817E+03  0.00000000000E+00 0. -1.
         22    1    1    2    0    0  0.18267892674E+02  0.27839040919E+01  0.69328628359E+02  0.71749039958E+02  0.00000000000E+00 0.  1.
<mgrwt>
<rscale>  0 0.63175695E+02</rscale>
<asrwt>0</asrwt>
<pdfrwt beam="1">  1        2 0.42800988E-01 0.95171910E+02</pdfrwt>
<pdfrwt beam="2">  1       -2 0.12109809E-01 0.95171910E+02</pdfrwt>
<totfact> 0.54035039E+03</totfact>
</mgrwt>
</event>
<event>
 6    1  0.2852411E-002  0.9230166E+02  0.7546771E-02  0.1351640E+00
         -1   -1    0    0    0  501 -0.00000000000E+00  0.00000000000E+00  0.11006045993E+02  0.11006045993E+02  0.00000000000E+00 0.  1.
          1   -1    0    0  501    0  0.00000000000E+00 -0.00000000000E+00 -0.37063571093E+03  0.37063571093E+03  0.00000000000E+00 0. -1.
         23    2    1    2    0    0  0.30771565145E+02  0.17142995022E+02 -0.26984840771E+03  0.28519775426E+03  0.85316026589E+02 0.  0.
         13    1    3    3    0    0  0.48050141997E+02  0.22013180190E+02 -0.89369581446E+02  0.10382831182E+03  0.00000000000E+00 0.  1.
        -13    1    3    3    0    0 -0.17278576852E+02 -0.48701851684E+01 -0.18047882626E+03  0.18136944244E+03  0.00000000000E+00 0. -1.
         22    1    1    2    0    0 -0.30771565145E+02 -0.17142995022E+02 -0.89781257230E+02  0.96444002662E+02  0.00000000000E+00 0.  1.
<mgrwt>
<rscale>  0 0.72546857E+02</rscale>
<asrwt>0</asrwt>
<pdfrwt beam="1">  1        1 0.57020877E-01 0.92301657E+02</pdfrwt>
<pdfrwt beam="2">  1       -1 0.16932379E-02 0.92301657E+02</pdfrwt>
<totfact> 0.51375819E+04</totfact>
</mgrwt>
</event>
<event>
 6    1  0.2852411E-002  0.9809816E+02  0.7546771E-02  0.1342777E+00
         -1   -1    0    0    0  501 -0.00000000000E+00  0.00000000000E+00  0.15518158598E+02  0.15518158598E+02  0.00000000000E+00 0.  1.
          1   -1    0    0  501    0  0.00000000000E+00 -0.00000000000E+00 -0.28425473397E+03  0.28425473397E+03  0.00000000000E+00 0. -1.
         23    2    1    2    0    0 -0.26317544418E+02 -0.21770244128E+02 -0.21102534624E+03  0.23271215411E+03  0.91960280801E+02 0.  0.
         13    1    3    3    0    0 -0.10613819133E+02 -0.51935189085E+02 -0.70936377175E+02  0.88554427493E+02  0.00000000000E+00 0. -1.
        -13    1    3    3    0    0 -0.15703725285E+02  0.30164944957E+02 -0.14008896906E+03  0.14415772662E+03  0.00000000000E+00 0.  1.
         22    1    1    2    0    0  0.26317544418E+02  0.21770244128E+02 -0.57711229131E+02  0.67060738450E+02  0.00000000000E+00 0.  1.
<mgrwt>
<rscale>  0 0.75354448E+02</rscale>
<asrwt>0</asrwt>
<pdfrwt beam="1">  1        1 0.43731497E-01 0.98098165E+02</pdfrwt>
<pdfrwt beam="2">  1       -1 0.23874090E-02 0.98098165E+02</pdfrwt>
<totfact> 0.43894374E+04</totfact>
</mgrwt>
</event>
<event>
 6    1  0.2852411E-002  0.9883909E+02  0.7546771E-02  0.1350661E+00
         -2   -1    0    0    0  501 -0.00000000000E+00  0.00000000000E+00  0.27278546882E+01  0.27278546882E+01  0.00000000000E+00 0. -1.
          2   -1    0    0  501    0  0.00000000000E+00 -0.00000000000E+00 -0.20144997761E+04  0.20144997761E+04  0.00000000000E+00 0.  1.
         23    2    1    2    0    0 -0.29110120717E+02 -0.18675300646E+01 -0.18631691855E+04  0.18657889966E+04  0.94436641889E+02 0.  0.
         11    1    3    3    0    0 -0.57188698060E+02  0.21551454028E+02 -0.10221546816E+04  0.10239800806E+04  0.00000000000E+00 0.  1.
        -11    1    3    3    0    0  0.28078577343E+02 -0.23418984093E+02 -0.84101450393E+03  0.84180891605E+03  0.00000000000E+00 0. -1.
         22    1    1    2    0    0  0.29110120717E+02  0.18675300646E+01 -0.14860273587E+03  0.15143863412E+03  0.00000000000E+00 0. -1.
<mgrwt>
<rscale>  0 0.72850164E+02</rscale>
<asrwt>0</asrwt>
<pdfrwt beam="1">  1        2 0.30992360E+00 0.98839092E+02</pdfrwt>
<pdfrwt beam="2">  1       -2 0.41966920E-03 0.98839092E+02</pdfrwt>
<totfact> 0.50933105E+04</totfact>
</mgrwt>
</event>
<event>
 6    1  0.2852411E-002  0.8551762E+02  0.7546771E-02  0.1423717E+00
          2   -1    0    0  501    0  0.00000000000E+00  0.00000000000E+00  0.34831436178E+02  0.34831436178E+02  0.00000000000E+00 0. -1.
         -2   -1    0    0    0  501 -0.00000000000E+00 -0.00000000000E+00 -0.90852462138E+02  0.90852462138E+02  0.00000000000E+00 0.  1.
         23    2    1    2    0    0 -0.74237729521E+01 -0.11682216905E+02 -0.21045598708E+02  0.88069179016E+02  0.84390025897E+02 0.  0.
         13    1    3    3    0    0  0.35576609034E+01  0.99800761919E+01 -0.49521891639E+02  0.50642636419E+02  0.00000000000E+00 0.  1.
        -13    1    3    3    0    0 -0.10981433855E+02 -0.21662293096E+02  0.28476292931E+02  0.37426542597E+02  0.00000000000E+00 0. -1.
         22    1    1    2    0    0  0.74237729521E+01  0.11682216905E+02 -0.34975427251E+02  0.37614719300E+02  0.00000000000E+00 0. -1.
<mgrwt>
<rscale>  0 0.54242205E+02</rscale>
<asrwt>0</asrwt>
<pdfrwt beam="1">  1        2 0.53586825E-02 0.85517618E+02</pdfrwt>
<pdfrwt beam="2">  1       -2 0.13977302E-01 0.85517618E+02</pdfrwt>
<totfact> 0.47051083E+04</totfact>
</mgrwt>
</event>
<event>
 6    1  0.2852411E-002  0.9821259E+02  0.7546771E-02  0.1337655E+00
          2   -1    0    0  501    0  0.00000000000E+00  0.00000000000E+00  0.14113646879E+04  0.14113646879E+04  0.00000000000E+00 0. -1.
         -2   -1    0    0    0  501 -0.00000000000E+00 -0.00000000000E+00 -0.50181165795E+01  0.50181165795E+01  0.00000000000E+00 0.  1.
         23    2    1    2    0    0 -0.31251582573E+02 -0.20165663553E+02  0.13002882907E+04  0.13039920829E+04  0.90897733961E+02 0.  0.
         13    1    3    3    0    0  0.19608822709E+02 -0.31174848307E+02  0.83327368752E+03  0.83408717494E+03  0.00000000000E+00 0. -1.
        -13    1    3    3    0    0 -0.50860405282E+02  0.11009184754E+02  0.46701460318E+03  0.46990490799E+03  0.00000000000E+00 0.  1.
         22    1    1    2    0    0  0.31251582573E+02  0.20165663553E+02  0.10605828061E+03  0.11239072153E+03  0.00000000000E+00 0.  1.
<mgrwt>
<rscale>  0 0.77044304E+02</rscale>
<asrwt>0</asrwt>
<pdfrwt beam="1">  1        2 0.21713271E+00 0.98212593E+02</pdfrwt>
<pdfrwt beam="2">  1       -2 0.77201906E-03 0.98212593E+02</pdfrwt>
<totfact> 0.43665673E+04</totfact>
</mgrwt>
</event>
<event>
 6    1  0.2852411E-002  0.9258267E+02  0.7546771E-02  0.1405921E+00
          2   -1    0    0  501    0  0.00000000000E+00  0.00000000000E+00  0.16271179084E+02  0.16271179084E+02  0.00000000000E+00 0. -1.
         -2   -1    0    0    0  501 -0.00000000000E+00 -0.00000000000E+00 -0.22354562888E+03  0.22354562888E+03  0.00000000000E+00 0.  1.
         23    2    1    2    0    0 -0.10324288158E+02  0.99991560594E+01 -0.12101714674E+03  0.15237027357E+03  0.91460244990E+02 0.  0.
         13    1    3    3    0    0 -0.17889806607E+02  0.25702483499E+02 -0.12490809513E+01  0.31340437803E+02  0.00000000000E+00 0. -1.
        -13    1    3    3    0    0  0.75655184492E+01 -0.15703327439E+02 -0.11976806579E+03  0.12102983576E+03  0.00000000000E+00 0.  1.
         22    1    1    2    0    0  0.10324288158E+02 -0.99991560594E+01 -0.86257303057E+02  0.87446534400E+02  0.00000000000E+00 0.  1.
<mgrwt>
<rscale>  0 0.58114130E+02</rscale>
<asrwt>0</asrwt>
<pdfrwt beam="1">  1        2 0.25032585E-02 0.92582668E+02</pdfrwt>
<pdfrwt beam="2">  1       -2 0.34391633E-01 0.92582668E+02</pdfrwt>
<totfact> 0.27900641E+04</totfact>
</mgrwt>
</event>
<event>
 6    1  0.2852411E-002  0.9316343E+02  0.7546771E-02  0.1407027E+00
         -2   -1    0    0    0  501 -0.00000000000E+00  0.00000000000E+00  0.75826764344E+02  0.75826764344E+02  0.00000000000E+00 0.  1.
          2   -1    0    0  501    0  0.00000000000E+00 -0.00000000000E+00 -0.40230447482E+02  0.40230447482E+02  0.00000000000E+00 0. -1.
         23    2    1    2    0    0  0.11112132827E+02  0.82883818406E+01  0.20178728196E+02  0.95323692834E+02  0.92126264302E+02 0.  0.
         11    1    3    3    0    0  0.49601141101E+02  0.13268199310E+02 -0.50216041081E+00  0.51347545964E+02  0.00000000000E+00 0. -1.
        -11    1    3    3    0    0 -0.38489008274E+02 -0.49798174691E+01  0.20680888607E+02  0.43976146870E+02  0.00000000000E+00 0.  1.
         22    1    1    2    0    0 -0.11112132827E+02 -0.82883818406E+01  0.15417588666E+02  0.20733518992E+02  0.00000000000E+00 0. -1.
<mgrwt>
<rscale>  0 0.57862438E+02</rscale>
<asrwt>0</asrwt>
<pdfrwt beam="1">  1        2 0.61892996E-02 0.93163434E+02</pdfrwt>
<pdfrwt beam="2">  1       -2 0.11665656E-01 0.93163434E+02</pdfrwt>
<totfact> 0.52840227E+04</totfact>
</mgrwt>
</event>
<event>
 6    1  0.2852411E-002  0.9246421E+02  0.7546771E-02  0.1398594E+00
         -1   -1    0    0    0  501 -0.00000000000E+00  0.00000000000E+00  0.45293232571E+01  0.45293232571E+01  0.00000000000E+00 0.  1.
          1   -1    0    0  501    0  0.00000000000E+00 -0.00000000000E+00 -0.65222196726E+03  0.65222196726E+03  0.00000000000E+00 0. -1.
         23    2    1    2    0    0  0.12553750765E+01  0.16148084714E+02 -0.55752734803E+03  0.56514279088E+03  0.91034574115E+02 0.  0.
         11    1    3    3    0    0 -0.34583024176E+02  0.25349476050E+02 -0.15203768253E+03  0.15796847283E+03  0.00000000000E+00 0.  1.
        -11    1    3    3    0    0  0.35838399253E+02 -0.92013913358E+01 -0.40548966549E+03  0.40717431806E+03  0.00000000000E+00 0. -1.
         22    1    1    2    0    0 -0.12553750765E+01 -0.16148084714E+02 -0.90165295977E+02  0.91608499634E+02  0.00000000000E+00 0. -1.
<mgrwt>
<rscale>  0 0.59818788E+02</rscale>
<asrwt>0</asrwt>
<pdfrwt beam="1">  1        1 0.10034187E+00 0.92464211E+02</pdfrwt>
<pdfrwt beam="2">  1       -1 0.69681875E-03 0.92464211E+02</pdfrwt>
<totfact> 0.86974498E+04</totfact>
</mgrwt>
</event>
<event>
 6    1  0.2852411E-002  0.9753452E+02  0.7546771E-02  0.1346228E+00
         -2   -1    0    0    0  501 -0.00000000000E+00  0.00000000000E+00  0.76505832516E+01  0.76505832516E+01  0.00000000000E+00 0.  1.
          2   -1    0    0  501    0  0.00000000000E+00 -0.00000000000E+00 -0.10961820183E+04  0.10961820183E+04  0.00000000000E+00 0. -1.
         23    2    1    2    0    0  0.97165652533E+01 -0.31272417026E+02 -0.10440556203E+04  0.10486015070E+04  0.91872773532E+02 0.  0.
         11    1    3    3    0    0  0.25305486962E+02  0.15321529860E+01 -0.81300380545E+02  0.85161417555E+02  0.00000000000E+00 0.  1.
        -11    1    3    3    0    0 -0.15588921709E+02 -0.32804570012E+02 -0.96275523978E+03  0.96344008948E+03  0.00000000000E+00 0. -1.
         22    1    1    2    0    0 -0.97165652533E+01  0.31272417026E+02 -0.44475814758E+02  0.55231094551E+02  0.00000000000E+00 0.  1.
<mgrwt>
<rscale>  0 0.74244131E+02</rscale>
<asrwt>0</asrwt>
<pdfrwt beam="1">  1        2 0.16864335E+00 0.97534518E+02</pdfrwt>
<pdfrwt beam="2">  1       -2 0.11770131E-02 0.97534518E+02</pdfrwt>
<totfact> 0.35482233E+04</totfact>
</mgrwt>
</event>
<event>
 6    1  0.2852411E-002  0.9608782E+02  0.7546771E-02  0.1397442E+00
          2   -1    0    0  501    0  0.00000000000E+00  0.00000000000E+00  0.16819622707E+03  0.16819622707E+03  0.00000000000E+00 0. -1.
         -2   -1    0    0    0  501 -0.00000000000E+00 -0.00000000000E+00 -0.23722848519E+02  0.23722848519E+02  0.00000000000E+00 0.  1.
         23    2    1    2    0    0 -0.14641785737E+02  0.12973307731E+01  0.14832004145E+03  0.17672493947E+03  0.94956856411E+02 0.  0.
         11    1    3    3    0    0 -0.28632877091E+02 -0.37335258762E+02  0.11350469834E+03  0.12287017434E+03  0.00000000000E+00 0. -1.
        -11    1    3    3    0    0  0.13991091354E+02  0.38632589535E+02  0.34815343106E+02  0.53854765129E+02  0.00000000000E+00 0.  1.
         22    1    1    2    0    0  0.14641785737E+02 -0.12973307731E+01 -0.38466629029E+01  0.15194136112E+02  0.00000000000E+00 0.  1.
<mgrwt>
<rscale>  0 0.60093058E+02</rscale>
<asrwt>0</asrwt>
<pdfrwt beam="1">  1        2 0.25876342E-01 0.96087822E+02</pdfrwt>
<pdfrwt beam="2">  1       -2 0.36496691E-02 0.96087822E+02</pdfrwt>
<totfact> 0.56941290E+04</totfact>
</mgrwt>
</event>
<event>
 6    1  0.2852411E-002  0.9449309E+02  0.7546771E-02  0.1398360E+00
          2   -1    0    0  501    0  0.00000000000E+00  0.00000000000E+00  0.38610613856E+03  0.38610613856E+03  0.00000000000E+00 0. -1.
         -2   -1    0    0    0  501 -0.00000000000E+00 -0.00000000000E+00 -0.77976269000E+01  0.77976269000E+01  0.00000000000E+00 0.  1.
         23    2    1    2    0    0 -0.56633266356E+01 -0.14140278258E+02  0.32353430749E+03  0.33705102428E+03  0.93257300539E+02 0.  0.
         11    1    3    3    0    0  0.36345568338E+02  0.97347598360E+00  0.63165010672E+02  0.72881867199E+02  0.00000000000E+00 0.  1.
        -11    1    3    3    0    0 -0.42008894974E+02 -0.15113754242E+02  0.26036929682E+03  0.26416915708E+03  0.00000000000E+00 0. -1.
         22    1    1    2    0    0  0.56633266356E+01  0.14140278258E+02  0.54774204168E+02  0.56852741183E+02  0.00000000000E+00 0. -1.
<mgrwt>
<rscale>  0 0.59874363E+02</rscale>
<asrwt>0</asrwt>
<pdfrwt beam="1">  1        2 0.59400929E-01 0.94493094E+02</pdfrwt>
<pdfrwt beam="2">  1       -2 0.11996352E-02 0.94493094E+02</pdfrwt>
<totfact> 0.11726498E+05</totfact>
</mgrwt>
</event>
<event>
 6    1  0.2852411E-002  0.9067755E+02  0.7546771E-02  0.1376009E+00
         -2   -1    0    0    0  501 -0.00000000000E+00  0.00000000000E+00  0.91006019258E+02  0.91006019258E+02  0.00000000000E+00 0.  1.
          2   -1    0    0  501    0  0.00000000000E+00 -0.00000000000E+00 -0.50001624794E+02  0.50001624794E+02  0.00000000000E+00 0. -1.
         23    2    1    2    0    0 -0.17980213441E+02 -0.16969959097E+02 -0.27854095693E+01  0.90720324333E+02  0.87241911680E+02 0.  0.
         11    1    3    3    0    0 -0.34012730669E+02 -0.25980658363E+02 -0.33884916344E+02  0.54589816012E+02  0.00000000000E+00 0. -1.
        -11    1    3    3    0    0  0.16032517229E+02  0.90106992661E+01  0.31099506775E+02  0.36130508322E+02  0.00000000000E+00 0.  1.
         22    1    1    2    0    0  0.17980213441E+02  0.16969959097E+02  0.43789804034E+02  0.50287319718E+02  0.00000000000E+00 0.  1.
<mgrwt>
<rscale>  0 0.65524508E+02</rscale>
<asrwt>0</asrwt>
<pdfrwt beam="1">  1        2 0.76925577E-02 0.90677554E+02</pdfrwt>
<pdfrwt beam="2">  1       -2 0.14000926E-01 0.90677554E+02</pdfrwt>
<totfact> 0.29961528E+04</totfact>
</mgrwt>
</event>
<event>
 6    1  0.2852411E-002  0.9677316E+02  0.7546771E-02  0.1389248E+00
         -2   -1    0    0    0  501 -0.00000000000E+00  0.00000000000E+00  0.52646024135E+01  0.52646024135E+01  0.00000000000E+00 0.  1.
          2   -1    0    0  501    0  0.00000000000E+00 -0.00000000000E+00 -0.61201838274E+03  0.61201838274E+03  0.00000000000E+00 0. -1.
         23    2    1    2    0    0 -0.15055248771E+02  0.65123837587E+01 -0.53457715046E+03  0.54326584149E+03  0.95372810978E+02 0.  0.
         13    1    3    3    0    0 -0.29381870024E+02  0.29531993978E+02 -0.48477180835E+03  0.48655846425E+03  0.00000000000E+00 0. -1.
        -13    1    3    3    0    0  0.14326621253E+02 -0.23019610220E+02 -0.49805342108E+02  0.56707377242E+02  0.00000000000E+00 0.  1.
         22    1    1    2    0    0  0.15055248771E+02 -0.65123837587E+01 -0.72176629861E+02  0.74017143661E+02  0.00000000000E+00 0.  1.
<mgrwt>
<rscale>  0 0.62094008E+02</rscale>
<asrwt>0</asrwt>
<pdfrwt beam="1">  1        2 0.94156707E-01 0.96773161E+02</pdfrwt>
<pdfrwt beam="2">  1       -2 0.80993855E-03 0.96773161E+02</pdfrwt>
<totfact> 0.12474130E+05</totfact>
</mgrwt>
</event>
<event>
 6    1  0.2852411E-002  0.9956906E+02  0.7546771E-02  0.1331907E+00
         -4   -1    0    0    0  501 -0.00000000000E+00  0.00000000000E+00  0.42728777599E+03  0.42728777599E+03  0.00000000000E+00 0.  1.
          4   -1    0    0  501    0  0.00000000000E+00 -0.00000000000E+00 -0.12116480877E+02  0.12116480877E+02  0.00000000000E+00 0. -1.
         23    2    1    2    0    0 -0.29299767652E+02  0.26435390413E+02  0.23983986580E+03  0.25968665518E+03  0.91414940799E+02 0.  0.
         13    1    3    3    0    0 -0.68101161612E+01 -0.32159809894E+02  0.11981010810E+03  0.12423804996E+03  0.00000000000E+00 0.  1.
        -13    1    3    3    0    0 -0.22489651491E+02  0.58595200307E+02  0.12002975770E+03  0.13544860522E+03  0.00000000000E+00 0. -1.
         22    1    1    2    0    0  0.29299767652E+02 -0.26435390413E+02  0.17533142932E+03  0.17971760169E+03  0.00000000000E+00 0.  1.
<mgrwt>
<rscale>  0 0.79002359E+02</rscale>
<asrwt>0</asrwt>
<pdfrwt beam="1">  1        4 0.18640743E-02 0.99569060E+02</pdfrwt>
<pdfrwt beam="2">  1       -4 0.65736569E-01 0.99569060E+02</pdfrwt>
<totfact> 0.37534296E+03</totfact>
</mgrwt>
</event>
<event>
 6    1  0.2852411E-002  0.9335932E+02  0.7546771E-02  0.1379785E+00
          2   -1    0    0  501    0  0.00000000000E+00  0.00000000000E+00  0.66876818594E+03  0.66876818594E+03  0.00000000000E+00 0. -1.
         -2   -1    0    0    0  501 -0.00000000000E+00 -0.00000000000E+00 -0.52697350129E+01  0.52697350129E+01  0.00000000000E+00 0.  1.
         23    2    1    2    0    0  0.19372896589E+02  0.88456715538E+01  0.59575639547E+03  0.60302706893E+03  0.90897789253E+02 0.  0.
         13    1    3    3    0    0 -0.14155679086E+02  0.26269716976E+02  0.72403107461E+02  0.78311501393E+02  0.00000000000E+00 0.  1.
        -13    1    3    3    0    0  0.33528575675E+02 -0.17424045422E+02  0.52335328801E+03  0.52471556754E+03  0.00000000000E+00 0. -1.
         22    1    1    2    0    0 -0.19372896589E+02 -0.88456715538E+01  0.67742055454E+02  0.71010852020E+02  0.00000000000E+00 0. -1.
<mgrwt>
<rscale>  0 0.64520395E+02</rscale>
<asrwt>0</asrwt>
<pdfrwt beam="1">  1        2 0.10288735E+00 0.93359323E+02</pdfrwt>
<pdfrwt beam="2">  1       -2 0.81072899E-03 0.93359323E+02</pdfrwt>
<totfact> 0.11202447E+05</totfact>
</mgrwt>
</event>
<event>
 6    1  0.2852411E-002  0.9549400E+02  0.7546771E-02  0.1361130E+00
          1   -1    0    0  501    0  0.00000000000E+00  0.00000000000E+00  0.14269537401E+03  0.14269537401E+03  0.00000000000E+00 0. -1.
         -1   -1    0    0    0  501 -0.00000000000E+00 -0.00000000000E+00 -0.26605525723E+02  0.26605525723E+02  0.00000000000E+00 0.  1.
         23    2    1    2    0    0  0.27094798528E+02  0.25205352020E+00  0.97268650846E+02  0.13630955070E+03  0.91569162580E+02 0.  0.
         13    1    3    3    0    0  0.58077010824E+02  0.12018930301E+02  0.45115648598E+02  0.74517216938E+02  0.00000000000E+00 0. -1.
        -13    1    3    3    0    0 -0.30982212295E+02 -0.11766876781E+02  0.52153002248E+02  0.61792333759E+02  0.00000000000E+00 0.  1.
         22    1    1    2    0    0 -0.27094798528E+02 -0.25205352020E+00  0.18821197444E+02  0.32991349040E+02  0.00000000000E+00 0. -1.
<mgrwt>
<rscale>  0 0.69696060E+02</rscale>
<asrwt>0</asrwt>
<pdfrwt beam="1">  1        1 0.21953134E-01 0.95493995E+02</pdfrwt>
<pdfrwt beam="2">  1       -1 0.40931579E-02 0.95493995E+02</pdfrwt>
<totfact> 0.46915332E+04</totfact>
</mgrwt>
</event>
<event>
 6    1  0.2852411E-002  0.9351845E+02  0.7546771E-02  0.1405574E+00
          2   -1    0    0  501    0  0.00000000000E+00  0.00000000000E+00  0.64238019329E+02  0.64238019329E+02  0.00000000000E+00 0. -1.
         -2   -1    0    0    0  501 -0.00000000000E+00 -0.00000000000E+00 -0.54552908587E+02  0.54552908587E+02  0.00000000000E+00 0.  1.
         23    2    1    2    0    0  0.13939682933E+02  0.15143875091E+01  0.26207014541E+02  0.97121100160E+02  0.92461301934E+02 0.  0.
         11    1    3    3    0    0  0.52877433810E+02  0.22725458865E+01  0.23999746243E+02  0.58113469101E+02  0.00000000000E+00 0. -1.
        -11    1    3    3    0    0 -0.38937750878E+02 -0.75815837740E+00  0.22072682984E+01  0.39007631060E+02  0.00000000000E+00 0.  1.
         22    1    1    2    0    0 -0.13939682933E+02 -0.15143875091E+01 -0.16521903799E+02  0.21669827755E+02  0.00000000000E+00 0.  1.
<mgrwt>
<rscale>  0 0.58193323E+02</rscale>
<asrwt>0</asrwt>
<pdfrwt beam="1">  1        2 0.98827722E-02 0.93518450E+02</pdfrwt>
<pdfrwt beam="2">  1       -2 0.83927551E-02 0.93518450E+02</pdfrwt>
<totfact> 0.49311534E+04</totfact>
</mgrwt>
</event>
<event>
 6    1  0.2852411E-002  0.9538208E+02  0.7546771E-02  0.1363481E+00
          1   -1    0    0  501    0  0.00000000000E+00  0.00000000000E+00  0.49729616125E+02  0.49729616125E+02  0.00000000000E+00 0. -1.
         -1   -1    0    0    0  501 -0.00000000000E+00 -0.00000000000E+00 -0.74332522397E+02  0.74332522397E+02  0.00000000000E+00 0.  1.
         23    2    1    2    0    0  0.26051497749E+02 -0.21650582009E+01 -0.21089807037E+02  0.97685825698E+02  0.91729889183E+02 0.  0.
         13    1    3    3    0    0  0.39888587716E+02  0.51651910006E+01  0.26112108739E+02  0.47954362167E+02  0.00000000000E+00 0. -1.
        -13    1    3    3    0    0 -0.13837089967E+02 -0.73302492015E+01 -0.47201915776E+02  0.49731463532E+02  0.00000000000E+00 0.  1.
         22    1    1    2    0    0 -0.26051497749E+02  0.21650582009E+01 -0.35130992354E+01  0.26376312824E+02  0.00000000000E+00 0. -1.
<mgrwt>
<rscale>  0 0.69013160E+02</rscale>
<asrwt>0</asrwt>
<pdfrwt beam="1">  1        1 0.76507102E-02 0.95382077E+02</pdfrwt>
<pdfrwt beam="2">  1       -1 0.11435773E-01 0.95382077E+02</pdfrwt>
<totfact> 0.39770785E+04</totfact>
</mgrwt>
</event>
<event>
 6    1  0.2852411E-002  0.9623112E+02  0.7546771E-02  0.1407926E+00
         -2   -1    0    0    0  501 -0.00000000000E+00  0.00000000000E+00  0.58357067005E+01  0.58357067005E+01  0.00000000000E+00 0.  1.
          2   -1    0    0  501    0  0.00000000000E+00 -0.00000000000E+00 -0.57772442152E+03  0.57772442152E+03  0.00000000000E+00 0. -1.
         23    2    1    2    0    0 -0.72085317597E+00  0.12381992862E+02 -0.55039788008E+03  0.55874703985E+03  0.95428479872E+02 0.  0.
         11    1    3    3    0    0 -0.12612130982E+01  0.10851607754E+02 -0.29759921884E+01  0.11322746082E+02  0.00000000000E+00 0.  1.
        -11    1    3    3    0    0  0.54035992224E+00  0.15303851083E+01 -0.54742188789E+03  0.54742429377E+03  0.00000000000E+00 0. -1.
         22    1    1    2    0    0  0.72085317597E+00 -0.12381992862E+02 -0.21490834736E+02  0.24813088365E+02  0.00000000000E+00 0.  1.
<mgrwt>
<rscale>  0 0.57659115E+02</rscale>
<asrwt>0</asrwt>
<pdfrwt beam="1">  1        2 0.88880721E-01 0.96231118E+02</pdfrwt>
<pdfrwt beam="2">  1       -2 0.89780062E-03 0.96231118E+02</pdfrwt>
<totfact> 0.11493409E+05</totfact>
</mgrwt>
</event>
<event>
 6    1  0.2852411E-002  0.9333407E+02  0.7546771E-02  0.1409914E+00
         -2   -1    0    0    0  501 -0.00000000000E+00  0.00000000000E+00  0.16726003130E+02  0.16726003130E+02  0.00000000000E+00 0.  1.
          2   -1    0    0  501    0  0.00000000000E+00 -0.00000000000E+00 -0.17542662048E+03  0.17542662048E+03  0.00000000000E+00 0. -1.
         23    2    1    2    0    0 -0.58559099384E+01 -0.11805703859E+02 -0.14888186479E+03  0.17571868839E+03  0.92399033889E+02 0.  0.
         13    1    3    3    0    0 -0.37556329607E+02  0.17243416469E+02 -0.35578405910E+02  0.54531057868E+02  0.00000000000E+00 0. -1.
        -13    1    3    3    0    0  0.31700419669E+02 -0.29049120328E+02 -0.11330345888E+03  0.12118763053E+03  0.00000000000E+00 0.  1.
         22    1    1    2    0    0  0.58559099384E+01  0.11805703859E+02 -0.98187525636E+01  0.16433935217E+02  0.00000000000E+00 0.  1.
<mgrwt>
<rscale>  0 0.57212983E+02</rscale>
<asrwt>0</asrwt>
<pdfrwt beam="1">  1        2 0.26988709E-01 0.93334066E+02</pdfrwt>
<pdfrwt beam="2">  1       -2 0.25732314E-02 0.93334066E+02</pdfrwt>
<totfact> 0.90146236E+04</totfact>
</mgrwt>
</event>
<event>
 6    1  0.2852411E-002  0.1017684E+03  0.7546771E-02  0.1377641E+00
          2   -1    0    0  501    0  0.00000000000E+00  0.00000000000E+00  0.29267241286E+02  0.29267241286E+02  0.00000000000E+00 0. -1.
         -2   -1    0    0    0  501 -0.00000000000E+00 -0.00000000000E+00 -0.13304029166E+03  0.13304029166E+03  0.00000000000E+00 0.  1.
         23    2    1    2    0    0 -0.11139111185E+02  0.12879195486E+02 -0.67168413933E+02  0.12193609647E+03  0.10033375463E+03 0.  0.
         13    1    3    3    0    0 -0.21332029046E+02  0.44605449782E+02 -0.72937615596E+02  0.88116952866E+02  0.00000000000E+00 0.  1.
        -13    1    3    3    0    0  0.10192917862E+02 -0.31726254296E+02  0.57692016629E+01  0.33819143603E+02  0.00000000000E+00 0. -1.
         22    1    1    2    0    0  0.11139111185E+02 -0.12879195486E+02 -0.36604636443E+02  0.40371436480E+02  0.00000000000E+00 0.  1.
<mgrwt>
<rscale>  0 0.65087994E+02</rscale>
<asrwt>0</asrwt>
<pdfrwt beam="1">  1        2 0.45026525E-02 0.10176844E+03</pdfrwt>
<pdfrwt beam="2">  1       -2 0.20467737E-01 0.10176844E+03</pdfrwt>
<totfact> 0.32251067E+04</totfact>
</mgrwt>
</event>
<event>
 6    1  0.2852411E-002  0.9224550E+02  0.7546771E-02  0.1394737E+00
         -1   -1    0    0    0  501 -0.00000000000E+00  0.00000000000E+00  0.29494028757E+02  0.29494028757E+02  0.00000000000E+00 0.  1.
          1   -1    0    0  501    0  0.00000000000E+00 -0.00000000000E+00 -0.10302984048E+03  0.10302984048E+03  0.00000000000E+00 0. -1.
         23    2    1    2    0    0 -0.17326596509E+02 -0.79591897204E+00 -0.66908315680E+02  0.11395593620E+03  0.90600155927E+02 0.  0.
         13    1    3    3    0    0 -0.59284849091E+01  0.41374000791E+02 -0.54234418456E+02  0.68471359122E+02  0.00000000000E+00 0. -1.
        -13    1    3    3    0    0 -0.11398111600E+02 -0.42169919763E+02 -0.12673897224E+02  0.45484577075E+02  0.00000000000E+00 0.  1.
         22    1    1    2    0    0  0.17326596509E+02  0.79591897204E+00 -0.66274960421E+01  0.18567933040E+02  0.00000000000E+00 0.  1.
<mgrwt>
<rscale>  0 0.60743757E+02</rscale>
<asrwt>0</asrwt>
<pdfrwt beam="1">  1        1 0.15850745E-01 0.92245502E+02</pdfrwt>
<pdfrwt beam="2">  1       -1 0.45375429E-02 0.92245502E+02</pdfrwt>
<totfact> 0.60617930E+04</totfact>
</mgrwt>
</event>
<event>
 6    1  0.2852411E-002  0.1339631E+03  0.7546771E-02  0.1235036E+00
         -1   -1    0    0    0  501 -0.00000000000E+00  0.00000000000E+00  0.93893238347E+02  0.93893238347E+02  0.00000000000E+00 0.  1.
          1   -1    0    0  501    0  0.00000000000E+00 -0.00000000000E+00 -0.15775797169E+03  0.15775797169E+03  0.00000000000E+00 0. -1.
         23    2    1    2    0    0 -0.92513102357E+02 -0.42047958667E+02 -0.67413261250E+02  0.14996887634E+03  0.87289238412E+02 0.  0.
         13    1    3    3    0    0 -0.21666827096E+02  0.24112064548E+02 -0.93785355472E+00  0.32430273241E+02  0.00000000000E+00 0. -1.
        -13    1    3    3    0    0 -0.70846275261E+02 -0.66160023215E+02 -0.66475407696E+02  0.11753860310E+03  0.00000000000E+00 0.  1.
         22    1    1    2    0    0  0.92513102357E+02  0.42047958667E+02  0.35485279085E+01  0.10168233370E+03  0.00000000000E+00 0. -1.
<mgrwt>
<rscale>  0 0.12502134E+03</rscale>
<asrwt>0</asrwt>
<pdfrwt beam="1">  1        1 0.24270457E-01 0.13396311E+03</pdfrwt>
<pdfrwt beam="2">  1       -1 0.14445114E-01 0.13396311E+03</pdfrwt>
<totfact> 0.64411449E+03</totfact>
</mgrwt>
</event>
<event>
 6    1  0.2852411E-002  0.9290767E+02  0.7546771E-02  0.1391272E+00
         -2   -1    0    0    0  501 -0.00000000000E+00  0.00000000000E+00  0.38444908568E+02  0.38444908568E+02  0.00000000000E+00 0.  1.
          2   -1    0    0  501    0  0.00000000000E+00 -0.00000000000E+00 -0.82348171430E+02  0.82348171430E+02  0.00000000000E+00 0. -1.
         23    2    1    2    0    0  0.14457353510E+01 -0.17885928971E+02 -0.44111175674E+02  0.10284761167E+03  0.91158317232E+02 0.  0.
         11    1    3    3    0    0 -0.20300425977E+02 -0.75139652102E+01 -0.66514421179E+02  0.69948089272E+02  0.00000000000E+00 0. -1.
        -11    1    3    3    0    0  0.21746161328E+02 -0.10371963761E+02  0.22403245505E+02  0.32899522396E+02  0.00000000000E+00 0.  1.
         22    1    1    2    0    0 -0.14457353510E+01  0.17885928971E+02  0.20791281250E+00  0.17945468330E+02  0.00000000000E+00 0. -1.
<mgrwt>
<rscale>  0 0.61591402E+02</rscale>
<asrwt>0</asrwt>
<pdfrwt beam="1">  1        2 0.12668949E-01 0.92907671E+02</pdfrwt>
<pdfrwt beam="2">  1       -2 0.59146014E-02 0.92907671E+02</pdfrwt>
<totfact> 0.62207535E+04</totfact>
</mgrwt>
</event>
<event>
 6    1  0.2852411E-002  0.1002830E+03  0.7546771E-02  0.1366990E+00
         -2   -1    0    0    0  501 -0.00000000000E+00  0.00000000000E+00  0.59894516609E+02  0.59894516609E+02  0.00000000000E+00 0.  1.
          2   -1    0    0  501    0  0.00000000000E+00 -0.00000000000E+00 -0.66526553833E+02  0.66526553833E+02  0.00000000000E+00 0. -1.
         23    2    1    2    0    0  0.21091197896E+02 -0.22856454154E+01 -0.18703726442E+02  0.10201229161E+03  0.98013343235E+02 0.  0.
         13    1    3    3    0    0  0.49928690717E+02  0.25529654996E+02 -0.25101217776E+02  0.61438657007E+02  0.00000000000E+00 0.  1.
        -13    1    3    3    0    0 -0.28837492821E+02 -0.27815300412E+02  0.63974913340E+01  0.40573634599E+02  0.00000000000E+00 0. -1.
         22    1    1    2    0    0 -0.21091197896E+02  0.22856454154E+01  0.12071689218E+02  0.24408778836E+02  0.00000000000E+00 0.  1.
<mgrwt>
<rscale>  0 0.68011069E+02</rscale>
<asrwt>0</asrwt>
<pdfrwt beam="1">  1        2 0.10234854E-01 0.10028299E+03</pdfrwt>
<pdfrwt beam="2">  1       -2 0.92145410E-02 0.10028299E+03</pdfrwt>
<totfact> 0.41304260E+04</totfact>
</mgrwt>
</event>
<event>
 6    1  0.2852411E-002  0.9230904E+02  0.7546771E-02  0.1419337E+00
          2   -1    0    0  501    0  0.00000000000E+00  0.00000000000E+00  0.31212533856E+03  0.31212533856E+03  0.00000000000E+00 0.  1.
         -2   -1    0    0    0  501 -0.00000000000E+00 -0.00000000000E+00 -0.96806432969E+01  0.96806432969E+01  0.00000000000E+00 0. -1.
         23    2    1    2    0    0  0.10515023135E+02  0.52903121507E+01  0.29137587879E+03  0.30564826505E+03  0.91555480853E+02 0.  0.
         11    1    3    3    0    0  0.11620393466E+02 -0.29933121782E+02  0.37632918948E+02  0.49469808090E+02  0.00000000000E+00 0. -1.
        -11    1    3    3    0    0 -0.11053703310E+01  0.35223433933E+02  0.25374295985E+03  0.25617845696E+03  0.00000000000E+00 0.  1.
         22    1    1    2    0    0 -0.10515023135E+02 -0.52903121507E+01  0.11068816467E+02  0.16157716800E+02  0.00000000000E+00 0. -1.
<mgrwt>
<rscale>  0 0.55161392E+02</rscale>
<asrwt>0</asrwt>
<pdfrwt beam="1">  1        2 0.48019275E-01 0.92309042E+02</pdfrwt>
<pdfrwt beam="2">  1       -2 0.14893300E-02 0.92309042E+02</pdfrwt>
<totfact> 0.10732235E+05</totfact>
</mgrwt>
</event>
<event>
 6    1  0.2852411E-002  0.9184977E+02  0.7546771E-02  0.1417240E+00
          2   -1    0    0  501    0  0.00000000000E+00  0.00000000000E+00  0.98883453741E+03  0.98883453741E+03  0.00000000000E+00 0. -1.
         -2   -1    0    0    0  501 -0.00000000000E+00 -0.00000000000E+00 -0.36137468859E+01  0.36137468859E+01  0.00000000000E+00 0.  1.
         23    2    1    2    0    0  0.12000723229E+02 -0.28780703272E+01  0.95985611276E+03  0.96424070509E+03  0.91016918717E+02 0.  0.
         13    1    3    3    0    0 -0.22543517909E+02 -0.33455718670E+01  0.81512223847E+03  0.81544078062E+03  0.00000000000E+00 0. -1.
        -13    1    3    3    0    0  0.34544241139E+02  0.46750153971E+00  0.14473387429E+03  0.14879992446E+03  0.00000000000E+00 0.  1.
         22    1    1    2    0    0 -0.12000723229E+02  0.28780703272E+01  0.25364677756E+02  0.28207579203E+02  0.00000000000E+00 0. -1.
<mgrwt>
<rscale>  0 0.55609152E+02</rscale>
<asrwt>0</asrwt>
<pdfrwt beam="1">  1        2 0.15212817E+00 0.91849769E+02</pdfrwt>
<pdfrwt beam="2">  1       -2 0.55596185E-03 0.91849769E+02</pdfrwt>
<totfact> 0.11721753E+05</totfact>
</mgrwt>
</event>
<event>
 6    1  0.2852411E-002  0.9100777E+02  0.7546771E-02  0.1424530E+00
          1   -1    0    0  501    0  0.00000000000E+00  0.00000000000E+00  0.16937135717E+02  0.16937135717E+02  0.00000000000E+00 0. -1.
         -1   -1    0    0    0  501 -0.00000000000E+00 -0.00000000000E+00 -0.16335300066E+03  0.16335300066E+03  0.00000000000E+00 0.  1.
         23    2    1    2    0    0 -0.56142137551E+01  0.98557097608E+01 -0.11353643557E+03  0.14550923232E+03  0.90298173173E+02 0.  0.
         13    1    3    3    0    0 -0.21812228713E+02  0.51390647002E+01  0.72478739578E+01  0.23552388081E+02  0.00000000000E+00 0. -1.
        -13    1    3    3    0    0  0.16198014958E+02  0.47166450607E+01 -0.12078430953E+03  0.12195684424E+03  0.00000000000E+00 0.  1.
         22    1    1    2    0    0  0.56142137551E+01 -0.98557097608E+01 -0.32879429373E+02  0.34780904055E+02  0.00000000000E+00 0. -1.
<mgrwt>
<rscale>  0 0.54073807E+02</rscale>
<asrwt>0</asrwt>
<pdfrwt beam="1">  1        1 0.26057132E-02 0.91007772E+02</pdfrwt>
<pdfrwt beam="2">  1       -1 0.25131231E-01 0.91007772E+02</pdfrwt>
<totfact> 0.49411122E+04</totfact>
</mgrwt>
</event>
<event>
 6    1  0.2852411E-002  0.9851880E+02  0.7546771E-02  0.1341921E+00
         -1   -1    0    0    0  501 -0.00000000000E+00  0.00000000000E+00  0.19540347785E+03  0.19540347785E+03  0.00000000000E+00 0.  1.
          1   -1    0    0  501    0  0.00000000000E+00 -0.00000000000E+00 -0.28283671601E+02  0.28283671601E+02  0.00000000000E+00 0. -1.
         23    2    1    2    0    0  0.27766966435E+02 -0.20002531057E+02  0.70387599126E+02  0.12108000755E+03  0.92384243486E+02 0.  0.
         13    1    3    3    0    0  0.29672211288E+02  0.33051876981E+02  0.23501218583E+02  0.50251109137E+02  0.00000000000E+00 0. -1.
        -13    1    3    3    0    0 -0.19052448530E+01 -0.53054408038E+02  0.46886380543E+02  0.70828898415E+02  0.00000000000E+00 0.  1.
         22    1    1    2    0    0 -0.27766966435E+02  0.20002531057E+02  0.96732207122E+02  0.10260714190E+03  0.00000000000E+00 0. -1.
<mgrwt>
<rscale>  0 0.75633439E+02</rscale>
<asrwt>0</asrwt>
<pdfrwt beam="1">  1        1 0.43513342E-02 0.98518801E+02</pdfrwt>
<pdfrwt beam="2">  1       -1 0.30062073E-01 0.98518801E+02</pdfrwt>
<totfact> 0.18441156E+04</totfact>
</mgrwt>
</event>
<event>
 6    1  0.2852411E-002  0.9311876E+02  0.7546771E-02  0.1396192E+00
          2   -1    0    0  501    0  0.00000000000E+00  0.00000000000E+00  0.18144903895E+03  0.18144903895E+03  0.00000000000E+00 0. -1.
         -2   -1    0    0    0  501 -0.00000000000E+00 -0.00000000000E+00 -0.16585748821E+02  0.16585748821E+02  0.00000000000E+00 0.  1.
         23    2    1    2    0    0 -0.11945351254E+01  0.16431451077E+02  0.14331314224E+03  0.17090863115E+03  0.91649789775E+02 0.  0.
         11    1    3    3    0    0  0.61763175994E+01 -0.26866928962E+02  0.11590229880E+03  0.11913572780E+03  0.00000000000E+00 0. -1.
        -11    1    3    3    0    0 -0.73708527248E+01  0.43298380039E+02  0.27410843440E+02  0.51772903357E+02  0.00000000000E+00 0.  1.
         22    1    1    2    0    0  0.11945351254E+01 -0.16431451077E+02  0.21550147889E+02  0.27126156615E+02  0.00000000000E+00 0.  1.
<mgrwt>
<rscale>  0 0.60392501E+02</rscale>
<asrwt>0</asrwt>
<pdfrwt beam="1">  1        2 0.27915236E-01 0.93118760E+02</pdfrwt>
<pdfrwt beam="2">  1       -2 0.25516538E-02 0.93118760E+02</pdfrwt>
<totfact> 0.87958003E+04</totfact>
</mgrwt>
</event>
<event>
 6    1  0.2852411E-002  0.9339109E+02  0.7546771E-02  0.1375914E+00
         -1   -1    0    0    0  501 -0.00000000000E+00  0.00000000000E+00  0.24731327415E+02  0.24731327415E+02  0.00000000000E+00 0.  1.
          1   -1    0    0  501    0  0.00000000000E+00 -0.00000000000E+00 -0.57181087927E+03  0.57181087927E+03  0.00000000000E+00 0. -1.
         23    2    1    2    0    0  0.11153434778E+02 -0.19732288499E+02 -0.56180374741E+03  0.56951325458E+03  0.90598754006E+02 0.  0.
         11    1    3    3    0    0 -0.13356952061E+02 -0.14397314532E+02 -0.23501915318E+02  0.30627289428E+02  0.00000000000E+00 0.  1.
        -11    1    3    3    0    0  0.24510386838E+02 -0.53349739675E+01 -0.53830183209E+03  0.53888596515E+03  0.00000000000E+00 0. -1.
         22    1    1    2    0    0 -0.11153434778E+02  0.19732288499E+02  0.14724195556E+02  0.27028952098E+02  0.00000000000E+00 0.  1.
<mgrwt>
<rscale>  0 0.65550254E+02</rscale>
<asrwt>0</asrwt>
<pdfrwt beam="1">  1        1 0.87970893E-01 0.93391095E+02</pdfrwt>
<pdfrwt beam="2">  1       -1 0.38048201E-02 0.93391095E+02</pdfrwt>
<totfact> 0.92693081E+03</totfact>
</mgrwt>
</event>
<event>
 6    1  0.2852411E-002  0.8282200E+02  0.7546771E-02  0.1424667E+00
          4   -1    0    0  501    0  0.00000000000E+00  0.00000000000E+00  0.25096865329E+02  0.25096865329E+02  0.00000000000E+00 0. -1.
         -4   -1    0    0    0  501 -0.00000000000E+00 -0.00000000000E+00 -0.98261590939E+02  0.98261590939E+02  0.00000000000E+00 0.  1.
         23    2    1    2    0    0 -0.83164463424E+01  0.12504736758E+02 -0.53435687598E+02  0.98563967726E+02  0.81449071840E+02 0.  0.
         11    1    3    3    0    0 -0.25296628323E+02  0.28965074531E+02  0.17793962558E+01  0.38497547950E+02  0.00000000000E+00 0. -1.
        -11    1    3    3    0    0  0.16980181981E+02 -0.16460337773E+02 -0.55215083853E+02  0.60066419776E+02  0.00000000000E+00 0.  1.
         22    1    1    2    0    0  0.83164463424E+01 -0.12504736758E+02 -0.19729038013E+02  0.24794488542E+02  0.00000000000E+00 0.  1.
<mgrwt>
<rscale>  0 0.54045585E+02</rscale>
<asrwt>0</asrwt>
<pdfrwt beam="1">  1        4 0.38610562E-02 0.82821996E+02</pdfrwt>
<pdfrwt beam="2">  1       -4 0.15117168E-01 0.82821996E+02</pdfrwt>
<totfact> 0.18770051E+04</totfact>
</mgrwt>
</event>
<event>
 6    1  0.2852411E-002  0.9160185E+02  0.7546771E-02  0.1389862E+00
         -2   -1    0    0    0  501 -0.00000000000E+00  0.00000000000E+00  0.42920730071E+01  0.42920730071E+01  0.00000000000E+00 0. -1.
          2   -1    0    0  501    0  0.00000000000E+00 -0.00000000000E+00 -0.78523687607E+03  0.78523687607E+03  0.00000000000E+00 0.  1.
         23    2    1    2    0    0  0.16774653375E+02  0.92404778824E+01 -0.71549052631E+03  0.72133043170E+03  0.89577469423E+02 0.  0.
         13    1    3    3    0    0  0.23463719610E+02 -0.33705247098E+02 -0.21021661413E+03  0.21419060361E+03  0.00000000000E+00 0. -1.
        -13    1    3    3    0    0 -0.66890662347E+01  0.42945724981E+02 -0.50527391218E+03  0.50713982808E+03  0.00000000000E+00 0.  1.
         22    1    1    2    0    0 -0.16774653375E+02 -0.92404778824E+01 -0.65454276756E+02  0.68198517382E+02  0.00000000000E+00 0. -1.
<mgrwt>
<rscale>  0 0.61940999E+02</rscale>
<asrwt>0</asrwt>
<pdfrwt beam="1">  1        2 0.12080581E+00 0.91601847E+02</pdfrwt>
<pdfrwt beam="2">  1       -2 0.66031818E-03 0.91601847E+02</pdfrwt>
<totfact> 0.12341858E+05</totfact>
</mgrwt>
</event>
<event>
 6    1  0.2852411E-002  0.1034057E+03  0.7546771E-02  0.1310156E+00
         -2   -1    0    0    0  501 -0.00000000000E+00  0.00000000000E+00  0.24513386827E+02  0.24513386827E+02  0.00000000000E+00 0.  1.
          2   -1    0    0  501    0  0.00000000000E+00 -0.00000000000E+00 -0.46754115539E+03  0.46754115539E+03  0.00000000000E+00 0. -1.
         23    2    1    2    0    0  0.50724528763E+02 -0.11143717972E+02 -0.42450213431E+03  0.43691508816E+03  0.89417962196E+02 0.  0.
         13    1    3    3    0    0  0.90901335305E+01 -0.33362131695E+02 -0.59055733702E+02  0.68434216894E+02  0.00000000000E+00 0.  1.
        -13    1    3    3    0    0  0.41634395233E+02  0.22218413722E+02 -0.36544640061E+03  0.36848087127E+03  0.00000000000E+00 0. -1.
         22    1    1    2    0    0 -0.50724528763E+02  0.11143717972E+02 -0.18525634250E+02  0.55139454049E+02  0.00000000000E+00 0.  1.
<mgrwt>
<rscale>  0 0.87050567E+02</rscale>
<asrwt>0</asrwt>
<pdfrwt beam="1">  1        2 0.71929414E-01 0.10340567E+03</pdfrwt>
<pdfrwt beam="2">  1       -2 0.37712900E-02 0.10340567E+03</pdfrwt>
<totfact> 0.18514610E+04</totfact>
</mgrwt>
</event>
<event>
 6    1  0.2852411E-002  0.9419089E+02  0.7546771E-02  0.1382879E+00
          1   -1    0    0  501    0  0.00000000000E+00  0.00000000000E+00  0.13922891471E+04  0.13922891471E+04  0.00000000000E+00 0. -1.
         -1   -1    0    0    0  501 -0.00000000000E+00 -0.00000000000E+00 -0.62088341602E+01  0.62088341602E+01  0.00000000000E+00 0.  1.
         23    2    1    2    0    0 -0.11787559507E+00 -0.19718618492E+02  0.13694984502E+04  0.13727337428E+04  0.92103669052E+02 0.  0.
         13    1    3    3    0    0  0.28602502295E+02 -0.25886896997E+02  0.12060334459E+04  0.12066502837E+04  0.00000000000E+00 0. -1.
        -13    1    3    3    0    0 -0.28720377890E+02  0.61682785044E+01  0.16346500426E+03  0.16608345909E+03  0.00000000000E+00 0.  1.
         22    1    1    2    0    0  0.11787559507E+00  0.19718618492E+02  0.16581862796E+02  0.25764238465E+02  0.00000000000E+00 0.  1.
<mgrwt>
<rscale>  0 0.63712953E+02</rscale>
<asrwt>0</asrwt>
<pdfrwt beam="1">  1        1 0.21419808E+00 0.94190889E+02</pdfrwt>
<pdfrwt beam="2">  1       -1 0.95520637E-03 0.94190889E+02</pdfrwt>
<totfact> 0.15969443E+04</totfact>
</mgrwt>
</event>
<event>
 6    1  0.2852411E-002  0.9221839E+02  0.7546771E-02  0.1422086E+00
         -2   -1    0    0    0  501 -0.00000000000E+00  0.00000000000E+00  0.93268161825E+01  0.93268161825E+01  0.00000000000E+00 0.  1.
          2   -1    0    0  501    0  0.00000000000E+00 -0.00000000000E+00 -0.30358543170E+03  0.30358543170E+03  0.00000000000E+00 0. -1.
         23    2    1    2    0    0  0.57435169206E+01 -0.97515737817E+01 -0.27945853222E+03  0.29428099340E+03  0.91521312654E+02 0.  0.
         11    1    3    3    0    0 -0.11780645418E+01  0.29126978214E+02 -0.30425697414E+02  0.42136584568E+02  0.00000000000E+00 0.  1.
        -11    1    3    3    0    0  0.69215814624E+01 -0.38878551996E+02 -0.24903283481E+03  0.25214440884E+03  0.00000000000E+00 0. -1.
         22    1    1    2    0    0 -0.57435169206E+01  0.97515737817E+01 -0.14800083293E+02  0.18631254475E+02  0.00000000000E+00 0.  1.
<mgrwt>
<rscale>  0 0.54581922E+02</rscale>
<asrwt>0</asrwt>
<pdfrwt beam="1">  1        2 0.46705452E-01 0.92218392E+02</pdfrwt>
<pdfrwt beam="2">  1       -2 0.14348948E-02 0.92218392E+02</pdfrwt>
<totfact> 0.11648899E+05</totfact>
</mgrwt>
</event>
<event>
 6    1  0.2852411E-002  0.1018209E+03  0.7546771E-02  0.1316499E+00
         -2   -1    0    0    0  501 -0.00000000000E+00  0.00000000000E+00  0.29898272441E+02  0.29898272441E+02  0.00000000000E+00 0. -1.
          2   -1    0    0  501    0  0.00000000000E+00 -0.00000000000E+00 -0.19631937751E+03  0.19631937751E+03  0.00000000000E+00 0.  1.
         23    2    1    2    0    0  0.39229048475E+02 -0.28537671555E+02 -0.13212923557E+03  0.16681016510E+03  0.89521948969E+02 0.  0.
         11    1    3    3    0    0  0.30281234085E+02  0.21165640029E+01 -0.13140813550E+03  0.13486856956E+03  0.00000000000E+00 0.  1.
        -11    1    3    3    0    0  0.89478143897E+01 -0.30654235558E+02 -0.72110006619E+00  0.31941595535E+02  0.00000000000E+00 0. -1.
         22    1    1    2    0    0 -0.39229048475E+02  0.28537671555E+02 -0.34291869500E+02  0.59407484847E+02  0.00000000000E+00 0.  1.
<mgrwt>
<rscale>  0 0.84593649E+02</rscale>
<asrwt>0</asrwt>
<pdfrwt beam="1">  1        2 0.30202981E-01 0.10182090E+03</pdfrwt>
<pdfrwt beam="2">  1       -2 0.45997342E-02 0.10182090E+03</pdfrwt>
<totfact> 0.34506409E+04</totfact>
</mgrwt>
</event>
<event>
 6    1  0.2852411E-002  0.9341883E+02  0.7546771E-02  0.1389621E+00
         -2   -1    0    0    0  501 -0.00000000000E+00  0.00000000000E+00  0.37029592187E+01  0.37029592187E+01  0.00000000000E+00 0.  1.
          2   -1    0    0  501    0  0.00000000000E+00 -0.00000000000E+00 -0.16367021945E+04  0.16367021945E+04  0.00000000000E+00 0. -1.
         23    2    1    2    0    0  0.13283212731E+02 -0.12332854861E+02 -0.16002500953E+04  0.16029745617E+04  0.91643520601E+02 0.  0.
         13    1    3    3    0    0  0.49678663411E+02 -0.62965106709E+00 -0.11614619700E+04  0.11625240960E+04  0.00000000000E+00 0. -1.
        -13    1    3    3    0    0 -0.36395450680E+02 -0.11703203794E+02 -0.43878812534E+03  0.44045046571E+03  0.00000000000E+00 0.  1.
         22    1    1    2    0    0 -0.13283212731E+02  0.12332854861E+02 -0.32749139913E+02  0.37430591961E+02  0.00000000000E+00 0.  1.
<mgrwt>
<rscale>  0 0.62001166E+02</rscale>
<asrwt>0</asrwt>
<pdfrwt beam="1">  1        2 0.25180097E+00 0.93418831E+02</pdfrwt>
<pdfrwt beam="2">  1       -2 0.56968461E-03 0.93418831E+02</pdfrwt>
<totfact> 0.51145631E+04</totfact>
</mgrwt>
</event>
<event>
 6    1  0.2852411E-002  0.9974581E+02  0.7546771E-02  0.1326042E+00
         -1   -1    0    0    0  501 -0.00000000000E+00  0.00000000000E+00  0.17696015250E+03  0.17696015250E+03  0.00000000000E+00 0.  1.
          1   -1    0    0  501    0  0.00000000000E+00 -0.00000000000E+00 -0.69895965440E+02  0.69895965440E+02  0.00000000000E+00 0. -1.
         23    2    1    2    0    0  0.43252474489E+02  0.48783920690E+01  0.15359457864E+03  0.18314071478E+03  0.89747710645E+02 0.  0.
         11    1    3    3    0    0  0.67090126211E+02  0.21673734331E+02  0.10523605020E+03  0.12667068350E+03  0.00000000000E+00 0.  1.
        -11    1    3    3    0    0 -0.23837651722E+02 -0.16795342262E+02  0.48358528432E+02  0.56470031286E+02  0.00000000000E+00 0. -1.
         22    1    1    2    0    0 -0.43252474489E+02 -0.48783920690E+01 -0.46530391579E+02  0.63715403155E+02  0.00000000000E+00 0. -1.
<mgrwt>
<rscale>  0 0.81069964E+02</rscale>
<asrwt>0</asrwt>
<pdfrwt beam="1">  1        1 0.10753226E-01 0.99745811E+02</pdfrwt>
<pdfrwt beam="2">  1       -1 0.27224639E-01 0.99745811E+02</pdfrwt>
<totfact> 0.64925511E+03</totfact>
</mgrwt>
</event>
<event>
 6    1  0.2852411E-002  0.9303697E+02  0.7546771E-02  0.1399749E+00
          2   -1    0    0  501    0  0.00000000000E+00  0.00000000000E+00  0.72671327297E+03  0.72671327297E+03  0.00000000000E+00 0. -1.
         -2   -1    0    0    0  501 -0.00000000000E+00 -0.00000000000E+00 -0.21602712973E+02  0.21602712973E+02  0.00000000000E+00 0.  1.
         23    2    1    2    0    0  0.92327445838E+01  0.12587982142E+02  0.72044852334E+03  0.72643096854E+03  0.91717917516E+02 0.  0.
         13    1    3    3    0    0 -0.12540581099E+02 -0.17625243709E+02  0.59923886220E+03  0.59962915987E+03  0.00000000000E+00 0. -1.
        -13    1    3    3    0    0  0.21773325683E+02  0.30213225850E+02  0.12120966114E+03  0.12680180867E+03  0.00000000000E+00 0.  1.
         22    1    1    2    0    0 -0.92327445838E+01 -0.12587982142E+02 -0.15337963351E+02  0.21885017402E+02  0.00000000000E+00 0.  1.
<mgrwt>
<rscale>  0 0.59545479E+02</rscale>
<asrwt>0</asrwt>
<pdfrwt beam="1">  1        2 0.11180202E+00 0.93036967E+02</pdfrwt>
<pdfrwt beam="2">  1       -2 0.33234949E-02 0.93036967E+02</pdfrwt>
<totfact> 0.13473370E+04</totfact>
</mgrwt>
</event>
<event>
 6    1  0.2852411E-002  0.8636832E+02  0.7546771E-02  0.1409395E+00
          2   -1    0    0  501    0  0.00000000000E+00  0.00000000000E+00  0.38296852149E+02  0.38296852149E+02  0.00000000000E+00 0. -1.
         -2   -1    0    0    0  501 -0.00000000000E+00 -0.00000000000E+00 -0.69451130577E+02  0.69451130577E+02  0.00000000000E+00 0.  1.
         23    2    1    2    0    0 -0.15646599608E+02 -0.60243885225E+01 -0.26670233089E+02  0.90392407283E+02  0.84725300973E+02 0.  0.
         13    1    3    3    0    0 -0.11949216995E+02  0.39205970165E+02 -0.12825127893E+02  0.42946196442E+02  0.00000000000E+00 0. -1.
        -13    1    3    3    0    0 -0.36973826123E+01 -0.45230358688E+02 -0.13845105197E+02  0.47446210840E+02  0.00000000000E+00 0.  1.
         22    1    1    2    0    0  0.15646599608E+02  0.60243885225E+01 -0.44840453388E+01  0.17355575443E+02  0.00000000000E+00 0. -1.
<mgrwt>
<rscale>  0 0.57329116E+02</rscale>
<asrwt>0</asrwt>
<pdfrwt beam="1">  1        2 0.58918235E-02 0.86368316E+02</pdfrwt>
<pdfrwt beam="2">  1       -2 0.10684789E-01 0.86368316E+02</pdfrwt>
<totfact> 0.63847037E+04</totfact>
</mgrwt>
</event>
<event>
 6    1  0.2852411E-002  0.9768387E+02  0.7546771E-02  0.1386048E+00
          2   -1    0    0  501    0  0.00000000000E+00  0.00000000000E+00  0.90744336781E+03  0.90744336781E+03  0.00000000000E+00 0. -1.
         -2   -1    0    0    0  501 -0.00000000000E+00 -0.00000000000E+00 -0.37644135236E+01  0.37644135236E+01  0.00000000000E+00 0.  1.
         23    2    1    2    0    0 -0.14534619595E+02 -0.84128410863E+01  0.82456673116E+03  0.83033272393E+03  0.96229450963E+02 0.  0.
         13    1    3    3    0    0 -0.27017817786E+02 -0.12221078710E+02  0.81087570840E+03  0.81141772948E+03  0.00000000000E+00 0. -1.
        -13    1    3    3    0    0  0.12483198191E+02  0.38082376236E+01  0.13691022764E+02  0.18914994454E+02  0.00000000000E+00 0.  1.
         22    1    1    2    0    0  0.14534619595E+02  0.84128410863E+01  0.79112223128E+02  0.80875057404E+02  0.00000000000E+00 0.  1.
<mgrwt>
<rscale>  0 0.62900523E+02</rscale>
<asrwt>0</asrwt>
<pdfrwt beam="1">  1        2 0.13960650E+00 0.97683869E+02</pdfrwt>
<pdfrwt beam="2">  1       -2 0.57914126E-03 0.97683869E+02</pdfrwt>
<totfact> 0.12496207E+05</totfact>
</mgrwt>
</event>
<event>
 6    1  0.2852411E-002  0.9364509E+02  0.7546771E-02  0.1389563E+00
          2   -1    0    0  501    0  0.00000000000E+00  0.00000000000E+00  0.11905995776E+02  0.11905995776E+02  0.00000000000E+00 0. -1.
         -2   -1    0    0    0  501 -0.00000000000E+00 -0.00000000000E+00 -0.26186705708E+03  0.26186705708E+03  0.00000000000E+00 0.  1.
         23    2    1    2    0    0  0.16878072985E+02 -0.62884252184E+01 -0.20781784554E+03  0.22794223054E+03  0.91896626154E+02 0.  0.
         13    1    3    3    0    0  0.41525451258E+02  0.28855354855E+02 -0.11886661905E+03  0.12917533716E+03  0.00000000000E+00 0.  1.
        -13    1    3    3    0    0 -0.24647378273E+02 -0.35143780074E+02 -0.88951226491E+02  0.98766893379E+02  0.00000000000E+00 0. -1.
         22    1    1    2    0    0 -0.16878072985E+02  0.62884252184E+01 -0.42143215766E+02  0.45830822320E+02  0.00000000000E+00 0. -1.
<mgrwt>
<rscale>  0 0.62015630E+02</rscale>
<asrwt>0</asrwt>
<pdfrwt beam="1">  1        2 0.18316919E-02 0.93645094E+02</pdfrwt>
<pdfrwt beam="2">  1       -2 0.40287234E-01 0.93645094E+02</pdfrwt>
<totfact> 0.31742759E+04</totfact>
</mgrwt>
</event>
<event>
 6    1  0.2852411E-002  0.1037781E+03  0.7546771E-02  0.1343094E+00
         -2   -1    0    0    0  501 -0.00000000000E+00  0.00000000000E+00  0.10459800408E+02  0.10459800408E+02  0.00000000000E+00 0.  1.
          2   -1    0    0  501    0  0.00000000000E+00 -0.00000000000E+00 -0.42087393610E+03  0.42087393610E+03  0.00000000000E+00 0. -1.
         23    2    1    2    0    0  0.24488567504E+02  0.14949264979E+02 -0.33158547173E+03  0.34744614074E+03  0.99733270230E+02 0.  0.
         11    1    3    3    0    0  0.45805803422E+02 -0.39980819505E+01 -0.30503210537E+03  0.30847810554E+03  0.00000000000E+00 0. -1.
        -11    1    3    3    0    0 -0.21317235918E+02  0.18947346930E+02 -0.26553366360E+02  0.38968035207E+02  0.00000000000E+00 0.  1.
         22    1    1    2    0    0 -0.24488567504E+02 -0.14949264979E+02 -0.78828663955E+02  0.83887595762E+02  0.00000000000E+00 0.  1.
<mgrwt>
<rscale>  0 0.75251564E+02</rscale>
<asrwt>0</asrwt>
<pdfrwt beam="1">  1        2 0.64749830E-01 0.10377811E+03</pdfrwt>
<pdfrwt beam="2">  1       -2 0.16092002E-02 0.10377811E+03</pdfrwt>
<totfact> 0.71317175E+04</totfact>
</mgrwt>
</event>
<event>
 6    1  0.2852411E-002  0.1431680E+03  0.7546771E-02  0.1219315E+00
          2   -1    0    0  501    0  0.00000000000E+00  0.00000000000E+00  0.29666713927E+03  0.29666713927E+03  0.00000000000E+00 0. -1.
         -2   -1    0    0    0  501 -0.00000000000E+00 -0.00000000000E+00 -0.10191604154E+03  0.10191604154E+03  0.00000000000E+00 0.  1.
         23    2    1    2    0    0 -0.11522652633E+03 -0.55065303326E+01 -0.29706045799E+02  0.14621740752E+03  0.84791549451E+02 0.  0.
         13    1    3    3    0    0 -0.81016133299E+02 -0.32429997638E+02  0.93064017440E+01  0.87760627362E+02  0.00000000000E+00 0. -1.
        -13    1    3    3    0    0 -0.34210393030E+02  0.26923467305E+02 -0.39012447543E+02  0.58456780157E+02  0.00000000000E+00 0.  1.
         22    1    1    2    0    0  0.11522652633E+03  0.55065303326E+01  0.22445714353E+03  0.25236577329E+03  0.00000000000E+00 0. -1.
<mgrwt>
<rscale>  0 0.13564271E+03</rscale>
<asrwt>0</asrwt>
<pdfrwt beam="1">  1        2 0.45641098E-01 0.14316802E+03</pdfrwt>
<pdfrwt beam="2">  1       -2 0.15679391E-01 0.14316802E+03</pdfrwt>
<totfact> 0.34080939E+03</totfact>
</mgrwt>
</event>
<event>
 6    1  0.2852411E-002  0.9086522E+02  0.7546771E-02  0.1422205E+00
          2   -1    0    0  501    0  0.00000000000E+00  0.00000000000E+00  0.11192398131E+03  0.11192398131E+03  0.00000000000E+00 0. -1.
         -2   -1    0    0    0  501 -0.00000000000E+00 -0.00000000000E+00 -0.28792048165E+02  0.28792048165E+02  0.00000000000E+00 0.  1.
         23    2    1    2    0    0  0.84825083455E+01 -0.82157599451E+01  0.89293458477E+02  0.12739626770E+03  0.90094592723E+02 0.  0.
         13    1    3    3    0    0  0.89062629353E+01 -0.30130682397E+02 -0.38993628769E+01  0.31660457546E+02  0.00000000000E+00 0.  1.
        -13    1    3    3    0    0 -0.42375458975E+00  0.21914922452E+02  0.93192821354E+02  0.95735810155E+02  0.00000000000E+00 0. -1.
         22    1    1    2    0    0 -0.84825083455E+01  0.82157599451E+01 -0.61615253325E+01  0.13319761775E+02  0.00000000000E+00 0. -1.
<mgrwt>
<rscale>  0 0.54557091E+02</rscale>
<asrwt>0</asrwt>
<pdfrwt beam="1">  1        2 0.17219074E-01 0.90865215E+02</pdfrwt>
<pdfrwt beam="2">  1       -2 0.44295459E-02 0.90865215E+02</pdfrwt>
<totfact> 0.66813315E+04</totfact>
</mgrwt>
</event>
<event>
 6    1  0.2852411E-002  0.8728348E+02  0.7546771E-02  0.1423732E+00
         -2   -1    0    0    0  501 -0.00000000000E+00  0.00000000000E+00  0.90473754746E+01  0.90473754746E+01  0.00000000000E+00 0.  1.
          2   -1    0    0  501    0  0.00000000000E+00 -0.00000000000E+00 -0.28388311718E+03  0.28388311718E+03  0.00000000000E+00 0. -1.
         23    2    1    2    0    0 -0.11775261395E+02 -0.55442231825E+01 -0.22267709561E+03  0.23917252065E+03  0.86307650489E+02 0.  0.
         11    1    3    3    0    0 -0.15248174130E+02 -0.19784428877E+02 -0.22311454188E+03  0.22450841685E+03  0.00000000000E+00 0. -1.
        -11    1    3    3    0    0  0.34729127357E+01  0.14240205694E+02  0.43744626219E+00  0.14664103802E+02  0.00000000000E+00 0.  1.
         22    1    1    2    0    0  0.11775261395E+02  0.55442231825E+01 -0.52158646089E+02  0.53757971999E+02  0.00000000000E+00 0.  1.
<mgrwt>
<rscale>  0 0.54239000E+02</rscale>
<asrwt>0</asrwt>
<pdfrwt beam="1">  1        2 0.43674328E-01 0.87283479E+02</pdfrwt>
<pdfrwt beam="2">  1       -2 0.13919038E-02 0.87283479E+02</pdfrwt>
<totfact> 0.12935356E+05</totfact>
</mgrwt>
</event>
<event>
 6    1  0.2852411E-002  0.9010998E+02  0.7546771E-02  0.1398248E+00
         -2   -1    0    0    0  501 -0.00000000000E+00  0.00000000000E+00  0.23339691451E+02  0.23339691451E+02  0.00000000000E+00 0.  1.
          2   -1    0    0  501    0  0.00000000000E+00 -0.00000000000E+00 -0.32159097864E+03  0.32159097864E+03  0.00000000000E+00 0. -1.
         23    2    1    2    0    0 -0.13183010088E+02  0.11654537111E+02 -0.31061744830E+03  0.32342388207E+03  0.88375269826E+02 0.  0.
         13    1    3    3    0    0 -0.92495146272E+01  0.27093183681E+02 -0.30528338735E+03  0.30662279876E+03  0.00000000000E+00 0. -1.
        -13    1    3    3    0    0 -0.39334954608E+01 -0.15438646571E+02 -0.53340609471E+01  0.16801083318E+02  0.00000000000E+00 0.  1.
         22    1    1    2    0    0  0.13183010088E+02 -0.11654537111E+02  0.12366161110E+02  0.21506788018E+02  0.00000000000E+00 0.  1.
<mgrwt>
<rscale>  0 0.59900892E+02</rscale>
<asrwt>0</asrwt>
<pdfrwt beam="1">  1        2 0.49475534E-01 0.90109979E+02</pdfrwt>
<pdfrwt beam="2">  1       -2 0.35907219E-02 0.90109979E+02</pdfrwt>
<totfact> 0.29118227E+04</totfact>
</mgrwt>
</event>
<event>
 6    1  0.2852411E-002  0.8615987E+02  0.7546771E-02  0.1405749E+00
         -2   -1    0    0    0  501 -0.00000000000E+00  0.00000000000E+00  0.78016840653E+01  0.78016840653E+01  0.00000000000E+00 0.  1.
          2   -1    0    0  501    0  0.00000000000E+00 -0.00000000000E+00 -0.35094680968E+03  0.35094680968E+03  0.00000000000E+00 0. -1.
         23    2    1    2    0    0 -0.88281645372E+01  0.15549403788E+02 -0.26819603106E+03  0.28169599721E+03  0.84284063276E+02 0.  0.
         13    1    3    3    0    0 -0.17081003508E+02  0.31907491515E+02 -0.44995131265E+02  0.57744354990E+02  0.00000000000E+00 0.  1.
        -13    1    3    3    0    0  0.82528389713E+01 -0.16358087727E+02 -0.22320089979E+03  0.22395164222E+03  0.00000000000E+00 0. -1.
         22    1    1    2    0    0  0.88281645372E+01 -0.15549403788E+02 -0.74949094555E+02  0.77052496532E+02  0.00000000000E+00 0. -1.
<mgrwt>
<rscale>  0 0.58153397E+02</rscale>
<asrwt>0</asrwt>
<pdfrwt beam="1">  1        2 0.53991819E-01 0.86159873E+02</pdfrwt>
<pdfrwt beam="2">  1       -2 0.12002590E-02 0.86159873E+02</pdfrwt>
<totfact> 0.12768548E+05</totfact>
</mgrwt>
</event>
<event>
 6    1  0.2852411E-002  0.9327219E+02  0.7546771E-02  0.1398124E+00
         -2   -1    0    0    0  501 -0.00000000000E+00  0.00000000000E+00  0.53197676628E+02  0.53197676628E+02  0.00000000000E+00 0.  1.
          2   -1    0    0  501    0  0.00000000000E+00 -0.00000000000E+00 -0.56378842964E+02  0.56378842964E+02  0.00000000000E+00 0. -1.
         23    2    1    2    0    0 -0.15433189302E+01  0.15822424915E+02 -0.58547313423E+01  0.93455759271E+02  0.91907399584E+02 0.  0.
         11    1    3    3    0    0  0.86702022509E+01 -0.25322841901E+02  0.28346046904E+02  0.38986114248E+02  0.00000000000E+00 0.  1.
        -11    1    3    3    0    0 -0.10213521181E+02  0.41145266816E+02 -0.34200778246E+02  0.54469645023E+02  0.00000000000E+00 0. -1.
         22    1    1    2    0    0  0.15433189302E+01 -0.15822424915E+02  0.26735650060E+01  0.16120760321E+02  0.00000000000E+00 0.  1.
<mgrwt>
<rscale>  0 0.59930297E+02</rscale>
<asrwt>0</asrwt>
<pdfrwt beam="1">  1        2 0.86736681E-02 0.93272188E+02</pdfrwt>
<pdfrwt beam="2">  1       -2 0.81842580E-02 0.93272188E+02</pdfrwt>
<totfact> 0.60096043E+04</totfact>
</mgrwt>
</event>
<event>
 6    1  0.2852411E-002  0.2109436E+03  0.7546771E-02  0.1145354E+00
          2   -1    0    0  501    0  0.00000000000E+00  0.00000000000E+00  0.33115512076E+03  0.33115512076E+03  0.00000000000E+00 0. -1.
         -2   -1    0    0    0  501 -0.00000000000E+00 -0.00000000000E+00 -0.14345718630E+03  0.14345718630E+03  0.00000000000E+00 0.  1.
         23    2    1    2    0    0  0.17546329046E+03 -0.70802964345E+02  0.19216445657E+03  0.28534959050E+03  0.93256551355E+02 0.  0.
         13    1    3    3    0    0  0.14008063096E+03 -0.34890750642E+02  0.18464184291E+03  0.23437695664E+03  0.00000000000E+00 0. -1.
        -13    1    3    3    0    0  0.35382659502E+02 -0.35912213703E+02  0.75226136603E+01  0.50972633861E+02  0.00000000000E+00 0.  1.
         22    1    1    2    0    0 -0.17546329046E+03  0.70802964345E+02 -0.44665221043E+01  0.18926271656E+03  0.00000000000E+00 0.  1.
<mgrwt>
<rscale>  0 0.20528670E+03</rscale>
<asrwt>0</asrwt>
<pdfrwt beam="1">  1        2 0.50946941E-01 0.21094362E+03</pdfrwt>
<pdfrwt beam="2">  1       -2 0.22070337E-01 0.21094362E+03</pdfrwt>
<totfact> 0.17263331E+03</totfact>
</mgrwt>
</event>
<event>
 6    1  0.2852411E-002  0.9344995E+02  0.7546771E-02  0.1376381E+00
          2   -1    0    0  501    0  0.00000000000E+00  0.00000000000E+00  0.12854961631E+04  0.12854961631E+04  0.00000000000E+00 0. -1.
         -2   -1    0    0    0  501 -0.00000000000E+00 -0.00000000000E+00 -0.29004445450E+01  0.29004445450E+01  0.00000000000E+00 0.  1.
         23    2    1    2    0    0 -0.22149421192E+02 -0.36647125301E+01  0.11603115353E+04  0.11640686202E+04  0.90713101079E+02 0.  0.
         13    1    3    3    0    0  0.55033844259E+01 -0.36196897168E+02  0.85528304853E+03  0.85606635006E+03  0.00000000000E+00 0. -1.
        -13    1    3    3    0    0 -0.27652805618E+02  0.32532184638E+02  0.30502848677E+03  0.30800227018E+03  0.00000000000E+00 0.  1.
         22    1    1    2    0    0  0.22149421192E+02  0.36647125301E+01  0.12228418325E+03  0.12432798740E+03  0.00000000000E+00 0.  1.
<mgrwt>
<rscale>  0 0.65424594E+02</rscale>
<asrwt>0</asrwt>
<pdfrwt beam="1">  1        2 0.19776819E+00 0.93449953E+02</pdfrwt>
<pdfrwt beam="2">  1       -2 0.44622326E-03 0.93449953E+02</pdfrwt>
<totfact> 0.10932100E+05</totfact>
</mgrwt>
</event>
<event>
 6    1  0.2852411E-002  0.9314088E+02  0.7546771E-02  0.1399688E+00
          1   -1    0    0  501    0  0.00000000000E+00  0.00000000000E+00  0.36111612252E+02  0.36111612252E+02  0.00000000000E+00 0. -1.
         -1   -1    0    0    0  501 -0.00000000000E+00 -0.00000000000E+00 -0.85071162610E+02  0.85071162610E+02  0.00000000000E+00 0.  1.
         23    2    1    2    0    0 -0.78510593097E+01  0.13450039632E+02 -0.32819038505E+02  0.98753802053E+02  0.91829632653E+02 0.  0.
         13    1    3    3    0    0 -0.66523966295E+01 -0.27035762260E+02 -0.48006858560E+02  0.55496353850E+02  0.00000000000E+00 0.  1.
        -13    1    3    3    0    0 -0.11986626802E+01  0.40485801891E+02  0.15187820055E+02  0.43257448203E+02  0.00000000000E+00 0. -1.
         22    1    1    2    0    0  0.78510593097E+01 -0.13450039632E+02 -0.16140511853E+02  0.22428972808E+02  0.00000000000E+00 0. -1.
<mgrwt>
<rscale>  0 0.59559877E+02</rscale>
<asrwt>0</asrwt>
<pdfrwt beam="1">  1        1 0.55556326E-02 0.93140883E+02</pdfrwt>
<pdfrwt beam="2">  1       -1 0.13087871E-01 0.93140883E+02</pdfrwt>
<totfact> 0.49488297E+04</totfact>
</mgrwt>
</event>
<event>
 6    1  0.2852411E-002  0.9223340E+02  0.7546771E-02  0.1406513E+00
          2   -1    0    0  501    0  0.00000000000E+00  0.00000000000E+00  0.11193442747E+03  0.11193442747E+03  0.00000000000E+00 0. -1.
         -2   -1    0    0    0  501 -0.00000000000E+00 -0.00000000000E+00 -0.27894395560E+02  0.27894395560E+02  0.00000000000E+00 0.  1.
         23    2    1    2    0    0 -0.79977127349E+01  0.11977287893E+02  0.84956303616E+02  0.12539766272E+03  0.91102038706E+02 0.  0.
         13    1    3    3    0    0  0.25108728377E+02  0.30900691727E+02  0.96220412822E+01  0.40961990532E+02  0.00000000000E+00 0.  1.
        -13    1    3    3    0    0 -0.33106441112E+02 -0.18923403834E+02  0.75334262334E+02  0.84435672184E+02  0.00000000000E+00 0. -1.
         22    1    1    2    0    0  0.79977127349E+01 -0.11977287893E+02 -0.91627170208E+00  0.14431160317E+02  0.00000000000E+00 0.  1.
<mgrwt>
<rscale>  0 0.57979196E+02</rscale>
<asrwt>0</asrwt>
<pdfrwt beam="1">  1        2 0.17220681E-01 0.92233401E+02</pdfrwt>
<pdfrwt beam="2">  1       -2 0.42914455E-02 0.92233401E+02</pdfrwt>
<totfact> 0.70154223E+04</totfact>
</mgrwt>
</event>
<event>
 6    1  0.2852411E-002  0.9586051E+02  0.7546771E-02  0.1345498E+00
          2   -1    0    0  501    0  0.00000000000E+00  0.00000000000E+00  0.14838729701E+03  0.14838729701E+03  0.00000000000E+00 0. -1.
         -2   -1    0    0    0  501 -0.00000000000E+00 -0.00000000000E+00 -0.37835646974E+02  0.37835646974E+02  0.00000000000E+00 0.  1.
         23    2    1    2    0    0 -0.24312071503E+02 -0.25077591277E+02  0.11641796825E+03  0.15080577168E+03  0.89270796082E+02 0.  0.
         13    1    3    3    0    0  0.99645380446E+00  0.28796417482E+02  0.68765696377E+02  0.74558350158E+02  0.00000000000E+00 0. -1.
        -13    1    3    3    0    0 -0.25308525308E+02 -0.53874008759E+02  0.47652271877E+02  0.76247421518E+02  0.00000000000E+00 0.  1.
         22    1    1    2    0    0  0.24312071503E+02  0.25077591277E+02 -0.58663182163E+01  0.35417172310E+02  0.00000000000E+00 0.  1.
<mgrwt>
<rscale>  0 0.74477160E+02</rscale>
<asrwt>0</asrwt>
<pdfrwt beam="1">  1        2 0.22828815E-01 0.95860510E+02</pdfrwt>
<pdfrwt beam="2">  1       -2 0.58208688E-02 0.95860510E+02</pdfrwt>
<totfact> 0.32683436E+04</totfact>
</mgrwt>
</event>
<event>
 6    1  0.2852411E-002  0.8863988E+02  0.7546771E-02  0.1404330E+00
          3   -1    0    0  501    0  0.00000000000E+00  0.00000000000E+00  0.23385621383E+02  0.23385621383E+02  0.00000000000E+00 0. -1.
         -3   -1    0    0    0  501 -0.00000000000E+00 -0.00000000000E+00 -0.17902012611E+03  0.17902012611E+03  0.00000000000E+00 0.  1.
         23    2    1    2    0    0 -0.12524907103E+02  0.11184514761E+02 -0.64212541014E+02  0.10945445854E+03  0.87034828678E+02 0.  0.
         11    1    3    3    0    0  0.20313734268E+02  0.37091286834E+02 -0.15007153192E+02  0.44873444328E+02  0.00000000000E+00 0.  1.
        -11    1    3    3    0    0 -0.32838641371E+02 -0.25906772073E+02 -0.49205387822E+02  0.64581014215E+02  0.00000000000E+00 0. -1.
         22    1    1    2    0    0  0.12524907103E+02 -0.11184514761E+02 -0.91421963709E+02  0.92951288946E+02  0.00000000000E+00 0.  1.
<mgrwt>
<rscale>  0 0.58478549E+02</rscale>
<asrwt>0</asrwt>
<pdfrwt beam="1">  1        3 0.35977878E-02 0.88639879E+02</pdfrwt>
<pdfrwt beam="2">  1       -3 0.27541559E-01 0.88639879E+02</pdfrwt>
<totfact> 0.99124431E+03</totfact>
</mgrwt>
</event>
<event>
 6    1  0.2852411E-002  0.8664988E+02  0.7546771E-02  0.1406732E+00
          2   -1    0    0  501    0  0.00000000000E+00  0.00000000000E+00  0.65961670094E+03  0.65961670094E+03  0.00000000000E+00 0.  1.
         -2   -1    0    0    0  501 -0.00000000000E+00 -0.00000000000E+00 -0.43083063492E+01  0.43083063492E+01  0.00000000000E+00 0. -1.
         23    2    1    2    0    0 -0.16159937937E+02 -0.62038156843E+01  0.59139019133E+03  0.59770440905E+03  0.84903305426E+02 0.  0.
         13    1    3    3    0    0  0.23605818116E+02 -0.28295038994E+02  0.36030083880E+03  0.36218025667E+03  0.00000000000E+00 0.  1.
        -13    1    3    3    0    0 -0.39765756053E+02  0.22091223310E+02  0.23108935253E+03  0.23552415238E+03  0.00000000000E+00 0. -1.
         22    1    1    2    0    0  0.16159937937E+02  0.62038156843E+01  0.63918203258E+02  0.66220598237E+02  0.00000000000E+00 0.  1.
<mgrwt>
<rscale>  0 0.57929438E+02</rscale>
<asrwt>0</asrwt>
<pdfrwt beam="1">  1        2 0.10147941E+00 0.86649883E+02</pdfrwt>
<pdfrwt beam="2">  1       -2 0.66281688E-03 0.86649883E+02</pdfrwt>
<totfact> 0.14948882E+05</totfact>
</mgrwt>
</event>
<event>
 6    1  0.2852411E-002  0.8843450E+02  0.7546771E-02  0.1422523E+00
         -2   -1    0    0    0  501 -0.00000000000E+00  0.00000000000E+00  0.70109792645E+01  0.70109792645E+01  0.00000000000E+00 0.  1.
          2   -1    0    0  501    0  0.00000000000E+00 -0.00000000000E+00 -0.61279294923E+03  0.61279294923E+03  0.00000000000E+00 0. -1.
         23    2    1    2    0    0 -0.70935805101E+01  0.10591358497E+02 -0.59875006037E+03  0.60524564865E+03  0.87510940266E+02 0.  0.
         11    1    3    3    0    0  0.25013212659E+02 -0.27914189627E+02 -0.21629394998E+03  0.21951750634E+03  0.00000000000E+00 0. -1.
        -11    1    3    3    0    0 -0.32106793170E+02  0.38505548124E+02 -0.38245611039E+03  0.38572814232E+03  0.00000000000E+00 0.  1.
         22    1    1    2    0    0  0.70935805101E+01 -0.10591358497E+02 -0.70319095961E+01  0.14558279838E+02  0.00000000000E+00 0.  1.
<mgrwt>
<rscale>  0 0.54490594E+02</rscale>
<asrwt>0</asrwt>
<pdfrwt beam="1">  1        2 0.94275813E-01 0.88434498E+02</pdfrwt>
<pdfrwt beam="2">  1       -2 0.10786125E-02 0.88434498E+02</pdfrwt>
<totfact> 0.82018813E+04</totfact>
</mgrwt>
</event>
<event>
 6    1  0.2852411E-002  0.1102581E+03  0.7546771E-02  0.1290842E+00
         -2   -1    0    0    0  501 -0.00000000000E+00  0.00000000000E+00  0.57190077219E+01  0.57190077219E+01  0.00000000000E+00 0.  1.
          2   -1    0    0  501    0  0.00000000000E+00 -0.00000000000E+00 -0.30277893569E+04  0.30277893569E+04  0.00000000000E+00 0. -1.
         23    2    1    2    0    0 -0.41190441916E+02 -0.45192598009E+02 -0.28254207924E+04  0.28275713073E+04  0.91748678443E+02 0.  0.
         13    1    3    3    0    0  0.22712928950E+02 -0.96397495985E+01 -0.27565590133E+03  0.27675797703E+03  0.00000000000E+00 0.  1.
        -13    1    3    3    0    0 -0.63903370866E+02 -0.35552848411E+02 -0.25497648911E+04  0.25508133302E+04  0.00000000000E+00 0. -1.
         22    1    1    2    0    0  0.41190441916E+02  0.45192598009E+02 -0.19664955673E+03  0.20593705733E+03  0.00000000000E+00 0.  1.
<mgrwt>
<rscale>  0 0.95148639E+02</rscale>
<asrwt>0</asrwt>
<pdfrwt beam="1">  1        2 0.46581299E+00 0.11025808E+03</pdfrwt>
<pdfrwt beam="2">  1       -2 0.87984877E-03 0.11025808E+03</pdfrwt>
<totfact> 0.51888781E+03</totfact>
</mgrwt>
</event>
<event>
 6    1  0.2852411E-002  0.1227748E+03  0.7546771E-02  0.1259390E+00
         -2   -1    0    0    0  501 -0.00000000000E+00  0.00000000000E+00  0.12302867116E+02  0.12302867116E+02  0.00000000000E+00 0.  1.
          2   -1    0    0  501    0  0.00000000000E+00 -0.00000000000E+00 -0.14363461375E+04  0.14363461375E+04  0.00000000000E+00 0. -1.
         23    2    1    2    0    0 -0.39442969416E+02  0.70712168995E+02 -0.12573649611E+04  0.12633448831E+04  0.92291329322E+02 0.  0.
         11    1    3    3    0    0 -0.12833654177E+02  0.47327841110E+02 -0.22101281053E+03  0.22638747677E+03  0.00000000000E+00 0.  1.
        -11    1    3    3    0    0 -0.26609315240E+02  0.23384327885E+02 -0.10363521506E+04  0.10369574063E+04  0.00000000000E+00 0. -1.
         22    1    1    2    0    0  0.39442969416E+02 -0.70712168995E+02 -0.16667830928E+03  0.18530412155E+03  0.00000000000E+00 0.  1.
<mgrwt>
<rscale>  0 0.11063981E+03</rscale>
<asrwt>0</asrwt>
<pdfrwt beam="1">  1        2 0.22097625E+00 0.12277479E+03</pdfrwt>
<pdfrwt beam="2">  1       -2 0.18927495E-02 0.12277479E+03</pdfrwt>
<totfact> 0.11962948E+04</totfact>
</mgrwt>
</event>
<event>
 6    1  0.2852411E-002  0.8942196E+02  0.7546771E-02  0.1433770E+00
          2   -1    0    0  501    0  0.00000000000E+00  0.00000000000E+00  0.15149839593E+04  0.15149839593E+04  0.00000000000E+00 0.  1.
         -2   -1    0    0    0  501 -0.00000000000E+00 -0.00000000000E+00 -0.25434961982E+01  0.25434961982E+01  0.00000000000E+00 0. -1.
         23    2    1    2    0    0 -0.70841438320E+01  0.76033719076E+01  0.14912227215E+04  0.14939014335E+04  0.88816053970E+02 0.  0.
         11    1    3    3    0    0 -0.43202576283E+02 -0.90522236733E+01  0.52200041874E+03  0.52386338153E+03  0.00000000000E+00 0. -1.
        -11    1    3    3    0    0  0.36118432451E+02  0.16655595581E+02  0.96922230279E+03  0.97003805196E+03  0.00000000000E+00 0.  1.
         22    1    1    2    0    0  0.70841438320E+01 -0.76033719076E+01  0.21217741585E+02  0.23626022013E+02  0.00000000000E+00 0.  1.
<mgrwt>
<rscale>  0 0.52210673E+02</rscale>
<asrwt>0</asrwt>
<pdfrwt beam="1">  1        2 0.23307373E+00 0.89421965E+02</pdfrwt>
<pdfrwt beam="2">  1       -2 0.39130832E-03 0.89421965E+02</pdfrwt>
<totfact> 0.99311281E+04</totfact>
</mgrwt>
</event>
<event>
 6    1  0.2852411E-002  0.9520508E+02  0.7546771E-02  0.1357258E+00
         -2   -1    0    0    0  501 -0.00000000000E+00  0.00000000000E+00  0.61513074093E+01  0.61513074093E+01  0.00000000000E+00 0.  1.
          2   -1    0    0  501    0  0.00000000000E+00 -0.00000000000E+00 -0.72672025698E+03  0.72672025698E+03  0.00000000000E+00 0. -1.
         23    2    1    2    0    0  0.41730755909E+01  0.28884155976E+02 -0.64270275004E+03  0.64971596292E+03  0.90621733252E+02 0.  0.
         13    1    3    3    0    0 -0.76127554672E+01  0.18092621560E+02 -0.24899997836E+02  0.31706574917E+02  0.00000000000E+00 0.  1.
        -13    1    3    3    0    0  0.11785831058E+02  0.10791534416E+02 -0.61780275220E+03  0.61800938800E+03  0.00000000000E+00 0. -1.
         22    1    1    2    0    0 -0.41730755909E+01 -0.28884155976E+02 -0.77866199526E+02  0.83155601465E+02  0.00000000000E+00 0.  1.
<mgrwt>
<rscale>  0 0.70840481E+02</rscale>
<asrwt>0</asrwt>
<pdfrwt beam="1">  1        2 0.11180312E+00 0.95205082E+02</pdfrwt>
<pdfrwt beam="2">  1       -2 0.94635495E-03 0.95205082E+02</pdfrwt>
<totfact> 0.81913051E+04</totfact>
</mgrwt>
</event>
<event>
 6    1  0.2852411E-002  0.8809031E+02  0.7546771E-02  0.1431868E+00
          4   -1    0    0  501    0  0.00000000000E+00  0.00000000000E+00  0.36454338652E+03  0.36454338652E+03  0.00000000000E+00 0. -1.
         -4   -1    0    0    0  501 -0.00000000000E+00 -0.00000000000E+00 -0.75876489781E+01  0.75876489781E+01  0.00000000000E+00 0.  1.
         23    2    1    2    0    0  0.10988401049E+02 -0.21004914193E+01  0.34358255171E+03  0.35469546493E+03  0.87377033475E+02 0.  0.
         13    1    3    3    0    0  0.20586264551E+02  0.21276061058E+02  0.31562268935E+03  0.31700811834E+03  0.00000000000E+00 0. -1.
        -13    1    3    3    0    0 -0.95978635018E+01 -0.23376552477E+02  0.27959862362E+02  0.37687346588E+02  0.00000000000E+00 0.  1.
         22    1    1    2    0    0 -0.10988401049E+02  0.21004914193E+01  0.13373185831E+02  0.17435570569E+02  0.00000000000E+00 0.  1.
<mgrwt>
<rscale>  0 0.52586954E+02</rscale>
<asrwt>0</asrwt>
<pdfrwt beam="1">  1        4 0.56083584E-01 0.88090312E+02</pdfrwt>
<pdfrwt beam="2">  1       -4 0.11673309E-02 0.88090312E+02</pdfrwt>
<totfact> 0.10247952E+04</totfact>
</mgrwt>
</event>
<event>
 6    1  0.2852411E-002  0.1155417E+03  0.7546771E-02  0.1365408E+00
         -2   -1    0    0    0  501 -0.00000000000E+00  0.00000000000E+00  0.40713065776E+01  0.40713065776E+01  0.00000000000E+00 0.  1.
          2   -1    0    0  501    0  0.00000000000E+00 -0.00000000000E+00 -0.14779054544E+04  0.14779054544E+04  0.00000000000E+00 0. -1.
         23    2    1    2    0    0 -0.13580430381E+02  0.42875184607E+01 -0.14469307920E+04  0.14515366319E+04  0.11466065583E+03 0.  0.
         11    1    3    3    0    0  0.31657607092E+02 -0.31840945184E+02 -0.32180310691E+03  0.32492043564E+03  0.00000000000E+00 0.  1.
        -11    1    3    3    0    0 -0.45238037473E+02  0.36128463645E+02 -0.11251276851E+04  0.11266161963E+04  0.00000000000E+00 0. -1.
         22    1    1    2    0    0  0.13580430381E+02 -0.42875184607E+01 -0.26903355808E+02  0.30440129067E+02  0.00000000000E+00 0. -1.
<mgrwt>
<rscale>  0 0.68460550E+02</rscale>
<asrwt>0</asrwt>
<pdfrwt beam="1">  1        2 0.22737021E+00 0.11554167E+03</pdfrwt>
<pdfrwt beam="2">  1       -2 0.62635446E-03 0.11554167E+03</pdfrwt>
<totfact> 0.55014749E+04</totfact>
</mgrwt>
</event>
<event>
 6    1  0.2852411E-002  0.9579312E+02  0.7546771E-02  0.1359118E+00
         -2   -1    0    0    0  501 -0.00000000000E+00  0.00000000000E+00  0.43192474374E+02  0.43192474374E+02  0.00000000000E+00 0.  1.
          2   -1    0    0  501    0  0.00000000000E+00 -0.00000000000E+00 -0.10640981101E+03  0.10640981101E+03  0.00000000000E+00 0. -1.
         23    2    1    2    0    0 -0.27675182733E+02  0.22406429459E+01 -0.19414509333E+02  0.97740701338E+02  0.91680888441E+02 0.  0.
         11    1    3    3    0    0 -0.69902150672E+01  0.23853726981E+02 -0.49451452550E+02  0.55347172980E+02  0.00000000000E+00 0. -1.
        -11    1    3    3    0    0 -0.20684967666E+02 -0.21613084035E+02  0.30036943217E+02  0.42393528358E+02  0.00000000000E+00 0.  1.
         22    1    1    2    0    0  0.27675182733E+02 -0.22406429459E+01 -0.43802827307E+02  0.51861584050E+02  0.00000000000E+00 0.  1.
<mgrwt>
<rscale>  0 0.70287491E+02</rscale>
<asrwt>0</asrwt>
<pdfrwt beam="1">  1        2 0.16370740E-01 0.95793118E+02</pdfrwt>
<pdfrwt beam="2">  1       -2 0.66449961E-02 0.95793118E+02</pdfrwt>
<totfact> 0.38900459E+04</totfact>
</mgrwt>
</event>
<event>
 6    1  0.2852411E-002  0.9267051E+02  0.7546771E-02  0.1414951E+00
         -1   -1    0    0    0  501 -0.00000000000E+00  0.00000000000E+00  0.47224496817E+02  0.47224496817E+02  0.00000000000E+00 0.  1.
          1   -1    0    0  501    0  0.00000000000E+00 -0.00000000000E+00 -0.13348722620E+03  0.13348722620E+03  0.00000000000E+00 0. -1.
         23    2    1    2    0    0  0.75342890334E+01  0.99103974226E+01 -0.11600124731E+03  0.14847260181E+03  0.91830510310E+02 0.  0.
         11    1    3    3    0    0 -0.14499096502E+02  0.75977524950E+01 -0.12388159299E+03  0.12495838797E+03  0.00000000000E+00 0. -1.
        -11    1    3    3    0    0  0.22033385535E+02  0.23126449276E+01  0.78803456801E+01  0.23514213845E+02  0.00000000000E+00 0.  1.
         22    1    1    2    0    0 -0.75342890334E+01 -0.99103974226E+01  0.29738517920E+02  0.32239121210E+02  0.00000000000E+00 0.  1.
<mgrwt>
<rscale>  0 0.56103655E+02</rscale>
<asrwt>0</asrwt>
<pdfrwt beam="1">  1        1 0.20536496E-01 0.92670514E+02</pdfrwt>
<pdfrwt beam="2">  1       -1 0.72653073E-02 0.92670514E+02</pdfrwt>
<totfact> 0.21862659E+04</totfact>
</mgrwt>
</event>
<event>
 6    1  0.2852411E-002  0.9983169E+02  0.7546771E-02  0.1326362E+00
          1   -1    0    0  501    0  0.00000000000E+00  0.00000000000E+00  0.22845923598E+03  0.22845923598E+03  0.00000000000E+00 0. -1.
         -1   -1    0    0    0  501 -0.00000000000E+00 -0.00000000000E+00 -0.22391982253E+02  0.22391982253E+02  0.00000000000E+00 0.  1.
         23    2    1    2    0    0 -0.40041178650E+02  0.16133605148E+02  0.14089284459E+03  0.17267646010E+03  0.90015426530E+02 0.  0.
         11    1    3    3    0    0  0.14003577366E+02 -0.65900970568E+01  0.10001355849E+03  0.10120395961E+03  0.00000000000E+00 0. -1.
        -11    1    3    3    0    0 -0.54044756017E+02  0.22723702205E+02  0.40879286102E+02  0.71472500495E+02  0.00000000000E+00 0.  1.
         22    1    1    2    0    0  0.40041178650E+02 -0.16133605148E+02  0.65174409131E+02  0.78174758128E+02  0.00000000000E+00 0. -1.
<mgrwt>
<rscale>  0 0.80955263E+02</rscale>
<asrwt>0</asrwt>
<pdfrwt beam="1">  1        1 0.35147573E-01 0.99831689E+02</pdfrwt>
<pdfrwt beam="2">  1       -1 0.34449205E-02 0.99831689E+02</pdfrwt>
<totfact> 0.33868467E+04</totfact>
</mgrwt>
</event>
<event>
 6    1  0.2852411E-002  0.9134782E+02  0.7546771E-02  0.1425343E+00
         -2   -1    0    0    0  501 -0.00000000000E+00  0.00000000000E+00  0.10634884998E+01  0.10634884998E+01  0.00000000000E+00 0.  1.
          2   -1    0    0  501    0  0.00000000000E+00 -0.00000000000E+00 -0.36169955112E+04  0.36169955112E+04  0.00000000000E+00 0. -1.
         23    2    1    2    0    0  0.67253368439E+01  0.88029637355E+01 -0.35519911192E+04  0.35531655373E+04  0.90673601562E+02 0.  0.
         11    1    3    3    0    0 -0.34185493263E+02  0.29779271768E+02 -0.17139301956E+04  0.17145297222E+04  0.00000000000E+00 0. -1.
        -11    1    3    3    0    0  0.40910830107E+02 -0.20976308032E+02 -0.18380609236E+04  0.18386358151E+04  0.00000000000E+00 0.  1.
         22    1    1    2    0    0 -0.67253368439E+01 -0.88029637355E+01 -0.63940903548E+02  0.64893462481E+02  0.00000000000E+00 0. -1.
<mgrwt>
<rscale>  0 0.53906246E+02</rscale>
<asrwt>0</asrwt>
<pdfrwt beam="1">  1        2 0.55647170E+00 0.91347821E+02</pdfrwt>
<pdfrwt beam="2">  1       -2 0.16361042E-03 0.91347821E+02</pdfrwt>
<totfact> 0.23710475E+04</totfact>
</mgrwt>
</event>
<event>
 6    1  0.2852411E-002  0.9466270E+02  0.7546771E-02  0.1370214E+00
         -2   -1    0    0    0  501 -0.00000000000E+00  0.00000000000E+00  0.66895122203E+02  0.66895122203E+02  0.00000000000E+00 0.  1.
          2   -1    0    0  501    0  0.00000000000E+00 -0.00000000000E+00 -0.71199758690E+02  0.71199758690E+02  0.00000000000E+00 0. -1.
         23    2    1    2    0    0 -0.23849194575E+02 -0.16845529698E+01 -0.33449001955E+02  0.10039851715E+03  0.91593693638E+02 0.  0.
         11    1    3    3    0    0 -0.56900130776E+02  0.87719709438E+01 -0.97142563497E+01  0.58386121065E+02  0.00000000000E+00 0. -1.
        -11    1    3    3    0    0  0.33050936201E+02 -0.10456523914E+02 -0.23734745605E+02  0.42012396088E+02  0.00000000000E+00 0.  1.
         22    1    1    2    0    0  0.23849194575E+02  0.16845529698E+01  0.29144365469E+02  0.37696363740E+02  0.00000000000E+00 0.  1.
<mgrwt>
<rscale>  0 0.67107762E+02</rscale>
<asrwt>0</asrwt>
<pdfrwt beam="1">  1        2 0.10953809E-01 0.94662699E+02</pdfrwt>
<pdfrwt beam="2">  1       -2 0.10291557E-01 0.94662699E+02</pdfrwt>
<totfact> 0.31811755E+04</totfact>
</mgrwt>
</event>
<event>
 6    1  0.2852411E-002  0.9571809E+02  0.7546771E-02  0.1358866E+00
          2   -1    0    0  501    0  0.00000000000E+00  0.00000000000E+00  0.43438624580E+03  0.43438624580E+03  0.00000000000E+00 0.  1.
         -2   -1    0    0    0  501 -0.00000000000E+00 -0.00000000000E+00 -0.20154246505E+02  0.20154246505E+02  0.00000000000E+00 0. -1.
         23    2    1    2    0    0 -0.26108101941E+02  0.99772684695E+01  0.41567544744E+03  0.42655366655E+03  0.91546567254E+02 0.  0.
         13    1    3    3    0    0 -0.96455427212E+01  0.13483686539E+02  0.40750766105E+03  0.40784475001E+03  0.00000000000E+00 0.  1.
        -13    1    3    3    0    0 -0.16462559220E+02 -0.35064180692E+01  0.81677863863E+01  0.18708916543E+02  0.00000000000E+00 0. -1.
         22    1    1    2    0    0  0.26108101941E+02 -0.99772684695E+01 -0.14434481419E+01  0.27986825751E+02  0.00000000000E+00 0.  1.
<mgrwt>
<rscale>  0 0.70362187E+02</rscale>
<asrwt>0</asrwt>
<pdfrwt beam="1">  1        2 0.66828646E-01 0.95718091E+02</pdfrwt>
<pdfrwt beam="2">  1       -2 0.31006536E-02 0.95718091E+02</pdfrwt>
<totfact> 0.26476571E+04</totfact>
</mgrwt>
</event>
<event>
 6    1  0.2852411E-002  0.1037857E+03  0.7546771E-02  0.1315909E+00
          4   -1    0    0  501    0  0.00000000000E+00  0.00000000000E+00  0.46426311073E+02  0.46426311073E+02  0.00000000000E+00 0. -1.
         -4   -1    0    0    0  501 -0.00000000000E+00 -0.00000000000E+00 -0.13660777612E+03  0.13660777612E+03  0.00000000000E+00 0.  1.
         23    2    1    2    0    0  0.42806224078E+02 -0.17632594224E+02 -0.31848369961E+02  0.10856240680E+03  0.92888084818E+02 0.  0.
         13    1    3    3    0    0 -0.15918396695E+01 -0.27004285939E+02 -0.52229421093E+02  0.58819026176E+02  0.00000000000E+00 0.  1.
        -13    1    3    3    0    0  0.44398063748E+02  0.93716917154E+01  0.20381051132E+02  0.49743380619E+02  0.00000000000E+00 0. -1.
         22    1    1    2    0    0 -0.42806224078E+02  0.17632594224E+02 -0.58333095082E+02  0.74471680394E+02  0.00000000000E+00 0.  1.
<mgrwt>
<rscale>  0 0.84818019E+02</rscale>
<asrwt>0</asrwt>
<pdfrwt beam="1">  1        4 0.71425094E-02 0.10378573E+03</pdfrwt>
<pdfrwt beam="2">  1       -4 0.21016581E-01 0.10378573E+03</pdfrwt>
<totfact> 0.41969012E+03</totfact>
</mgrwt>
</event>
<event>
 6    1  0.2852411E-002  0.9189440E+02  0.7546771E-02  0.1422719E+00
          2   -1    0    0  501    0  0.00000000000E+00  0.00000000000E+00  0.20875941687E+03  0.20875941687E+03  0.00000000000E+00 0. -1.
         -2   -1    0    0    0  501 -0.00000000000E+00 -0.00000000000E+00 -0.13343895235E+02  0.13343895235E+02  0.00000000000E+00 0.  1.
         23    2    1    2    0    0  0.49937603542E+01 -0.10166805630E+02  0.18564715140E+03  0.20714595150E+03  0.91193633665E+02 0.  0.
         11    1    3    3    0    0 -0.17485285559E+02 -0.46202845691E+02  0.10203975395E+03  0.11336908550E+03  0.00000000000E+00 0. -1.
        -11    1    3    3    0    0  0.22479045913E+02  0.36036040061E+02  0.83607397446E+02  0.93776865997E+02  0.00000000000E+00 0.  1.
         22    1    1    2    0    0 -0.49937603542E+01  0.10166805630E+02  0.97683702353E+01  0.14957360604E+02  0.00000000000E+00 0.  1.
<mgrwt>
<rscale>  0 0.54449736E+02</rscale>
<asrwt>0</asrwt>
<pdfrwt beam="1">  1        2 0.32116831E-01 0.91894398E+02</pdfrwt>
<pdfrwt beam="2">  1       -2 0.20529071E-02 0.91894398E+02</pdfrwt>
<totfact> 0.10339509E+05</totfact>
</mgrwt>
</event>
<event>
 6    1  0.2852411E-002  0.1090479E+03  0.7546771E-02  0.1297058E+00
          2   -1    0    0  501    0  0.00000000000E+00  0.00000000000E+00  0.28194351602E+02  0.28194351602E+02  0.00000000000E+00 0.  1.
         -2   -1    0    0    0  501 -0.00000000000E+00 -0.00000000000E+00 -0.36616376877E+03  0.36616376877E+03  0.00000000000E+00 0. -1.
         23    2    1    2    0    0 -0.47536789838E+02 -0.30166000389E+02 -0.93979765985E+02  0.14395707434E+03  0.93390089793E+02 0.  0.
         13    1    3    3    0    0 -0.69783386025E+02  0.14767852659E+00 -0.72612457154E+02  0.10070904482E+03  0.00000000000E+00 0.  1.
        -13    1    3    3    0    0  0.22246596186E+02 -0.30313678916E+02 -0.21367308831E+02  0.43248029527E+02  0.00000000000E+00 0. -1.
         22    1    1    2    0    0  0.47536789838E+02  0.30166000389E+02 -0.24398965118E+03  0.25040104603E+03  0.00000000000E+00 0. -1.
<mgrwt>
<rscale>  0 0.92435929E+02</rscale>
<asrwt>0</asrwt>
<pdfrwt beam="1">  1        2 0.43375929E-02 0.10904789E+03</pdfrwt>
<pdfrwt beam="2">  1       -2 0.56332882E-01 0.10904789E+03</pdfrwt>
<totfact> 0.53223998E+03</totfact>
</mgrwt>
</event>
<event>
 6    1  0.2852411E-002  0.9283207E+02  0.7546771E-02  0.1399845E+00
          2   -1    0    0  501    0  0.00000000000E+00  0.00000000000E+00  0.14989616653E+03  0.14989616653E+03  0.00000000000E+00 0. -1.
         -2   -1    0    0    0  501 -0.00000000000E+00 -0.00000000000E+00 -0.20357458142E+02  0.20357458142E+02  0.00000000000E+00 0.  1.
         23    2    1    2    0    0  0.48878857895E+00 -0.15682989148E+02  0.12061454930E+03  0.15220270563E+03  0.91496442744E+02 0.  0.
         13    1    3    3    0    0  0.21145787332E+02  0.16127559805E+01 -0.65655578646E+01  0.22200266976E+02  0.00000000000E+00 0.  1.
        -13    1    3    3    0    0 -0.20656998753E+02 -0.17295745128E+02  0.12718010716E+03  0.13000243865E+03  0.00000000000E+00 0. -1.
         22    1    1    2    0    0 -0.48878857895E+00  0.15682989148E+02  0.89241590859E+01  0.18050919042E+02  0.00000000000E+00 0.  1.
<mgrwt>
<rscale>  0 0.59522815E+02</rscale>
<asrwt>0</asrwt>
<pdfrwt beam="1">  1        2 0.23060948E-01 0.92832075E+02</pdfrwt>
<pdfrwt beam="2">  1       -2 0.31319167E-02 0.92832075E+02</pdfrwt>
<totfact> 0.80383439E+04</totfact>
</mgrwt>
</event>
<event>
 6    1  0.2852411E-002  0.8690638E+02  0.7546771E-02  0.1434838E+00
         -2   -1    0    0    0  501 -0.00000000000E+00  0.00000000000E+00  0.32673801042E+03  0.32673801042E+03  0.00000000000E+00 0.  1.
          2   -1    0    0  501    0  0.00000000000E+00 -0.00000000000E+00 -0.75298820544E+01  0.75298820544E+01  0.00000000000E+00 0. -1.
         23    2    1    2    0    0  0.18825550009E+01 -0.10979910089E+02  0.26365679261E+03  0.27761055983E+03  0.86189420449E+02 0.  0.
         13    1    3    3    0    0 -0.11124853530E+02 -0.20744881448E+02  0.13925521185E+02  0.27350184874E+02  0.00000000000E+00 0. -1.
        -13    1    3    3    0    0  0.13007408531E+02  0.97649713597E+01  0.24973127143E+03  0.25026037495E+03  0.00000000000E+00 0.  1.
         22    1    1    2    0    0 -0.18825550009E+01  0.10979910089E+02  0.55551335753E+02  0.56657332648E+02  0.00000000000E+00 0.  1.
<mgrwt>
<rscale>  0 0.52000950E+02</rscale>
<asrwt>0</asrwt>
<pdfrwt beam="1">  1        2 0.11584436E-02 0.86906379E+02</pdfrwt>
<pdfrwt beam="2">  1       -2 0.50267375E-01 0.86906379E+02</pdfrwt>
<totfact> 0.38251682E+04</totfact>
</mgrwt>
</event>
<event>
 6    1  0.2852411E-002  0.7907636E+02  0.7546771E-02  0.1448234E+00
          2   -1    0    0  501    0  0.00000000000E+00  0.00000000000E+00  0.27388390395E+03  0.27388390395E+03  0.00000000000E+00 0. -1.
         -2   -1    0    0    0  501 -0.00000000000E+00 -0.00000000000E+00 -0.25607709987E+02  0.25607709987E+02  0.00000000000E+00 0.  1.
         23    2    1    2    0    0  0.49122501604E+01 -0.11068992243E+02  0.26629142666E+03  0.27778444001E+03  0.78143575586E+02 0.  0.
         11    1    3    3    0    0 -0.19842107453E+02 -0.15345857521E+02  0.24041409109E+03  0.24171913405E+03  0.00000000000E+00 0. -1.
        -11    1    3    3    0    0  0.24754357614E+02  0.42768652782E+01  0.25877335572E+02  0.36065305958E+02  0.00000000000E+00 0.  1.
         22    1    1    2    0    0 -0.49122501604E+01  0.11068992243E+02 -0.18015232698E+02  0.21707173931E+02  0.00000000000E+00 0.  1.
<mgrwt>
<rscale>  0 0.49467653E+02</rscale>
<asrwt>0</asrwt>
<pdfrwt beam="1">  1        2 0.42135983E-01 0.79076363E+02</pdfrwt>
<pdfrwt beam="2">  1       -2 0.39396479E-02 0.79076363E+02</pdfrwt>
<totfact> 0.29590277E+04</totfact>
</mgrwt>
</event>
<event>
 6    1  0.2852411E-002  0.9476809E+02  0.7546771E-02  0.1366278E+00
         -2   -1    0    0    0  501 -0.00000000000E+00  0.00000000000E+00  0.29814717125E+03  0.29814717125E+03  0.00000000000E+00 0.  1.
          2   -1    0    0  501    0  0.00000000000E+00 -0.00000000000E+00 -0.12117963938E+02  0.12117963938E+02  0.00000000000E+00 0. -1.
         23    2    1    2    0    0  0.19342793355E+02  0.16520770612E+02  0.22388770240E+03  0.24311868220E+03  0.91290255951E+02 0.  0.
         11    1    3    3    0    0 -0.27880869582E+02 -0.20546990981E+02  0.76596769663E+02  0.84062993343E+02  0.00000000000E+00 0. -1.
        -11    1    3    3    0    0  0.47223662937E+02  0.37067761593E+02  0.14729093274E+03  0.15905568886E+03  0.00000000000E+00 0.  1.
         22    1    1    2    0    0 -0.19342793355E+02 -0.16520770612E+02  0.62141504911E+02  0.67146452989E+02  0.00000000000E+00 0. -1.
<mgrwt>
<rscale>  0 0.68212865E+02</rscale>
<asrwt>0</asrwt>
<pdfrwt beam="1">  1        2 0.18643024E-02 0.94768087E+02</pdfrwt>
<pdfrwt beam="2">  1       -2 0.45868790E-01 0.94768087E+02</pdfrwt>
<totfact> 0.24247445E+04</totfact>
</mgrwt>
</event>
<event>
 6    1  0.2852411E-002  0.9174088E+02  0.7546771E-02  0.1408059E+00
         -4   -1    0    0    0  501 -0.00000000000E+00  0.00000000000E+00  0.20647870150E+02  0.20647870150E+02  0.00000000000E+00 0.  1.
          4   -1    0    0  501    0  0.00000000000E+00 -0.00000000000E+00 -0.25192669446E+03  0.25192669446E+03  0.00000000000E+00 0. -1.
         23    2    1    2    0    0  0.72449933752E+01  0.12311494105E+02 -0.23923583834E+03  0.25622290145E+03  0.90621885127E+02 0.  0.
         11    1    3    3    0    0 -0.87593973977E+01 -0.24671817281E+02 -0.19351449714E+03  0.19527745957E+03  0.00000000000E+00 0. -1.
        -11    1    3    3    0    0  0.16004390773E+02  0.36983311386E+02 -0.45721341196E+02  0.60945441879E+02  0.00000000000E+00 0.  1.
         22    1    1    2    0    0 -0.72449933752E+01 -0.12311494105E+02  0.79570140257E+01  0.16351663167E+02  0.00000000000E+00 0. -1.
<mgrwt>
<rscale>  0 0.57629209E+02</rscale>
<asrwt>0</asrwt>
<pdfrwt beam="1">  1        4 0.38757952E-01 0.91740879E+02</pdfrwt>
<pdfrwt beam="2">  1       -4 0.31765955E-02 0.91740879E+02</pdfrwt>
<totfact> 0.47092966E+03</totfact>
</mgrwt>
</event>
<event>
 6    1  0.2852411E-002  0.9778076E+02  0.7546771E-02  0.1343203E+00
         -2   -1    0    0    0  501 -0.00000000000E+00  0.00000000000E+00  0.49282715323E+01  0.49282715323E+01  0.00000000000E+00 0. -1.
          2   -1    0    0  501    0  0.00000000000E+00 -0.00000000000E+00 -0.88872349715E+03  0.88872349715E+03  0.00000000000E+00 0.  1.
         23    2    1    2    0    0 -0.29958473936E+02 -0.16570651707E+02 -0.68175722301E+03  0.68873361147E+03  0.91591373940E+02 0.  0.
         11    1    3    3    0    0 -0.29240678927E+02 -0.39271572080E+02 -0.18231058394E+03  0.18877082056E+03  0.00000000000E+00 0. -1.
        -11    1    3    3    0    0 -0.71779500949E+00  0.22700920373E+02 -0.49944663907E+03  0.49996279091E+03  0.00000000000E+00 0.  1.
         22    1    1    2    0    0  0.29958473936E+02  0.16570651707E+02 -0.20203800261E+03  0.20491815721E+03  0.00000000000E+00 0.  1.
<mgrwt>
<rscale>  0 0.75216042E+02</rscale>
<asrwt>0</asrwt>
<pdfrwt beam="1">  1        2 0.13672663E+00 0.97780757E+02</pdfrwt>
<pdfrwt beam="2">  1       -2 0.75819596E-03 0.97780757E+02</pdfrwt>
<totfact> 0.87818608E+04</totfact>
</mgrwt>
</event>
<event>
 6    1  0.2852411E-002  0.9964253E+02  0.7546771E-02  0.1371951E+00
         -2   -1    0    0    0  501 -0.00000000000E+00  0.00000000000E+00  0.59140357918E+01  0.59140357918E+01  0.00000000000E+00 0.  1.
          2   -1    0    0  501    0  0.00000000000E+00 -0.00000000000E+00 -0.27203457561E+04  0.27203457561E+04  0.00000000000E+00 0. -1.
         23    2    1    2    0    0  0.43863824843E+01  0.19430945821E+02 -0.26995661780E+04  0.27014044835E+04  0.97631101309E+02 0.  0.
         13    1    3    3    0    0 -0.42933660111E+02 -0.90487159518E+01 -0.13358730752E+04  0.13365934504E+04  0.00000000000E+00 0. -1.
        -13    1    3    3    0    0  0.47320042595E+02  0.28479661772E+02 -0.13636931028E+04  0.13648110331E+04  0.00000000000E+00 0.  1.
         22    1    1    2    0    0 -0.43863824843E+01 -0.19430945821E+02 -0.14865542234E+02  0.24855308340E+02  0.00000000000E+00 0.  1.
<mgrwt>
<rscale>  0 0.66627773E+02</rscale>
<asrwt>0</asrwt>
<pdfrwt beam="1">  1        2 0.41851430E+00 0.99642531E+02</pdfrwt>
<pdfrwt beam="2">  1       -2 0.90985259E-03 0.99642531E+02</pdfrwt>
<totfact> 0.73494989E+03</totfact>
</mgrwt>
</event>
<event>
 6    1  0.2852411E-002  0.9150217E+02  0.7546771E-02  0.1407838E+00
         -2   -1    0    0    0  501 -0.00000000000E+00  0.00000000000E+00  0.30603905073E+02  0.30603905073E+02  0.00000000000E+00 0. -1.
          2   -1    0    0  501    0  0.00000000000E+00 -0.00000000000E+00 -0.19531515323E+03  0.19531515323E+03  0.00000000000E+00 0.  1.
         23    2    1    2    0    0 -0.12173073714E+02  0.77802932355E+01 -0.18180796573E+03  0.20353570649E+03  0.90354472638E+02 0.  0.
         13    1    3    3    0    0 -0.35159726874E+02 -0.28567740922E+02 -0.66464242933E+02  0.80435177652E+02  0.00000000000E+00 0.  1.
        -13    1    3    3    0    0  0.22986653161E+02  0.36348034158E+02 -0.11534372280E+03  0.12310052884E+03  0.00000000000E+00 0. -1.
         22    1    1    2    0    0  0.12173073714E+02 -0.77802932355E+01  0.17096717576E+02  0.22383351812E+02  0.00000000000E+00 0. -1.
<mgrwt>
<rscale>  0 0.57679063E+02</rscale>
<asrwt>0</asrwt>
<pdfrwt beam="1">  1        2 0.30048485E-01 0.91502172E+02</pdfrwt>
<pdfrwt beam="2">  1       -2 0.47082931E-02 0.91502172E+02</pdfrwt>
<totfact> 0.33091270E+04</totfact>
</mgrwt>
</event>
<event>
 6    1  0.2852411E-002  0.8691175E+02  0.7546771E-02  0.1428145E+00
          2   -1    0    0  501    0  0.00000000000E+00  0.00000000000E+00  0.10851227134E+04  0.10851227134E+04  0.00000000000E+00 0.  1.
         -2   -1    0    0    0  501 -0.00000000000E+00 -0.00000000000E+00 -0.27336552535E+01  0.27336552535E+01  0.00000000000E+00 0. -1.
         23    2    1    2    0    0  0.81458365360E+01 -0.92494952590E+01  0.10422552313E+04  0.10458726590E+04  0.86033388551E+02 0.  0.
         13    1    3    3    0    0 -0.36281295381E+02  0.10935407608E+02  0.49286363178E+03  0.49431819213E+03  0.00000000000E+00 0. -1.
        -13    1    3    3    0    0  0.44427131917E+02 -0.20184902867E+02  0.54939159948E+03  0.55155446688E+03  0.00000000000E+00 0.  1.
         22    1    1    2    0    0 -0.81458365360E+01  0.92494952590E+01  0.40133826873E+02  0.41983709637E+02  0.00000000000E+00 0. -1.
<mgrwt>
<rscale>  0 0.53334272E+02</rscale>
<asrwt>0</asrwt>
<pdfrwt beam="1">  1        2 0.16694161E+00 0.86911747E+02</pdfrwt>
<pdfrwt beam="2">  1       -2 0.42056321E-03 0.86911747E+02</pdfrwt>
<totfact> 0.15132931E+05</totfact>
</mgrwt>
</event>
<event>
 6    1  0.2852411E-002  0.9471915E+02  0.7546771E-02  0.1353920E+00
         -2   -1    0    0    0  501 -0.00000000000E+00  0.00000000000E+00  0.50086496723E+01  0.50086496723E+01  0.00000000000E+00 0.  1.
          2   -1    0    0  501    0  0.00000000000E+00 -0.00000000000E+00 -0.84323209038E+03  0.84323209038E+03  0.00000000000E+00 0. -1.
         23    2    1    2    0    0  0.23608618749E+02 -0.20637547582E+02 -0.70732469599E+03  0.71363852381E+03  0.89378083750E+02 0.  0.
         13    1    3    3    0    0  0.57708127529E+02 -0.87180498785E+01 -0.46083688581E+03  0.46451788738E+03  0.00000000000E+00 0. -1.
        -13    1    3    3    0    0 -0.34099508780E+02 -0.11919497704E+02 -0.24648781018E+03  0.24912063642E+03  0.00000000000E+00 0.  1.
         22    1    1    2    0    0 -0.23608618749E+02  0.20637547582E+02 -0.13089874472E+03  0.13460221624E+03  0.00000000000E+00 0. -1.
<mgrwt>
<rscale>  0 0.71847676E+02</rscale>
<asrwt>0</asrwt>
<pdfrwt beam="1">  1        2 0.12972806E+00 0.94719149E+02</pdfrwt>
<pdfrwt beam="2">  1       -2 0.77056123E-03 0.94719149E+02</pdfrwt>
<totfact> 0.91361282E+04</totfact>
</mgrwt>
</event>
<event>
 6    1  0.2852411E-002  0.9423817E+02  0.7546771E-02  0.1391180E+00
         -2   -1    0    0    0  501 -0.00000000000E+00  0.00000000000E+00  0.35939931784E+01  0.35939931784E+01  0.00000000000E+00 0.  1.
          2   -1    0    0  501    0  0.00000000000E+00 -0.00000000000E+00 -0.11931068810E+04  0.11931068810E+04  0.00000000000E+00 0. -1.
         23    2    1    2    0    0 -0.12765041735E+02 -0.11558448187E+02 -0.11465350246E+04  0.11504014061E+04  0.92651435809E+02 0.  0.
         13    1    3    3    0    0 -0.29307060785E+02  0.20661494232E+02 -0.94215056040E+03  0.94283268909E+03  0.00000000000E+00 0. -1.
        -13    1    3    3    0    0  0.16542019050E+02 -0.32219942418E+02 -0.20438446421E+03  0.20756871705E+03  0.00000000000E+00 0.  1.
         22    1    1    2    0    0  0.12765041735E+02  0.11558448187E+02 -0.42977863183E+02  0.46299468018E+02  0.00000000000E+00 0.  1.
<mgrwt>
<rscale>  0 0.61614266E+02</rscale>
<asrwt>0</asrwt>
<pdfrwt beam="1">  1        2 0.18355514E+00 0.94238169E+02</pdfrwt>
<pdfrwt beam="2">  1       -2 0.55292131E-03 0.94238169E+02</pdfrwt>
<totfact> 0.90838942E+04</totfact>
</mgrwt>
</event>
<event>
 6    1  0.2852411E-002  0.9173864E+02  0.7546771E-02  0.1426737E+00
         -2   -1    0    0    0  501 -0.00000000000E+00  0.00000000000E+00  0.83419174590E+01  0.83419174590E+01  0.00000000000E+00 0.  1.
          2   -1    0    0  501    0  0.00000000000E+00 -0.00000000000E+00 -0.31578891592E+03  0.31578891592E+03  0.00000000000E+00 0. -1.
         23    2    1    2    0    0  0.41458870755E+01 -0.98717719066E+01 -0.26854618349E+03  0.28378342125E+03  0.91111674599E+02 0.  0.
         11    1    3    3    0    0 -0.13100742107E+02 -0.43523025513E+02 -0.85067609539E+02  0.96448853732E+02  0.00000000000E+00 0. -1.
        -11    1    3    3    0    0  0.17246629183E+02  0.33651253606E+02 -0.18347857395E+03  0.18733456751E+03  0.00000000000E+00 0.  1.
         22    1    1    2    0    0 -0.41458870755E+01  0.98717719066E+01 -0.38900814970E+02  0.40347412129E+02  0.00000000000E+00 0. -1.
<mgrwt>
<rscale>  0 0.53620562E+02</rscale>
<asrwt>0</asrwt>
<pdfrwt beam="1">  1        2 0.48582904E-01 0.91738637E+02</pdfrwt>
<pdfrwt beam="2">  1       -2 0.12833721E-02 0.91738637E+02</pdfrwt>
<totfact> 0.13093787E+05</totfact>
</mgrwt>
</event>
<event>
 6    1  0.2852411E-002  0.8995195E+02  0.7546771E-02  0.1364863E+00
          2   -1    0    0  501    0  0.00000000000E+00  0.00000000000E+00  0.79613674909E+02  0.79613674909E+02  0.00000000000E+00 0. -1.
         -2   -1    0    0    0  501 -0.00000000000E+00 -0.00000000000E+00 -0.53501645622E+02  0.53501645622E+02  0.00000000000E+00 0.  1.
         23    2    1    2    0    0  0.19907158881E+02  0.23049201666E+02  0.41418388773E+02  0.99029468439E+02  0.84639187252E+02 0.  0.
         11    1    3    3    0    0  0.33351008157E+02  0.47805119933E+02  0.40247869072E+02  0.70834385730E+02  0.00000000000E+00 0. -1.
        -11    1    3    3    0    0 -0.13443849276E+02 -0.24755918267E+02  0.11705197009E+01  0.28195082709E+02  0.00000000000E+00 0.  1.
         22    1    1    2    0    0 -0.19907158881E+02 -0.23049201666E+02 -0.15306359486E+02  0.34085852092E+02  0.00000000000E+00 0.  1.
<mgrwt>
<rscale>  0 0.68616050E+02</rscale>
<asrwt>0</asrwt>
<pdfrwt beam="1">  1        2 0.12248258E-01 0.89951947E+02</pdfrwt>
<pdfrwt beam="2">  1       -2 0.82310224E-02 0.89951947E+02</pdfrwt>
<totfact> 0.39069753E+04</totfact>
</mgrwt>
</event>
<event>
 6    1  0.2852411E-002  0.8591889E+02  0.7546771E-02  0.1417043E+00
          2   -1    0    0  501    0  0.00000000000E+00  0.00000000000E+00  0.51094380008E+03  0.51094380008E+03  0.00000000000E+00 0. -1.
         -2   -1    0    0    0  501 -0.00000000000E+00 -0.00000000000E+00 -0.53616836815E+01  0.53616836815E+01  0.00000000000E+00 0.  1.
         23    2    1    2    0    0 -0.14282027447E+02  0.49730723074E+01  0.46751375918E+03  0.47534321359E+03  0.84577467026E+02 0.  0.
         13    1    3    3    0    0  0.25644686126E+02 -0.18483833396E+02  0.98826899952E+02  0.10375961728E+03  0.00000000000E+00 0.  1.
        -13    1    3    3    0    0 -0.39926713572E+02  0.23456905704E+02  0.36868685922E+03  0.37158359631E+03  0.00000000000E+00 0. -1.
         22    1    1    2    0    0  0.14282027447E+02 -0.49730723074E+01  0.38068357219E+02  0.40962270170E+02  0.00000000000E+00 0.  1.
<mgrwt>
<rscale>  0 0.55651466E+02</rscale>
<asrwt>0</asrwt>
<pdfrwt beam="1">  1        2 0.78606700E-01 0.85918890E+02</pdfrwt>
<pdfrwt beam="2">  1       -2 0.82487482E-03 0.85918890E+02</pdfrwt>
<totfact> 0.14571069E+05</totfact>
</mgrwt>
</event>
<event>
 6    1  0.2852411E-002  0.9088212E+02  0.7546771E-02  0.1427651E+00
          2   -1    0    0  501    0  0.00000000000E+00  0.00000000000E+00  0.44656535837E+03  0.44656535837E+03  0.00000000000E+00 0. -1.
         -2   -1    0    0    0  501 -0.00000000000E+00 -0.00000000000E+00 -0.62215886670E+01  0.62215886670E+01  0.00000000000E+00 0.  1.
         23    2    1    2    0    0  0.63215609679E+01  0.88311577957E+01  0.42005642127E+03  0.42977547191E+03  0.90230857941E+02 0.  0.
         13    1    3    3    0    0 -0.26160332594E+01 -0.10873711272E+02  0.40035972091E+03  0.40051590150E+03  0.00000000000E+00 0. -1.
        -13    1    3    3    0    0  0.89375942273E+01  0.19704869068E+02  0.19696700359E+02  0.29259570410E+02  0.00000000000E+00 0.  1.
         22    1    1    2    0    0 -0.63215609679E+01 -0.88311577957E+01  0.20287348441E+02  0.23011475134E+02  0.00000000000E+00 0. -1.
<mgrwt>
<rscale>  0 0.53434500E+02</rscale>
<asrwt>0</asrwt>
<pdfrwt beam="1">  1        2 0.68702338E-01 0.90882117E+02</pdfrwt>
<pdfrwt beam="2">  1       -2 0.95716784E-03 0.90882117E+02</pdfrwt>
<totfact> 0.13767600E+05</totfact>
</mgrwt>
</event>
<event>
 6    1  0.2852411E-002  0.8956075E+02  0.7546771E-02  0.1396112E+00
         -2   -1    0    0    0  501 -0.00000000000E+00  0.00000000000E+00  0.94543612892E+02  0.94543612892E+02  0.00000000000E+00 0.  1.
          2   -1    0    0  501    0  0.00000000000E+00 -0.00000000000E+00 -0.31694157965E+02  0.31694157965E+02  0.00000000000E+00 0. -1.
         23    2    1    2    0    0  0.17528697301E+02 -0.60420047995E+01  0.43953931646E+02  0.99765108522E+02  0.87620589591E+02 0.  0.
         11    1    3    3    0    0  0.31813226395E+01 -0.44850381118E+02  0.36074690779E+02  0.57645995654E+02  0.00000000000E+00 0.  1.
        -11    1    3    3    0    0  0.14347374661E+02  0.38808376318E+02  0.78792408666E+01  0.42119112868E+02  0.00000000000E+00 0. -1.
         22    1    1    2    0    0 -0.17528697301E+02  0.60420047995E+01  0.18895523281E+02  0.26472662335E+02  0.00000000000E+00 0. -1.
<mgrwt>
<rscale>  0 0.60411607E+02</rscale>
<asrwt>0</asrwt>
<pdfrwt beam="1">  1        2 0.48760243E-02 0.89560755E+02</pdfrwt>
<pdfrwt beam="2">  1       -2 0.14545171E-01 0.89560755E+02</pdfrwt>
<totfact> 0.50168386E+04</totfact>
</mgrwt>
</event>
<event>
 6    1  0.2852411E-002  0.9408872E+02  0.7546771E-02  0.1387287E+00
         -2   -1    0    0    0  501 -0.00000000000E+00  0.00000000000E+00  0.11247270757E+02  0.11247270757E+02  0.00000000000E+00 0. -1.
          2   -1    0    0  501    0  0.00000000000E+00 -0.00000000000E+00 -0.55144681405E+03  0.55144681405E+03  0.00000000000E+00 0.  1.
         23    2    1    2    0    0  0.14919578211E+02 -0.10804324436E+02 -0.53547318247E+03  0.54367657374E+03  0.92267873324E+02 0.  0.
         13    1    3    3    0    0  0.72207456584E+01 -0.10437109440E+02 -0.58113440345E+01  0.13958658274E+02  0.00000000000E+00 0. -1.
        -13    1    3    3    0    0  0.76988325526E+01 -0.36721499573E+00 -0.52966183844E+03  0.52971791547E+03  0.00000000000E+00 0.  1.
         22    1    1    2    0    0 -0.14919578211E+02  0.10804324436E+02 -0.47263608193E+01  0.19017511065E+02  0.00000000000E+00 0. -1.
<mgrwt>
<rscale>  0 0.62586479E+02</rscale>
<asrwt>0</asrwt>
<pdfrwt beam="1">  1        2 0.84837981E-01 0.94088722E+02</pdfrwt>
<pdfrwt beam="2">  1       -2 0.17303491E-02 0.94088722E+02</pdfrwt>
<totfact> 0.47420691E+04</totfact>
</mgrwt>
</event>
<event>
 6    1  0.2852411E-002  0.9128675E+02  0.7546771E-02  0.1380305E+00
         -2   -1    0    0    0  501 -0.00000000000E+00  0.00000000000E+00  0.19349846481E+02  0.19349846481E+02  0.00000000000E+00 0. -1.
          2   -1    0    0  501    0  0.00000000000E+00 -0.00000000000E+00 -0.19554722262E+03  0.19554722262E+03  0.00000000000E+00 0.  1.
         23    2    1    2    0    0 -0.11315330128E+02  0.19549478844E+02 -0.16736845647E+03  0.19064488071E+03  0.88448015820E+02 0.  0.
         13    1    3    3    0    0 -0.32827349778E+01 -0.33004987228E+01  0.10315766763E+02  0.11317450449E+02  0.00000000000E+00 0. -1.
        -13    1    3    3    0    0 -0.80325951497E+01  0.22849977566E+02 -0.17768422323E+03  0.17932743026E+03  0.00000000000E+00 0.  1.
         22    1    1    2    0    0  0.11315330128E+02 -0.19549478844E+02 -0.88289196673E+01  0.24252188385E+02  0.00000000000E+00 0. -1.
<mgrwt>
<rscale>  0 0.64383615E+02</rscale>
<asrwt>0</asrwt>
<pdfrwt beam="1">  1        2 0.30084189E-01 0.91286748E+02</pdfrwt>
<pdfrwt beam="2">  1       -2 0.29768993E-02 0.91286748E+02</pdfrwt>
<totfact> 0.64726102E+04</totfact>
</mgrwt>
</event>
<event>
 6    1  0.2852411E-002  0.9116315E+02  0.7546771E-02  0.1328570E+00
         -2   -1    0    0    0  501 -0.00000000000E+00  0.00000000000E+00  0.42389332994E+01  0.42389332994E+01  0.00000000000E+00 0.  1.
          2   -1    0    0  501    0  0.00000000000E+00 -0.00000000000E+00 -0.15705450678E+04  0.15705450678E+04  0.00000000000E+00 0. -1.
         23    2    1    2    0    0  0.47255565146E+02 -0.27198209652E+02 -0.12858168092E+04  0.12890444472E+04  0.73060858417E+02 0.  0.
         11    1    3    3    0    0 -0.96497070103E+01 -0.10014725794E+02 -0.52964843649E+02  0.54760261512E+02  0.00000000000E+00 0. -1.
        -11    1    3    3    0    0  0.56905272156E+02 -0.17183483858E+02 -0.12328519655E+04  0.12342841857E+04  0.00000000000E+00 0.  1.
         22    1    1    2    0    0 -0.47255565146E+02  0.27198209652E+02 -0.28048932529E+03  0.28573955387E+03  0.00000000000E+00 0. -1.
<mgrwt>
<rscale>  0 0.80169795E+02</rscale>
<asrwt>0</asrwt>
<pdfrwt beam="1">  1        2 0.24162225E+00 0.91163151E+02</pdfrwt>
<pdfrwt beam="2">  1       -2 0.65214377E-03 0.91163151E+02</pdfrwt>
<totfact> 0.45582059E+04</totfact>
</mgrwt>
</event>
<event>
 6    1  0.2852411E-002  0.9270739E+02  0.7546771E-02  0.1372561E+00
         -2   -1    0    0    0  501 -0.00000000000E+00  0.00000000000E+00  0.48607989023E+02  0.48607989023E+02  0.00000000000E+00 0.  1.
          2   -1    0    0  501    0  0.00000000000E+00 -0.00000000000E+00 -0.83238940310E+02  0.83238940310E+02  0.00000000000E+00 0. -1.
         23    2    1    2    0    0  0.24398740763E+02  0.20574508884E+01 -0.47519518895E+02  0.10417660534E+03  0.89415483943E+02 0.  0.
         13    1    3    3    0    0 -0.62254864002E+01  0.29341555291E+02  0.11653173481E+02  0.32178875058E+02  0.00000000000E+00 0.  1.
        -13    1    3    3    0    0  0.30624227164E+02 -0.27284104403E+02 -0.59172692376E+02  0.71997730280E+02  0.00000000000E+00 0. -1.
         22    1    1    2    0    0 -0.24398740763E+02 -0.20574508884E+01  0.12888567608E+02  0.27670323995E+02  0.00000000000E+00 0.  1.
<mgrwt>
<rscale>  0 0.66460298E+02</rscale>
<asrwt>0</asrwt>
<pdfrwt beam="1">  1        2 0.12805991E-01 0.92707391E+02</pdfrwt>
<pdfrwt beam="2">  1       -2 0.74781522E-02 0.92707391E+02</pdfrwt>
<totfact> 0.43083202E+04</totfact>
</mgrwt>
</event>
<event>
 6    1  0.2852411E-002  0.9408908E+02  0.7546771E-02  0.1386805E+00
         -2   -1    0    0    0  501 -0.00000000000E+00  0.00000000000E+00  0.43398275821E+03  0.43398275821E+03  0.00000000000E+00 0.  1.
          2   -1    0    0  501    0  0.00000000000E+00 -0.00000000000E+00 -0.74120545568E+01  0.74120545568E+01  0.00000000000E+00 0. -1.
         23    2    1    2    0    0 -0.68200014194E+01 -0.17266482176E+02  0.33506221407E+03  0.34802218566E+03  0.92239419943E+02 0.  0.
         11    1    3    3    0    0  0.35514502725E+02 -0.13941483594E+02  0.71325289247E+02  0.80888452543E+02  0.00000000000E+00 0. -1.
        -11    1    3    3    0    0 -0.42334504144E+02 -0.33249985822E+01  0.26373692482E+03  0.26713373312E+03  0.00000000000E+00 0.  1.
         22    1    1    2    0    0  0.68200014194E+01  0.17266482176E+02  0.91508489581E+02  0.93372627099E+02  0.00000000000E+00 0. -1.
<mgrwt>
<rscale>  0 0.62708400E+02</rscale>
<asrwt>0</asrwt>
<pdfrwt beam="1">  1        2 0.11403164E-02 0.94089077E+02</pdfrwt>
<pdfrwt beam="2">  1       -2 0.66766558E-01 0.94089077E+02</pdfrwt>
<totfact> 0.22268685E+04</totfact>
</mgrwt>
</event>
<event>
 6    1  0.2852411E-002  0.9859405E+02  0.7546771E-02  0.1331753E+00
          2   -1    0    0  501    0  0.00000000000E+00  0.00000000000E+00  0.22838071371E+02  0.22838071371E+02  0.00000000000E+00 0.  1.
         -2   -1    0    0    0  501 -0.00000000000E+00 -0.00000000000E+00 -0.25380649252E+03  0.25380649252E+03  0.00000000000E+00 0. -1.
         23    2    1    2    0    0  0.18521769382E+01 -0.40712838974E+02 -0.10404866225E+03  0.14334193445E+03  0.89776501599E+02 0.  0.
         11    1    3    3    0    0 -0.23740441000E+01 -0.30308586104E+02 -0.12002405074E+03  0.12381445486E+03  0.00000000000E+00 0. -1.
        -11    1    3    3    0    0  0.42262210381E+01 -0.10404252870E+02  0.15975388484E+02  0.19527479593E+02  0.00000000000E+00 0.  1.
         22    1    1    2    0    0 -0.18521769382E+01  0.40712838974E+02 -0.12691975889E+03  0.13330262944E+03  0.00000000000E+00 0.  1.
<mgrwt>
<rscale>  0 0.79055685E+02</rscale>
<asrwt>0</asrwt>
<pdfrwt beam="1">  1        2 0.35135494E-02 0.98594047E+02</pdfrwt>
<pdfrwt beam="2">  1       -2 0.39047153E-01 0.98594047E+02</pdfrwt>
<totfact> 0.14165412E+04</totfact>
</mgrwt>
</event>
<event>
 6    1  0.2852411E-002  0.9136851E+02  0.7546771E-02  0.1408854E+00
         -2   -1    0    0    0  501 -0.00000000000E+00  0.00000000000E+00  0.13536415750E+03  0.13536415750E+03  0.00000000000E+00 0. -1.
          2   -1    0    0  501    0  0.00000000000E+00 -0.00000000000E+00 -0.21630001525E+02  0.21630001525E+02  0.00000000000E+00 0.  1.
         23    2    1    2    0    0 -0.13874492555E+02 -0.33860942056E+01  0.10834846764E+03  0.14173071196E+03  0.90245427003E+02 0.  0.
         11    1    3    3    0    0  0.68880055785E+00 -0.34094849154E+02  0.69699388487E+01  0.34806798655E+02  0.00000000000E+00 0.  1.
        -11    1    3    3    0    0 -0.14563293113E+02  0.30708754948E+02  0.10137852879E+03  0.10692391330E+03  0.00000000000E+00 0. -1.
         22    1    1    2    0    0  0.13874492555E+02  0.33860942056E+01  0.53856883436E+01  0.15263447074E+02  0.00000000000E+00 0. -1.
<mgrwt>
<rscale>  0 0.57450318E+02</rscale>
<asrwt>0</asrwt>
<pdfrwt beam="1">  1        2 0.33276926E-02 0.91368508E+02</pdfrwt>
<pdfrwt beam="2">  1       -2 0.20825255E-01 0.91368508E+02</pdfrwt>
<totfact> 0.45908807E+04</totfact>
</mgrwt>
</event>
<event>
 6    1  0.2852411E-002  0.9140585E+02  0.7546771E-02  0.1418497E+00
          2   -1    0    0  501    0  0.00000000000E+00  0.00000000000E+00  0.85529637781E+02  0.85529637781E+02  0.00000000000E+00 0. -1.
         -2   -1    0    0    0  501 -0.00000000000E+00 -0.00000000000E+00 -0.33214701393E+02  0.33214701393E+02  0.00000000000E+00 0.  1.
         23    2    1    2    0    0  0.12098562809E+02 -0.21099530860E+01  0.54278732629E+02  0.10630715220E+03  0.90577053771E+02 0.  0.
         13    1    3    3    0    0 -0.12224656486E+02  0.49059753281E+01 -0.22163432741E+02  0.25782330597E+02  0.00000000000E+00 0.  1.
        -13    1    3    3    0    0  0.24323219294E+02 -0.70159284141E+01  0.76442165370E+02  0.80524821607E+02  0.00000000000E+00 0. -1.
         22    1    1    2    0    0 -0.12098562809E+02  0.21099530860E+01 -0.19637962416E+01  0.12437186970E+02  0.00000000000E+00 0. -1.
<mgrwt>
<rscale>  0 0.55340163E+02</rscale>
<asrwt>0</asrwt>
<pdfrwt beam="1">  1        2 0.13158406E-01 0.91405852E+02</pdfrwt>
<pdfrwt beam="2">  1       -2 0.51099541E-02 0.91405852E+02</pdfrwt>
<totfact> 0.73839615E+04</totfact>
</mgrwt>
</event>
<event>
 6    1  0.2852411E-002  0.9196275E+02  0.7546771E-02  0.1360482E+00
         -2   -1    0    0    0  501 -0.00000000000E+00  0.00000000000E+00  0.48434789537E+02  0.48434789537E+02  0.00000000000E+00 0.  1.
          2   -1    0    0  501    0  0.00000000000E+00 -0.00000000000E+00 -0.77651681446E+02  0.77651681446E+02  0.00000000000E+00 0. -1.
         23    2    1    2    0    0 -0.15010395191E+02 -0.26746309082E+02 -0.20885452107E+02  0.94304559422E+02  0.86697582462E+02 0.  0.
         11    1    3    3    0    0  0.11638929736E+01 -0.13139016806E+02  0.33474648265E+02  0.35979723261E+02  0.00000000000E+00 0.  1.
        -11    1    3    3    0    0 -0.16174288165E+02 -0.13607292276E+02 -0.54360100372E+02  0.58324836161E+02  0.00000000000E+00 0. -1.
         22    1    1    2    0    0  0.15010395191E+02  0.26746309082E+02 -0.83314398022E+01  0.31781911562E+02  0.00000000000E+00 0. -1.
<mgrwt>
<rscale>  0 0.69885815E+02</rscale>
<asrwt>0</asrwt>
<pdfrwt beam="1">  1        2 0.11946413E-01 0.91962752E+02</pdfrwt>
<pdfrwt beam="2">  1       -2 0.74515061E-02 0.91962752E+02</pdfrwt>
<totfact> 0.46981905E+04</totfact>
</mgrwt>
</event>
<event>
 6    1  0.2852411E-002  0.9328224E+02  0.7546771E-02  0.1374605E+00
          4   -1    0    0  501    0  0.00000000000E+00  0.00000000000E+00  0.22643622574E+03  0.22643622574E+03  0.00000000000E+00 0. -1.
         -4   -1    0    0    0  501 -0.00000000000E+00 -0.00000000000E+00 -0.15278760101E+02  0.15278760101E+02  0.00000000000E+00 0.  1.
         23    2    1    2    0    0  0.86788689314E+01  0.21558659320E+02  0.18118543667E+03  0.20378846375E+03  0.90340892945E+02 0.  0.
         11    1    3    3    0    0 -0.29185483404E+02  0.24341002203E+02  0.31494104006E+02  0.49357425145E+02  0.00000000000E+00 0. -1.
        -11    1    3    3    0    0  0.37864352335E+02 -0.27823428835E+01  0.14969133266E+03  0.15443103860E+03  0.00000000000E+00 0.  1.
         22    1    1    2    0    0 -0.86788689314E+01 -0.21558659320E+02  0.29972028973E+02  0.37926522096E+02  0.00000000000E+00 0. -1.
<mgrwt>
<rscale>  0 0.65903478E+02</rscale>
<asrwt>0</asrwt>
<pdfrwt beam="1">  1        4 0.34836340E-01 0.93282236E+02</pdfrwt>
<pdfrwt beam="2">  1       -4 0.23505786E-02 0.93282236E+02</pdfrwt>
<totfact> 0.92607965E+03</totfact>
</mgrwt>
</event>
<event>
 6    1  0.2852411E-002  0.9582095E+02  0.7546771E-02  0.1368377E+00
         -2   -1    0    0    0  501 -0.00000000000E+00  0.00000000000E+00  0.19290431184E+02  0.19290431184E+02  0.00000000000E+00 0. -1.
          2   -1    0    0  501    0  0.00000000000E+00 -0.00000000000E+00 -0.21587848774E+03  0.21587848774E+03  0.00000000000E+00 0.  1.
         23    2    1    2    0    0  0.23728126621E+02 -0.13194090984E+01 -0.18583528289E+03  0.20908469046E+03  0.92827208198E+02 0.  0.
         13    1    3    3    0    0 -0.58997364783E+01 -0.13004127925E+02  0.53616859564E+01  0.15253258993E+02  0.00000000000E+00 0. -1.
        -13    1    3    3    0    0  0.29627863100E+02  0.11684718827E+02 -0.19119696885E+03  0.19383143146E+03  0.00000000000E+00 0.  1.
         22    1    1    2    0    0 -0.23728126621E+02  0.13194090984E+01 -0.10752773664E+02  0.26084228469E+02  0.00000000000E+00 0. -1.
<mgrwt>
<rscale>  0 0.67620570E+02</rscale>
<asrwt>0</asrwt>
<pdfrwt beam="1">  1        2 0.33212078E-01 0.95820955E+02</pdfrwt>
<pdfrwt beam="2">  1       -2 0.29677583E-02 0.95820955E+02</pdfrwt>
<totfact> 0.58899562E+04</totfact>
</mgrwt>
</event>
<event>
 6    1  0.2852411E-002  0.9240108E+02  0.7546771E-02  0.1386750E+00
         -2   -1    0    0    0  501 -0.00000000000E+00  0.00000000000E+00  0.21705592559E+02  0.21705592559E+02  0.00000000000E+00 0.  1.
          2   -1    0    0  501    0  0.00000000000E+00 -0.00000000000E+00 -0.18265886587E+03  0.18265886587E+03  0.00000000000E+00 0. -1.
         23    2    1    2    0    0  0.84705086196E+01 -0.17695042498E+02 -0.83750371436E+02  0.12470799539E+03  0.90294492381E+02 0.  0.
         11    1    3    3    0    0 -0.20640190734E+02  0.28010426887E+02 -0.16981152073E+02  0.38716417883E+02  0.00000000000E+00 0.  1.
        -11    1    3    3    0    0  0.29110699354E+02 -0.45705469385E+02 -0.66769219362E+02  0.85991577511E+02  0.00000000000E+00 0. -1.
         22    1    1    2    0    0 -0.84705086196E+01  0.17695042498E+02 -0.77202901878E+02  0.79656463038E+02  0.00000000000E+00 0. -1.
<mgrwt>
<rscale>  0 0.62722188E+02</rscale>
<asrwt>0</asrwt>
<pdfrwt beam="1">  1        2 0.28101364E-01 0.92401079E+02</pdfrwt>
<pdfrwt beam="2">  1       -2 0.33393220E-02 0.92401079E+02</pdfrwt>
<totfact> 0.59001013E+04</totfact>
</mgrwt>
</event>
<event>
 6    1  0.2852411E-002  0.8998460E+02  0.7546771E-02  0.1430866E+00
         -2   -1    0    0    0  501 -0.00000000000E+00  0.00000000000E+00  0.71207749868E+02  0.71207749868E+02  0.00000000000E+00 0.  1.
          2   -1    0    0  501    0  0.00000000000E+00 -0.00000000000E+00 -0.38487077136E+02  0.38487077136E+02  0.00000000000E+00 0. -1.
         23    2    1    2    0    0 -0.79793212817E+01  0.70625583346E+01  0.18403248689E+02  0.91847196081E+02  0.89351432933E+02 0.  0.
         13    1    3    3    0    0 -0.96914548587E+01 -0.20958483074E+02 -0.28807941728E+02  0.36919910843E+02  0.00000000000E+00 0. -1.
        -13    1    3    3    0    0  0.17121335770E+01  0.28021041408E+02  0.47211190417E+02  0.54927285238E+02  0.00000000000E+00 0.  1.
         22    1    1    2    0    0  0.79793212817E+01 -0.70625583346E+01  0.14317424043E+02  0.17847630923E+02  0.00000000000E+00 0. -1.
<mgrwt>
<rscale>  0 0.52786661E+02</rscale>
<asrwt>0</asrwt>
<pdfrwt beam="1">  1        2 0.59210888E-02 0.89984598E+02</pdfrwt>
<pdfrwt beam="2">  1       -2 0.10955038E-01 0.89984598E+02</pdfrwt>
<totfact> 0.61396944E+04</totfact>
</mgrwt>
</event>
<event>
 6    1  0.2852411E-002  0.9062391E+02  0.7546771E-02  0.1430855E+00
          1   -1    0    0  501    0  0.00000000000E+00  0.00000000000E+00  0.11749358240E+03  0.11749358240E+03  0.00000000000E+00 0. -1.
         -1   -1    0    0    0  501 -0.00000000000E+00 -0.00000000000E+00 -0.30681691075E+02  0.30681691075E+02  0.00000000000E+00 0.  1.
         23    2    1    2    0    0  0.23256428612E+01  0.10171229160E+02  0.97587112361E+02  0.13317634333E+03  0.90021283069E+02 0.  0.
         11    1    3    3    0    0  0.24596000467E+01  0.92345916179E+01 -0.16509437356E+02  0.19075870532E+02  0.00000000000E+00 0.  1.
        -11    1    3    3    0    0 -0.13395718544E+00  0.93663754213E+00  0.11409654972E+03  0.11410047279E+03  0.00000000000E+00 0. -1.
         22    1    1    2    0    0 -0.23256428612E+01 -0.10171229160E+02 -0.10775221034E+02  0.14998930151E+02  0.00000000000E+00 0.  1.
<mgrwt>
<rscale>  0 0.52788815E+02</rscale>
<asrwt>0</asrwt>
<pdfrwt beam="1">  1        1 0.18075936E-01 0.90623915E+02</pdfrwt>
<pdfrwt beam="2">  1       -1 0.47202602E-02 0.90623915E+02</pdfrwt>
<totfact> 0.48315636E+04</totfact>
</mgrwt>
</event>
<event>
 6    1  0.2852411E-002  0.1037237E+03  0.7546771E-02  0.1308273E+00
         -1   -1    0    0    0  501 -0.00000000000E+00  0.00000000000E+00  0.74903596907E+01  0.74903596907E+01  0.00000000000E+00 0.  1.
          1   -1    0    0  501    0  0.00000000000E+00 -0.00000000000E+00 -0.10417919678E+04  0.10417919678E+04  0.00000000000E+00 0. -1.
         23    2    1    2    0    0  0.16814540453E+02 -0.50524506541E+02 -0.87914432774E+03  0.88524197823E+03  0.89012114373E+02 0.  0.
         11    1    3    3    0    0  0.39710669365E+02 -0.33986080711E+02 -0.24713584699E+03  0.25260268765E+03  0.00000000000E+00 0.  1.
        -11    1    3    3    0    0 -0.22896128912E+02 -0.16538425830E+02 -0.63200848075E+03  0.63263929058E+03  0.00000000000E+00 0. -1.
         22    1    1    2    0    0 -0.16814540453E+02  0.50524506541E+02 -0.15515728039E+03  0.16404034928E+03  0.00000000000E+00 0.  1.
<mgrwt>
<rscale>  0 0.87798362E+02</rscale>
<asrwt>0</asrwt>
<pdfrwt beam="1">  1        1 0.16027555E+00 0.10372372E+03</pdfrwt>
<pdfrwt beam="2">  1       -1 0.11523641E-02 0.10372372E+03</pdfrwt>
<totfact> 0.21272367E+04</totfact>
</mgrwt>
</event>
<event>
 6    1  0.2852411E-002  0.8684201E+02  0.7546771E-02  0.1440112E+00
          2   -1    0    0  501    0  0.00000000000E+00  0.00000000000E+00  0.28545522046E+03  0.28545522046E+03  0.00000000000E+00 0. -1.
         -2   -1    0    0    0  501 -0.00000000000E+00 -0.00000000000E+00 -0.91152292283E+01  0.91152292283E+01  0.00000000000E+00 0.  1.
         23    2    1    2    0    0  0.77995422059E+01 -0.67514345487E+01  0.26658353651E+03  0.28037174778E+03  0.86227143578E+02 0.  0.
         11    1    3    3    0    0 -0.25151346569E+02  0.27465949875E+02  0.87519833502E+02  0.95114088824E+02  0.00000000000E+00 0. -1.
        -11    1    3    3    0    0  0.32950888775E+02 -0.34217384423E+02  0.17906370301E+03  0.18525765896E+03  0.00000000000E+00 0.  1.
         22    1    1    2    0    0 -0.77995422059E+01  0.67514345487E+01  0.97564547249E+01  0.14198701908E+02  0.00000000000E+00 0. -1.
<mgrwt>
<rscale>  0 0.50982676E+02</rscale>
<asrwt>0</asrwt>
<pdfrwt beam="1">  1        2 0.43916181E-01 0.86842012E+02</pdfrwt>
<pdfrwt beam="2">  1       -2 0.14023432E-02 0.86842012E+02</pdfrwt>
<totfact> 0.12714672E+05</totfact>
</mgrwt>
</event>
<event>
 6    1  0.2852411E-002  0.9053209E+02  0.7546771E-02  0.1379290E+00
         -4   -1    0    0    0  501 -0.00000000000E+00  0.00000000000E+00  0.18943863296E+02  0.18943863296E+02  0.00000000000E+00 0.  1.
          4   -1    0    0  501    0  0.00000000000E+00 -0.00000000000E+00 -0.24515188713E+03  0.24515188713E+03  0.00000000000E+00 0. -1.
         23    2    1    2    0    0  0.17419998126E+02  0.15839457528E+02 -0.22256214181E+03  0.24027061233E+03  0.87416905868E+02 0.  0.
         13    1    3    3    0    0  0.20531103403E+02 -0.21872642147E+02 -0.18331177719E+03  0.18575022568E+03  0.00000000000E+00 0. -1.
        -13    1    3    3    0    0 -0.31111052774E+01  0.37712099675E+02 -0.39250364618E+02  0.54520386651E+02  0.00000000000E+00 0.  1.
         22    1    1    2    0    0 -0.17419998126E+02 -0.15839457528E+02 -0.36458820196E+01  0.23825138094E+02  0.00000000000E+00 0.  1.
<mgrwt>
<rscale>  0 0.64650877E+02</rscale>
<asrwt>0</asrwt>
<pdfrwt beam="1">  1        4 0.37715673E-01 0.90532095E+02</pdfrwt>
<pdfrwt beam="2">  1       -4 0.29144406E-02 0.90532095E+02</pdfrwt>
<totfact> 0.56545061E+03</totfact>
</mgrwt>
</event>
<event>
 6    1  0.2852411E-002  0.9332771E+02  0.7546771E-02  0.1391694E+00
         -2   -1    0    0    0  501 -0.00000000000E+00  0.00000000000E+00  0.50942548810E+01  0.50942548810E+01  0.00000000000E+00 0.  1.
          2   -1    0    0  501    0  0.00000000000E+00 -0.00000000000E+00 -0.60467318852E+03  0.60467318852E+03  0.00000000000E+00 0. -1.
         23    2    1    2    0    0 -0.14814439274E+02  0.94722105507E+01 -0.49519351411E+03  0.50391137983E+03  0.91656270520E+02 0.  0.
         11    1    3    3    0    0  0.14435738264E+02  0.16268040471E+02 -0.44420537974E+03  0.44473751705E+03  0.00000000000E+00 0. -1.
        -11    1    3    3    0    0 -0.29250177538E+02 -0.67958299207E+01 -0.50988134360E+02  0.59173862776E+02  0.00000000000E+00 0.  1.
         22    1    1    2    0    0  0.14814439274E+02 -0.94722105507E+01 -0.10438541953E+03  0.10585606357E+03  0.00000000000E+00 0. -1.
<mgrwt>
<rscale>  0 0.61487413E+02</rscale>
<asrwt>0</asrwt>
<pdfrwt beam="1">  1        2 0.93026594E-01 0.93327715E+02</pdfrwt>
<pdfrwt beam="2">  1       -2 0.78373195E-03 0.93327715E+02</pdfrwt>
<totfact> 0.13176297E+05</totfact>
</mgrwt>
</event>
<event>
 6    1  0.2852411E-002  0.1054512E+03  0.7546771E-02  0.1302245E+00
          1   -1    0    0  501    0  0.00000000000E+00  0.00000000000E+00  0.80958495285E+03  0.80958495285E+03  0.00000000000E+00 0. -1.
         -1   -1    0    0    0  501 -0.00000000000E+00 -0.00000000000E+00 -0.93406801466E+01  0.93406801466E+01  0.00000000000E+00 0.  1.
         23    2    1    2    0    0 -0.53782681113E+02 -0.17566140762E+02  0.64767537747E+03  0.65620374178E+03  0.88987696082E+02 0.  0.
         13    1    3    3    0    0 -0.86746587897E+01 -0.20373848935E+02  0.52501802330E+03  0.52548479352E+03  0.00000000000E+00 0. -1.
        -13    1    3    3    0    0 -0.45108022323E+02  0.28077081728E+01  0.12265735417E+03  0.13071894826E+03  0.00000000000E+00 0.  1.
         22    1    1    2    0    0  0.53782681113E+02  0.17566140762E+02  0.15256889523E+03  0.16272189122E+03  0.00000000000E+00 0.  1.
<mgrwt>
<rscale>  0 0.90250962E+02</rscale>
<asrwt>0</asrwt>
<pdfrwt beam="1">  1        1 0.12455148E+00 0.10545120E+03</pdfrwt>
<pdfrwt beam="2">  1       -1 0.14370284E-02 0.10545120E+03</pdfrwt>
<totfact> 0.23278937E+04</totfact>
</mgrwt>
</event>
<event>
 6    1  0.2852411E-002  0.9927975E+02  0.7546771E-02  0.1330991E+00
          2   -1    0    0  501    0  0.00000000000E+00  0.00000000000E+00  0.12948894932E+04  0.12948894932E+04  0.00000000000E+00 0.  1.
         -2   -1    0    0    0  501 -0.00000000000E+00 -0.00000000000E+00 -0.71217022219E+01  0.71217022219E+01  0.00000000000E+00 0. -1.
         23    2    1    2    0    0  0.12607102178E+02  0.38439429799E+02  0.12125265144E+04  0.12165841594E+04  0.90663884230E+02 0.  0.
         11    1    3    3    0    0  0.29524954751E+02  0.58050798243E+02  0.60285349030E+03  0.60636123630E+03  0.00000000000E+00 0.  1.
        -11    1    3    3    0    0 -0.16917852573E+02 -0.19611368444E+02  0.60967302414E+03  0.61022292310E+03  0.00000000000E+00 0. -1.
         22    1    1    2    0    0 -0.12607102178E+02 -0.38439429799E+02  0.75241276578E+02  0.85427036058E+02  0.00000000000E+00 0. -1.
<mgrwt>
<rscale>  0 0.79320595E+02</rscale>
<asrwt>0</asrwt>
<pdfrwt beam="1">  1        2 0.19921358E+00 0.99279750E+02</pdfrwt>
<pdfrwt beam="2">  1       -2 0.10956475E-02 0.99279750E+02</pdfrwt>
<totfact> 0.30643021E+04</totfact>
</mgrwt>
</event>
<event>
 6    1  0.2852411E-002  0.9043041E+02  0.7546771E-02  0.1421257E+00
         -2   -1    0    0    0  501 -0.00000000000E+00  0.00000000000E+00  0.30046550131E+02  0.30046550131E+02  0.00000000000E+00 0.  1.
          2   -1    0    0  501    0  0.00000000000E+00 -0.00000000000E+00 -0.20072963950E+03  0.20072963950E+03  0.00000000000E+00 0. -1.
         23    2    1    2    0    0  0.11191872156E+02 -0.47438244281E+01 -0.18858010669E+03  0.20914137737E+03  0.89609693769E+02 0.  0.
         13    1    3    3    0    0  0.14582520898E+02  0.13335839899E+02 -0.18968672712E+03  0.19071326380E+03  0.00000000000E+00 0. -1.
        -13    1    3    3    0    0 -0.33906487424E+01 -0.18079664327E+02  0.11066204352E+01  0.18428113573E+02  0.00000000000E+00 0.  1.
         22    1    1    2    0    0 -0.11191872156E+02  0.47438244281E+01  0.17897017320E+02  0.21634812260E+02  0.00000000000E+00 0.  1.
<mgrwt>
<rscale>  0 0.54755932E+02</rscale>
<asrwt>0</asrwt>
<pdfrwt beam="1">  1        2 0.30881484E-01 0.90430410E+02</pdfrwt>
<pdfrwt beam="2">  1       -2 0.46225461E-02 0.90430410E+02</pdfrwt>
<totfact> 0.32978050E+04</totfact>
</mgrwt>
</event>
<event>
 6    1  0.2852411E-002  0.1137541E+03  0.7546771E-02  0.1283755E+00
          2   -1    0    0  501    0  0.00000000000E+00  0.00000000000E+00  0.73568070871E+03  0.73568070871E+03  0.00000000000E+00 0. -1.
         -2   -1    0    0    0  501 -0.00000000000E+00 -0.00000000000E+00 -0.13103530175E+03  0.13103530175E+03  0.00000000000E+00 0.  1.
         23    2    1    2    0    0 -0.50935249523E+02  0.38121045808E+02  0.72324155440E+03  0.73213272782E+03  0.94299370935E+02 0.  0.
         11    1    3    3    0    0  0.10935291927E+02  0.47588757511E+02  0.39200726477E+03  0.39503666423E+03  0.00000000000E+00 0. -1.
        -11    1    3    3    0    0 -0.61870541450E+02 -0.94677117029E+01  0.33123428963E+03  0.33709606359E+03  0.00000000000E+00 0.  1.
         22    1    1    2    0    0  0.50935249523E+02 -0.38121045808E+02 -0.11859614744E+03  0.13458328263E+03  0.00000000000E+00 0.  1.
<mgrwt>
<rscale>  0 0.98372804E+02</rscale>
<asrwt>0</asrwt>
<pdfrwt beam="1">  1        2 0.11318164E+00 0.11375406E+03</pdfrwt>
<pdfrwt beam="2">  1       -2 0.20159278E-01 0.11375406E+03</pdfrwt>
<totfact> 0.82150000E+02</totfact>
</mgrwt>
</event>
<event>
 6    1  0.2852411E-002  0.8998341E+02  0.7546771E-02  0.1411948E+00
          3   -1    0    0  501    0  0.00000000000E+00  0.00000000000E+00  0.49730546688E+02  0.49730546688E+02  0.00000000000E+00 0. -1.
         -3   -1    0    0    0  501 -0.00000000000E+00 -0.00000000000E+00 -0.59380879191E+02  0.59380879191E+02  0.00000000000E+00 0.  1.
         23    2    1    2    0    0  0.11853122356E+02  0.79045927954E+01  0.30360969007E+01  0.90034618288E+02  0.88848384954E+02 0.  0.
         13    1    3    3    0    0 -0.24649618794E+02 -0.61043126141E+01  0.32379498052E+02  0.41149705142E+02  0.00000000000E+00 0. -1.
        -13    1    3    3    0    0  0.36502741149E+02  0.14008905410E+02 -0.29343401151E+02  0.48884913146E+02  0.00000000000E+00 0.  1.
         22    1    1    2    0    0 -0.11853122356E+02 -0.79045927954E+01 -0.12686429404E+02  0.19076807591E+02  0.00000000000E+00 0. -1.
<mgrwt>
<rscale>  0 0.56761421E+02</rscale>
<asrwt>0</asrwt>
<pdfrwt beam="1">  1        3 0.76508533E-02 0.89983413E+02</pdfrwt>
<pdfrwt beam="2">  1       -3 0.91355199E-02 0.89983413E+02</pdfrwt>
<totfact> 0.20009674E+04</totfact>
</mgrwt>
</event>
<event>
 6    1  0.2852411E-002  0.9237367E+02  0.7546771E-02  0.1407533E+00
          2   -1    0    0  501    0  0.00000000000E+00  0.00000000000E+00  0.45676189413E+03  0.45676189413E+03  0.00000000000E+00 0. -1.
         -2   -1    0    0    0  501 -0.00000000000E+00 -0.00000000000E+00 -0.62806656945E+01  0.62806656945E+01  0.00000000000E+00 0.  1.
         23    2    1    2    0    0 -0.14022265229E+02 -0.15634270551E+01  0.40606284213E+03  0.41643718172E+03  0.91289793151E+02 0.  0.
         11    1    3    3    0    0 -0.39717625877E+02  0.26066738977E+02  0.14306939242E+03  0.15075083991E+03  0.00000000000E+00 0.  1.
        -11    1    3    3    0    0  0.25695360648E+02 -0.27630166032E+02  0.26299344971E+03  0.26568634181E+03  0.00000000000E+00 0. -1.
         22    1    1    2    0    0  0.14022265229E+02  0.15634270551E+01  0.44418386303E+02  0.46605378103E+02  0.00000000000E+00 0.  1.
<mgrwt>
<rscale>  0 0.57747925E+02</rscale>
<asrwt>0</asrwt>
<pdfrwt beam="1">  1        2 0.70271035E-01 0.92373668E+02</pdfrwt>
<pdfrwt beam="2">  1       -2 0.96625662E-03 0.92373668E+02</pdfrwt>
<totfact> 0.13294664E+05</totfact>
</mgrwt>
</event>
<event>
 6    1  0.2852411E-002  0.9331518E+02  0.7546771E-02  0.1391350E+00
         -1   -1    0    0    0  501 -0.00000000000E+00  0.00000000000E+00  0.38384637446E+02  0.38384637446E+02  0.00000000000E+00 0.  1.
          1   -1    0    0  501    0  0.00000000000E+00 -0.00000000000E+00 -0.12559645512E+03  0.12559645512E+03  0.00000000000E+00 0. -1.
         23    2    1    2    0    0  0.57391272414E+01  0.16731134335E+02 -0.10390714501E+03  0.13965821460E+03  0.91623434143E+02 0.  0.
         11    1    3    3    0    0 -0.89635775781E+01  0.45405692574E+02 -0.95854659091E+02  0.10644312242E+03  0.00000000000E+00 0. -1.
        -11    1    3    3    0    0  0.14702704820E+02 -0.28674558239E+02 -0.80524859190E+01  0.33215092182E+02  0.00000000000E+00 0.  1.
         22    1    1    2    0    0 -0.57391272414E+01 -0.16731134335E+02  0.16695327336E+02  0.24322877965E+02  0.00000000000E+00 0.  1.
<mgrwt>
<rscale>  0 0.61572166E+02</rscale>
<asrwt>0</asrwt>
<pdfrwt beam="1">  1        1 0.19322531E-01 0.93315176E+02</pdfrwt>
<pdfrwt beam="2">  1       -1 0.59053289E-02 0.93315176E+02</pdfrwt>
<totfact> 0.32100723E+04</totfact>
</mgrwt>
</event>
<event>
 6    1  0.2852411E-002  0.9224995E+02  0.7546771E-02  0.1427049E+00
         -2   -1    0    0    0  501 -0.00000000000E+00  0.00000000000E+00  0.54392653958E+03  0.54392653958E+03  0.00000000000E+00 0. -1.
          2   -1    0    0  501    0  0.00000000000E+00 -0.00000000000E+00 -0.48514503141E+01  0.48514503141E+01  0.00000000000E+00 0.  1.
         23    2    1    2    0    0  0.78680874615E+00 -0.10450447821E+02  0.48626117103E+03  0.49493431907E+03  0.91652729479E+02 0.  0.
         11    1    3    3    0    0 -0.53114471064E+01  0.32631904475E+02  0.83151329832E+02  0.89482938669E+02  0.00000000000E+00 0.  1.
        -11    1    3    3    0    0  0.60982558525E+01 -0.43082352296E+02  0.40310984119E+03  0.40545138040E+03  0.00000000000E+00 0. -1.
         22    1    1    2    0    0 -0.78680874615E+00  0.10450447821E+02  0.52813918243E+02  0.53843670825E+02  0.00000000000E+00 0.  1.
<mgrwt>
<rscale>  0 0.53556871E+02</rscale>
<asrwt>0</asrwt>
<pdfrwt beam="1">  1        2 0.74637740E-03 0.92249953E+02</pdfrwt>
<pdfrwt beam="2">  1       -2 0.83680958E-01 0.92249953E+02</pdfrwt>
<totfact> 0.24488009E+04</totfact>
</mgrwt>
</event>
<event>
 6    1  0.2852411E-002  0.8796497E+02  0.7546771E-02  0.1366738E+00
          1   -1    0    0  501    0  0.00000000000E+00  0.00000000000E+00  0.23156807559E+03  0.23156807559E+03  0.00000000000E+00 0. -1.
         -1   -1    0    0    0  501 -0.00000000000E+00 -0.00000000000E+00 -0.38275652068E+02  0.38275652068E+02  0.00000000000E+00 0.  1.
         23    2    1    2    0    0 -0.29900953495E+02  0.10114936765E+02  0.21448600199E+03  0.23182338134E+03  0.82106370765E+02 0.  0.
         11    1    3    3    0    0 -0.41418535621E+02  0.92863281520E+01  0.21604136178E+03  0.22017175337E+03  0.00000000000E+00 0. -1.
        -11    1    3    3    0    0  0.11517582126E+02  0.82860861287E+00 -0.15553597874E+01  0.11651627969E+02  0.00000000000E+00 0.  1.
         22    1    1    2    0    0  0.29900953495E+02 -0.10114936765E+02 -0.21193578470E+02  0.38020346317E+02  0.00000000000E+00 0.  1.
<mgrwt>
<rscale>  0 0.68082480E+02</rscale>
<asrwt>0</asrwt>
<pdfrwt beam="1">  1        1 0.35625857E-01 0.87964965E+02</pdfrwt>
<pdfrwt beam="2">  1       -1 0.58885620E-02 0.87964965E+02</pdfrwt>
<totfact> 0.15020967E+04</totfact>
</mgrwt>
</event>
<event>
 6    1  0.2852411E-002  0.9064374E+02  0.7546771E-02  0.1416441E+00
         -2   -1    0    0    0  501 -0.00000000000E+00  0.00000000000E+00  0.45623123474E+01  0.45623123474E+01  0.00000000000E+00 0.  1.
          2   -1    0    0  501    0  0.00000000000E+00 -0.00000000000E+00 -0.60451614128E+03  0.60451614128E+03  0.00000000000E+00 0. -1.
         23    2    1    2    0    0  0.31772717713E+01 -0.12605377968E+02 -0.55204895063E+03  0.55944108893E+03  0.89706730370E+02 0.  0.
         13    1    3    3    0    0 -0.30706215906E+02 -0.25036776531E+01 -0.45686093735E+03  0.45789852170E+03  0.00000000000E+00 0. -1.
        -13    1    3    3    0    0  0.33883487677E+02 -0.10101700315E+02 -0.95188013285E+02  0.10154256723E+03  0.00000000000E+00 0.  1.
         22    1    1    2    0    0 -0.31772717713E+01  0.12605377968E+02 -0.47904878300E+02  0.49637364702E+02  0.00000000000E+00 0.  1.
<mgrwt>
<rscale>  0 0.55780987E+02</rscale>
<asrwt>0</asrwt>
<pdfrwt beam="1">  1        2 0.93002460E-01 0.90643743E+02</pdfrwt>
<pdfrwt beam="2">  1       -2 0.70189438E-03 0.90643743E+02</pdfrwt>
<totfact> 0.15329317E+05</totfact>
</mgrwt>
</event>
<event>
 6    1  0.2852411E-002  0.9227160E+02  0.7546771E-02  0.1418763E+00
         -4   -1    0    0    0  501 -0.00000000000E+00  0.00000000000E+00  0.30531854814E+02  0.30531854814E+02  0.00000000000E+00 0.  1.
          4   -1    0    0  501    0  0.00000000000E+00 -0.00000000000E+00 -0.92007801330E+02  0.92007801330E+02  0.00000000000E+00 0. -1.
         23    2    1    2    0    0 -0.30555574698E+01 -0.11490529441E+02 -0.61054719475E+02  0.11064234004E+03  0.91502349374E+02 0.  0.
         11    1    3    3    0    0  0.27966594846E+02  0.21969088442E+02 -0.53724864890E+02  0.64429282021E+02  0.00000000000E+00 0. -1.
        -11    1    3    3    0    0 -0.31022152316E+02 -0.33459617883E+02 -0.73298545849E+01  0.46213058018E+02  0.00000000000E+00 0.  1.
         22    1    1    2    0    0  0.30555574698E+01  0.11490529441E+02 -0.42122704090E+00  0.11897316105E+02  0.00000000000E+00 0. -1.
<mgrwt>
<rscale>  0 0.55283459E+02</rscale>
<asrwt>0</asrwt>
<pdfrwt beam="1">  1        4 0.14155046E-01 0.92271603E+02</pdfrwt>
<pdfrwt beam="2">  1       -4 0.46972085E-02 0.92271603E+02</pdfrwt>
<totfact> 0.15971327E+04</totfact>
</mgrwt>
</event>
<event>
 6    1  0.2852411E-002  0.9893183E+02  0.7546771E-02  0.1350626E+00
         -1   -1    0    0    0  501 -0.00000000000E+00  0.00000000000E+00  0.46837854798E+01  0.46837854798E+01  0.00000000000E+00 0.  1.
          1   -1    0    0  501    0  0.00000000000E+00 -0.00000000000E+00 -0.19826632156E+04  0.19826632156E+04  0.00000000000E+00 0. -1.
         23    2    1    2    0    0 -0.12655162664E+02  0.26209687450E+02 -0.19192802338E+04  0.19218283281E+04  0.94553720466E+02 0.  0.
         13    1    3    3    0    0 -0.43256528726E+02 -0.14764621777E+02 -0.71212448920E+03  0.71358980476E+03  0.00000000000E+00 0.  1.
        -13    1    3    3    0    0  0.30601366062E+02  0.40974309228E+02 -0.12071557446E+04  0.12082385233E+04  0.00000000000E+00 0. -1.
         22    1    1    2    0    0  0.12655162664E+02 -0.26209687450E+02 -0.58699196366E+02  0.65518673005E+02  0.00000000000E+00 0.  1.
<mgrwt>
<rscale>  0 0.72860798E+02</rscale>
<asrwt>0</asrwt>
<pdfrwt beam="1">  1        1 0.30502547E+00 0.98931830E+02</pdfrwt>
<pdfrwt beam="2">  1       -1 0.72058153E-03 0.98931830E+02</pdfrwt>
<totfact> 0.10076938E+04</totfact>
</mgrwt>
</event>
<event>
 6    1  0.2852411E-002  0.9147935E+02  0.7546771E-02  0.1389972E+00
          2   -1    0    0  501    0  0.00000000000E+00  0.00000000000E+00  0.71455065445E+03  0.71455065445E+03  0.00000000000E+00 0. -1.
         -2   -1    0    0    0  501 -0.00000000000E+00 -0.00000000000E+00 -0.44335147178E+01  0.44335147178E+01  0.00000000000E+00 0.  1.
         23    2    1    2    0    0 -0.68776151263E+01  0.17920046181E+02  0.62957586281E+03  0.63618726745E+03  0.89442957211E+02 0.  0.
         13    1    3    3    0    0 -0.84460499035E+01  0.10638565076E+02  0.62851714605E+03  0.62866391475E+03  0.00000000000E+00 0. -1.
        -13    1    3    3    0    0  0.15684347772E+01  0.72814811050E+01  0.10587167546E+01  0.75233527034E+01  0.00000000000E+00 0.  1.
         22    1    1    2    0    0  0.68776151263E+01 -0.17920046181E+02  0.80541276929E+02  0.82796901719E+02  0.00000000000E+00 0.  1.
<mgrwt>
<rscale>  0 0.61913683E+02</rscale>
<asrwt>0</asrwt>
<pdfrwt beam="1">  1        2 0.10993078E+00 0.91479354E+02</pdfrwt>
<pdfrwt beam="2">  1       -2 0.68207975E-03 0.91479354E+02</pdfrwt>
<totfact> 0.13193972E+05</totfact>
</mgrwt>
</event>
<event>
 6    1  0.2852411E-002  0.9278402E+02  0.7546771E-02  0.1428651E+00
          2   -1    0    0  501    0  0.00000000000E+00  0.00000000000E+00  0.71754797053E+03  0.71754797053E+03  0.00000000000E+00 0. -1.
         -2   -1    0    0    0  501 -0.00000000000E+00 -0.00000000000E+00 -0.37910006778E+01  0.37910006778E+01  0.00000000000E+00 0.  1.
         23    2    1    2    0    0 -0.92682948281E+01 -0.38919108819E+01  0.67273742764E+03  0.67910567744E+03  0.92237878995E+02 0.  0.
         11    1    3    3    0    0  0.67463778959E+01 -0.45201420884E+02  0.25884239981E+03  0.26284609566E+03  0.00000000000E+00 0.  1.
        -11    1    3    3    0    0 -0.16014672724E+02  0.41309510002E+02  0.41389502783E+03  0.41625958178E+03  0.00000000000E+00 0. -1.
         22    1    1    2    0    0  0.92682948281E+01  0.38919108819E+01  0.41019542208E+02  0.42233293765E+02  0.00000000000E+00 0.  1.
<mgrwt>
<rscale>  0 0.53231781E+02</rscale>
<asrwt>0</asrwt>
<pdfrwt beam="1">  1        2 0.11039189E+00 0.92784021E+02</pdfrwt>
<pdfrwt beam="2">  1       -2 0.58323145E-03 0.92784021E+02</pdfrwt>
<totfact> 0.16396345E+05</totfact>
</mgrwt>
</event>
<event>
 6    1  0.2852411E-002  0.9295948E+02  0.7546771E-02  0.1389502E+00
          4   -1    0    0  501    0  0.00000000000E+00  0.00000000000E+00  0.22703267845E+03  0.22703267845E+03  0.00000000000E+00 0. -1.
         -4   -1    0    0    0  501 -0.00000000000E+00 -0.00000000000E+00 -0.13868156125E+02  0.13868156125E+02  0.00000000000E+00 0.  1.
         23    2    1    2    0    0 -0.18428185687E+02 -0.31951400634E+00  0.16588724035E+03  0.19015793844E+03  0.91114021562E+02 0.  0.
         13    1    3    3    0    0  0.18228416317E+02 -0.20049200289E+02  0.13659329601E+03  0.13925506852E+03  0.00000000000E+00 0. -1.
        -13    1    3    3    0    0 -0.36656602004E+02  0.19729686282E+02  0.29293944335E+02  0.50902869919E+02  0.00000000000E+00 0.  1.
         22    1    1    2    0    0  0.18428185687E+02  0.31951400634E+00  0.47277281982E+02  0.50742896139E+02  0.00000000000E+00 0. -1.
<mgrwt>
<rscale>  0 0.62030778E+02</rscale>
<asrwt>0</asrwt>
<pdfrwt beam="1">  1        4 0.34928102E-01 0.92959481E+02</pdfrwt>
<pdfrwt beam="2">  1       -4 0.21335627E-02 0.92959481E+02</pdfrwt>
<totfact> 0.10680463E+04</totfact>
</mgrwt>
</event>
<event>
 6    1  0.2852411E-002  0.9149270E+02  0.7546771E-02  0.1404280E+00
         -2   -1    0    0    0  501 -0.00000000000E+00  0.00000000000E+00  0.10049594739E+02  0.10049594739E+02  0.00000000000E+00 0.  1.
          2   -1    0    0  501    0  0.00000000000E+00 -0.00000000000E+00 -0.28463479980E+03  0.28463479980E+03  0.00000000000E+00 0. -1.
         23    2    1    2    0    0 -0.68671378106E+01  0.13651590708E+02 -0.22873541873E+03  0.24635504096E+03  0.90207488133E+02 0.  0.
         13    1    3    3    0    0 -0.24897260087E+02 -0.13652213184E+02 -0.19191619512E+02  0.34272069446E+02  0.00000000000E+00 0.  1.
        -13    1    3    3    0    0  0.18030122276E+02  0.27303803892E+02 -0.20954379921E+03  0.21208297151E+03  0.00000000000E+00 0. -1.
         22    1    1    2    0    0  0.68671378106E+01 -0.13651590708E+02 -0.45849786333E+02  0.48329353578E+02  0.00000000000E+00 0. -1.
<mgrwt>
<rscale>  0 0.58489938E+02</rscale>
<asrwt>0</asrwt>
<pdfrwt beam="1">  1        2 0.43789972E-01 0.91492701E+02</pdfrwt>
<pdfrwt beam="2">  1       -2 0.15460914E-02 0.91492701E+02</pdfrwt>
<totfact> 0.11188591E+05</totfact>
</mgrwt>
</event>
<event>
 6    1  0.2852411E-002  0.9093054E+02  0.7546771E-02  0.1401316E+00
         -1   -1    0    0    0  501 -0.00000000000E+00  0.00000000000E+00  0.65865674576E+01  0.65865674576E+01  0.00000000000E+00 0.  1.
          1   -1    0    0  501    0  0.00000000000E+00 -0.00000000000E+00 -0.61657168459E+03  0.61657168459E+03  0.00000000000E+00 0. -1.
         23    2    1    2    0    0  0.13175094852E+02  0.96172313796E+01 -0.59173548336E+03  0.59868125475E+03  0.89455509954E+02 0.  0.
         13    1    3    3    0    0  0.19437138014E+02  0.39252776024E+02 -0.50329802143E+03  0.50520043659E+03  0.00000000000E+00 0. -1.
        -13    1    3    3    0    0 -0.62620431617E+01 -0.29635544644E+02 -0.88437461925E+02  0.93480818154E+02  0.00000000000E+00 0.  1.
         22    1    1    2    0    0 -0.13175094852E+02 -0.96172313796E+01 -0.18249633775E+02  0.24476997297E+02  0.00000000000E+00 0.  1.
<mgrwt>
<rscale>  0 0.59177645E+02</rscale>
<asrwt>0</asrwt>
<pdfrwt beam="1">  1        1 0.94857202E-01 0.90930537E+02</pdfrwt>
<pdfrwt beam="2">  1       -1 0.10133179E-02 0.90930537E+02</pdfrwt>
<totfact> 0.55304972E+04</totfact>
</mgrwt>
</event>
<event>
 6    1  0.2852411E-002  0.9223671E+02  0.7546771E-02  0.1397750E+00
          2   -1    0    0  501    0  0.00000000000E+00  0.00000000000E+00  0.15597359860E+03  0.15597359860E+03  0.00000000000E+00 0. -1.
         -2   -1    0    0    0  501 -0.00000000000E+00 -0.00000000000E+00 -0.19071087207E+02  0.19071087207E+02  0.00000000000E+00 0.  1.
         23    2    1    2    0    0 -0.11388810030E+01  0.16497851869E+02  0.12053678021E+03  0.15177854467E+03  0.90742135045E+02 0.  0.
         13    1    3    3    0    0  0.95019862950E+00  0.62379026920E+01  0.13432068644E+03  0.13446881093E+03  0.00000000000E+00 0. -1.
        -13    1    3    3    0    0 -0.20890796325E+01  0.10259949177E+02 -0.13783906235E+02  0.17309733734E+02  0.00000000000E+00 0.  1.
         22    1    1    2    0    0  0.11388810030E+01 -0.16497851869E+02  0.16365731182E+02  0.23266141136E+02  0.00000000000E+00 0. -1.
<mgrwt>
<rscale>  0 0.60019559E+02</rscale>
<asrwt>0</asrwt>
<pdfrwt beam="1">  1        2 0.23995937E-01 0.92236713E+02</pdfrwt>
<pdfrwt beam="2">  1       -2 0.29340135E-02 0.92236713E+02</pdfrwt>
<totfact> 0.84543341E+04</totfact>
</mgrwt>
</event>
<event>
 6    1  0.2852411E-002  0.9208063E+02  0.7546771E-02  0.1363860E+00
          2   -1    0    0  501    0  0.00000000000E+00  0.00000000000E+00  0.99550624166E+02  0.99550624166E+02  0.00000000000E+00 0. -1.
         -2   -1    0    0    0  501 -0.00000000000E+00 -0.00000000000E+00 -0.38128524918E+02  0.38128524918E+02  0.00000000000E+00 0.  1.
         23    2    1    2    0    0  0.26430658406E+02  0.11619149237E+02  0.57456726917E+02  0.10853625097E+03  0.87437165861E+02 0.  0.
         11    1    3    3    0    0  0.21730905942E+02  0.40238944269E+02  0.64139103408E+02  0.78773279066E+02  0.00000000000E+00 0. -1.
        -11    1    3    3    0    0  0.46997524638E+01 -0.28619795032E+02 -0.66823764909E+01  0.29762971903E+02  0.00000000000E+00 0.  1.
         22    1    1    2    0    0 -0.26430658406E+02 -0.11619149237E+02  0.39653723315E+01  0.29142898114E+02  0.00000000000E+00 0.  1.
<mgrwt>
<rscale>  0 0.68904074E+02</rscale>
<asrwt>0</asrwt>
<pdfrwt beam="1">  1        2 0.15315481E-01 0.92080629E+02</pdfrwt>
<pdfrwt beam="2">  1       -2 0.58659270E-02 0.92080629E+02</pdfrwt>
<totfact> 0.50409710E+04</totfact>
</mgrwt>
</event>
<event>
 6    1  0.2852411E-002  0.9426949E+02  0.7546771E-02  0.1387491E+00
         -1   -1    0    0    0  501 -0.00000000000E+00  0.00000000000E+00  0.12777369315E+02  0.12777369315E+02  0.00000000000E+00 0.  1.
          1   -1    0    0  501    0  0.00000000000E+00 -0.00000000000E+00 -0.25187094068E+03  0.25187094068E+03  0.00000000000E+00 0. -1.
         23    2    1    2    0    0 -0.74411611373E+01 -0.16669421225E+02 -0.18639543193E+03  0.20887793808E+03  0.92485109565E+02 0.  0.
         11    1    3    3    0    0  0.27170529964E+02 -0.15521504939E+02 -0.16279529237E+02  0.35272905838E+02  0.00000000000E+00 0.  1.
        -11    1    3    3    0    0 -0.34611691101E+02 -0.11479162867E+01 -0.17011590269E+03  0.17360503224E+03  0.00000000000E+00 0. -1.
         22    1    1    2    0    0  0.74411611373E+01  0.16669421225E+02 -0.52698139434E+02  0.55770371909E+02  0.00000000000E+00 0. -1.
<mgrwt>
<rscale>  0 0.62534988E+02</rscale>
<asrwt>0</asrwt>
<pdfrwt beam="1">  1        1 0.38749378E-01 0.94269486E+02</pdfrwt>
<pdfrwt beam="2">  1       -1 0.19657490E-02 0.94269486E+02</pdfrwt>
<totfact> 0.66850970E+04</totfact>
</mgrwt>
</event>
<event>
 6    1  0.2852411E-002  0.1025652E+03  0.7546771E-02  0.1329647E+00
         -4   -1    0    0    0  501 -0.00000000000E+00  0.00000000000E+00  0.33631398651E+02  0.33631398651E+02  0.00000000000E+00 0. -1.
          4   -1    0    0  501    0  0.00000000000E+00 -0.00000000000E+00 -0.16248125028E+03  0.16248125028E+03  0.00000000000E+00 0.  1.
         23    2    1    2    0    0 -0.29294349967E+02  0.23518043843E+02 -0.11934506878E+03  0.15736218799E+03  0.95437704505E+02 0.  0.
         11    1    3    3    0    0  0.11933294865E+02  0.34087417522E+02 -0.64189274829E+01  0.36681850958E+02  0.00000000000E+00 0. -1.
        -11    1    3    3    0    0 -0.41227644832E+02 -0.10569373679E+02 -0.11292614130E+03  0.12068033703E+03  0.00000000000E+00 0.  1.
         22    1    1    2    0    0  0.29294349967E+02 -0.23518043843E+02 -0.95047828512E+01  0.38750460942E+02  0.00000000000E+00 0.  1.
<mgrwt>
<rscale>  0 0.79790408E+02</rscale>
<asrwt>0</asrwt>
<pdfrwt beam="1">  1        4 0.24997115E-01 0.10256516E+03</pdfrwt>
<pdfrwt beam="2">  1       -4 0.51740614E-02 0.10256516E+03</pdfrwt>
<totfact> 0.51421634E+03</totfact>
</mgrwt>
</event>
<event>
 6    1  0.2852411E-002  0.1053708E+03  0.7546771E-02  0.1308410E+00
         -2   -1    0    0    0  501 -0.00000000000E+00  0.00000000000E+00  0.82232217770E+01  0.82232217770E+01  0.00000000000E+00 0.  1.
          2   -1    0    0  501    0  0.00000000000E+00 -0.00000000000E+00 -0.12370439692E+04  0.12370439692E+04  0.00000000000E+00 0. -1.
         23    2    1    2    0    0  0.15642911478E+02 -0.48188239327E+02 -0.11231164606E+04  0.11280485775E+04  0.92391569380E+02 0.  0.
         13    1    3    3    0    0 -0.23290314625E+02  0.89468141594E+01 -0.12075828641E+03  0.12330875061E+03  0.00000000000E+00 0.  1.
        -13    1    3    3    0    0  0.38933226103E+02 -0.57135053487E+02 -0.10023581741E+04  0.10047398269E+04  0.00000000000E+00 0. -1.
         22    1    1    2    0    0 -0.15642911478E+02  0.48188239327E+02 -0.10570428690E+03  0.11721861353E+03  0.00000000000E+00 0.  1.
<mgrwt>
<rscale>  0 0.87743391E+02</rscale>
<asrwt>0</asrwt>
<pdfrwt beam="1">  1        2 0.19031447E+00 0.10537082E+03</pdfrwt>
<pdfrwt beam="2">  1       -2 0.12651110E-02 0.10537082E+03</pdfrwt>
<totfact> 0.26951128E+04</totfact>
</mgrwt>
</event>
<event>
 6    1  0.2852411E-002  0.9180992E+02  0.7546771E-02  0.1428116E+00
          2   -1    0    0  501    0  0.00000000000E+00  0.00000000000E+00  0.18155000349E+03  0.18155000349E+03  0.00000000000E+00 0.  1.
         -2   -1    0    0    0  501 -0.00000000000E+00 -0.00000000000E+00 -0.19096801556E+02  0.19096801556E+02  0.00000000000E+00 0. -1.
         23    2    1    2    0    0 -0.76073996196E+01 -0.71794230061E+01  0.16591978926E+03  0.18962710127E+03  0.91212084855E+02 0.  0.
         13    1    3    3    0    0 -0.78367885447E+01 -0.32125123844E+02  0.14398648715E+02  0.36066049431E+02  0.00000000000E+00 0. -1.
        -13    1    3    3    0    0  0.22938892511E+00  0.24945700838E+02  0.15152114054E+03  0.15356105184E+03  0.00000000000E+00 0.  1.
         22    1    1    2    0    0  0.76073996196E+01  0.71794230061E+01 -0.34665873254E+01  0.11019703778E+02  0.00000000000E+00 0. -1.
<mgrwt>
<rscale>  0 0.53339952E+02</rscale>
<asrwt>0</asrwt>
<pdfrwt beam="1">  1        2 0.27930769E-01 0.91809918E+02</pdfrwt>
<pdfrwt beam="2">  1       -2 0.29379696E-02 0.91809918E+02</pdfrwt>
<totfact> 0.71505139E+04</totfact>
</mgrwt>
</event>
<event>
 6    1  0.3219642E-002  0.1098203E+03  0.7546771E-02  0.1291579E+00
          1   -1    0    0  501    0  0.00000000000E+00  0.00000000000E+00  0.16531260863E+03  0.16531260863E+03  0.00000000000E+00 0. -1.
         -1   -1    0    0    0  501 -0.00000000000E+00 -0.00000000000E+00 -0.18140795600E+03  0.18140795600E+03  0.00000000000E+00 0.  1.
         23    2    1    2    0    0  0.17556158849E+01 -0.61008874374E+02 -0.15790194713E+03  0.19233702704E+03  0.91298094855E+02 0.  0.
         11    1    3    3    0    0 -0.26796196705E+02 -0.43878624127E+02 -0.14936151750E+03  0.15796275739E+03  0.00000000000E+00 0.  1.
        -11    1    3    3    0    0  0.28551812590E+02 -0.17130250247E+02 -0.85404296315E+01  0.34374269650E+02  0.00000000000E+00 0. -1.
         22    1    1    2    0    0 -0.17556158849E+01  0.61008874374E+02  0.14180659976E+03  0.15438353758E+03  0.00000000000E+00 0. -1.
<mgrwt>
<rscale>  0 0.94821163E+02</rscale>
<asrwt>0</asrwt>
<pdfrwt beam="1">  1        1 0.25432709E-01 0.10982034E+03</pdfrwt>
<pdfrwt beam="2">  1       -1 0.27908916E-01 0.10982034E+03</pdfrwt>
<totfact> 0.20892698E+03</totfact>
</mgrwt>
</event>
<event>
 6    1  0.2852411E-002  0.1070116E+03  0.7546771E-02  0.1304553E+00
          3   -1    0    0  501    0  0.00000000000E+00  0.00000000000E+00  0.15420505264E+02  0.15420505264E+02  0.00000000000E+00 0. -1.
         -3   -1    0    0    0  501 -0.00000000000E+00 -0.00000000000E+00 -0.42330845250E+03  0.42330845250E+03  0.00000000000E+00 0.  1.
         23    2    1    2    0    0  0.51363696471E+02  0.74126139819E+01 -0.23495225350E+03  0.25817444985E+03  0.93585837434E+02 0.  0.
         13    1    3    3    0    0  0.56598321427E+02  0.36619137816E+02 -0.10425147483E+03  0.12414790070E+03  0.00000000000E+00 0. -1.
        -13    1    3    3    0    0 -0.52346249560E+01 -0.29206523834E+02 -0.13070077867E+03  0.13402654915E+03  0.00000000000E+00 0.  1.
         22    1    1    2    0    0 -0.51363696471E+02 -0.74126139819E+01 -0.17293569374E+03  0.18055450792E+03  0.00000000000E+00 0.  1.
<mgrwt>
<rscale>  0 0.89300990E+02</rscale>
<asrwt>0</asrwt>
<pdfrwt beam="1">  1        3 0.23723853E-02 0.10701161E+03</pdfrwt>
<pdfrwt beam="2">  1       -3 0.65124381E-01 0.10701161E+03</pdfrwt>
<totfact> 0.37051738E+03</totfact>
</mgrwt>
</event>
<event>
 6    1  0.2852411E-002  0.8817720E+02  0.7546771E-02  0.1380842E+00
         -2   -1    0    0    0  501 -0.00000000000E+00  0.00000000000E+00  0.75166758687E+02  0.75166758687E+02  0.00000000000E+00 0.  1.
          2   -1    0    0  501    0  0.00000000000E+00 -0.00000000000E+00 -0.53346658962E+02  0.53346658962E+02  0.00000000000E+00 0. -1.
         23    2    1    2    0    0  0.21410828556E+02 -0.12602918675E+02 -0.93293977044E+01  0.88669367545E+02  0.84604739469E+02 0.  0.
         13    1    3    3    0    0  0.51327207351E+02 -0.18245097237E+02 -0.17380325627E+02  0.57179030304E+02  0.00000000000E+00 0. -1.
        -13    1    3    3    0    0 -0.29916378795E+02  0.56421785611E+01  0.80509279230E+01  0.31490337241E+02  0.00000000000E+00 0.  1.
         22    1    1    2    0    0 -0.21410828556E+02  0.12602918675E+02  0.31149497430E+02  0.39844050104E+02  0.00000000000E+00 0. -1.
<mgrwt>
<rscale>  0 0.64242954E+02</rscale>
<asrwt>0</asrwt>
<pdfrwt beam="1">  1        2 0.82071782E-02 0.88177203E+02</pdfrwt>
<pdfrwt beam="2">  1       -2 0.11564117E-01 0.88177203E+02</pdfrwt>
<totfact> 0.37329507E+04</totfact>
</mgrwt>
</event>
<event>
 6    1  0.2852411E-002  0.9564900E+02  0.7546771E-02  0.1374075E+00
          2   -1    0    0  501    0  0.00000000000E+00  0.00000000000E+00  0.12657975357E+04  0.12657975357E+04  0.00000000000E+00 0. -1.
         -2   -1    0    0    0  501 -0.00000000000E+00 -0.00000000000E+00 -0.50174500489E+01  0.50174500489E+01  0.00000000000E+00 0.  1.
         23    2    1    2    0    0  0.15735496099E+02 -0.15009124501E+02  0.12264699268E+04  0.12301939733E+04  0.93144247394E+02 0.  0.
         13    1    3    3    0    0 -0.25749487762E+02 -0.97128434536E+01  0.12785551883E+03  0.13078382600E+03  0.00000000000E+00 0.  1.
        -13    1    3    3    0    0  0.41484983861E+02 -0.52962810475E+01  0.10986144080E+04  0.10994101473E+04  0.00000000000E+00 0. -1.
         22    1    1    2    0    0 -0.15735496099E+02  0.15009124501E+02  0.34310158836E+02  0.40621012482E+02  0.00000000000E+00 0.  1.
<mgrwt>
<rscale>  0 0.66047159E+02</rscale>
<asrwt>0</asrwt>
<pdfrwt beam="1">  1        2 0.19473783E+00 0.95648996E+02</pdfrwt>
<pdfrwt beam="2">  1       -2 0.77191640E-03 0.95648996E+02</pdfrwt>
<totfact> 0.51968207E+04</totfact>
</mgrwt>
</event>
<event>
 6    1  0.2852411E-002  0.9147623E+02  0.7546771E-02  0.1429069E+00
          2   -1    0    0  501    0  0.00000000000E+00  0.00000000000E+00  0.17558050292E+02  0.17558050292E+02  0.00000000000E+00 0.  1.
         -2   -1    0    0    0  501 -0.00000000000E+00 -0.00000000000E+00 -0.14800741342E+03  0.14800741342E+03  0.00000000000E+00 0. -1.
         23    2    1    2    0    0 -0.70651107958E+01  0.76634628470E+01 -0.11538741879E+03  0.14724862390E+03  0.90880450993E+02 0.  0.
         13    1    3    3    0    0 -0.39409627205E+02  0.19512678661E+02 -0.10054314947E+03  0.10973963846E+03  0.00000000000E+00 0. -1.
        -13    1    3    3    0    0  0.32344516409E+02 -0.11849215814E+02 -0.14844269327E+02  0.37508985444E+02  0.00000000000E+00 0.  1.
         22    1    1    2    0    0  0.70651107958E+01 -0.76634628470E+01 -0.15061944333E+02  0.18316839805E+02  0.00000000000E+00 0. -1.
<mgrwt>
<rscale>  0 0.53147414E+02</rscale>
<asrwt>0</asrwt>
<pdfrwt beam="1">  1        2 0.27012384E-02 0.91476231E+02</pdfrwt>
<pdfrwt beam="2">  1       -2 0.22770372E-01 0.91476231E+02</pdfrwt>
<totfact> 0.52058794E+04</totfact>
</mgrwt>
</event>
<event>
 6    1  0.2852411E-002  0.1028825E+03  0.7546771E-02  0.1315773E+00
         -2   -1    0    0    0  501 -0.00000000000E+00  0.00000000000E+00  0.40403608661E+01  0.40403608661E+01  0.00000000000E+00 0. -1.
          2   -1    0    0  501    0  0.00000000000E+00 -0.00000000000E+00 -0.17579964217E+04  0.17579964217E+04  0.00000000000E+00 0.  1.
         23    2    1    2    0    0  0.42818783734E+02  0.20889156677E+02 -0.15082186025E+04  0.15117235717E+04  0.91186617378E+02 0.  0.
         11    1    3    3    0    0  0.27356813790E+02  0.16771886509E+02 -0.14924145621E+03  0.15265223120E+03  0.00000000000E+00 0. -1.
        -11    1    3    3    0    0  0.15461969944E+02  0.41172701679E+01 -0.13589771463E+04  0.13590713405E+04  0.00000000000E+00 0.  1.
         22    1    1    2    0    0 -0.42818783734E+02 -0.20889156677E+02 -0.24573745830E+03  0.25031321083E+03  0.00000000000E+00 0. -1.
<mgrwt>
<rscale>  0 0.84870084E+02</rscale>
<asrwt>0</asrwt>
<pdfrwt beam="1">  1        2 0.27046050E+00 0.10288248E+03</pdfrwt>
<pdfrwt beam="2">  1       -2 0.62159511E-03 0.10288248E+03</pdfrwt>
<totfact> 0.39620413E+04</totfact>
</mgrwt>
</event>
<event>
 6    1  0.2852411E-002  0.1370045E+03  0.7546771E-02  0.1227112E+00
         -2   -1    0    0    0  501 -0.00000000000E+00  0.00000000000E+00  0.93566196710E+01  0.93566196710E+01  0.00000000000E+00 0. -1.
          2   -1    0    0  501    0  0.00000000000E+00 -0.00000000000E+00 -0.28526136690E+04  0.28526136690E+04  0.00000000000E+00 0.  1.
         23    2    1    2    0    0 -0.21077631594E+02  0.10985369343E+03 -0.24294949576E+04  0.24333548794E+04  0.79108277587E+02 0.  0.
         11    1    3    3    0    0 -0.39832870495E+02  0.88529469977E+02 -0.13497647121E+04  0.13532512341E+04  0.00000000000E+00 0. -1.
        -11    1    3    3    0    0  0.18755238901E+02  0.21324223450E+02 -0.10797302456E+04  0.10801036453E+04  0.00000000000E+00 0.  1.
         22    1    1    2    0    0  0.21077631594E+02 -0.10985369343E+03 -0.41376209174E+03  0.42861540929E+03  0.00000000000E+00 0. -1.
<mgrwt>
<rscale>  0 0.13023187E+03</rscale>
<asrwt>0</asrwt>
<pdfrwt beam="1">  1        2 0.43886332E+00 0.13700445E+03</pdfrwt>
<pdfrwt beam="2">  1       -2 0.14394810E-02 0.13700445E+03</pdfrwt>
<totfact> 0.32244455E+03</totfact>
</mgrwt>
</event>
<event>
 6    1  0.2852411E-002  0.9228911E+02  0.7546771E-02  0.1389658E+00
          2   -1    0    0  501    0  0.00000000000E+00  0.00000000000E+00  0.24891593133E+03  0.24891593133E+03  0.00000000000E+00 0. -1.
         -2   -1    0    0    0  501 -0.00000000000E+00 -0.00000000000E+00 -0.12476856857E+02  0.12476856857E+02  0.00000000000E+00 0.  1.
         23    2    1    2    0    0 -0.67551368779E+01 -0.17531780083E+02  0.18780626994E+03  0.20925695729E+03  0.90356427310E+02 0.  0.
         11    1    3    3    0    0  0.29794462843E+02  0.23053419315E+02  0.76514392253E+02  0.85285534412E+02  0.00000000000E+00 0. -1.
        -11    1    3    3    0    0 -0.36549599721E+02 -0.40585199398E+02  0.11129187769E+03  0.12397142287E+03  0.00000000000E+00 0.  1.
         22    1    1    2    0    0  0.67551368779E+01  0.17531780083E+02  0.48632804537E+02  0.52135830906E+02  0.00000000000E+00 0. -1.
<mgrwt>
<rscale>  0 0.61991755E+02</rscale>
<asrwt>0</asrwt>
<pdfrwt beam="1">  1        2 0.38294755E-01 0.92289106E+02</pdfrwt>
<pdfrwt beam="2">  1       -2 0.19195166E-02 0.92289106E+02</pdfrwt>
<totfact> 0.94596989E+04</totfact>
</mgrwt>
</event>
<event>
 6    1  0.2852411E-002  0.1046746E+03  0.7546771E-02  0.1310460E+00
          4   -1    0    0  501    0  0.00000000000E+00  0.00000000000E+00  0.51241902528E+03  0.51241902528E+03  0.00000000000E+00 0. -1.
         -4   -1    0    0    0  501 -0.00000000000E+00 -0.00000000000E+00 -0.11661794490E+02  0.11661794490E+02  0.00000000000E+00 0.  1.
         23    2    1    2    0    0 -0.20886462113E+02  0.45199646084E+02  0.34956320003E+03  0.36489888850E+03  0.92073425627E+02 0.  0.
         13    1    3    3    0    0  0.78781149841E+01 -0.12245714414E+02  0.21801933553E+03  0.21850504086E+03  0.00000000000E+00 0. -1.
        -13    1    3    3    0    0 -0.28764577097E+02  0.57445360498E+02  0.13154386450E+03  0.14639384764E+03  0.00000000000E+00 0.  1.
         22    1    1    2    0    0  0.20886462113E+02 -0.45199646084E+02  0.15119403076E+03  0.15918193127E+03  0.00000000000E+00 0.  1.
<mgrwt>
<rscale>  0 0.86930267E+02</rscale>
<asrwt>0</asrwt>
<pdfrwt beam="1">  1        4 0.78833679E-01 0.10467458E+03</pdfrwt>
<pdfrwt beam="2">  1       -4 0.17941226E-02 0.10467458E+03</pdfrwt>
<totfact> 0.27254332E+03</totfact>
</mgrwt>
</event>
<event>
 6    1  0.2852411E-002  0.9253483E+02  0.7546771E-02  0.1413231E+00
          3   -1    0    0  501    0  0.00000000000E+00  0.00000000000E+00  0.11283693906E+03  0.11283693906E+03  0.00000000000E+00 0. -1.
         -3   -1    0    0    0  501 -0.00000000000E+00 -0.00000000000E+00 -0.26674544652E+02  0.26674544652E+02  0.00000000000E+00 0.  1.
         23    2    1    2    0    0  0.65690518049E+00 -0.12825269682E+02  0.86494810793E+02  0.12666510027E+03  0.91639381628E+02 0.  0.
         11    1    3    3    0    0  0.25614998436E+02 -0.18258444768E+02 -0.48394858595E+01  0.31826397434E+02  0.00000000000E+00 0.  1.
        -11    1    3    3    0    0 -0.24958093256E+02  0.54331750862E+01  0.91334296652E+02  0.94838702835E+02  0.00000000000E+00 0. -1.
         22    1    1    2    0    0 -0.65690518049E+00  0.12825269682E+02 -0.33241638940E+00  0.12846383440E+02  0.00000000000E+00 0. -1.
<mgrwt>
<rscale>  0 0.56479103E+02</rscale>
<asrwt>0</asrwt>
<pdfrwt beam="1">  1        3 0.17359529E-01 0.92534833E+02</pdfrwt>
<pdfrwt beam="2">  1       -3 0.41037762E-02 0.92534833E+02</pdfrwt>
<totfact> 0.18439326E+04</totfact>
</mgrwt>
</event>
<event>
 6    1  0.2852411E-002  0.9116477E+02  0.7546771E-02  0.1432378E+00
         -2   -1    0    0    0  501 -0.00000000000E+00  0.00000000000E+00  0.15050487459E+02  0.15050487459E+02  0.00000000000E+00 0. -1.
          2   -1    0    0  501    0  0.00000000000E+00 -0.00000000000E+00 -0.18228623151E+03  0.18228623151E+03  0.00000000000E+00 0.  1.
         23    2    1    2    0    0 -0.93390258526E+01 -0.36190970536E+01 -0.16234529678E+03  0.18619078958E+03  0.90612910068E+02 0.  0.
         13    1    3    3    0    0 -0.16694217413E+02  0.27105011153E+02 -0.14819288535E+03  0.15157344686E+03  0.00000000000E+00 0.  1.
        -13    1    3    3    0    0  0.73551915603E+01 -0.30724108206E+02 -0.14152411434E+02  0.34617342725E+02  0.00000000000E+00 0. -1.
         22    1    1    2    0    0  0.93390258526E+01  0.36190970536E+01 -0.48904472669E+01  0.11145929384E+02  0.00000000000E+00 0. -1.
<mgrwt>
<rscale>  0 0.52485719E+02</rscale>
<asrwt>0</asrwt>
<pdfrwt beam="1">  1        2 0.28044039E-01 0.91164767E+02</pdfrwt>
<pdfrwt beam="2">  1       -2 0.23154594E-02 0.91164767E+02</pdfrwt>
<totfact> 0.10039138E+05</totfact>
</mgrwt>
</event>
<event>
 6    1  0.2852411E-002  0.9138526E+02  0.7546771E-02  0.1398902E+00
         -2   -1    0    0    0  501 -0.00000000000E+00  0.00000000000E+00  0.12997489263E+01  0.12997489263E+01  0.00000000000E+00 0.  1.
          2   -1    0    0  501    0  0.00000000000E+00 -0.00000000000E+00 -0.36424987651E+04  0.36424987651E+04  0.00000000000E+00 0. -1.
         23    2    1    2    0    0  0.12049581530E+02  0.11556340526E+02 -0.35438594628E+04  0.35450375396E+04  0.89847223530E+02 0.  0.
         11    1    3    3    0    0 -0.35886776931E+02  0.18004216143E+02 -0.20563230078E+04  0.20567149353E+04  0.00000000000E+00 0.  1.
        -11    1    3    3    0    0  0.47936358461E+02 -0.64478756166E+01 -0.14875364550E+04  0.14883226043E+04  0.00000000000E+00 0. -1.
         22    1    1    2    0    0 -0.12049581530E+02 -0.11556340526E+02 -0.97339553374E+02  0.98760974440E+02  0.00000000000E+00 0.  1.
<mgrwt>
<rscale>  0 0.59745787E+02</rscale>
<asrwt>0</asrwt>
<pdfrwt beam="1">  1        2 0.56038374E+00 0.91385256E+02</pdfrwt>
<pdfrwt beam="2">  1       -2 0.19996162E-03 0.91385256E+02</pdfrwt>
<totfact> 0.17279069E+04</totfact>
</mgrwt>
</event>
<event>
 6    1  0.2852411E-002  0.9148491E+02  0.7546771E-02  0.1419895E+00
          1   -1    0    0  501    0  0.00000000000E+00  0.00000000000E+00  0.16227120401E+02  0.16227120401E+02  0.00000000000E+00 0. -1.
         -1   -1    0    0    0  501 -0.00000000000E+00 -0.00000000000E+00 -0.16496052708E+03  0.16496052708E+03  0.00000000000E+00 0.  1.
         23    2    1    2    0    0 -0.43920406696E+01  0.11154889080E+02 -0.13193637727E+03  0.16055122898E+03  0.90696019249E+02 0.  0.
         13    1    3    3    0    0 -0.96333219497E+01  0.38118377037E+02 -0.12660640696E+03  0.13257071262E+03  0.00000000000E+00 0.  1.
        -13    1    3    3    0    0  0.52412812801E+01 -0.26963487957E+02 -0.53299703053E+01  0.27980516359E+02  0.00000000000E+00 0. -1.
         22    1    1    2    0    0  0.43920406696E+01 -0.11154889080E+02 -0.16797029409E+02  0.20636418502E+02  0.00000000000E+00 0. -1.
<mgrwt>
<rscale>  0 0.55043033E+02</rscale>
<asrwt>0</asrwt>
<pdfrwt beam="1">  1        1 0.24964799E-02 0.91484914E+02</pdfrwt>
<pdfrwt beam="2">  1       -1 0.25378544E-01 0.91484914E+02</pdfrwt>
<totfact> 0.51615112E+04</totfact>
</mgrwt>
</event>
<event>
 6    1  0.2852411E-002  0.9556782E+02  0.7546771E-02  0.1350471E+00
          1   -1    0    0  501    0  0.00000000000E+00  0.00000000000E+00  0.54869444970E+03  0.54869444970E+03  0.00000000000E+00 0. -1.
         -1   -1    0    0    0  501 -0.00000000000E+00 -0.00000000000E+00 -0.81229696211E+01  0.81229696211E+01  0.00000000000E+00 0.  1.
         23    2    1    2    0    0  0.13272169581E+02 -0.29528230448E+02  0.46302256561E+03  0.47278230158E+03  0.89917415123E+02 0.  0.
         13    1    3    3    0    0  0.56078857901E+01 -0.41978183630E+02  0.89929228774E+02  0.99402628093E+02  0.00000000000E+00 0.  1.
        -13    1    3    3    0    0  0.76642837912E+01  0.12449953182E+02  0.37309333684E+03  0.37337967349E+03  0.00000000000E+00 0. -1.
         22    1    1    2    0    0 -0.13272169581E+02  0.29528230448E+02  0.77548914467E+02  0.84035117741E+02  0.00000000000E+00 0.  1.
<mgrwt>
<rscale>  0 0.72909209E+02</rscale>
<asrwt>0</asrwt>
<pdfrwt beam="1">  1        1 0.84414502E-01 0.95567821E+02</pdfrwt>
<pdfrwt beam="2">  1       -1 0.12496881E-02 0.95567821E+02</pdfrwt>
<totfact> 0.48317418E+04</totfact>
</mgrwt>
</event>
<event>
 6    1  0.2852411E-002  0.9092370E+02  0.7546771E-02  0.1362032E+00
         -2   -1    0    0    0  501 -0.00000000000E+00  0.00000000000E+00  0.17576563758E+02  0.17576563758E+02  0.00000000000E+00 0.  1.
          2   -1    0    0  501    0  0.00000000000E+00 -0.00000000000E+00 -0.25609056377E+03  0.25609056377E+03  0.00000000000E+00 0. -1.
         23    2    1    2    0    0 -0.20018957768E+02  0.23563649663E+02 -0.21894902303E+03  0.23707761291E+03  0.85505061858E+02 0.  0.
         13    1    3    3    0    0 -0.90320978099E+01  0.33960452059E+02 -0.26444121916E+02  0.43979343774E+02  0.00000000000E+00 0.  1.
        -13    1    3    3    0    0 -0.10986859958E+02 -0.10396802396E+02 -0.19250490111E+03  0.19309826914E+03  0.00000000000E+00 0. -1.
         22    1    1    2    0    0  0.20018957768E+02 -0.23563649663E+02 -0.19564976986E+02  0.36589514618E+02  0.00000000000E+00 0.  1.
<mgrwt>
<rscale>  0 0.69432902E+02</rscale>
<asrwt>0</asrwt>
<pdfrwt beam="1">  1        2 0.39398544E-01 0.90923704E+02</pdfrwt>
<pdfrwt beam="2">  1       -2 0.27040870E-02 0.90923704E+02</pdfrwt>
<totfact> 0.55897484E+04</totfact>
</mgrwt>
</event>
<event>
 6    1  0.2852411E-002  0.9653531E+02  0.7546771E-02  0.1389246E+00
         -2   -1    0    0    0  501 -0.00000000000E+00  0.00000000000E+00  0.18614385194E+02  0.18614385194E+02  0.00000000000E+00 0. -1.
          2   -1    0    0  501    0  0.00000000000E+00 -0.00000000000E+00 -0.22635864670E+03  0.22635864670E+03  0.00000000000E+00 0.  1.
         23    2    1    2    0    0  0.10586210353E+02  0.12689556998E+02 -0.20703185628E+03  0.22843216651E+03  0.95110317405E+02 0.  0.
         11    1    3    3    0    0 -0.13481358658E+02  0.50038859983E+02 -0.10275064904E+03  0.11507966987E+03  0.00000000000E+00 0.  1.
        -11    1    3    3    0    0  0.24067569012E+02 -0.37349302984E+02 -0.10428120724E+03  0.11335249664E+03  0.00000000000E+00 0. -1.
         22    1    1    2    0    0 -0.10586210353E+02 -0.12689556998E+02 -0.71240522917E+00  0.16540865384E+02  0.00000000000E+00 0. -1.
<mgrwt>
<rscale>  0 0.62094537E+02</rscale>
<asrwt>0</asrwt>
<pdfrwt beam="1">  1        2 0.34824404E-01 0.96535305E+02</pdfrwt>
<pdfrwt beam="2">  1       -2 0.28637518E-02 0.96535305E+02</pdfrwt>
<totfact> 0.59052699E+04</totfact>
</mgrwt>
</event>
<event>
 6    1  0.2852411E-002  0.9337398E+02  0.7546771E-02  0.1407300E+00
          2   -1    0    0  501    0  0.00000000000E+00  0.00000000000E+00  0.15963782216E+03  0.15963782216E+03  0.00000000000E+00 0. -1.
         -2   -1    0    0    0  501 -0.00000000000E+00 -0.00000000000E+00 -0.20455024906E+02  0.20455024906E+02  0.00000000000E+00 0.  1.
         23    2    1    2    0    0  0.11029151053E+02  0.81448821558E+01  0.13760122449E+03  0.16629130183E+03  0.92361890437E+02 0.  0.
         11    1    3    3    0    0  0.46392972884E+02  0.11717345674E+02  0.39823660421E+02  0.62253739261E+02  0.00000000000E+00 0.  1.
        -11    1    3    3    0    0 -0.35363821831E+02 -0.35724635183E+01  0.97777564073E+02  0.10403756257E+03  0.00000000000E+00 0. -1.
         22    1    1    2    0    0 -0.11029151053E+02 -0.81448821558E+01  0.15815727558E+01  0.13801545227E+02  0.00000000000E+00 0. -1.
<mgrwt>
<rscale>  0 0.57800784E+02</rscale>
<asrwt>0</asrwt>
<pdfrwt beam="1">  1        2 0.24559664E-01 0.93373980E+02</pdfrwt>
<pdfrwt beam="2">  1       -2 0.31469270E-02 0.93373980E+02</pdfrwt>
<totfact> 0.74565327E+04</totfact>
</mgrwt>
</event>
<event>
 6    1  0.2852411E-002  0.9158641E+02  0.7546771E-02  0.1404052E+00
         -2   -1    0    0    0  501 -0.00000000000E+00  0.00000000000E+00  0.97466457130E+01  0.97466457130E+01  0.00000000000E+00 0.  1.
          2   -1    0    0  501    0  0.00000000000E+00 -0.00000000000E+00 -0.10856517611E+04  0.10856517611E+04  0.00000000000E+00 0. -1.
         23    2    1    2    0    0  0.12770821622E+02 -0.84067937211E+01 -0.10762157847E+04  0.10801057752E+04  0.90301176039E+02 0.  0.
         11    1    3    3    0    0  0.22946983372E+01  0.10455804886E+02 -0.10174145898E+04  0.10174709023E+04  0.00000000000E+00 0. -1.
        -11    1    3    3    0    0  0.10476123285E+02 -0.18862598607E+02 -0.58801194868E+02  0.62634872900E+02  0.00000000000E+00 0.  1.
         22    1    1    2    0    0 -0.12770821622E+02  0.84067937211E+01  0.31066929961E+00  0.15292631591E+02  0.00000000000E+00 0.  1.
<mgrwt>
<rscale>  0 0.58542521E+02</rscale>
<asrwt>0</asrwt>
<pdfrwt beam="1">  1        2 0.16702319E+00 0.91586410E+02</pdfrwt>
<pdfrwt beam="2">  1       -2 0.14994853E-02 0.91586410E+02</pdfrwt>
<totfact> 0.25330502E+04</totfact>
</mgrwt>
</event>
<event>
 6    1  0.2852411E-002  0.9059924E+02  0.7546771E-02  0.1431652E+00
         -2   -1    0    0    0  501 -0.00000000000E+00  0.00000000000E+00  0.11052853232E+02  0.11052853232E+02  0.00000000000E+00 0.  1.
          2   -1    0    0  501    0  0.00000000000E+00 -0.00000000000E+00 -0.33069301698E+03  0.33069301698E+03  0.00000000000E+00 0. -1.
         23    2    1    2    0    0  0.85258405807E+01  0.58096070356E+01 -0.31876698964E+03  0.33139193741E+03  0.90009893927E+02 0.  0.
         13    1    3    3    0    0  0.15275889912E+02 -0.97990314501E+01 -0.31286539854E+03  0.31339133912E+03  0.00000000000E+00 0. -1.
        -13    1    3    3    0    0 -0.67500493313E+01  0.15608638486E+02 -0.59015910982E+01  0.18000598291E+02  0.00000000000E+00 0.  1.
         22    1    1    2    0    0 -0.85258405807E+01 -0.58096070356E+01 -0.87317411228E+00  0.10353932806E+02  0.00000000000E+00 0. -1.
<mgrwt>
<rscale>  0 0.52629869E+02</rscale>
<asrwt>0</asrwt>
<pdfrwt beam="1">  1        2 0.50875848E-01 0.90599241E+02</pdfrwt>
<pdfrwt beam="2">  1       -2 0.17004390E-02 0.90599241E+02</pdfrwt>
<totfact> 0.83371508E+04</totfact>
</mgrwt>
</event>
