<event>
 6    1  0.1637818E-005  0.2852647E+04  0.7818608E-02  0.8287107E-01
          1   -1    0    0  501    0  0.00000000000E+00  0.00000000000E+00  0.12622819913E+04  0.12622819913E+04  0.00000000000E+00 0.  1.
         -1   -1    0    0    0  501 -0.00000000000E+00 -0.00000000000E+00 -0.16116835724E+04  0.16116835724E+04  0.00000000000E+00 0. -1.
         23    2    1    2    0    0  0.74336952159E+03 -0.11927626064E+04  0.61288881661E+02  0.14097430610E+04  0.91314238902E+02 0.  0.
         11    1    3    3    0    0  0.52457101611E+03 -0.79125830236E+03  0.78686184448E+01  0.94938209756E+03  0.00000000000E+00 0. -1.
        -11    1    3    3    0    0  0.21879850548E+03 -0.40150430407E+03  0.53420263217E+02  0.46036096349E+03  0.00000000000E+00 0.  1.
         22    1    1    2    0    0 -0.74336952159E+03  0.11927626064E+04 -0.41069046273E+03  0.14642225026E+04  0.00000000000E+00 0. -1.
<mgrwt>
<rscale>  0 0.28526473E+04</rscale>
<asrwt>0</asrwt>
<pdfrwt beam="1">  1        1 0.19419723E+00 0.28526473E+04</pdfrwt>
<pdfrwt beam="2">  1       -1 0.24795132E+00 0.28526473E+04</pdfrwt>
<totfact> 0.59663371E-01</totfact>
</mgrwt>
</event>
<event>
 6    1  0.1637818E-005  0.2194802E+04  0.7818608E-02  0.8520595E-01
          2   -1    0    0  501    0  0.00000000000E+00  0.00000000000E+00  0.31280737441E+04  0.31280737441E+04  0.00000000000E+00 0. -1.
         -2   -1    0    0    0  501 -0.00000000000E+00 -0.00000000000E+00 -0.38499379291E+03  0.38499379291E+03  0.00000000000E+00 0.  1.
         23    2    1    2    0    0 -0.12731175849E+03 -0.53010730482E+03 -0.14737601329E+03  0.57164649931E+03  0.88532437015E+02 0.  0.
         13    1    3    3    0    0 -0.14187425547E+01 -0.16184038347E+03 -0.61184962649E+02  0.17302578480E+03  0.00000000000E+00 0. -1.
        -13    1    3    3    0    0 -0.12589301593E+03 -0.36826692135E+03 -0.86191050640E+02  0.39862071451E+03  0.00000000000E+00 0.  1.
         22    1    1    2    0    0  0.12731175849E+03  0.53010730482E+03  0.28904559645E+04  0.29414210377E+04  0.00000000000E+00 0. -1.
<mgrwt>
<rscale>  0 0.21948020E+04</rscale>
<asrwt>0</asrwt>
<pdfrwt beam="1">  1        2 0.48124210E+00 0.21948020E+04</pdfrwt>
<pdfrwt beam="2">  1       -2 0.59229816E-01 0.21948020E+04</pdfrwt>
<totfact> 0.35199926E+00</totfact>
</mgrwt>
</event>
<event>
 6    1  0.1637818E-005  0.2338792E+04  0.7818608E-02  0.8462781E-01
         -2   -1    0    0    0  501 -0.00000000000E+00  0.00000000000E+00  0.87688845183E+03  0.87688845183E+03  0.00000000000E+00 0.  1.
          2   -1    0    0  501    0  0.00000000000E+00 -0.00000000000E+00 -0.15594767148E+04  0.15594767148E+04  0.00000000000E+00 0. -1.
         23    2    1    2    0    0 -0.18312236244E+03  0.11049312718E+03 -0.15375251179E+04  0.15550822627E+04  0.92492295516E+02 0.  0.
         11    1    3    3    0    0 -0.10472227103E+02  0.46529562326E+02 -0.25694423220E+03  0.26133313256E+03  0.00000000000E+00 0. -1.
        -11    1    3    3    0    0 -0.17265013533E+03  0.63963564859E+02 -0.12805808857E+04  0.12937491301E+04  0.00000000000E+00 0.  1.
         22    1    1    2    0    0  0.18312236244E+03 -0.11049312718E+03  0.85493685497E+03  0.88128290393E+03  0.00000000000E+00 0.  1.
<mgrwt>
<rscale>  0 0.23387921E+04</rscale>
<asrwt>0</asrwt>
<pdfrwt beam="1">  1        2 0.23991949E+00 0.23387921E+04</pdfrwt>
<pdfrwt beam="2">  1       -2 0.13490592E+00 0.23387921E+04</pdfrwt>
<totfact> 0.41979337E+00</totfact>
</mgrwt>
</event>
<event>
 6    1  0.1637818E-005  0.1717311E+04  0.7818608E-02  0.8751552E-01
          2   -1    0    0  501    0  0.00000000000E+00  0.00000000000E+00  0.82721074563E+03  0.82721074563E+03  0.00000000000E+00 0.  1.
         -2   -1    0    0    0  501 -0.00000000000E+00 -0.00000000000E+00 -0.89129572988E+03  0.89129572988E+03  0.00000000000E+00 0. -1.
         23    2    1    2    0    0 -0.29957815371E+03 -0.73732855223E+03 -0.34810201094E+03  0.87348213530E+03  0.91627324245E+02 0.  0.
         13    1    3    3    0    0 -0.28960739163E+03 -0.63058574133E+03 -0.30250761571E+03  0.75698195224E+03  0.00000000000E+00 0.  1.
        -13    1    3    3    0    0 -0.99707620738E+01 -0.10674281090E+03 -0.45594395233E+02  0.11650018306E+03  0.00000000000E+00 0. -1.
         22    1    1    2    0    0  0.29957815371E+03  0.73732855223E+03  0.28401702669E+03  0.84502434022E+03  0.00000000000E+00 0.  1.
<mgrwt>
<rscale>  0 0.17173112E+04</rscale>
<asrwt>0</asrwt>
<pdfrwt beam="1">  1        2 0.12726319E+00 0.17173112E+04</pdfrwt>
<pdfrwt beam="2">  1       -2 0.13712242E+00 0.17173112E+04</pdfrwt>
<totfact> 0.11859245E+01</totfact>
</mgrwt>
</event>
<event>
 6    1  0.1637818E-005  0.3175865E+04  0.7818608E-02  0.8195220E-01
         -2   -1    0    0    0  501 -0.00000000000E+00  0.00000000000E+00  0.92587445041E+03  0.92587445041E+03  0.00000000000E+00 0.  1.
          2   -1    0    0  501    0  0.00000000000E+00 -0.00000000000E+00 -0.27234034723E+04  0.27234034723E+04  0.00000000000E+00 0. -1.
         23    2    1    2    0    0 -0.30715832300E+03 -0.67433174351E+03 -0.25115615921E+04  0.26202434009E+04  0.93082291951E+02 0.  0.
         11    1    3    3    0    0 -0.94566683359E+02 -0.12951289907E+03 -0.61466763002E+03  0.63524227191E+03  0.00000000000E+00 0.  1.
        -11    1    3    3    0    0 -0.21259163964E+03 -0.54481884445E+03 -0.18968939621E+04  0.19850011290E+04  0.00000000000E+00 0. -1.
         22    1    1    2    0    0  0.30715832300E+03  0.67433174351E+03  0.71403257026E+03  0.10290345218E+04  0.00000000000E+00 0.  1.
<mgrwt>
<rscale>  0 0.31758650E+04</rscale>
<asrwt>0</asrwt>
<pdfrwt beam="1">  1        2 0.41898515E+00 0.31758650E+04</pdfrwt>
<pdfrwt beam="2">  1       -2 0.14244222E+00 0.31758650E+04</pdfrwt>
<totfact> 0.74457052E-01</totfact>
</mgrwt>
</event>
<event>
 6    1  0.1637818E-005  0.3767934E+04  0.7818608E-02  0.8053071E-01
         -2   -1    0    0    0  501 -0.00000000000E+00  0.00000000000E+00  0.17170576066E+04  0.17170576066E+04  0.00000000000E+00 0.  1.
          2   -1    0    0  501    0  0.00000000000E+00 -0.00000000000E+00 -0.20671016030E+04  0.20671016030E+04  0.00000000000E+00 0. -1.
         23    2    1    2    0    0 -0.87486957528E+03 -0.83020095565E+03  0.12770283557E+04  0.17588210059E+04  0.89551710941E+02 0.  0.
         13    1    3    3    0    0 -0.56016525155E+03 -0.57527446950E+03  0.88902580131E+03  0.11979535465E+04  0.00000000000E+00 0.  1.
        -13    1    3    3    0    0 -0.31470432373E+03 -0.25492648615E+03  0.38800255442E+03  0.56086745934E+03  0.00000000000E+00 0. -1.
         22    1    1    2    0    0  0.87486957528E+03  0.83020095565E+03 -0.16270723521E+04  0.20253382037E+04  0.00000000000E+00 0. -1.
<mgrwt>
<rscale>  0 0.37679345E+04</rscale>
<asrwt>0</asrwt>
<pdfrwt beam="1">  1        2 0.31801563E+00 0.37679345E+04</pdfrwt>
<pdfrwt beam="2">  1       -2 0.26416271E+00 0.37679345E+04</pdfrwt>
<totfact> 0.25930888E-01</totfact>
</mgrwt>
</event>
<event>
 6    1  0.1637818E-005  0.1725591E+04  0.7818608E-02  0.8746902E-01
         -2   -1    0    0    0  501 -0.00000000000E+00  0.00000000000E+00  0.58316712105E+03  0.58316712105E+03  0.00000000000E+00 0.  1.
          2   -1    0    0  501    0  0.00000000000E+00 -0.00000000000E+00 -0.12765059485E+04  0.12765059485E+04  0.00000000000E+00 0. -1.
         23    2    1    2    0    0  0.23917089980E+02  0.81864992832E+03 -0.63165929495E+03  0.10383545582E+04  0.91798645658E+02 0.  0.
         11    1    3    3    0    0 -0.63402833826E+01  0.44683697935E+03 -0.39614457560E+03  0.59718842093E+03  0.00000000000E+00 0. -1.
        -11    1    3    3    0    0  0.30257373363E+02  0.37181294897E+03 -0.23551471935E+03  0.44116613729E+03  0.00000000000E+00 0.  1.
         22    1    1    2    0    0 -0.23917089980E+02 -0.81864992832E+03 -0.61679532498E+02  0.82131851133E+03  0.00000000000E+00 0. -1.
<mgrwt>
<rscale>  0 0.17255913E+04</rscale>
<asrwt>0</asrwt>
<pdfrwt beam="1">  1        2 0.19638553E+00 0.17255913E+04</pdfrwt>
<pdfrwt beam="2">  1       -2 0.89718019E-01 0.17255913E+04</pdfrwt>
<totfact> 0.17251427E+01</totfact>
</mgrwt>
</event>
<event>
 6    1  0.1637818E-005  0.1471332E+04  0.7818608E-02  0.8903744E-01
          2   -1    0    0  501    0  0.00000000000E+00  0.00000000000E+00  0.43471880925E+03  0.43471880925E+03  0.00000000000E+00 0.  1.
         -2   -1    0    0    0  501 -0.00000000000E+00 -0.00000000000E+00 -0.12449525808E+04  0.12449525808E+04  0.00000000000E+00 0. -1.
         23    2    1    2    0    0 -0.70780802502E+03  0.18273442946E+03 -0.34789467855E+03  0.81471965214E+03  0.91396565742E+02 0.  0.
         11    1    3    3    0    0 -0.12528009349E+03  0.49043615940E+02 -0.10021326290E+03  0.16775898232E+03  0.00000000000E+00 0. -1.
        -11    1    3    3    0    0 -0.58252793153E+03  0.13369081352E+03 -0.24768141565E+03  0.64696066982E+03  0.00000000000E+00 0.  1.
         22    1    1    2    0    0  0.70780802502E+03 -0.18273442946E+03 -0.46233909299E+03  0.86495173790E+03  0.00000000000E+00 0. -1.
<mgrwt>
<rscale>  0 0.14713318E+04</rscale>
<asrwt>0</asrwt>
<pdfrwt beam="1">  1        2 0.66879818E-01 0.14713318E+04</pdfrwt>
<pdfrwt beam="2">  1       -2 0.19153116E+00 0.14713318E+04</pdfrwt>
<totfact> 0.10592990E+01</totfact>
</mgrwt>
</event>
<event>
 6    1  0.1637818E-005  0.5392533E+04  0.7818608E-02  0.7770652E-01
          2   -1    0    0  501    0  0.00000000000E+00  0.00000000000E+00  0.29827391244E+04  0.29827391244E+04  0.00000000000E+00 0. -1.
         -2   -1    0    0    0  501 -0.00000000000E+00 -0.00000000000E+00 -0.24373076401E+04  0.24373076401E+04  0.00000000000E+00 0.  1.
         23    2    1    2    0    0  0.44488476744E+03 -0.13897362848E+04 -0.20052844529E+04  0.24814346449E+04  0.84040240934E+02 0.  0.
         11    1    3    3    0    0  0.26169972068E+03 -0.77975649750E+03 -0.11977807928E+04  0.14529920050E+04  0.00000000000E+00 0. -1.
        -11    1    3    3    0    0  0.18318504676E+03 -0.60997978732E+03 -0.80750366014E+03  0.10284426398E+04  0.00000000000E+00 0.  1.
         22    1    1    2    0    0 -0.44488476744E+03  0.13897362848E+04  0.25507159372E+04  0.29386121197E+04  0.00000000000E+00 0. -1.
<mgrwt>
<rscale>  0 0.53925329E+04</rscale>
<asrwt>0</asrwt>
<pdfrwt beam="1">  1        2 0.45888294E+00 0.53925329E+04</pdfrwt>
<pdfrwt beam="2">  1       -2 0.37497040E+00 0.53925329E+04</pdfrwt>
<totfact> 0.13590347E-02</totfact>
</mgrwt>
</event>
<event>
 6    1  0.1637818E-005  0.2991546E+04  0.7818608E-02  0.8246149E-01
          2   -1    0    0  501    0  0.00000000000E+00  0.00000000000E+00  0.16699046362E+04  0.16699046362E+04  0.00000000000E+00 0. -1.
         -2   -1    0    0    0  501 -0.00000000000E+00 -0.00000000000E+00 -0.13397992479E+04  0.13397992479E+04  0.00000000000E+00 0.  1.
         23    2    1    2    0    0  0.45184667303E-01  0.47833565098E+03 -0.12590802689E+04  0.13500906611E+04  0.93041240945E+02 0.  0.
         11    1    3    3    0    0 -0.31103515842E+02  0.38579283830E+03 -0.10575622073E+04  0.11261622285E+04  0.00000000000E+00 0.  1.
        -11    1    3    3    0    0  0.31148700509E+02  0.92542812673E+02 -0.20151806163E+03  0.22392843251E+03  0.00000000000E+00 0. -1.
         22    1    1    2    0    0 -0.45184667303E-01 -0.47833565098E+03  0.15891856572E+04  0.16596132230E+04  0.00000000000E+00 0. -1.
<mgrwt>
<rscale>  0 0.29915461E+04</rscale>
<asrwt>0</asrwt>
<pdfrwt beam="1">  1        2 0.25690841E+00 0.29915461E+04</pdfrwt>
<pdfrwt beam="2">  1       -2 0.20612296E+00 0.29915461E+04</pdfrwt>
<totfact> 0.10592823E+00</totfact>
</mgrwt>
</event>
<event>
 6    1  0.1637818E-005  0.1622351E+04  0.7818608E-02  0.8806934E-01
          3   -1    0    0  501    0  0.00000000000E+00  0.00000000000E+00  0.10417863720E+04  0.10417863720E+04  0.00000000000E+00 0. -1.
         -3   -1    0    0    0  501 -0.00000000000E+00 -0.00000000000E+00 -0.63161264453E+03  0.63161264453E+03  0.00000000000E+00 0.  1.
         23    2    1    2    0    0  0.26899787419E+03 -0.68849486863E+03 -0.13243451647E+03  0.75644277614E+03  0.91004021780E+02 0.  0.
         11    1    3    3    0    0  0.20767527407E+03 -0.46954647158E+03 -0.12749196293E+03  0.52901522572E+03  0.00000000000E+00 0. -1.
        -11    1    3    3    0    0  0.61322600116E+02 -0.21894839704E+03 -0.49425535421E+01  0.22742755042E+03  0.00000000000E+00 0.  1.
         22    1    1    2    0    0 -0.26899787419E+03  0.68849486863E+03  0.54260824399E+03  0.91695624044E+03  0.00000000000E+00 0.  1.
<mgrwt>
<rscale>  0 0.16223507E+04</rscale>
<asrwt>0</asrwt>
<pdfrwt beam="1">  1        3 0.16027483E+00 0.16223507E+04</pdfrwt>
<pdfrwt beam="2">  1       -3 0.97171176E-01 0.16223507E+04</pdfrwt>
<totfact> 0.63682122E-01</totfact>
</mgrwt>
</event>
<event>
 6    1  0.1637818E-005  0.1722759E+04  0.7818608E-02  0.8748489E-01
         -1   -1    0    0    0  501 -0.00000000000E+00  0.00000000000E+00  0.10751443491E+04  0.10751443491E+04  0.00000000000E+00 0.  1.
          1   -1    0    0  501    0  0.00000000000E+00 -0.00000000000E+00 -0.69011631614E+03  0.69011631614E+03  0.00000000000E+00 0. -1.
         23    2    1    2    0    0  0.47396463150E+03  0.19647996666E+03 -0.51285055821E+03  0.73112681815E+03  0.91015822517E+02 0.  0.
         13    1    3    3    0    0  0.16146550549E+03  0.27032484261E+02 -0.13347116774E+03  0.21122598630E+03  0.00000000000E+00 0. -1.
        -13    1    3    3    0    0  0.31249912601E+03  0.16944748240E+03 -0.37937939047E+03  0.51990083185E+03  0.00000000000E+00 0.  1.
         22    1    1    2    0    0 -0.47396463150E+03 -0.19647996666E+03  0.89787859113E+03  0.10341338471E+04  0.00000000000E+00 0.  1.
<mgrwt>
<rscale>  0 0.17227590E+04</rscale>
<asrwt>0</asrwt>
<pdfrwt beam="1">  1        1 0.10617174E+00 0.17227590E+04</pdfrwt>
<pdfrwt beam="2">  1       -1 0.16540682E+00 0.17227590E+04</pdfrwt>
<totfact> 0.70364377E+00</totfact>
</mgrwt>
</event>
<event>
 6    1  0.1637818E-005  0.2455824E+04  0.7818608E-02  0.8418895E-01
         -2   -1    0    0    0  501 -0.00000000000E+00  0.00000000000E+00  0.87745607149E+03  0.87745607149E+03  0.00000000000E+00 0. -1.
          2   -1    0    0  501    0  0.00000000000E+00 -0.00000000000E+00 -0.17183403340E+04  0.17183403340E+04  0.00000000000E+00 0.  1.
         23    2    1    2    0    0  0.96537272958E+03  0.26998711241E+03  0.32554458031E+03  0.10578127277E+04  0.90282584980E+02 0.  0.
         11    1    3    3    0    0  0.47614930648E+03  0.14574613490E+03  0.11597520964E+03  0.51128304016E+03  0.00000000000E+00 0. -1.
        -11    1    3    3    0    0  0.48922342310E+03  0.12424097750E+03  0.20956937067E+03  0.54652968750E+03  0.00000000000E+00 0.  1.
         22    1    1    2    0    0 -0.96537272958E+03 -0.26998711241E+03 -0.11664288428E+04  0.15379836778E+04  0.00000000000E+00 0.  1.
<mgrwt>
<rscale>  0 0.24558242E+04</rscale>
<asrwt>0</asrwt>
<pdfrwt beam="1">  1        2 0.26436005E+00 0.24558242E+04</pdfrwt>
<pdfrwt beam="2">  1       -2 0.13499324E+00 0.24558242E+04</pdfrwt>
<totfact> 0.33836623E+00</totfact>
</mgrwt>
</event>
<event>
 6    1  0.1637818E-005  0.1605297E+04  0.7818608E-02  0.8817300E-01
         -2   -1    0    0    0  501 -0.00000000000E+00  0.00000000000E+00  0.25331316145E+03  0.25331316145E+03  0.00000000000E+00 0. -1.
          2   -1    0    0  501    0  0.00000000000E+00 -0.00000000000E+00 -0.25432733945E+04  0.25432733945E+04  0.00000000000E+00 0.  1.
         23    2    1    2    0    0  0.36407033450E+03 -0.53816391433E+03 -0.19624622860E+04  0.20689722952E+04  0.84973686074E+02 0.  0.
         13    1    3    3    0    0  0.31802907798E+03 -0.48052592581E+03 -0.18116463751E+04  0.19010813366E+04  0.00000000000E+00 0.  1.
        -13    1    3    3    0    0  0.46041256513E+02 -0.57637988519E+02 -0.15081591086E+03  0.16789095864E+03  0.00000000000E+00 0. -1.
         22    1    1    2    0    0 -0.36407033450E+03  0.53816391433E+03 -0.32749794713E+03  0.72761426080E+03  0.00000000000E+00 0. -1.
<mgrwt>
<rscale>  0 0.16052970E+04</rscale>
<asrwt>0</asrwt>
<pdfrwt beam="1">  1        2 0.39127282E+00 0.16052970E+04</pdfrwt>
<pdfrwt beam="2">  1       -2 0.38971257E-01 0.16052970E+04</pdfrwt>
<totfact> 0.19643730E+01</totfact>
</mgrwt>
</event>
<event>
 6    1  0.1637818E-005  0.4580091E+04  0.7818608E-02  0.7896763E-01
         -2   -1    0    0    0  501 -0.00000000000E+00  0.00000000000E+00  0.24476275723E+04  0.24476275723E+04  0.00000000000E+00 0.  1.
          2   -1    0    0  501    0  0.00000000000E+00 -0.00000000000E+00 -0.21426091263E+04  0.21426091263E+04  0.00000000000E+00 0. -1.
         23    2    1    2    0    0  0.16345166709E+04  0.56956591656E+03  0.16539308095E+04  0.23957858231E+04  0.90843307488E+02 0.  0.
         11    1    3    3    0    0  0.52150322602E+03  0.22227352013E+03  0.51537895511E+03  0.76615050732E+03  0.00000000000E+00 0. -1.
        -11    1    3    3    0    0  0.11130134449E+04  0.34729239643E+03  0.11385518544E+04  0.16296353157E+04  0.00000000000E+00 0.  1.
         22    1    1    2    0    0 -0.16345166709E+04 -0.56956591656E+03 -0.13489123636E+04  0.21944508756E+04  0.00000000000E+00 0. -1.
<mgrwt>
<rscale>  0 0.45800913E+04</rscale>
<asrwt>0</asrwt>
<pdfrwt beam="1">  1        2 0.32963217E+00 0.45800913E+04</pdfrwt>
<pdfrwt beam="2">  1       -2 0.37655809E+00 0.45800913E+04</pdfrwt>
<totfact> 0.44121777E-02</totfact>
</mgrwt>
</event>
<event>
 6    1  0.1637818E-005  0.3952490E+04  0.7818608E-02  0.8014200E-01
          2   -1    0    0  501    0  0.00000000000E+00  0.00000000000E+00  0.22610056276E+04  0.22610056276E+04  0.00000000000E+00 0. -1.
         -2   -1    0    0    0  501 -0.00000000000E+00 -0.00000000000E+00 -0.17273481055E+04  0.17273481055E+04  0.00000000000E+00 0.  1.
         23    2    1    2    0    0  0.74463482872E+03 -0.17972413922E+04 -0.77865422987E+02  0.19491092744E+04  0.91685821079E+02 0.  0.
         11    1    3    3    0    0  0.25873575751E+03 -0.66172694627E+03  0.13360137780E+02  0.71063720485E+03  0.00000000000E+00 0.  1.
        -11    1    3    3    0    0  0.48589907121E+03 -0.11355144459E+04 -0.91225560767E+02  0.12384720696E+04  0.00000000000E+00 0. -1.
         22    1    1    2    0    0 -0.74463482872E+03  0.17972413922E+04  0.61152294508E+03  0.20392444587E+04  0.00000000000E+00 0. -1.
<mgrwt>
<rscale>  0 0.39524897E+04</rscale>
<asrwt>0</asrwt>
<pdfrwt beam="1">  1        2 0.34784702E+00 0.39524897E+04</pdfrwt>
<pdfrwt beam="2">  1       -2 0.26574586E+00 0.39524897E+04</pdfrwt>
<totfact> 0.19439987E-01</totfact>
</mgrwt>
</event>
<event>
 6    1  0.1637818E-005  0.3024130E+04  0.7818608E-02  0.8236874E-01
         -1   -1    0    0    0  501 -0.00000000000E+00  0.00000000000E+00  0.17034383931E+04  0.17034383931E+04  0.00000000000E+00 0.  1.
          1   -1    0    0  501    0  0.00000000000E+00 -0.00000000000E+00 -0.13421912855E+04  0.13421912855E+04  0.00000000000E+00 0. -1.
         23    2    1    2    0    0 -0.18914767021E+03 -0.14002413302E+04 -0.35758812770E+03  0.14603294800E+04  0.90776082981E+02 0.  0.
         11    1    3    3    0    0 -0.11955559230E+03 -0.83763216843E+03 -0.16855877711E+03  0.86274750106E+03  0.00000000000E+00 0.  1.
        -11    1    3    3    0    0 -0.69592077914E+02 -0.56260916178E+03 -0.18902935059E+03  0.59758197899E+03  0.00000000000E+00 0. -1.
         22    1    1    2    0    0  0.18914767021E+03  0.14002413302E+04  0.71883523530E+03  0.15853001985E+04  0.00000000000E+00 0.  1.
<mgrwt>
<rscale>  0 0.30241297E+04</rscale>
<asrwt>0</asrwt>
<pdfrwt beam="1">  1        1 0.20649097E+00 0.30241297E+04</pdfrwt>
<pdfrwt beam="2">  1       -1 0.26206745E+00 0.30241297E+04</pdfrwt>
<totfact> 0.41700159E-01</totfact>
</mgrwt>
</event>
<event>
 6    1  0.1637818E-005  0.1781048E+04  0.7818608E-02  0.8716443E-01
         -2   -1    0    0    0  501 -0.00000000000E+00  0.00000000000E+00  0.32406429585E+03  0.32406429585E+03  0.00000000000E+00 0.  1.
          2   -1    0    0  501    0  0.00000000000E+00 -0.00000000000E+00 -0.24471471710E+04  0.24471471710E+04  0.00000000000E+00 0. -1.
         23    2    1    2    0    0  0.80401827788E+03 -0.10928150127E+03 -0.50231760191E+03  0.95868066473E+03  0.91421037288E+02 0.  0.
         13    1    3    3    0    0  0.39191912486E+03 -0.27288619651E+02 -0.19848489382E+03  0.44016079138E+03  0.00000000000E+00 0.  1.
        -13    1    3    3    0    0  0.41209915302E+03 -0.81992881622E+02 -0.30383270809E+03  0.51851987336E+03  0.00000000000E+00 0. -1.
         22    1    1    2    0    0 -0.80401827788E+03  0.10928150127E+03 -0.16207652733E+04  0.18125308022E+04  0.00000000000E+00 0. -1.
<mgrwt>
<rscale>  0 0.17810480E+04</rscale>
<asrwt>0</asrwt>
<pdfrwt beam="1">  1        2 0.37648418E+00 0.17810480E+04</pdfrwt>
<pdfrwt beam="2">  1       -2 0.49856046E-01 0.17810480E+04</pdfrwt>
<totfact> 0.13456698E+01</totfact>
</mgrwt>
</event>
<event>
 6    1  0.1637818E-005  0.1819638E+04  0.7818608E-02  0.8695925E-01
         -1   -1    0    0    0  501 -0.00000000000E+00  0.00000000000E+00  0.34430369260E+03  0.34430369260E+03  0.00000000000E+00 0.  1.
          1   -1    0    0  501    0  0.00000000000E+00 -0.00000000000E+00 -0.24041883041E+04  0.24041883041E+04  0.00000000000E+00 0. -1.
         23    2    1    2    0    0 -0.37360271928E+02 -0.42170775639E+03 -0.22450616695E+04  0.22864056795E+04  0.90087788891E+02 0.  0.
         13    1    3    3    0    0 -0.38361040743E+02 -0.10204580768E+03 -0.71956224230E+03  0.72777382259E+03  0.00000000000E+00 0.  1.
        -13    1    3    3    0    0  0.10007688148E+01 -0.31966194871E+03 -0.15254994272E+04  0.15586318569E+04  0.00000000000E+00 0. -1.
         22    1    1    2    0    0  0.37360271928E+02  0.42170775639E+03  0.18517705801E+03  0.46208631719E+03  0.00000000000E+00 0.  1.
<mgrwt>
<rscale>  0 0.18196383E+04</rscale>
<asrwt>0</asrwt>
<pdfrwt beam="1">  1        1 0.36987511E+00 0.18196383E+04</pdfrwt>
<pdfrwt beam="2">  1       -1 0.52969800E-01 0.18196383E+04</pdfrwt>
<totfact> 0.53464011E+00</totfact>
</mgrwt>
</event>
<event>
 6    1  0.1637818E-005  0.1318220E+04  0.7818608E-02  0.9015240E-01
          2   -1    0    0  501    0  0.00000000000E+00  0.00000000000E+00  0.17699527195E+04  0.17699527195E+04  0.00000000000E+00 0. -1.
         -2   -1    0    0    0  501 -0.00000000000E+00 -0.00000000000E+00 -0.24544487347E+03  0.24544487347E+03  0.00000000000E+00 0.  1.
         23    2    1    2    0    0 -0.32596749396E+03 -0.47594367045E+03  0.12432474583E+04  0.13736152387E+04  0.91528120530E+02 0.  0.
         13    1    3    3    0    0 -0.25344939336E+03 -0.35492958777E+03  0.84128374195E+03  0.94761275938E+03  0.00000000000E+00 0. -1.
        -13    1    3    3    0    0 -0.72518100608E+02 -0.12101408268E+03  0.40196371637E+03  0.42600247933E+03  0.00000000000E+00 0.  1.
         22    1    1    2    0    0  0.32596749396E+03  0.47594367045E+03  0.28126038775E+03  0.64178235429E+03  0.00000000000E+00 0. -1.
<mgrwt>
<rscale>  0 0.13182197E+04</rscale>
<asrwt>0</asrwt>
<pdfrwt beam="1">  1        2 0.27230041E+00 0.13182197E+04</pdfrwt>
<pdfrwt beam="2">  1       -2 0.37760751E-01 0.13182197E+04</pdfrwt>
<totfact> 0.58089323E+01</totfact>
</mgrwt>
</event>
<event>
 6    1  0.1637818E-005  0.1199051E+04  0.7818608E-02  0.9113688E-01
         -2   -1    0    0    0  501 -0.00000000000E+00  0.00000000000E+00  0.29006929771E+03  0.29006929771E+03  0.00000000000E+00 0.  1.
          2   -1    0    0  501    0  0.00000000000E+00 -0.00000000000E+00 -0.12391202575E+04  0.12391202575E+04  0.00000000000E+00 0. -1.
         23    2    1    2    0    0 -0.42530307848E+03 -0.10372071183E+03  0.36693351535E+02  0.45061060960E+03  0.10031363223E+03 0.  0.
         11    1    3    3    0    0 -0.21567804107E+03 -0.77420584375E+02  0.63142610264E+02  0.23769298163E+03  0.00000000000E+00 0. -1.
        -11    1    3    3    0    0 -0.20962503741E+03 -0.26300127453E+02 -0.26449258730E+02  0.21291762797E+03  0.00000000000E+00 0.  1.
         22    1    1    2    0    0  0.42530307848E+03  0.10372071183E+03 -0.98574431131E+03  0.10785789456E+04  0.00000000000E+00 0. -1.
<mgrwt>
<rscale>  0 0.11990509E+04</rscale>
<asrwt>0</asrwt>
<pdfrwt beam="1">  1        2 0.19063388E+00 0.11990509E+04</pdfrwt>
<pdfrwt beam="2">  1       -2 0.44626046E-01 0.11990509E+04</pdfrwt>
<totfact> 0.84318153E+01</totfact>
</mgrwt>
</event>
<event>
 6    1  0.1637818E-005  0.2631854E+04  0.7818608E-02  0.8357461E-01
          1   -1    0    0  501    0  0.00000000000E+00  0.00000000000E+00  0.14031844979E+04  0.14031844979E+04  0.00000000000E+00 0. -1.
         -1   -1    0    0    0  501 -0.00000000000E+00 -0.00000000000E+00 -0.12340952812E+04  0.12340952812E+04  0.00000000000E+00 0.  1.
         23    2    1    2    0    0 -0.82381651151E+03 -0.31228273407E+03 -0.89212826100E+03  0.12580130588E+04  0.10251766364E+03 0.  0.
         13    1    3    3    0    0 -0.38036349238E+03 -0.90370621984E+02 -0.38248359051E+03  0.54693412095E+03  0.00000000000E+00 0. -1.
        -13    1    3    3    0    0 -0.44345301913E+03 -0.22191211209E+03 -0.50964467049E+03  0.71107893783E+03  0.00000000000E+00 0.  1.
         22    1    1    2    0    0  0.82381651151E+03  0.31228273407E+03  0.10612174777E+04  0.13792667203E+04  0.00000000000E+00 0. -1.
<mgrwt>
<rscale>  0 0.26318536E+04</rscale>
<asrwt>0</asrwt>
<pdfrwt beam="1">  1        1 0.21587454E+00 0.26318536E+04</pdfrwt>
<pdfrwt beam="2">  1       -1 0.18986081E+00 0.26318536E+04</pdfrwt>
<totfact> 0.11889640E+00</totfact>
</mgrwt>
</event>
<event>
 6    1  0.1637818E-005  0.1825131E+04  0.7818608E-02  0.8693048E-01
          2   -1    0    0  501    0  0.00000000000E+00  0.00000000000E+00  0.16294191500E+04  0.16294191500E+04  0.00000000000E+00 0. -1.
         -2   -1    0    0    0  501 -0.00000000000E+00 -0.00000000000E+00 -0.51108778130E+03  0.51108778130E+03  0.00000000000E+00 0.  1.
         23    2    1    2    0    0  0.43244961729E+03 -0.72152632277E+03  0.15412855762E+03  0.86093670392E+03  0.99214363543E+02 0.  0.
         13    1    3    3    0    0  0.36217640257E+03 -0.52138884694E+03  0.11056982178E+03  0.64439410440E+03  0.00000000000E+00 0.  1.
        -13    1    3    3    0    0  0.70273214713E+02 -0.20013747583E+03  0.43558735847E+02  0.21654259952E+03  0.00000000000E+00 0. -1.
         22    1    1    2    0    0 -0.43244961729E+03  0.72152632277E+03  0.96420281111E+03  0.12795702274E+04  0.00000000000E+00 0. -1.
<mgrwt>
<rscale>  0 0.18251315E+04</rscale>
<asrwt>0</asrwt>
<pdfrwt beam="1">  1        2 0.25067987E+00 0.18251315E+04</pdfrwt>
<pdfrwt beam="2">  1       -2 0.78628890E-01 0.18251315E+04</pdfrwt>
<totfact> 0.14536839E+01</totfact>
</mgrwt>
</event>
<event>
 6    1  0.1637818E-005  0.1492929E+04  0.7818608E-02  0.8889168E-01
         -2   -1    0    0    0  501 -0.00000000000E+00  0.00000000000E+00  0.34128473516E+04  0.34128473516E+04  0.00000000000E+00 0.  1.
          2   -1    0    0  501    0  0.00000000000E+00 -0.00000000000E+00 -0.16326821474E+03  0.16326821474E+03  0.00000000000E+00 0. -1.
         23    2    1    2    0    0  0.50698857301E+03  0.76677031786E+02  0.29211551527E+04  0.29671992390E+04  0.90593140323E+02 0.  0.
         13    1    3    3    0    0  0.18558092120E+03  0.55166067816E+02  0.90549746637E+03  0.92596394906E+03  0.00000000000E+00 0. -1.
        -13    1    3    3    0    0  0.32140765181E+03  0.21510963971E+02  0.20156576864E+04  0.20412352899E+04  0.00000000000E+00 0.  1.
         22    1    1    2    0    0 -0.50698857301E+03 -0.76677031786E+02  0.32842398409E+03  0.60891632733E+03  0.00000000000E+00 0. -1.
<mgrwt>
<rscale>  0 0.14929293E+04</rscale>
<asrwt>0</asrwt>
<pdfrwt beam="1">  1        2 0.25118189E-01 0.14929293E+04</pdfrwt>
<pdfrwt beam="2">  1       -2 0.52505338E+00 0.14929293E+04</pdfrwt>
<totfact> 0.24564623E-01</totfact>
</mgrwt>
</event>
<event>
 6    1  0.1637818E-005  0.1784061E+04  0.7818608E-02  0.8714822E-01
         -2   -1    0    0    0  501 -0.00000000000E+00  0.00000000000E+00  0.34791366660E+03  0.34791366660E+03  0.00000000000E+00 0.  1.
          2   -1    0    0  501    0  0.00000000000E+00 -0.00000000000E+00 -0.22871156658E+04  0.22871156658E+04  0.00000000000E+00 0. -1.
         23    2    1    2    0    0  0.55419497804E+02 -0.57511257867E+03  0.27074826317E+02  0.58562201481E+03  0.91620407764E+02 0.  0.
         11    1    3    3    0    0  0.42626165557E+02 -0.35861706936E+03 -0.26872191829E+02  0.36213989993E+03  0.00000000000E+00 0.  1.
        -11    1    3    3    0    0  0.12793332247E+02 -0.21649550931E+03  0.53947018146E+02  0.22348211488E+03  0.00000000000E+00 0. -1.
         22    1    1    2    0    0 -0.55419497804E+02  0.57511257867E+03 -0.19662768256E+04  0.20494073176E+04  0.00000000000E+00 0. -1.
<mgrwt>
<rscale>  0 0.17840614E+04</rscale>
<asrwt>0</asrwt>
<pdfrwt beam="1">  1        2 0.35186396E+00 0.17840614E+04</pdfrwt>
<pdfrwt beam="2">  1       -2 0.53525177E-01 0.17840614E+04</pdfrwt>
<totfact> 0.14343889E+01</totfact>
</mgrwt>
</event>
<event>
 6    1  0.1637818E-005  0.1693232E+04  0.7818608E-02  0.8765234E-01
         -1   -1    0    0    0  501 -0.00000000000E+00  0.00000000000E+00  0.35103259020E+03  0.35103259020E+03  0.00000000000E+00 0.  1.
          1   -1    0    0  501    0  0.00000000000E+00 -0.00000000000E+00 -0.20418585946E+04  0.20418585946E+04  0.00000000000E+00 0. -1.
         23    2    1    2    0    0  0.22796918623E+03  0.28513530014E+03  0.22780097446E+03  0.43984188352E+03  0.91079686401E+02 0.  0.
         13    1    3    3    0    0  0.59399717134E+02  0.11507553396E+03  0.40023946129E+02  0.13554564241E+03  0.00000000000E+00 0. -1.
        -13    1    3    3    0    0  0.16856946910E+03  0.17005976617E+03  0.18777702833E+03  0.30429624111E+03  0.00000000000E+00 0.  1.
         22    1    1    2    0    0 -0.22796918623E+03 -0.28513530014E+03 -0.19186269789E+04  0.19530493013E+04  0.00000000000E+00 0. -1.
<mgrwt>
<rscale>  0 0.16932323E+04</rscale>
<asrwt>0</asrwt>
<pdfrwt beam="1">  1        1 0.31413209E+00 0.16932323E+04</pdfrwt>
<pdfrwt beam="2">  1       -1 0.54005015E-01 0.16932323E+04</pdfrwt>
<totfact> 0.92027050E+00</totfact>
</mgrwt>
</event>
<event>
 6    1  0.1637818E-005  0.9448547E+03  0.7818608E-02  0.9371185E-01
          2   -1    0    0  501    0  0.00000000000E+00  0.00000000000E+00  0.20632652083E+04  0.20632652083E+04  0.00000000000E+00 0. -1.
         -2   -1    0    0    0  501 -0.00000000000E+00 -0.00000000000E+00 -0.10817202976E+03  0.10817202976E+03  0.00000000000E+00 0.  1.
         23    2    1    2    0    0  0.18035974742E+03  0.32120629389E+03  0.33002078707E+03  0.50513492477E+03  0.10268617534E+03 0.  0.
         13    1    3    3    0    0  0.54575749154E+02  0.23858535708E+02  0.50762093045E+02  0.78259390569E+02  0.00000000000E+00 0.  1.
        -13    1    3    3    0    0  0.12578399826E+03  0.29734775818E+03  0.27925869402E+03  0.42687553420E+03  0.00000000000E+00 0. -1.
         22    1    1    2    0    0 -0.18035974742E+03 -0.32120629389E+03  0.16250723915E+04  0.16663023133E+04  0.00000000000E+00 0. -1.
<mgrwt>
<rscale>  0 0.94485467E+03</rscale>
<asrwt>0</asrwt>
<pdfrwt beam="1">  1        2 0.31742539E+00 0.94485467E+03</pdfrwt>
<pdfrwt beam="2">  1       -2 0.16641852E-01 0.94485467E+03</pdfrwt>
<totfact> 0.18250348E+02</totfact>
</mgrwt>
</event>
<event>
 6    1  0.1637818E-005  0.8280988E+03  0.7818608E-02  0.9520213E-01
         -2   -1    0    0    0  501 -0.00000000000E+00  0.00000000000E+00  0.20158341444E+04  0.20158341444E+04  0.00000000000E+00 0.  1.
          2   -1    0    0  501    0  0.00000000000E+00 -0.00000000000E+00 -0.85045146235E+02  0.85045146235E+02  0.00000000000E+00 0. -1.
         23    2    1    2    0    0  0.15869226518E+03  0.17423602364E+03  0.18248388703E+04  0.18424864568E+04  0.95801953125E+02 0.  0.
         11    1    3    3    0    0  0.17985267965E+02 -0.11459738999E+02  0.13993010977E+03  0.14154586219E+03  0.00000000000E+00 0. -1.
        -11    1    3    3    0    0  0.14070699722E+03  0.18569576264E+03  0.16849087605E+04  0.17009405946E+04  0.00000000000E+00 0.  1.
         22    1    1    2    0    0 -0.15869226518E+03 -0.17423602364E+03  0.10595012791E+03  0.25839283382E+03  0.00000000000E+00 0. -1.
<mgrwt>
<rscale>  0 0.82809881E+03</rscale>
<asrwt>0</asrwt>
<pdfrwt beam="1">  1        2 0.13083870E-01 0.82809881E+03</pdfrwt>
<pdfrwt beam="2">  1       -2 0.31012829E+00 0.82809881E+03</pdfrwt>
<totfact> 0.13521094E+01</totfact>
</mgrwt>
</event>
<event>
 6    1  0.1637818E-005  0.2407347E+04  0.7818608E-02  0.8436758E-01
         -2   -1    0    0    0  501 -0.00000000000E+00  0.00000000000E+00  0.45375277441E+03  0.45375277441E+03  0.00000000000E+00 0.  1.
          2   -1    0    0  501    0  0.00000000000E+00 -0.00000000000E+00 -0.31929930166E+04  0.31929930166E+04  0.00000000000E+00 0. -1.
         23    2    1    2    0    0 -0.15718975878E+03  0.74807108720E+03  0.33555457395E+02  0.77051301819E+03  0.90804023640E+02 0.  0.
         13    1    3    3    0    0 -0.28965007525E+02  0.19493485230E+03 -0.29297934453E+02  0.19924090259E+03  0.00000000000E+00 0. -1.
        -13    1    3    3    0    0 -0.12822475126E+03  0.55313623490E+03  0.62853391848E+02  0.57127211560E+03  0.00000000000E+00 0.  1.
         22    1    1    2    0    0  0.15718975878E+03 -0.74807108720E+03 -0.27727956996E+04  0.28762327728E+04  0.00000000000E+00 0. -1.
<mgrwt>
<rscale>  0 0.24073466E+04</rscale>
<asrwt>0</asrwt>
<pdfrwt beam="1">  1        2 0.49122969E+00 0.24073466E+04</pdfrwt>
<pdfrwt beam="2">  1       -2 0.69808120E-01 0.24073466E+04</pdfrwt>
<totfact> 0.22044290E+00</totfact>
</mgrwt>
</event>
<event>
 6    1  0.1637818E-005  0.2190110E+04  0.7818608E-02  0.8522556E-01
         -2   -1    0    0    0  501 -0.00000000000E+00  0.00000000000E+00  0.83382536444E+03  0.83382536444E+03  0.00000000000E+00 0.  1.
          2   -1    0    0  501    0  0.00000000000E+00 -0.00000000000E+00 -0.14381258909E+04  0.14381258909E+04  0.00000000000E+00 0. -1.
         23    2    1    2    0    0 -0.92434995837E+02 -0.90296819767E+03  0.32931124280E+03  0.96982732493E+03  0.90682694574E+02 0.  0.
         11    1    3    3    0    0 -0.81047832987E+02 -0.62977733001E+03  0.27027169613E+03  0.69009783825E+03  0.00000000000E+00 0. -1.
        -11    1    3    3    0    0 -0.11387162850E+02 -0.27319086765E+03  0.59039546672E+02  0.27972948668E+03  0.00000000000E+00 0.  1.
         22    1    1    2    0    0  0.92434995837E+02  0.90296819767E+03 -0.93361176928E+03  0.13021239304E+04  0.00000000000E+00 0. -1.
<mgrwt>
<rscale>  0 0.21901104E+04</rscale>
<asrwt>0</asrwt>
<pdfrwt beam="1">  1        2 0.22125013E+00 0.21901104E+04</pdfrwt>
<pdfrwt beam="2">  1       -2 0.12828083E+00 0.21901104E+04</pdfrwt>
<totfact> 0.56561738E+00</totfact>
</mgrwt>
</event>
<event>
 6    1  0.1637818E-005  0.2756558E+04  0.7818608E-02  0.8316884E-01
          2   -1    0    0  501    0  0.00000000000E+00  0.00000000000E+00  0.18217579205E+04  0.18217579205E+04  0.00000000000E+00 0. -1.
         -2   -1    0    0    0  501 -0.00000000000E+00 -0.00000000000E+00 -0.10427579005E+04  0.10427579005E+04  0.00000000000E+00 0.  1.
         23    2    1    2    0    0  0.39397013698E+03 -0.10262825936E+04 -0.47129037093E+03  0.11996751402E+04  0.92937599452E+02 0.  0.
         11    1    3    3    0    0  0.35245217359E+03 -0.81572820298E+03 -0.37862221647E+03  0.96591398096E+03  0.00000000000E+00 0.  1.
        -11    1    3    3    0    0  0.41517963392E+02 -0.21055439063E+03 -0.92668154459E+02  0.23376115920E+03  0.00000000000E+00 0. -1.
         22    1    1    2    0    0 -0.39397013698E+03  0.10262825936E+04  0.12502903910E+04  0.16648406808E+04  0.00000000000E+00 0. -1.
<mgrwt>
<rscale>  0 0.27565576E+04</rscale>
<asrwt>0</asrwt>
<pdfrwt beam="1">  1        2 0.28027045E+00 0.27565576E+04</pdfrwt>
<pdfrwt beam="2">  1       -2 0.16042429E+00 0.27565576E+04</pdfrwt>
<totfact> 0.18329435E+00</totfact>
</mgrwt>
</event>
<event>
 6    1  0.1637818E-005  0.4687699E+04  0.7818608E-02  0.7878576E-01
         -2   -1    0    0    0  501 -0.00000000000E+00  0.00000000000E+00  0.53977433930E+04  0.53977433930E+04  0.00000000000E+00 0.  1.
          2   -1    0    0  501    0  0.00000000000E+00 -0.00000000000E+00 -0.10177644684E+04  0.10177644684E+04  0.00000000000E+00 0. -1.
         23    2    1    2    0    0 -0.79037167830E+03  0.88437598849E+03  0.49561223030E+04  0.50968913624E+04  0.91350970365E+02 0.  0.
         13    1    3    3    0    0 -0.48638860361E+02  0.27143355765E+02  0.20843105986E+03  0.21574523682E+03  0.00000000000E+00 0.  1.
        -13    1    3    3    0    0 -0.74173281794E+03  0.85723263272E+03  0.47476912431E+04  0.48811461256E+04  0.00000000000E+00 0. -1.
         22    1    1    2    0    0  0.79037167830E+03 -0.88437598849E+03 -0.57614337831E+03  0.13186164989E+04  0.00000000000E+00 0. -1.
<mgrwt>
<rscale>  0 0.46876994E+04</rscale>
<asrwt>0</asrwt>
<pdfrwt beam="1">  1        2 0.15657915E+00 0.46876994E+04</pdfrwt>
<pdfrwt beam="2">  1       -2 0.83042204E+00 0.46876994E+04</pdfrwt>
<totfact> 0.87404391E-04</totfact>
</mgrwt>
</event>
<event>
 6    1  0.1637818E-005  0.4333264E+04  0.7818608E-02  0.7940496E-01
          1   -1    0    0  501    0  0.00000000000E+00  0.00000000000E+00  0.15124207607E+04  0.15124207607E+04  0.00000000000E+00 0. -1.
         -1   -1    0    0    0  501 -0.00000000000E+00 -0.00000000000E+00 -0.31038279195E+04  0.31038279195E+04  0.00000000000E+00 0.  1.
         23    2    1    2    0    0 -0.12237455065E+04  0.10479592593E+04 -0.23378022790E+04  0.28406143291E+04  0.89434877173E+02 0.  0.
         13    1    3    3    0    0 -0.16616290559E+03  0.10830562815E+03 -0.31259816809E+03  0.37021322907E+03  0.00000000000E+00 0.  1.
        -13    1    3    3    0    0 -0.10575826009E+04  0.93965363112E+03 -0.20252041109E+04  0.24704011000E+04  0.00000000000E+00 0. -1.
         22    1    1    2    0    0  0.12237455065E+04 -0.10479592593E+04  0.74639512018E+03  0.17756343512E+04  0.00000000000E+00 0. -1.
<mgrwt>
<rscale>  0 0.43332638E+04</rscale>
<asrwt>0</asrwt>
<pdfrwt beam="1">  1        1 0.23268012E+00 0.43332638E+04</pdfrwt>
<pdfrwt beam="2">  1       -1 0.47751198E+00 0.43332638E+04</pdfrwt>
<totfact> 0.10269307E-02</totfact>
</mgrwt>
</event>
<event>
 6    1  0.1637818E-005  0.1769892E+04  0.7818608E-02  0.8722476E-01
         -3   -1    0    0    0  501 -0.00000000000E+00  0.00000000000E+00  0.53522653678E+03  0.53522653678E+03  0.00000000000E+00 0.  1.
          3   -1    0    0  501    0  0.00000000000E+00 -0.00000000000E+00 -0.14631740402E+04  0.14631740402E+04  0.00000000000E+00 0. -1.
         23    2    1    2    0    0  0.22524790414E+03 -0.18562287638E+03  0.47532183791E+03  0.56509763800E+03  0.90620198248E+02 0.  0.
         13    1    3    3    0    0  0.96030583407E+02 -0.11724716804E+03  0.30543687259E+03  0.34096987331E+03  0.00000000000E+00 0. -1.
        -13    1    3    3    0    0  0.12921732073E+03 -0.68375708337E+02  0.16988496531E+03  0.22412776469E+03  0.00000000000E+00 0.  1.
         22    1    1    2    0    0 -0.22524790414E+03  0.18562287638E+03 -0.14032693413E+04  0.14333029389E+04  0.00000000000E+00 0. -1.
<mgrwt>
<rscale>  0 0.17698922E+04</rscale>
<asrwt>0</asrwt>
<pdfrwt beam="1">  1        3 0.22510369E+00 0.17698922E+04</pdfrwt>
<pdfrwt beam="2">  1       -3 0.82342546E-01 0.17698922E+04</pdfrwt>
<totfact> 0.34897735E-01</totfact>
</mgrwt>
</event>
<event>
 6    1  0.1637818E-005  0.1630574E+04  0.7818608E-02  0.8801982E-01
          2   -1    0    0  501    0  0.00000000000E+00  0.00000000000E+00  0.40488869366E+04  0.40488869366E+04  0.00000000000E+00 0. -1.
         -2   -1    0    0    0  501 -0.00000000000E+00 -0.00000000000E+00 -0.16416675856E+03  0.16416675856E+03  0.00000000000E+00 0.  1.
         23    2    1    2    0    0  0.70492931434E+03  0.35079795820E+03  0.14279072266E+04  0.16331478007E+04  0.90929343946E+02 0.  0.
         13    1    3    3    0    0  0.50574233835E+03  0.25217390452E+03  0.93629037145E+03  0.10936208898E+04  0.00000000000E+00 0.  1.
        -13    1    3    3    0    0  0.19918697599E+03  0.98624053680E+02  0.49161685515E+03  0.53952691095E+03  0.00000000000E+00 0. -1.
         22    1    1    2    0    0 -0.70492931434E+03 -0.35079795820E+03  0.24568129515E+04  0.25799058945E+04  0.00000000000E+00 0. -1.
<mgrwt>
<rscale>  0 0.16305737E+04</rscale>
<asrwt>0</asrwt>
<pdfrwt beam="1">  1        2 0.62290560E+00 0.16305737E+04</pdfrwt>
<pdfrwt beam="2">  1       -2 0.25256428E-01 0.16305737E+04</pdfrwt>
<totfact> 0.42900265E+00</totfact>
</mgrwt>
</event>
<event>
 6    1  0.1637818E-005  0.3579151E+04  0.7818608E-02  0.8095284E-01
         -2   -1    0    0    0  501 -0.00000000000E+00  0.00000000000E+00  0.14893433213E+04  0.14893433213E+04  0.00000000000E+00 0.  1.
          2   -1    0    0  501    0  0.00000000000E+00 -0.00000000000E+00 -0.21503307888E+04  0.21503307888E+04  0.00000000000E+00 0. -1.
         23    2    1    2    0    0  0.75503069121E+03 -0.50023653479E+03 -0.18989258251E+04  0.21057903751E+04  0.90143658079E+02 0.  0.
         11    1    3    3    0    0  0.38906420712E+03 -0.25630617841E+03 -0.10807420954E+04  0.11768888185E+04  0.00000000000E+00 0.  1.
        -11    1    3    3    0    0  0.36596648408E+03 -0.24393035638E+03 -0.81818372970E+03  0.92890155656E+03  0.00000000000E+00 0. -1.
         22    1    1    2    0    0 -0.75503069121E+03  0.50023653479E+03  0.12379383576E+04  0.15338837350E+04  0.00000000000E+00 0.  1.
<mgrwt>
<rscale>  0 0.35791512E+04</rscale>
<asrwt>0</asrwt>
<pdfrwt beam="1">  1        2 0.33082012E+00 0.35791512E+04</pdfrwt>
<pdfrwt beam="2">  1       -2 0.22912974E+00 0.35791512E+04</pdfrwt>
<totfact> 0.38925538E-01</totfact>
</mgrwt>
</event>
<event>
 6    1  0.1637818E-005  0.2996904E+04  0.7818608E-02  0.8244616E-01
         -1   -1    0    0    0  501 -0.00000000000E+00  0.00000000000E+00  0.19429255147E+04  0.19429255147E+04  0.00000000000E+00 0.  1.
          1   -1    0    0  501    0  0.00000000000E+00 -0.00000000000E+00 -0.11556584386E+04  0.11556584386E+04  0.00000000000E+00 0. -1.
         23    2    1    2    0    0 -0.83087705523E+03  0.67090076271E+03 -0.69078662569E+03  0.12750962896E+04  0.90663505667E+02 0.  0.
         11    1    3    3    0    0 -0.39402541864E+02  0.28070567860E+02 -0.56013276184E+02  0.74013540614E+02  0.00000000000E+00 0. -1.
        -11    1    3    3    0    0 -0.79147451336E+03  0.64283019485E+03 -0.63477334950E+03  0.12010827490E+04  0.00000000000E+00 0.  1.
         22    1    1    2    0    0  0.83087705523E+03 -0.67090076271E+03  0.14780537017E+04  0.18234876637E+04  0.00000000000E+00 0.  1.
<mgrwt>
<rscale>  0 0.29969039E+04</rscale>
<asrwt>0</asrwt>
<pdfrwt beam="1">  1        1 0.17779361E+00 0.29969039E+04</pdfrwt>
<pdfrwt beam="2">  1       -1 0.29891162E+00 0.29969039E+04</pdfrwt>
<totfact> 0.32914890E-01</totfact>
</mgrwt>
</event>
<event>
 6    1  0.1637818E-005  0.1249870E+04  0.7818608E-02  0.9070291E-01
         -3   -1    0    0    0  501 -0.00000000000E+00  0.00000000000E+00  0.28778229663E+03  0.28778229663E+03  0.00000000000E+00 0.  1.
          3   -1    0    0  501    0  0.00000000000E+00 -0.00000000000E+00 -0.13570808717E+04  0.13570808717E+04  0.00000000000E+00 0. -1.
         23    2    1    2    0    0  0.13566709602E+03 -0.46698960413E+03 -0.10461913923E+04  0.11580174092E+04  0.10001519564E+03 0.  0.
         11    1    3    3    0    0  0.13268707004E+02 -0.54795410814E+02 -0.60903728916E+02  0.82993131208E+02  0.00000000000E+00 0. -1.
        -11    1    3    3    0    0  0.12239838901E+03 -0.41219419331E+03 -0.98528766336E+03  0.10750242780E+04  0.00000000000E+00 0.  1.
         22    1    1    2    0    0 -0.13566709602E+03  0.46698960413E+03 -0.23107182768E+02  0.48684575915E+03  0.00000000000E+00 0.  1.
<mgrwt>
<rscale>  0 0.12498702E+04</rscale>
<asrwt>0</asrwt>
<pdfrwt beam="1">  1        3 0.20878167E+00 0.12498702E+04</pdfrwt>
<pdfrwt beam="2">  1       -3 0.44274200E-01 0.12498702E+04</pdfrwt>
<totfact> 0.17024119E+00</totfact>
</mgrwt>
</event>
<event>
 6    1  0.1637818E-005  0.1071686E+04  0.7818608E-02  0.9233237E-01
         -2   -1    0    0    0  501 -0.00000000000E+00  0.00000000000E+00  0.39641667784E+03  0.39641667784E+03  0.00000000000E+00 0.  1.
          2   -1    0    0  501    0  0.00000000000E+00 -0.00000000000E+00 -0.72430759236E+03  0.72430759236E+03  0.00000000000E+00 0. -1.
         23    2    1    2    0    0  0.43934715052E+03 -0.21099423789E+01  0.14754630284E+03  0.47336739940E+03  0.96314136082E+02 0.  0.
         13    1    3    3    0    0  0.38761708517E+03 -0.32878212950E+02  0.13588695926E+03  0.41205976180E+03  0.00000000000E+00 0. -1.
        -13    1    3    3    0    0  0.51730065346E+02  0.30768270571E+02  0.11659343578E+02  0.61307637594E+02  0.00000000000E+00 0.  1.
         22    1    1    2    0    0 -0.43934715052E+03  0.21099423789E+01 -0.47543721736E+03  0.64735687080E+03  0.00000000000E+00 0. -1.
<mgrwt>
<rscale>  0 0.10716858E+04</rscale>
<asrwt>0</asrwt>
<pdfrwt beam="1">  1        2 0.11143194E+00 0.10716858E+04</pdfrwt>
<pdfrwt beam="2">  1       -2 0.60987182E-01 0.10716858E+04</pdfrwt>
<totfact> 0.97644543E+01</totfact>
</mgrwt>
</event>
<event>
 6    1  0.1768278E-005  0.4014643E+04  0.7818608E-02  0.8001599E-01
         -1   -1    0    0    0  501 -0.00000000000E+00  0.00000000000E+00  0.20758819727E+04  0.20758819727E+04  0.00000000000E+00 0.  1.
          1   -1    0    0  501    0  0.00000000000E+00 -0.00000000000E+00 -0.19410258273E+04  0.19410258273E+04  0.00000000000E+00 0. -1.
         23    2    1    2    0    0  0.10463488805E+04 -0.10840552751E+04  0.13930119842E+04  0.20540074117E+04  0.91881662663E+02 0.  0.
         13    1    3    3    0    0  0.73256560038E+03 -0.71981286351E+03  0.99330534728E+03  0.14287891483E+04  0.00000000000E+00 0. -1.
        -13    1    3    3    0    0  0.31378328014E+03 -0.36424241162E+03  0.39970663694E+03  0.62521826343E+03  0.00000000000E+00 0.  1.
         22    1    1    2    0    0 -0.10463488805E+04  0.10840552751E+04 -0.12581558389E+04  0.19629003882E+04  0.00000000000E+00 0. -1.
<mgrwt>
<rscale>  0 0.40146435E+04</rscale>
<asrwt>0</asrwt>
<pdfrwt beam="1">  1        1 0.29861936E+00 0.40146435E+04</pdfrwt>
<pdfrwt beam="2">  1       -1 0.31936646E+00 0.40146435E+04</pdfrwt>
<totfact> 0.63110703E-02</totfact>
</mgrwt>
</event>
<event>
 6    1  0.2653388E-005  0.2238527E+04  0.7818608E-02  0.8502561E-01
         -2   -1    0    0    0  501 -0.00000000000E+00  0.00000000000E+00  0.13351901071E+04  0.13351901071E+04  0.00000000000E+00 0.  1.
          2   -1    0    0  501    0  0.00000000000E+00 -0.00000000000E+00 -0.93825663475E+03  0.93825663475E+03  0.00000000000E+00 0. -1.
         23    2    1    2    0    0  0.16590582205E+03 -0.22128756136E+03  0.12984116865E+04  0.13304961084E+04  0.88623136418E+02 0.  0.
         11    1    3    3    0    0  0.43826601389E+02 -0.42254316620E+02  0.48148070437E+03  0.48531419405E+03  0.00000000000E+00 0.  1.
        -11    1    3    3    0    0  0.12207922066E+03 -0.17903324474E+03  0.81693098213E+03  0.84518191439E+03  0.00000000000E+00 0. -1.
         22    1    1    2    0    0 -0.16590582205E+03  0.22128756136E+03 -0.90147821412E+03  0.94295063346E+03  0.00000000000E+00 0. -1.
<mgrwt>
<rscale>  0 0.22385272E+04</rscale>
<asrwt>0</asrwt>
<pdfrwt beam="1">  1        2 0.14434718E+00 0.22385272E+04</pdfrwt>
<pdfrwt beam="2">  1       -2 0.20541386E+00 0.22385272E+04</pdfrwt>
<totfact> 0.30866669E+00</totfact>
</mgrwt>
</event>
<event>
 6    1  0.1637818E-005  0.1093521E+04  0.7818608E-02  0.9211530E-01
          2   -1    0    0  501    0  0.00000000000E+00  0.00000000000E+00  0.32220917890E+04  0.32220917890E+04  0.00000000000E+00 0. -1.
         -2   -1    0    0    0  501 -0.00000000000E+00 -0.00000000000E+00 -0.92780385296E+02  0.92780385296E+02  0.00000000000E+00 0.  1.
         23    2    1    2    0    0  0.49283051468E+03  0.10656686518E+03  0.96290815492E+03  0.10905652150E+04  0.88892971287E+02 0.  0.
         13    1    3    3    0    0  0.29024304058E+03  0.91167780941E+02  0.64711999229E+03  0.71506424279E+03  0.00000000000E+00 0.  1.
        -13    1    3    3    0    0  0.20258747410E+03  0.15399084243E+02  0.31578816262E+03  0.37550097218E+03  0.00000000000E+00 0. -1.
         22    1    1    2    0    0 -0.49283051468E+03 -0.10656686518E+03  0.21664032488E+04  0.22243069593E+04  0.00000000000E+00 0. -1.
<mgrwt>
<rscale>  0 0.10935208E+04</rscale>
<asrwt>0</asrwt>
<pdfrwt beam="1">  1        2 0.49570634E+00 0.10935208E+04</pdfrwt>
<pdfrwt beam="2">  1       -2 0.14273908E-01 0.10935208E+04</pdfrwt>
<totfact> 0.48755782E+01</totfact>
</mgrwt>
</event>
<event>
 6    1  0.1637818E-005  0.3137346E+04  0.7818608E-02  0.8205563E-01
         -2   -1    0    0    0  501 -0.00000000000E+00  0.00000000000E+00  0.62098260585E+03  0.62098260585E+03  0.00000000000E+00 0.  1.
          2   -1    0    0  501    0  0.00000000000E+00 -0.00000000000E+00 -0.39626473532E+04  0.39626473532E+04  0.00000000000E+00 0. -1.
         23    2    1    2    0    0 -0.11763541235E+04  0.45369672124E+03 -0.30326307290E+04  0.32854960049E+04  0.89359501751E+02 0.  0.
         13    1    3    3    0    0 -0.52036490241E+03  0.21057702199E+03 -0.12379553474E+04  0.13592850165E+04  0.00000000000E+00 0.  1.
        -13    1    3    3    0    0 -0.65598922104E+03  0.24311969925E+03 -0.17946753817E+04  0.19262109884E+04  0.00000000000E+00 0. -1.
         22    1    1    2    0    0  0.11763541235E+04 -0.45369672124E+03 -0.30903401833E+03  0.12981339542E+04  0.00000000000E+00 0.  1.
<mgrwt>
<rscale>  0 0.31373461E+04</rscale>
<asrwt>0</asrwt>
<pdfrwt beam="1">  1        2 0.60963806E+00 0.31373461E+04</pdfrwt>
<pdfrwt beam="2">  1       -2 0.95535784E-01 0.31373461E+04</pdfrwt>
<totfact> 0.28507964E-01</totfact>
</mgrwt>
</event>
<event>
 6    1  0.1637818E-005  0.3479662E+04  0.7818608E-02  0.8118627E-01
          2   -1    0    0  501    0  0.00000000000E+00  0.00000000000E+00  0.31528294235E+04  0.31528294235E+04  0.00000000000E+00 0. -1.
         -2   -1    0    0    0  501 -0.00000000000E+00 -0.00000000000E+00 -0.96009378842E+03  0.96009378842E+03  0.00000000000E+00 0.  1.
         23    2    1    2    0    0  0.13502044117E+04 -0.10297984014E+04  0.65594874045E+03  0.18226719898E+04  0.91256403528E+02 0.  0.
         13    1    3    3    0    0  0.91669933899E+03 -0.66605079712E+03  0.40081872764E+03  0.12019222083E+04  0.00000000000E+00 0. -1.
        -13    1    3    3    0    0  0.43350507273E+03 -0.36374760432E+03  0.25513001281E+03  0.62074978145E+03  0.00000000000E+00 0.  1.
         22    1    1    2    0    0 -0.13502044117E+04  0.10297984014E+04  0.15367868946E+04  0.22902512222E+04  0.00000000000E+00 0. -1.
<mgrwt>
<rscale>  0 0.34796620E+04</rscale>
<asrwt>0</asrwt>
<pdfrwt beam="1">  1        2 0.48505068E+00 0.34796620E+04</pdfrwt>
<pdfrwt beam="2">  1       -2 0.14770674E+00 0.34796620E+04</pdfrwt>
<totfact> 0.35712637E-01</totfact>
</mgrwt>
</event>
<event>
 6    1  0.1637818E-005  0.3277634E+04  0.7818608E-02  0.8168610E-01
         -1   -1    0    0    0  501 -0.00000000000E+00  0.00000000000E+00  0.17427946404E+04  0.17427946404E+04  0.00000000000E+00 0.  1.
          1   -1    0    0  501    0  0.00000000000E+00 -0.00000000000E+00 -0.15410423462E+04  0.15410423462E+04  0.00000000000E+00 0. -1.
         23    2    1    2    0    0 -0.13798801563E+04 -0.86614276309E+03  0.26950257522E+03  0.16532350634E+04  0.79259100457E+02 0.  0.
         11    1    3    3    0    0 -0.61811093688E+03 -0.43017017003E+03  0.10735536386E+03  0.76067909109E+03  0.00000000000E+00 0.  1.
        -11    1    3    3    0    0 -0.76176921937E+03 -0.43597259306E+03  0.16214721137E+03  0.89255597227E+03  0.00000000000E+00 0. -1.
         22    1    1    2    0    0  0.13798801563E+04  0.86614276309E+03 -0.67750281049E+02  0.16306019233E+04  0.00000000000E+00 0. -1.
<mgrwt>
<rscale>  0 0.32776335E+04</rscale>
<asrwt>0</asrwt>
<pdfrwt beam="1">  1        1 0.23708344E+00 0.32776335E+04</pdfrwt>
<pdfrwt beam="2">  1       -1 0.26812225E+00 0.32776335E+04</pdfrwt>
<totfact> 0.27062199E-01</totfact>
</mgrwt>
</event>
<event>
 6    1  0.1637818E-005  0.2421559E+04  0.7818608E-02  0.8431476E-01
          2   -1    0    0  501    0  0.00000000000E+00  0.00000000000E+00  0.87097143486E+03  0.87097143486E+03  0.00000000000E+00 0. -1.
         -2   -1    0    0    0  501 -0.00000000000E+00 -0.00000000000E+00 -0.16831637148E+04  0.16831637148E+04  0.00000000000E+00 0.  1.
         23    2    1    2    0    0 -0.12487731253E+03  0.99376607592E+03 -0.11211184403E+04  0.15059935898E+04  0.89133487315E+02 0.  0.
         13    1    3    3    0    0 -0.33799540231E+02  0.61678681223E+03 -0.68720616416E+03  0.92402418405E+03  0.00000000000E+00 0.  1.
        -13    1    3    3    0    0 -0.91077772300E+02  0.37697926370E+03 -0.43391227618E+03  0.58196940580E+03  0.00000000000E+00 0. -1.
         22    1    1    2    0    0  0.12487731253E+03 -0.99376607592E+03  0.30892616039E+03  0.10481415598E+04  0.00000000000E+00 0. -1.
<mgrwt>
<rscale>  0 0.24215594E+04</rscale>
<asrwt>0</asrwt>
<pdfrwt beam="1">  1        2 0.13399561E+00 0.24215594E+04</pdfrwt>
<pdfrwt beam="2">  1       -2 0.25894826E+00 0.24215594E+04</pdfrwt>
<totfact> 0.15599413E+00</totfact>
</mgrwt>
</event>
<event>
 6    1  0.1637818E-005  0.4898512E+04  0.7818608E-02  0.7844356E-01
          1   -1    0    0  501    0  0.00000000000E+00  0.00000000000E+00  0.31472869587E+04  0.31472869587E+04  0.00000000000E+00 0. -1.
         -1   -1    0    0    0  501 -0.00000000000E+00 -0.00000000000E+00 -0.19060398828E+04  0.19060398828E+04  0.00000000000E+00 0.  1.
         23    2    1    2    0    0  0.18450664767E+03 -0.17674067778E+04  0.23585041311E+04  0.29542716378E+04  0.86079917357E+02 0.  0.
         13    1    3    3    0    0  0.11876342281E+03 -0.73754158462E+03  0.97564533969E+03  0.12288027378E+04  0.00000000000E+00 0.  1.
        -13    1    3    3    0    0  0.65743224861E+02 -0.10298651932E+04  0.13828587914E+04  0.17254688999E+04  0.00000000000E+00 0. -1.
         22    1    1    2    0    0 -0.18450664767E+03  0.17674067778E+04 -0.11172570551E+04  0.20990552038E+04  0.00000000000E+00 0.  1.
<mgrwt>
<rscale>  0 0.48985118E+04</rscale>
<asrwt>0</asrwt>
<pdfrwt beam="1">  1        1 0.48419799E+00 0.48985118E+04</pdfrwt>
<pdfrwt beam="2">  1       -1 0.29323690E+00 0.48985118E+04</pdfrwt>
<totfact> 0.12371634E-02</totfact>
</mgrwt>
</event>
<event>
 6    1  0.1637818E-005  0.1256045E+04  0.7818608E-02  0.9065167E-01
         -1   -1    0    0    0  501 -0.00000000000E+00  0.00000000000E+00  0.18208089435E+03  0.18208089435E+03  0.00000000000E+00 0.  1.
          1   -1    0    0  501    0  0.00000000000E+00 -0.00000000000E+00 -0.21661385612E+04  0.21661385612E+04  0.00000000000E+00 0. -1.
         23    2    1    2    0    0  0.40677688979E+02  0.53014683356E+03 -0.16119035944E+04  0.16992132975E+04  0.79889257333E+02 0.  0.
         11    1    3    3    0    0  0.33793945482E+02  0.38998671276E+03 -0.10672914158E+04  0.11368124881E+04  0.00000000000E+00 0. -1.
        -11    1    3    3    0    0  0.68837434975E+01  0.14016012080E+03 -0.54461217859E+03  0.56240080944E+03  0.00000000000E+00 0.  1.
         22    1    1    2    0    0 -0.40677688979E+02 -0.53014683356E+03 -0.37215407251E+03  0.64900615806E+03  0.00000000000E+00 0.  1.
<mgrwt>
<rscale>  0 0.12560453E+04</rscale>
<asrwt>0</asrwt>
<pdfrwt beam="1">  1        1 0.33325208E+00 0.12560453E+04</pdfrwt>
<pdfrwt beam="2">  1       -1 0.28012445E-01 0.12560453E+04</pdfrwt>
<totfact> 0.26120230E+01</totfact>
</mgrwt>
</event>
<event>
 6    1  0.1637818E-005  0.2444750E+04  0.7818608E-02  0.8422937E-01
          1   -1    0    0  501    0  0.00000000000E+00  0.00000000000E+00  0.11706302656E+04  0.11706302656E+04  0.00000000000E+00 0. -1.
         -1   -1    0    0    0  501 -0.00000000000E+00 -0.00000000000E+00 -0.12764072824E+04  0.12764072824E+04  0.00000000000E+00 0.  1.
         23    2    1    2    0    0  0.11898299415E+04  0.22681802243E+02 -0.32501111995E+03  0.12369659195E+04  0.90789339072E+02 0.  0.
         13    1    3    3    0    0  0.10757957549E+04  0.45441185208E+02 -0.30348961479E+03  0.11187078948E+04  0.00000000000E+00 0. -1.
        -13    1    3    3    0    0  0.11403418659E+03 -0.22759382965E+02 -0.21521505164E+02  0.11825802471E+03  0.00000000000E+00 0.  1.
         22    1    1    2    0    0 -0.11898299415E+04 -0.22681802243E+02  0.21923410311E+03  0.12100716284E+04  0.00000000000E+00 0. -1.
<mgrwt>
<rscale>  0 0.24447503E+04</rscale>
<asrwt>0</asrwt>
<pdfrwt beam="1">  1        1 0.18009696E+00 0.24447503E+04</pdfrwt>
<pdfrwt beam="2">  1       -1 0.19637035E+00 0.24447503E+04</pdfrwt>
<totfact> 0.15987693E+00</totfact>
</mgrwt>
</event>
<event>
 6    1  0.1637818E-005  0.2362382E+04  0.7818608E-02  0.8453723E-01
         -2   -1    0    0    0  501 -0.00000000000E+00  0.00000000000E+00  0.14248341960E+04  0.14248341960E+04  0.00000000000E+00 0.  1.
          2   -1    0    0  501    0  0.00000000000E+00 -0.00000000000E+00 -0.97921007792E+03  0.97921007792E+03  0.00000000000E+00 0. -1.
         23    2    1    2    0    0 -0.56771870507E+03  0.80707280699E+03 -0.43464221749E+03  0.10817206126E+04  0.86801973108E+02 0.  0.
         13    1    3    3    0    0 -0.44980948100E+03  0.68867766332E+03 -0.34366284942E+03  0.89146488839E+03  0.00000000000E+00 0.  1.
        -13    1    3    3    0    0 -0.11790922407E+03  0.11839514367E+03 -0.90979368066E+02  0.19025572417E+03  0.00000000000E+00 0. -1.
         22    1    1    2    0    0  0.56771870507E+03 -0.80707280699E+03  0.88026633560E+03  0.13223236614E+04  0.00000000000E+00 0.  1.
<mgrwt>
<rscale>  0 0.23623819E+04</rscale>
<asrwt>0</asrwt>
<pdfrwt beam="1">  1        2 0.15064770E+00 0.23623819E+04</pdfrwt>
<pdfrwt beam="2">  1       -2 0.21920526E+00 0.23623819E+04</pdfrwt>
<totfact> 0.23426776E+00</totfact>
</mgrwt>
</event>
<event>
 6    1  0.1637818E-005  0.6169320E+03  0.7818608E-02  0.9870887E-01
         -1   -1    0    0    0  501 -0.00000000000E+00  0.00000000000E+00  0.71216179578E+03  0.71216179578E+03  0.00000000000E+00 0.  1.
          1   -1    0    0  501    0  0.00000000000E+00 -0.00000000000E+00 -0.13360908315E+03  0.13360908315E+03  0.00000000000E+00 0. -1.
         23    2    1    2    0    0  0.21183412909E+03 -0.15742117951E+03  0.92138403555E+02  0.29236866889E+03  0.85643605327E+02 0.  0.
         11    1    3    3    0    0 -0.33544123351E+01 -0.23286951728E+02  0.36910912874E+01  0.23815086768E+02  0.00000000000E+00 0.  1.
        -11    1    3    3    0    0  0.21518854142E+03 -0.13413422778E+03  0.88447312268E+02  0.26855358212E+03  0.00000000000E+00 0. -1.
         22    1    1    2    0    0 -0.21183412909E+03  0.15742117951E+03  0.48641430908E+03  0.55340221004E+03  0.00000000000E+00 0.  1.
<mgrwt>
<rscale>  0 0.61693204E+03</rscale>
<asrwt>0</asrwt>
<pdfrwt beam="1">  1        1 0.20555244E-01 0.61693204E+03</pdfrwt>
<pdfrwt beam="2">  1       -1 0.10956335E+00 0.61693204E+03</pdfrwt>
<totfact> 0.19844275E+02</totfact>
</mgrwt>
</event>
<event>
 6    1  0.1637818E-005  0.1702079E+04  0.7818608E-02  0.8760180E-01
         -2   -1    0    0    0  501 -0.00000000000E+00  0.00000000000E+00  0.49094664400E+03  0.49094664400E+03  0.00000000000E+00 0.  1.
          2   -1    0    0  501    0  0.00000000000E+00 -0.00000000000E+00 -0.14752483120E+04  0.14752483120E+04  0.00000000000E+00 0. -1.
         23    2    1    2    0    0  0.57977959470E+03  0.25507686799E+02  0.22175242250E+03  0.62777742408E+03  0.90196101826E+02 0.  0.
         11    1    3    3    0    0  0.13342209993E+03 -0.30788547234E+02  0.41041636566E+02  0.14294686888E+03  0.00000000000E+00 0.  1.
        -11    1    3    3    0    0  0.44635749477E+03  0.56296234033E+02  0.18071078594E+03  0.48483055520E+03  0.00000000000E+00 0. -1.
         22    1    1    2    0    0 -0.57977959470E+03 -0.25507686799E+02 -0.12060540905E+04  0.13384175319E+04  0.00000000000E+00 0. -1.
<mgrwt>
<rscale>  0 0.17020790E+04</rscale>
<asrwt>0</asrwt>
<pdfrwt beam="1">  1        2 0.22696127E+00 0.17020790E+04</pdfrwt>
<pdfrwt beam="2">  1       -2 0.75530255E-01 0.17020790E+04</pdfrwt>
<totfact> 0.19606967E+01</totfact>
</mgrwt>
</event>
<event>
 6    1  0.1637818E-005  0.1072015E+04  0.7818608E-02  0.9232906E-01
          2   -1    0    0  501    0  0.00000000000E+00  0.00000000000E+00  0.34941472662E+03  0.34941472662E+03  0.00000000000E+00 0. -1.
         -2   -1    0    0    0  501 -0.00000000000E+00 -0.00000000000E+00 -0.82224309183E+03  0.82224309183E+03  0.00000000000E+00 0.  1.
         23    2    1    2    0    0  0.33945905910E+03  0.14461477318E+03  0.18082757210E+03  0.42105008481E+03  0.91862275486E+02 0.  0.
         11    1    3    3    0    0  0.14119729727E+03  0.41752022420E+02  0.26612864363E+02  0.14962671113E+03  0.00000000000E+00 0.  1.
        -11    1    3    3    0    0  0.19826176182E+03  0.10286275076E+03  0.15421470774E+03  0.27142337368E+03  0.00000000000E+00 0. -1.
         22    1    1    2    0    0 -0.33945905910E+03 -0.14461477318E+03 -0.65365593732E+03  0.75060773365E+03  0.00000000000E+00 0.  1.
<mgrwt>
<rscale>  0 0.10720146E+04</rscale>
<asrwt>0</asrwt>
<pdfrwt beam="1">  1        2 0.53756113E-01 0.10720146E+04</pdfrwt>
<pdfrwt beam="2">  1       -2 0.12649893E+00 0.10720146E+04</pdfrwt>
<totfact> 0.42817165E+01</totfact>
</mgrwt>
</event>
<event>
 6    1  0.1637818E-005  0.3279974E+04  0.7818608E-02  0.8168010E-01
         -2   -1    0    0    0  501 -0.00000000000E+00  0.00000000000E+00  0.13230550881E+04  0.13230550881E+04  0.00000000000E+00 0.  1.
          2   -1    0    0  501    0  0.00000000000E+00 -0.00000000000E+00 -0.20328386011E+04  0.20328386011E+04  0.00000000000E+00 0. -1.
         23    2    1    2    0    0 -0.67733331335E+03 -0.49924040797E+03 -0.17939238682E+04  0.19835301397E+04  0.90595627234E+02 0.  0.
         13    1    3    3    0    0 -0.29094129697E+03 -0.26922841098E+03 -0.81721341399E+03  0.90827778767E+03  0.00000000000E+00 0. -1.
        -13    1    3    3    0    0 -0.38639201638E+03 -0.23001199698E+03 -0.97671045422E+03  0.10752523520E+04  0.00000000000E+00 0.  1.
         22    1    1    2    0    0  0.67733331335E+03  0.49924040797E+03  0.10841403552E+04  0.13723635495E+04  0.00000000000E+00 0.  1.
<mgrwt>
<rscale>  0 0.32799741E+04</rscale>
<asrwt>0</asrwt>
<pdfrwt beam="1">  1        2 0.31274440E+00 0.32799741E+04</pdfrwt>
<pdfrwt beam="2">  1       -2 0.20354694E+00 0.32799741E+04</pdfrwt>
<totfact> 0.67566263E-01</totfact>
</mgrwt>
</event>
<event>
 6    1  0.1637818E-005  0.7044328E+03  0.7818608E-02  0.9709681E-01
          1   -1    0    0  501    0  0.00000000000E+00  0.00000000000E+00  0.45822871263E+03  0.45822871263E+03  0.00000000000E+00 0. -1.
         -1   -1    0    0    0  501 -0.00000000000E+00 -0.00000000000E+00 -0.27073025638E+03  0.27073025638E+03  0.00000000000E+00 0.  1.
         23    2    1    2    0    0  0.27824378933E+03  0.38141232376E+02 -0.11425512059E+03  0.31673381082E+03  0.91606301254E+02 0.  0.
         13    1    3    3    0    0  0.70647140329E+02 -0.25545321274E+02 -0.97657915843E+01  0.75755874762E+02  0.00000000000E+00 0. -1.
        -13    1    3    3    0    0  0.20759664900E+03  0.63686553650E+02 -0.10448932900E+03  0.24097793606E+03  0.00000000000E+00 0.  1.
         22    1    1    2    0    0 -0.27824378933E+03 -0.38141232376E+02  0.30175357684E+03  0.41222515819E+03  0.00000000000E+00 0. -1.
<mgrwt>
<rscale>  0 0.70443276E+03</rscale>
<asrwt>0</asrwt>
<pdfrwt beam="1">  1        1 0.70496725E-01 0.70443276E+03</pdfrwt>
<pdfrwt beam="2">  1       -1 0.41650809E-01 0.70443276E+03</pdfrwt>
<totfact> 0.28609498E+02</totfact>
</mgrwt>
</event>
<event>
 6    1  0.1637818E-005  0.2038069E+04  0.7818608E-02  0.8589026E-01
          2   -1    0    0  501    0  0.00000000000E+00  0.00000000000E+00  0.13273957183E+04  0.13273957183E+04  0.00000000000E+00 0. -1.
         -2   -1    0    0    0  501 -0.00000000000E+00 -0.00000000000E+00 -0.78230741212E+03  0.78230741212E+03  0.00000000000E+00 0.  1.
         23    2    1    2    0    0  0.81920829504E+03  0.70584285927E+02 -0.34639075818E+03  0.89692974093E+03  0.91717123411E+02 0.  0.
         11    1    3    3    0    0  0.35112116837E+03 -0.12673099714E+01 -0.18311427048E+03  0.39600317802E+03  0.00000000000E+00 0.  1.
        -11    1    3    3    0    0  0.46808712667E+03  0.71851595898E+02 -0.16327648771E+03  0.50092656290E+03  0.00000000000E+00 0. -1.
         22    1    1    2    0    0 -0.81920829504E+03 -0.70584285927E+02  0.89147906441E+03  0.12127733895E+04  0.00000000000E+00 0. -1.
<mgrwt>
<rscale>  0 0.20380692E+04</rscale>
<asrwt>0</asrwt>
<pdfrwt beam="1">  1        2 0.20421473E+00 0.20380692E+04</pdfrwt>
<pdfrwt beam="2">  1       -2 0.12035499E+00 0.20380692E+04</pdfrwt>
<totfact> 0.77811824E+00</totfact>
</mgrwt>
</event>
<event>
 6    1  0.1637818E-005  0.2497435E+04  0.7818608E-02  0.8403900E-01
          1   -1    0    0  501    0  0.00000000000E+00  0.00000000000E+00  0.16535783613E+04  0.16535783613E+04  0.00000000000E+00 0. -1.
         -1   -1    0    0    0  501 -0.00000000000E+00 -0.00000000000E+00 -0.94298250357E+03  0.94298250357E+03  0.00000000000E+00 0.  1.
         23    2    1    2    0    0 -0.98180707032E+03  0.46581758241E+03  0.99227765741E+03  0.14739408135E+04  0.83399213530E+02 0.  0.
         11    1    3    3    0    0 -0.61134181845E+03  0.30000033476E+03  0.67421532743E+03  0.95828248840E+03  0.00000000000E+00 0.  1.
        -11    1    3    3    0    0 -0.37046525187E+03  0.16581724765E+03  0.31806232998E+03  0.51565832507E+03  0.00000000000E+00 0. -1.
         22    1    1    2    0    0  0.98180707032E+03 -0.46581758241E+03 -0.28168179972E+03  0.11226200514E+04  0.00000000000E+00 0.  1.
<mgrwt>
<rscale>  0 0.24974351E+04</rscale>
<asrwt>0</asrwt>
<pdfrwt beam="1">  1        1 0.25439667E+00 0.24974351E+04</pdfrwt>
<pdfrwt beam="2">  1       -1 0.14507423E+00 0.24974351E+04</pdfrwt>
<totfact> 0.17384447E+00</totfact>
</mgrwt>
</event>
<event>
 6    1  0.1637818E-005  0.3491082E+04  0.7818608E-02  0.8115907E-01
         -1   -1    0    0    0  501 -0.00000000000E+00  0.00000000000E+00  0.10061647027E+04  0.10061647027E+04  0.00000000000E+00 0.  1.
          1   -1    0    0  501    0  0.00000000000E+00 -0.00000000000E+00 -0.30282457293E+04  0.30282457293E+04  0.00000000000E+00 0. -1.
         23    2    1    2    0    0  0.11071885638E+04  0.12539941579E+04 -0.15830648007E+04  0.23049298422E+04  0.90771966774E+02 0.  0.
         11    1    3    3    0    0  0.35803622553E+03  0.43905998348E+03 -0.58706789529E+03  0.81585067357E+03  0.00000000000E+00 0.  1.
        -11    1    3    3    0    0  0.74915233831E+03  0.81493417447E+03 -0.99599690542E+03  0.14890791686E+04  0.00000000000E+00 0. -1.
         22    1    1    2    0    0 -0.11071885638E+04 -0.12539941579E+04 -0.43901622589E+03  0.17294805898E+04  0.00000000000E+00 0.  1.
<mgrwt>
<rscale>  0 0.34910823E+04</rscale>
<asrwt>0</asrwt>
<pdfrwt beam="1">  1        1 0.46588395E+00 0.34910823E+04</pdfrwt>
<pdfrwt beam="2">  1       -1 0.15479457E+00 0.34910823E+04</pdfrwt>
<totfact> 0.14892627E-01</totfact>
</mgrwt>
</event>
<event>
 6    1  0.1637818E-005  0.1495491E+04  0.7818608E-02  0.8887457E-01
         -1   -1    0    0    0  501 -0.00000000000E+00  0.00000000000E+00  0.89836404120E+03  0.89836404120E+03  0.00000000000E+00 0.  1.
          1   -1    0    0  501    0  0.00000000000E+00 -0.00000000000E+00 -0.62237905443E+03  0.62237905443E+03  0.00000000000E+00 0. -1.
         23    2    1    2    0    0  0.19890146163E+03 -0.46355600226E+03 -0.41870945259E+03  0.66222907551E+03  0.93721844273E+02 0.  0.
         11    1    3    3    0    0  0.14063541572E+03 -0.34630724781E+03 -0.35926393149E+03  0.51843765537E+03  0.00000000000E+00 0.  1.
        -11    1    3    3    0    0  0.58266045913E+02 -0.11724875445E+03 -0.59445521103E+02  0.14379142014E+03  0.00000000000E+00 0. -1.
         22    1    1    2    0    0 -0.19890146163E+03  0.46355600226E+03  0.69469443936E+03  0.85851402012E+03  0.00000000000E+00 0.  1.
<mgrwt>
<rscale>  0 0.14954905E+04</rscale>
<asrwt>0</asrwt>
<pdfrwt beam="1">  1        1 0.95750624E-01 0.14954905E+04</pdfrwt>
<pdfrwt beam="2">  1       -1 0.13820985E+00 0.14954905E+04</pdfrwt>
<totfact> 0.13623204E+01</totfact>
</mgrwt>
</event>
<event>
 6    1  0.1637818E-005  0.1179493E+04  0.7818608E-02  0.9130998E-01
          1   -1    0    0  501    0  0.00000000000E+00  0.00000000000E+00  0.11235812709E+04  0.11235812709E+04  0.00000000000E+00 0. -1.
         -1   -1    0    0    0  501 -0.00000000000E+00 -0.00000000000E+00 -0.30954679374E+03  0.30954679374E+03  0.00000000000E+00 0.  1.
         23    2    1    2    0    0  0.45018970710E+03  0.37536156451E+03  0.40415901091E+03  0.71789035989E+03  0.91950999066E+02 0.  0.
         13    1    3    3    0    0  0.32015501733E+03  0.26091825157E+03  0.23220186718E+03  0.47380932478E+03  0.00000000000E+00 0.  1.
        -13    1    3    3    0    0  0.13003468977E+03  0.11444331294E+03  0.17195714373E+03  0.24408103511E+03  0.00000000000E+00 0. -1.
         22    1    1    2    0    0 -0.45018970710E+03 -0.37536156451E+03  0.40987546629E+03  0.71523770480E+03  0.00000000000E+00 0. -1.
<mgrwt>
<rscale>  0 0.11794931E+04</rscale>
<asrwt>0</asrwt>
<pdfrwt beam="1">  1        1 0.17285866E+00 0.11794931E+04</pdfrwt>
<pdfrwt beam="2">  1       -1 0.47622584E-01 0.11794931E+04</pdfrwt>
<totfact> 0.53095680E+01</totfact>
</mgrwt>
</event>
<event>
 6    1  0.1637818E-005  0.1294519E+04  0.7818608E-02  0.9033923E-01
         -1   -1    0    0    0  501 -0.00000000000E+00  0.00000000000E+00  0.14589238737E+04  0.14589238737E+04  0.00000000000E+00 0.  1.
          1   -1    0    0  501    0  0.00000000000E+00 -0.00000000000E+00 -0.28716013557E+03  0.28716013557E+03  0.00000000000E+00 0. -1.
         23    2    1    2    0    0 -0.35533006035E+03  0.50552794244E+03  0.34453234754E+03  0.71354842830E+03  0.92902468489E+02 0.  0.
         11    1    3    3    0    0 -0.11837275814E+03  0.23139279954E+03  0.17617976315E+03  0.31399688930E+03  0.00000000000E+00 0.  1.
        -11    1    3    3    0    0 -0.23695730221E+03  0.27413514290E+03  0.16835258439E+03  0.39955153900E+03  0.00000000000E+00 0. -1.
         22    1    1    2    0    0  0.35533006035E+03 -0.50552794244E+03  0.82723139057E+03  0.10325355809E+04  0.00000000000E+00 0. -1.
<mgrwt>
<rscale>  0 0.12945189E+04</rscale>
<asrwt>0</asrwt>
<pdfrwt beam="1">  1        1 0.44178483E-01 0.12945189E+04</pdfrwt>
<pdfrwt beam="2">  1       -1 0.22444982E+00 0.12945189E+04</pdfrwt>
<totfact> 0.93822874E+00</totfact>
</mgrwt>
</event>
<event>
 6    1  0.1637818E-005  0.1644746E+04  0.7818608E-02  0.8793521E-01
          2   -1    0    0  501    0  0.00000000000E+00  0.00000000000E+00  0.13062881648E+04  0.13062881648E+04  0.00000000000E+00 0. -1.
         -2   -1    0    0    0  501 -0.00000000000E+00 -0.00000000000E+00 -0.51772449815E+03  0.51772449815E+03  0.00000000000E+00 0.  1.
         23    2    1    2    0    0 -0.16389167035E+03 -0.23391690698E+03  0.12477671269E+04  0.12832304360E+04  0.90443076108E+02 0.  0.
         13    1    3    3    0    0 -0.31177184550E+02 -0.12075393840E+03  0.48507564022E+03  0.50085118270E+03  0.00000000000E+00 0. -1.
        -13    1    3    3    0    0 -0.13271448580E+03 -0.11316296858E+03  0.76269148669E+03  0.78237925335E+03  0.00000000000E+00 0.  1.
         22    1    1    2    0    0  0.16389167035E+03  0.23391690698E+03 -0.45920346028E+03  0.54078222688E+03  0.00000000000E+00 0.  1.
<mgrwt>
<rscale>  0 0.16447460E+04</rscale>
<asrwt>0</asrwt>
<pdfrwt beam="1">  1        2 0.20096741E+00 0.16447460E+04</pdfrwt>
<pdfrwt beam="2">  1       -2 0.79649924E-01 0.16447460E+04</pdfrwt>
<totfact> 0.21870344E+01</totfact>
</mgrwt>
</event>
<event>
 6    1  0.1637818E-005  0.7151680E+04  0.7818608E-02  0.7561992E-01
          3   -1    0    0  501    0  0.00000000000E+00  0.00000000000E+00  0.35563038901E+04  0.35563038901E+04  0.00000000000E+00 0. -1.
         -3   -1    0    0    0  501 -0.00000000000E+00 -0.00000000000E+00 -0.35954836619E+04  0.35954836619E+04  0.00000000000E+00 0.  1.
         23    2    1    2    0    0 -0.52805536792E+03  0.80227050911E+03  0.34243036132E+04  0.35575981303E+04  0.90381303131E+02 0.  0.
         11    1    3    3    0    0 -0.58052116346E+02  0.86623127657E+02  0.27916945951E+03  0.29800872736E+03  0.00000000000E+00 0.  1.
        -11    1    3    3    0    0 -0.47000325157E+03  0.71564738145E+03  0.31451341537E+04  0.32595894029E+04  0.00000000000E+00 0. -1.
         22    1    1    2    0    0  0.52805536792E+03 -0.80227050911E+03 -0.34634833850E+04  0.35941894218E+04  0.00000000000E+00 0.  1.
<mgrwt>
<rscale>  0 0.71516802E+04</rscale>
<asrwt>0</asrwt>
<pdfrwt beam="1">  1        3 0.54712368E+00 0.71516802E+04</pdfrwt>
<pdfrwt beam="2">  1       -3 0.55315133E+00 0.71516802E+04</pdfrwt>
<totfact> 0.51417099E-06</totfact>
</mgrwt>
</event>
<event>
 6    1  0.1637818E-005  0.3285671E+04  0.7818608E-02  0.8166551E-01
         -3   -1    0    0    0  501 -0.00000000000E+00  0.00000000000E+00  0.79955768684E+03  0.79955768684E+03  0.00000000000E+00 0.  1.
          3   -1    0    0  501    0  0.00000000000E+00 -0.00000000000E+00 -0.33755016699E+04  0.33755016699E+04  0.00000000000E+00 0. -1.
         23    2    1    2    0    0 -0.10750247108E+04  0.10477612324E+04 -0.44481592274E+03  0.15683011136E+04  0.90694260263E+02 0.  0.
         13    1    3    3    0    0 -0.75430095483E+03  0.78412492660E+03 -0.30063702297E+03  0.11288066489E+04  0.00000000000E+00 0.  1.
        -13    1    3    3    0    0 -0.32072375597E+03  0.26363630576E+03 -0.14417889977E+03  0.43949446469E+03  0.00000000000E+00 0. -1.
         22    1    1    2    0    0  0.10750247108E+04 -0.10477612324E+04 -0.21311280604E+04  0.26067582432E+04  0.00000000000E+00 0. -1.
<mgrwt>
<rscale>  0 0.32856709E+04</rscale>
<asrwt>0</asrwt>
<pdfrwt beam="1">  1        3 0.51930795E+00 0.32856709E+04</pdfrwt>
<pdfrwt beam="2">  1       -3 0.12300888E+00 0.32856709E+04</pdfrwt>
<totfact> 0.31808159E-03</totfact>
</mgrwt>
</event>
<event>
 6    1  0.1637818E-005  0.3770837E+04  0.7818608E-02  0.8052442E-01
          2   -1    0    0  501    0  0.00000000000E+00  0.00000000000E+00  0.33777256190E+04  0.33777256190E+04  0.00000000000E+00 0.  1.
         -2   -1    0    0    0  501 -0.00000000000E+00 -0.00000000000E+00 -0.10524249093E+04  0.10524249093E+04  0.00000000000E+00 0. -1.
         23    2    1    2    0    0  0.12620182884E+04 -0.12448161017E+04  0.19138158480E+04  0.26103766196E+04  0.95486694559E+02 0.  0.
         11    1    3    3    0    0  0.44011269777E+03 -0.39237429274E+03  0.58704521805E+03  0.83203296832E+03  0.00000000000E+00 0. -1.
        -11    1    3    3    0    0  0.82190559065E+03 -0.85244180901E+03  0.13267706299E+04  0.17783436513E+04  0.00000000000E+00 0.  1.
         22    1    1    2    0    0 -0.12620182884E+04  0.12448161017E+04  0.41148486166E+03  0.18197739087E+04  0.00000000000E+00 0. -1.
<mgrwt>
<rscale>  0 0.37708368E+04</rscale>
<asrwt>0</asrwt>
<pdfrwt beam="1">  1        2 0.51965009E+00 0.37708368E+04</pdfrwt>
<pdfrwt beam="2">  1       -2 0.16191153E+00 0.37708368E+04</pdfrwt>
<totfact> 0.19322579E-01</totfact>
</mgrwt>
</event>
<event>
 6    1  0.1637818E-005  0.1991362E+04  0.7818608E-02  0.8610670E-01
          1   -1    0    0  501    0  0.00000000000E+00  0.00000000000E+00  0.20068588671E+04  0.20068588671E+04  0.00000000000E+00 0. -1.
         -1   -1    0    0    0  501 -0.00000000000E+00 -0.00000000000E+00 -0.49399626308E+03  0.49399626308E+03  0.00000000000E+00 0.  1.
         23    2    1    2    0    0  0.52675464881E+03  0.81044990630E+03  0.10449403867E+04  0.14269600179E+04  0.10007482353E+03 0.  0.
         11    1    3    3    0    0  0.12217661516E+03  0.27183375870E+03  0.31156021811E+03  0.43115019096E+03  0.00000000000E+00 0.  1.
        -11    1    3    3    0    0  0.40457803364E+03  0.53861614760E+03  0.73338016857E+03  0.99580982693E+03  0.00000000000E+00 0. -1.
         22    1    1    2    0    0 -0.52675464881E+03 -0.81044990630E+03  0.46792221730E+03  0.10738951122E+04  0.00000000000E+00 0.  1.
<mgrwt>
<rscale>  0 0.19913621E+04</rscale>
<asrwt>0</asrwt>
<pdfrwt beam="1">  1        1 0.30874751E+00 0.19913621E+04</pdfrwt>
<pdfrwt beam="2">  1       -1 0.75999426E-01 0.19913621E+04</pdfrwt>
<totfact> 0.47590125E+00</totfact>
</mgrwt>
</event>
<event>
 6    1  0.1637818E-005  0.2291914E+04  0.7818608E-02  0.8481116E-01
         -2   -1    0    0    0  501 -0.00000000000E+00  0.00000000000E+00  0.76945048047E+03  0.76945048047E+03  0.00000000000E+00 0.  1.
          2   -1    0    0  501    0  0.00000000000E+00 -0.00000000000E+00 -0.17066952601E+04  0.17066952601E+04  0.00000000000E+00 0. -1.
         23    2    1    2    0    0 -0.41388574542E+03  0.40282415413E+03 -0.15363538841E+04  0.16439796343E+04  0.93365257487E+02 0.  0.
         11    1    3    3    0    0 -0.23127444322E+03  0.17468955721E+03 -0.84816100342E+03  0.89631545630E+03  0.00000000000E+00 0. -1.
        -11    1    3    3    0    0 -0.18261130220E+03  0.22813459692E+03 -0.68819288073E+03  0.74766417802E+03  0.00000000000E+00 0.  1.
         22    1    1    2    0    0  0.41388574542E+03 -0.40282415413E+03  0.59910910448E+03  0.83216610630E+03  0.00000000000E+00 0.  1.
<mgrwt>
<rscale>  0 0.22919140E+04</rscale>
<asrwt>0</asrwt>
<pdfrwt beam="1">  1        2 0.26256850E+00 0.22919140E+04</pdfrwt>
<pdfrwt beam="2">  1       -2 0.11837700E+00 0.22919140E+04</pdfrwt>
<totfact> 0.48455817E+00</totfact>
</mgrwt>
</event>
<event>
 6    1  0.1637818E-005  0.1345157E+04  0.7818608E-02  0.8994503E-01
         -2   -1    0    0    0  501 -0.00000000000E+00  0.00000000000E+00  0.69060098802E+03  0.69060098802E+03  0.00000000000E+00 0.  1.
          2   -1    0    0  501    0  0.00000000000E+00 -0.00000000000E+00 -0.65502605850E+03  0.65502605850E+03  0.00000000000E+00 0. -1.
         23    2    1    2    0    0  0.14121701602E+03  0.12303552182E+03  0.66085553030E+03  0.69289753520E+03  0.91087743992E+02 0.  0.
         11    1    3    3    0    0  0.10447386860E+03  0.13333337277E+03  0.51549806158E+03  0.54261480721E+03  0.00000000000E+00 0. -1.
        -11    1    3    3    0    0  0.36743147419E+02 -0.10297850948E+02  0.14535746873E+03  0.15028272799E+03  0.00000000000E+00 0.  1.
         22    1    1    2    0    0 -0.14121701602E+03 -0.12303552182E+03 -0.62528060078E+03  0.65272951132E+03  0.00000000000E+00 0. -1.
<mgrwt>
<rscale>  0 0.13451567E+04</rscale>
<asrwt>0</asrwt>
<pdfrwt beam="1">  1        2 0.10077324E+00 0.13451567E+04</pdfrwt>
<pdfrwt beam="2">  1       -2 0.10624631E+00 0.13451567E+04</pdfrwt>
<totfact> 0.31096064E+01</totfact>
</mgrwt>
</event>
<event>
 6    1  0.1637818E-005  0.3173726E+04  0.7818608E-02  0.8195791E-01
         -1   -1    0    0    0  501 -0.00000000000E+00  0.00000000000E+00  0.18619577596E+04  0.18619577596E+04  0.00000000000E+00 0.  1.
          1   -1    0    0  501    0  0.00000000000E+00 -0.00000000000E+00 -0.13524120525E+04  0.13524120525E+04  0.00000000000E+00 0. -1.
         23    2    1    2    0    0 -0.10644180330E+04 -0.80108519128E+03 -0.61575785829E+03  0.14705145008E+04  0.92368416930E+02 0.  0.
         11    1    3    3    0    0 -0.36703124122E+03 -0.33205069317E+03 -0.22875034517E+03  0.54524885629E+03  0.00000000000E+00 0. -1.
        -11    1    3    3    0    0 -0.69738679174E+03 -0.46903449811E+03 -0.38700751312E+03  0.92526564452E+03  0.00000000000E+00 0.  1.
         22    1    1    2    0    0  0.10644180330E+04  0.80108519128E+03  0.11253035654E+04  0.17438553114E+04  0.00000000000E+00 0.  1.
<mgrwt>
<rscale>  0 0.31737260E+04</rscale>
<asrwt>0</asrwt>
<pdfrwt beam="1">  1        1 0.20806339E+00 0.31737260E+04</pdfrwt>
<pdfrwt beam="2">  1       -1 0.28645504E+00 0.31737260E+04</pdfrwt>
<totfact> 0.28133001E-01</totfact>
</mgrwt>
</event>
<event>
 6    1  0.1637818E-005  0.8592030E+03  0.7818608E-02  0.9478068E-01
          1   -1    0    0  501    0  0.00000000000E+00  0.00000000000E+00  0.27319240090E+03  0.27319240090E+03  0.00000000000E+00 0. -1.
         -1   -1    0    0    0  501 -0.00000000000E+00 -0.00000000000E+00 -0.67555856355E+03  0.67555856355E+03  0.00000000000E+00 0.  1.
         23    2    1    2    0    0  0.92013015934E+02 -0.30116547255E+03  0.11148167989E+03  0.34608468678E+03  0.90440082449E+02 0.  0.
         13    1    3    3    0    0  0.77751338457E+02 -0.11564564190E+03  0.67741464987E+02  0.15494544589E+03  0.00000000000E+00 0.  1.
        -13    1    3    3    0    0  0.14261677477E+02 -0.18551983065E+03  0.43740214903E+02  0.19113924089E+03  0.00000000000E+00 0. -1.
         22    1    1    2    0    0 -0.92013015934E+02  0.30116547255E+03 -0.51384784254E+03  0.60266627767E+03  0.00000000000E+00 0.  1.
<mgrwt>
<rscale>  0 0.85920304E+03</rscale>
<asrwt>0</asrwt>
<pdfrwt beam="1">  1        1 0.42029600E-01 0.85920304E+03</pdfrwt>
<pdfrwt beam="2">  1       -1 0.10393209E+00 0.85920304E+03</pdfrwt>
<totfact> 0.87269166E+01</totfact>
</mgrwt>
</event>
<event>
 6    1  0.1637818E-005  0.2314176E+04  0.7818608E-02  0.8472353E-01
         -1   -1    0    0    0  501 -0.00000000000E+00  0.00000000000E+00  0.95907667955E+03  0.95907667955E+03  0.00000000000E+00 0.  1.
          1   -1    0    0  501    0  0.00000000000E+00 -0.00000000000E+00 -0.13959802873E+04  0.13959802873E+04  0.00000000000E+00 0. -1.
         23    2    1    2    0    0 -0.27810513118E+03 -0.23797861200E+03  0.89619331441E+03  0.97262299459E+03  0.94110302524E+02 0.  0.
         11    1    3    3    0    0 -0.62246063639E+02 -0.75288826426E+02  0.34740177597E+03  0.36087528839E+03  0.00000000000E+00 0. -1.
        -11    1    3    3    0    0 -0.21585906754E+03 -0.16268978558E+03  0.54879153844E+03  0.61174770620E+03  0.00000000000E+00 0.  1.
         22    1    1    2    0    0  0.27810513118E+03  0.23797861200E+03 -0.13330969221E+04  0.13824339722E+04  0.00000000000E+00 0. -1.
<mgrwt>
<rscale>  0 0.23141756E+04</rscale>
<asrwt>0</asrwt>
<pdfrwt beam="1">  1        1 0.21476620E+00 0.23141756E+04</pdfrwt>
<pdfrwt beam="2">  1       -1 0.14755026E+00 0.23141756E+04</pdfrwt>
<totfact> 0.25462277E+00</totfact>
</mgrwt>
</event>
<event>
 6    1  0.1637818E-005  0.2146713E+04  0.7818608E-02  0.8540940E-01
          1   -1    0    0  501    0  0.00000000000E+00  0.00000000000E+00  0.26583880290E+04  0.26583880290E+04  0.00000000000E+00 0. -1.
         -1   -1    0    0    0  501 -0.00000000000E+00 -0.00000000000E+00 -0.43338094126E+03  0.43338094126E+03  0.00000000000E+00 0.  1.
         23    2    1    2    0    0 -0.23088365292E+03  0.16771903591E+03  0.26017931054E+04  0.26191119706E+04  0.94779823913E+02 0.  0.
         13    1    3    3    0    0 -0.13326229099E+03  0.14117038262E+03  0.14609395543E+04  0.14737816312E+04  0.00000000000E+00 0. -1.
        -13    1    3    3    0    0 -0.97621361930E+02  0.26548653296E+02  0.11408535511E+04  0.11453303394E+04  0.00000000000E+00 0.  1.
         22    1    1    2    0    0  0.23088365292E+03 -0.16771903591E+03 -0.37678601768E+03  0.47265699964E+03  0.00000000000E+00 0.  1.
<mgrwt>
<rscale>  0 0.21467135E+04</rscale>
<asrwt>0</asrwt>
<pdfrwt beam="1">  1        1 0.40898276E+00 0.21467135E+04</pdfrwt>
<pdfrwt beam="2">  1       -1 0.66673992E-01 0.21467135E+04</pdfrwt>
<totfact> 0.21927595E+00</totfact>
</mgrwt>
</event>
<event>
 6    1  0.2319061E-005  0.3466293E+04  0.7818608E-02  0.8121825E-01
          1   -1    0    0  501    0  0.00000000000E+00  0.00000000000E+00  0.25577049275E+04  0.25577049275E+04  0.00000000000E+00 0. -1.
         -1   -1    0    0    0  501 -0.00000000000E+00 -0.00000000000E+00 -0.11744111319E+04  0.11744111319E+04  0.00000000000E+00 0.  1.
         23    2    1    2    0    0  0.10389205322E+04  0.83232987483E+03 -0.50076628792E+03  0.14252109268E+04  0.91271123289E+02 0.  0.
         13    1    3    3    0    0  0.72107359403E+03  0.57559801893E+03 -0.39156556691E+03  0.10022892799E+04  0.00000000000E+00 0.  1.
        -13    1    3    3    0    0  0.31784693817E+03  0.25673185590E+03 -0.10920072101E+03  0.42292164689E+03  0.00000000000E+00 0. -1.
         22    1    1    2    0    0 -0.10389205322E+04 -0.83232987483E+03  0.18840600835E+04  0.23069051326E+04  0.00000000000E+00 0. -1.
<mgrwt>
<rscale>  0 0.34662932E+04</rscale>
<asrwt>0</asrwt>
<pdfrwt beam="1">  1        1 0.39349306E+00 0.34662932E+04</pdfrwt>
<pdfrwt beam="2">  1       -1 0.18067864E+00 0.34662932E+04</pdfrwt>
<totfact> 0.20789555E-01</totfact>
</mgrwt>
</event>
<event>
 6    1  0.1637818E-005  0.3091113E+04  0.7818608E-02  0.8218181E-01
          1   -1    0    0  501    0  0.00000000000E+00  0.00000000000E+00  0.14139909618E+04  0.14139909618E+04  0.00000000000E+00 0. -1.
         -1   -1    0    0    0  501 -0.00000000000E+00 -0.00000000000E+00 -0.16893636926E+04  0.16893636926E+04  0.00000000000E+00 0.  1.
         23    2    1    2    0    0 -0.12964614653E+04 -0.77193760401E+03  0.19190304716E+03  0.15237829883E+04  0.91585045221E+02 0.  0.
         11    1    3    3    0    0 -0.91225184261E+02 -0.74774552909E+02  0.32439598325E+02  0.12233395091E+03  0.00000000000E+00 0.  1.
        -11    1    3    3    0    0 -0.12052362810E+04 -0.69716305110E+03  0.15946344883E+03  0.14014490374E+04  0.00000000000E+00 0. -1.
         22    1    1    2    0    0  0.12964614653E+04  0.77193760401E+03 -0.46727577795E+03  0.15795716660E+04  0.00000000000E+00 0.  1.
<mgrwt>
<rscale>  0 0.30911131E+04</rscale>
<asrwt>0</asrwt>
<pdfrwt beam="1">  1        1 0.21753707E+00 0.30911131E+04</pdfrwt>
<pdfrwt beam="2">  1       -1 0.25990211E+00 0.30911131E+04</pdfrwt>
<totfact> 0.38111952E-01</totfact>
</mgrwt>
</event>
<event>
 6    1  0.1637818E-005  0.2078316E+04  0.7818608E-02  0.8570856E-01
         -1   -1    0    0    0  501 -0.00000000000E+00  0.00000000000E+00  0.61596658539E+03  0.61596658539E+03  0.00000000000E+00 0.  1.
          1   -1    0    0  501    0  0.00000000000E+00 -0.00000000000E+00 -0.17530969855E+04  0.17530969855E+04  0.00000000000E+00 0. -1.
         23    2    1    2    0    0 -0.11183296602E+03  0.64382882415E+03  0.34852379829E+03  0.74604460479E+03  0.89953028141E+02 0.  0.
         11    1    3    3    0    0 -0.35065253860E+02  0.37254543992E+03  0.23652151108E+03  0.44267606897E+03  0.00000000000E+00 0.  1.
        -11    1    3    3    0    0 -0.76767712157E+02  0.27128338422E+03  0.11200228722E+03  0.30336853582E+03  0.00000000000E+00 0. -1.
         22    1    1    2    0    0  0.11183296602E+03 -0.64382882415E+03 -0.14856541984E+04  0.16230189661E+04  0.00000000000E+00 0. -1.
<mgrwt>
<rscale>  0 0.20783158E+04</rscale>
<asrwt>0</asrwt>
<pdfrwt beam="1">  1        1 0.26970722E+00 0.20783158E+04</pdfrwt>
<pdfrwt beam="2">  1       -1 0.94764091E-01 0.20783158E+04</pdfrwt>
<totfact> 0.43497646E+00</totfact>
</mgrwt>
</event>
<event>
 6    1  0.1637818E-005  0.1812773E+04  0.7818608E-02  0.8699536E-01
          3   -1    0    0  501    0  0.00000000000E+00  0.00000000000E+00  0.48461804224E+03  0.48461804224E+03  0.00000000000E+00 0. -1.
         -3   -1    0    0    0  501 -0.00000000000E+00 -0.00000000000E+00 -0.16952246988E+04  0.16952246988E+04  0.00000000000E+00 0.  1.
         23    2    1    2    0    0 -0.19772874594E+03  0.55755512222E+03 -0.14286555527E+04  0.15493590439E+04  0.97428884106E+02 0.  0.
         11    1    3    3    0    0 -0.16774318257E+03  0.47841480221E+03 -0.11216260549E+04  0.12308791595E+04  0.00000000000E+00 0. -1.
        -11    1    3    3    0    0 -0.29985563363E+02  0.79140320015E+02 -0.30702949785E+03  0.31847988447E+03  0.00000000000E+00 0.  1.
         22    1    1    2    0    0  0.19772874594E+03 -0.55755512222E+03  0.21804889610E+03  0.63048369715E+03  0.00000000000E+00 0. -1.
<mgrwt>
<rscale>  0 0.18127730E+04</rscale>
<asrwt>0</asrwt>
<pdfrwt beam="1">  1        3 0.74556623E-01 0.18127730E+04</pdfrwt>
<pdfrwt beam="2">  1       -3 0.26080380E+00 0.18127730E+04</pdfrwt>
<totfact> 0.26597317E-01</totfact>
</mgrwt>
</event>
<event>
 6    1  0.1637818E-005  0.1472971E+04  0.7818608E-02  0.8902629E-01
          1   -1    0    0  501    0  0.00000000000E+00  0.00000000000E+00  0.22952260792E+04  0.22952260792E+04  0.00000000000E+00 0. -1.
         -1   -1    0    0    0  501 -0.00000000000E+00 -0.00000000000E+00 -0.23632132634E+03  0.23632132634E+03  0.00000000000E+00 0.  1.
         23    2    1    2    0    0 -0.47972351353E+03 -0.26777427562E+03  0.18690622862E+04  0.19502747722E+04  0.91324396299E+02 0.  0.
         13    1    3    3    0    0 -0.17671065297E+03 -0.63113484413E+02  0.53233092251E+03  0.56443438755E+03  0.00000000000E+00 0.  1.
        -13    1    3    3    0    0 -0.30301286056E+03 -0.20466079121E+03  0.13367313637E+04  0.13858403847E+04  0.00000000000E+00 0. -1.
         22    1    1    2    0    0  0.47972351353E+03  0.26777427562E+03  0.18984246670E+03  0.58127263335E+03  0.00000000000E+00 0.  1.
<mgrwt>
<rscale>  0 0.14729710E+04</rscale>
<asrwt>0</asrwt>
<pdfrwt beam="1">  1        1 0.35311169E+00 0.14729710E+04</pdfrwt>
<pdfrwt beam="2">  1       -1 0.36357129E-01 0.14729710E+04</pdfrwt>
<totfact> 0.13196838E+01</totfact>
</mgrwt>
</event>
<event>
 6    1  0.1637818E-005  0.2557544E+04  0.7818608E-02  0.8382767E-01
          2   -1    0    0  501    0  0.00000000000E+00  0.00000000000E+00  0.12951407688E+04  0.12951407688E+04  0.00000000000E+00 0. -1.
         -2   -1    0    0    0  501 -0.00000000000E+00 -0.00000000000E+00 -0.12626099854E+04  0.12626099854E+04  0.00000000000E+00 0.  1.
         23    2    1    2    0    0  0.36939410389E+03 -0.10260498399E+04  0.68109539050E+03  0.12889456756E+04  0.90883143375E+02 0.  0.
         11    1    3    3    0    0  0.12943226000E+03 -0.24471462910E+03  0.18029854700E+03  0.33037179915E+03  0.00000000000E+00 0.  1.
        -11    1    3    3    0    0  0.23996184389E+03 -0.78133521075E+03  0.50079684350E+03  0.95857387641E+03  0.00000000000E+00 0. -1.
         22    1    1    2    0    0 -0.36939410389E+03  0.10260498399E+04 -0.64856460715E+03  0.12688050786E+04  0.00000000000E+00 0.  1.
<mgrwt>
<rscale>  0 0.25575439E+04</rscale>
<asrwt>0</asrwt>
<pdfrwt beam="1">  1        2 0.19925243E+00 0.25575439E+04</pdfrwt>
<pdfrwt beam="2">  1       -2 0.19424769E+00 0.25575439E+04</pdfrwt>
<totfact> 0.21445224E+00</totfact>
</mgrwt>
</event>
<event>
 6    1  0.1637818E-005  0.1234936E+04  0.7818608E-02  0.9082815E-01
         -2   -1    0    0    0  501 -0.00000000000E+00  0.00000000000E+00  0.21330499437E+03  0.21330499437E+03  0.00000000000E+00 0.  1.
          2   -1    0    0  501    0  0.00000000000E+00 -0.00000000000E+00 -0.17874251298E+04  0.17874251298E+04  0.00000000000E+00 0. -1.
         23    2    1    2    0    0 -0.57523304839E+03 -0.16285297366E+03 -0.56534236373E+03  0.82810625281E+03  0.93454944903E+02 0.  0.
         13    1    3    3    0    0 -0.44399562720E+02 -0.64616050903E+01 -0.81454224763E+02  0.92993893572E+02  0.00000000000E+00 0.  1.
        -13    1    3    3    0    0 -0.53083348567E+03 -0.15639136857E+03 -0.48388813897E+03  0.73511235924E+03  0.00000000000E+00 0. -1.
         22    1    1    2    0    0  0.57523304839E+03  0.16285297366E+03 -0.10087777717E+04  0.11726238714E+04  0.00000000000E+00 0. -1.
<mgrwt>
<rscale>  0 0.12349360E+04</rscale>
<asrwt>0</asrwt>
<pdfrwt beam="1">  1        2 0.27498850E+00 0.12349360E+04</pdfrwt>
<pdfrwt beam="2">  1       -2 0.32816151E-01 0.12349360E+04</pdfrwt>
<totfact> 0.74779799E+01</totfact>
</mgrwt>
</event>
<event>
 6    1  0.1637818E-005  0.4769106E+03  0.7818608E-02  0.1019988E+00
         -2   -1    0    0    0  501 -0.00000000000E+00  0.00000000000E+00  0.11660032791E+03  0.11660032791E+03  0.00000000000E+00 0. -1.
          2   -1    0    0  501    0  0.00000000000E+00 -0.00000000000E+00 -0.48765660563E+03  0.48765660563E+03  0.00000000000E+00 0.  1.
         23    2    1    2    0    0  0.87738809703E+01  0.10614233246E+03 -0.45232401997E+03  0.47028819967E+03  0.72324241997E+02 0.  0.
         13    1    3    3    0    0 -0.45638718384E+01  0.12864745778E+02 -0.20763896234E+03  0.20808716753E+03  0.00000000000E+00 0. -1.
        -13    1    3    3    0    0  0.13337752809E+02  0.93277586679E+02 -0.24468505763E+03  0.26220103214E+03  0.00000000000E+00 0.  1.
         22    1    1    2    0    0 -0.87738809703E+01 -0.10614233246E+03  0.81267742249E+02  0.13396873388E+03  0.00000000000E+00 0. -1.
<mgrwt>
<rscale>  0 0.47691056E+03</rscale>
<asrwt>0</asrwt>
<pdfrwt beam="1">  1        2 0.75024094E-01 0.47691056E+03</pdfrwt>
<pdfrwt beam="2">  1       -2 0.17938512E-01 0.47691056E+03</pdfrwt>
<totfact> 0.16310314E+03</totfact>
</mgrwt>
</event>
<event>
 6    1  0.1637818E-005  0.5010228E+04  0.7818608E-02  0.7826931E-01
         -1   -1    0    0    0  501 -0.00000000000E+00  0.00000000000E+00  0.24116471980E+04  0.24116471980E+04  0.00000000000E+00 0.  1.
          1   -1    0    0  501    0  0.00000000000E+00 -0.00000000000E+00 -0.26022037562E+04  0.26022037562E+04  0.00000000000E+00 0. -1.
         23    2    1    2    0    0 -0.17473725373E+04 -0.51646246622E+03 -0.18144827480E+04  0.25731173488E+04  0.92417449337E+02 0.  0.
         11    1    3    3    0    0 -0.14631965742E+02 -0.11748054348E+01 -0.54028875554E+01  0.15641796035E+02  0.00000000000E+00 0. -1.
        -11    1    3    3    0    0 -0.17327405715E+04 -0.51528766079E+03 -0.18090798604E+04  0.25574755528E+04  0.00000000000E+00 0.  1.
         22    1    1    2    0    0  0.17473725373E+04  0.51646246622E+03  0.16239261898E+04  0.24407336055E+04  0.00000000000E+00 0.  1.
<mgrwt>
<rscale>  0 0.50102285E+04</rscale>
<asrwt>0</asrwt>
<pdfrwt beam="1">  1        1 0.40033904E+00 0.50102285E+04</pdfrwt>
<pdfrwt beam="2">  1       -1 0.37102264E+00 0.50102285E+04</pdfrwt>
<totfact> 0.93300321E-03</totfact>
</mgrwt>
</event>
<event>
 6    1  0.1637818E-005  0.3497841E+04  0.7818608E-02  0.8114302E-01
          1   -1    0    0  501    0  0.00000000000E+00  0.00000000000E+00  0.34250129915E+04  0.34250129915E+04  0.00000000000E+00 0. -1.
         -1   -1    0    0    0  501 -0.00000000000E+00 -0.00000000000E+00 -0.89305456065E+03  0.89305456065E+03  0.00000000000E+00 0.  1.
         23    2    1    2    0    0  0.12336558488E+04  0.12236238795E+04  0.10357016277E+04  0.20250462760E+04  0.94722789403E+02 0.  0.
         13    1    3    3    0    0  0.28891719358E+03  0.25973985236E+03  0.19190850020E+03  0.43332067583E+03  0.00000000000E+00 0.  1.
        -13    1    3    3    0    0  0.94473865519E+03  0.96388402713E+03  0.84379312747E+03  0.15917256002E+04  0.00000000000E+00 0. -1.
         22    1    1    2    0    0 -0.12336558488E+04 -0.12236238795E+04  0.14962568032E+04  0.22930212761E+04  0.00000000000E+00 0.  1.
<mgrwt>
<rscale>  0 0.34978413E+04</rscale>
<asrwt>0</asrwt>
<pdfrwt beam="1">  1        1 0.52692507E+00 0.34978413E+04</pdfrwt>
<pdfrwt beam="2">  1       -1 0.13739301E+00 0.34978413E+04</pdfrwt>
<totfact> 0.10263104E-01</totfact>
</mgrwt>
</event>
<event>
 6    1  0.1637818E-005  0.1579187E+04  0.7818608E-02  0.8833437E-01
         -2   -1    0    0    0  501 -0.00000000000E+00  0.00000000000E+00  0.15520287210E+03  0.15520287210E+03  0.00000000000E+00 0.  1.
          2   -1    0    0  501    0  0.00000000000E+00 -0.00000000000E+00 -0.40170504852E+04  0.40170504852E+04  0.00000000000E+00 0. -1.
         23    2    1    2    0    0 -0.28030532859E+03 -0.70894162876E+03 -0.14222553535E+04  0.16163230563E+04  0.92307213809E+02 0.  0.
         11    1    3    3    0    0 -0.74157699478E+02 -0.26703640730E+03 -0.58729589343E+03  0.64940301328E+03  0.00000000000E+00 0.  1.
        -11    1    3    3    0    0 -0.20614762911E+03 -0.44190522146E+03 -0.83495946005E+03  0.96692004306E+03  0.00000000000E+00 0. -1.
         22    1    1    2    0    0  0.28030532859E+03  0.70894162876E+03 -0.24395922596E+04  0.25559303009E+04  0.00000000000E+00 0. -1.
<mgrwt>
<rscale>  0 0.15791868E+04</rscale>
<asrwt>0</asrwt>
<pdfrwt beam="1">  1        2 0.61800769E+00 0.15791868E+04</pdfrwt>
<pdfrwt beam="2">  1       -2 0.23877368E-01 0.15791868E+04</pdfrwt>
<totfact> 0.50683589E+00</totfact>
</mgrwt>
</event>
<event>
 6    1  0.1637818E-005  0.4929252E+04  0.7818608E-02  0.7839514E-01
          2   -1    0    0  501    0  0.00000000000E+00  0.00000000000E+00  0.34487828462E+04  0.34487828462E+04  0.00000000000E+00 0. -1.
         -2   -1    0    0    0  501 -0.00000000000E+00 -0.00000000000E+00 -0.17613114323E+04  0.17613114323E+04  0.00000000000E+00 0.  1.
         23    2    1    2    0    0 -0.52934113935E+02 -0.11670983953E+04  0.31367985844E+04  0.33485170086E+04  0.90222577455E+02 0.  0.
         13    1    3    3    0    0 -0.39893646298E+02 -0.48584704393E+03  0.14259868960E+04  0.15070094494E+04  0.00000000000E+00 0.  1.
        -13    1    3    3    0    0 -0.13040467637E+02 -0.68125135139E+03  0.17108116884E+04  0.18415075592E+04  0.00000000000E+00 0. -1.
         22    1    1    2    0    0  0.52934113935E+02  0.11670983953E+04 -0.14493271705E+04  0.18615772699E+04  0.00000000000E+00 0.  1.
<mgrwt>
<rscale>  0 0.49292517E+04</rscale>
<asrwt>0</asrwt>
<pdfrwt beam="1">  1        2 0.53058198E+00 0.49292517E+04</pdfrwt>
<pdfrwt beam="2">  1       -2 0.27097099E+00 0.49292517E+04</pdfrwt>
<totfact> 0.30836047E-02</totfact>
</mgrwt>
</event>
<event>
 6    1  0.1637818E-005  0.1269248E+04  0.7818608E-02  0.9054314E-01
          2   -1    0    0  501    0  0.00000000000E+00  0.00000000000E+00  0.14513440142E+04  0.14513440142E+04  0.00000000000E+00 0. -1.
         -2   -1    0    0    0  501 -0.00000000000E+00 -0.00000000000E+00 -0.27749962485E+03  0.27749962485E+03  0.00000000000E+00 0.  1.
         23    2    1    2    0    0 -0.58002875400E+03 -0.19428913364E+03  0.80450128552E+03  0.10142836687E+04  0.85833671627E+02 0.  0.
         13    1    3    3    0    0 -0.18136816751E+03 -0.56942048274E+02  0.31796845519E+03  0.37046018348E+03  0.00000000000E+00 0. -1.
        -13    1    3    3    0    0 -0.39866058648E+03 -0.13734708536E+03  0.48653283033E+03  0.64382348518E+03  0.00000000000E+00 0.  1.
         22    1    1    2    0    0  0.58002875400E+03  0.19428913364E+03  0.36934310379E+03  0.71455997035E+03  0.00000000000E+00 0. -1.
<mgrwt>
<rscale>  0 0.12692477E+04</rscale>
<asrwt>0</asrwt>
<pdfrwt beam="1">  1        2 0.22328369E+00 0.12692477E+04</pdfrwt>
<pdfrwt beam="2">  1       -2 0.42692251E-01 0.12692477E+04</pdfrwt>
<totfact> 0.69073395E+01</totfact>
</mgrwt>
</event>
<event>
 6    1  0.1637818E-005  0.2018061E+04  0.7818608E-02  0.8598223E-01
         -2   -1    0    0    0  501 -0.00000000000E+00  0.00000000000E+00  0.64781823406E+03  0.64781823406E+03  0.00000000000E+00 0.  1.
          2   -1    0    0  501    0  0.00000000000E+00 -0.00000000000E+00 -0.15716479684E+04  0.15716479684E+04  0.00000000000E+00 0. -1.
         23    2    1    2    0    0  0.25772966641E+03 -0.13912342621E+03 -0.15224230276E+04  0.15530625414E+04  0.91931897087E+02 0.  0.
         13    1    3    3    0    0  0.50714934280E+02 -0.35907005332E+01 -0.42844941419E+03  0.43145544174E+03  0.00000000000E+00 0.  1.
        -13    1    3    3    0    0  0.20701473213E+03 -0.13553272567E+03 -0.10939736134E+04  0.11216070996E+04  0.00000000000E+00 0. -1.
         22    1    1    2    0    0 -0.25772966641E+03  0.13912342621E+03  0.59859329332E+03  0.66640366106E+03  0.00000000000E+00 0.  1.
<mgrwt>
<rscale>  0 0.20180607E+04</rscale>
<asrwt>0</asrwt>
<pdfrwt beam="1">  1        2 0.24179199E+00 0.20180607E+04</pdfrwt>
<pdfrwt beam="2">  1       -2 0.99664345E-01 0.20180607E+04</pdfrwt>
<totfact> 0.89358545E+00</totfact>
</mgrwt>
</event>
<event>
 6    1  0.1637818E-005  0.1665946E+04  0.7818608E-02  0.8781029E-01
         -1   -1    0    0    0  501 -0.00000000000E+00  0.00000000000E+00  0.47773452000E+03  0.47773452000E+03  0.00000000000E+00 0.  1.
          1   -1    0    0  501    0  0.00000000000E+00 -0.00000000000E+00 -0.14523628594E+04  0.14523628594E+04  0.00000000000E+00 0. -1.
         23    2    1    2    0    0  0.57554784973E+03 -0.52068271132E+03 -0.14633572597E+03  0.79500510708E+03  0.90846917386E+02 0.  0.
         13    1    3    3    0    0  0.22936815173E+03 -0.21567717843E+03 -0.10451081955E+03  0.33173619900E+03  0.00000000000E+00 0.  1.
        -13    1    3    3    0    0  0.34617969799E+03 -0.30500553290E+03 -0.41824906417E+02  0.46326890808E+03  0.00000000000E+00 0. -1.
         22    1    1    2    0    0 -0.57554784973E+03  0.52068271132E+03 -0.82829261340E+03  0.11350922723E+04  0.00000000000E+00 0. -1.
<mgrwt>
<rscale>  0 0.16659458E+04</rscale>
<asrwt>0</asrwt>
<pdfrwt beam="1">  1        1 0.22344043E+00 0.16659458E+04</pdfrwt>
<pdfrwt beam="2">  1       -1 0.73497620E-01 0.16659458E+04</pdfrwt>
<totfact> 0.12566874E+01</totfact>
</mgrwt>
</event>
<event>
 6    1  0.1637818E-005  0.1872003E+04  0.7818608E-02  0.8668919E-01
         -2   -1    0    0    0  501 -0.00000000000E+00  0.00000000000E+00  0.15632890155E+04  0.15632890155E+04  0.00000000000E+00 0. -1.
          2   -1    0    0  501    0  0.00000000000E+00 -0.00000000000E+00 -0.56042044989E+03  0.56042044989E+03  0.00000000000E+00 0.  1.
         23    2    1    2    0    0  0.25050884975E+03 -0.31568163016E+02 -0.51724990142E+03  0.58276449995E+03  0.91190839273E+02 0.  0.
         13    1    3    3    0    0  0.34272348732E+02 -0.20505555987E+02 -0.16098290726E+03  0.16586310061E+03  0.00000000000E+00 0.  1.
        -13    1    3    3    0    0  0.21623650102E+03 -0.11062607029E+02 -0.35626699416E+03  0.41690139934E+03  0.00000000000E+00 0. -1.
         22    1    1    2    0    0 -0.25050884975E+03  0.31568163016E+02  0.15201184670E+04  0.15409449655E+04  0.00000000000E+00 0. -1.
<mgrwt>
<rscale>  0 0.18720033E+04</rscale>
<asrwt>0</asrwt>
<pdfrwt beam="1">  1        2 0.86218531E-01 0.18720033E+04</pdfrwt>
<pdfrwt beam="2">  1       -2 0.24050600E+00 0.18720033E+04</pdfrwt>
<totfact> 0.37151354E+00</totfact>
</mgrwt>
</event>
<event>
 6    1  0.1637818E-005  0.2314204E+04  0.7818608E-02  0.8472342E-01
         -2   -1    0    0    0  501 -0.00000000000E+00  0.00000000000E+00  0.79085375314E+03  0.79085375314E+03  0.00000000000E+00 0.  1.
          2   -1    0    0  501    0  0.00000000000E+00 -0.00000000000E+00 -0.16929608996E+04  0.16929608996E+04  0.00000000000E+00 0. -1.
         23    2    1    2    0    0  0.84334964307E+03  0.59794491302E+03 -0.10053176466E+04  0.14448588563E+04  0.90425685565E+02 0.  0.
         13    1    3    3    0    0  0.36640361984E+03  0.28928280022E+03 -0.50667453327E+03  0.68895227251E+03  0.00000000000E+00 0.  1.
        -13    1    3    3    0    0  0.47694602323E+03  0.30866211280E+03 -0.49864311333E+03  0.75590658380E+03  0.00000000000E+00 0. -1.
         22    1    1    2    0    0 -0.84334964307E+03 -0.59794491302E+03  0.10321050019E+03  0.10389557964E+04  0.00000000000E+00 0.  1.
<mgrwt>
<rscale>  0 0.23142035E+04</rscale>
<asrwt>0</asrwt>
<pdfrwt beam="1">  1        2 0.26045552E+00 0.23142035E+04</pdfrwt>
<pdfrwt beam="2">  1       -2 0.12166981E+00 0.23142035E+04</pdfrwt>
<totfact> 0.45979266E+00</totfact>
</mgrwt>
</event>
<event>
 6    1  0.1637818E-005  0.1608863E+04  0.7818608E-02  0.8815121E-01
          2   -1    0    0  501    0  0.00000000000E+00  0.00000000000E+00  0.26825317930E+04  0.26825317930E+04  0.00000000000E+00 0. -1.
         -2   -1    0    0    0  501 -0.00000000000E+00 -0.00000000000E+00 -0.24123117576E+03  0.24123117576E+03  0.00000000000E+00 0.  1.
         23    2    1    2    0    0  0.10020128407E+03  0.52588112568E+03  0.23092684812E+04  0.23723794900E+04  0.94192732536E+02 0.  0.
         13    1    3    3    0    0  0.12303463517E+02  0.18247088187E+03  0.62478404926E+03  0.65100084958E+03  0.00000000000E+00 0. -1.
        -13    1    3    3    0    0  0.87897820551E+02  0.34341024381E+03  0.16844844319E+04  0.17213786404E+04  0.00000000000E+00 0.  1.
         22    1    1    2    0    0 -0.10020128407E+03 -0.52588112568E+03  0.13203213606E+03  0.55138347874E+03  0.00000000000E+00 0.  1.
<mgrwt>
<rscale>  0 0.16088633E+04</rscale>
<asrwt>0</asrwt>
<pdfrwt beam="1">  1        2 0.41269718E+00 0.16088633E+04</pdfrwt>
<pdfrwt beam="2">  1       -2 0.37112491E-01 0.16088633E+04</pdfrwt>
<totfact> 0.17894897E+01</totfact>
</mgrwt>
</event>
<event>
 6    1  0.1637818E-005  0.3116091E+04  0.7818608E-02  0.8211336E-01
         -2   -1    0    0    0  501 -0.00000000000E+00  0.00000000000E+00  0.16645695932E+04  0.16645695932E+04  0.00000000000E+00 0. -1.
          2   -1    0    0  501    0  0.00000000000E+00 -0.00000000000E+00 -0.14583384333E+04  0.14583384333E+04  0.00000000000E+00 0.  1.
         23    2    1    2    0    0 -0.91386014387E+03 -0.87827765280E+03 -0.80153513512E+03  0.15036165446E+04  0.10905110023E+03 0.  0.
         13    1    3    3    0    0 -0.45398519731E+03 -0.36111048219E+03 -0.36927349483E+03  0.68765271301E+03  0.00000000000E+00 0. -1.
        -13    1    3    3    0    0 -0.45987494656E+03 -0.51716717061E+03 -0.43226164029E+03  0.81596383161E+03  0.00000000000E+00 0.  1.
         22    1    1    2    0    0  0.91386014387E+03  0.87827765280E+03  0.10077662950E+04  0.16192914819E+04  0.00000000000E+00 0. -1.
<mgrwt>
<rscale>  0 0.31160910E+04</rscale>
<asrwt>0</asrwt>
<pdfrwt beam="1">  1        2 0.22435976E+00 0.31160910E+04</pdfrwt>
<pdfrwt beam="2">  1       -2 0.25608763E+00 0.31160910E+04</pdfrwt>
<totfact> 0.67003610E-01</totfact>
</mgrwt>
</event>
<event>
 6    1  0.1637818E-005  0.1572977E+04  0.7818608E-02  0.8837324E-01
          1   -1    0    0  501    0  0.00000000000E+00  0.00000000000E+00  0.29258202836E+04  0.29258202836E+04  0.00000000000E+00 0. -1.
         -1   -1    0    0    0  501 -0.00000000000E+00 -0.00000000000E+00 -0.21141552388E+03  0.21141552388E+03  0.00000000000E+00 0.  1.
         23    2    1    2    0    0  0.68855196498E+03 -0.37239198177E+03  0.14472816071E+04  0.16478128721E+04  0.88789721342E+02 0.  0.
         13    1    3    3    0    0  0.43889383325E+03 -0.19193198677E+03  0.84555289434E+03  0.97181550797E+03  0.00000000000E+00 0. -1.
        -13    1    3    3    0    0  0.24965813172E+03 -0.18045999501E+03  0.60172871274E+03  0.67599736410E+03  0.00000000000E+00 0.  1.
         22    1    1    2    0    0 -0.68855196498E+03  0.37239198177E+03  0.12671231527E+04  0.14894229354E+04  0.00000000000E+00 0.  1.
<mgrwt>
<rscale>  0 0.15729766E+04</rscale>
<asrwt>0</asrwt>
<pdfrwt beam="1">  1        1 0.45012617E+00 0.15729766E+04</pdfrwt>
<pdfrwt beam="2">  1       -1 0.32525467E-01 0.15729766E+04</pdfrwt>
<totfact> 0.57841993E+00</totfact>
</mgrwt>
</event>
<event>
 6    1  0.1637818E-005  0.1015729E+04  0.7818608E-02  0.9291460E-01
          1   -1    0    0  501    0  0.00000000000E+00  0.00000000000E+00  0.66136700950E+03  0.66136700950E+03  0.00000000000E+00 0.  1.
         -1   -1    0    0    0  501 -0.00000000000E+00 -0.00000000000E+00 -0.38998985644E+03  0.38998985644E+03  0.00000000000E+00 0. -1.
         23    2    1    2    0    0 -0.38286629456E+03  0.28620121440E+03  0.30099169035E+03  0.57242601972E+03  0.92616498312E+02 0.  0.
         11    1    3    3    0    0 -0.14510632381E+03  0.16457583073E+03  0.14775629884E+03  0.26452405017E+03  0.00000000000E+00 0. -1.
        -11    1    3    3    0    0 -0.23775997075E+03  0.12162538367E+03  0.15323539152E+03  0.30790196956E+03  0.00000000000E+00 0.  1.
         22    1    1    2    0    0  0.38286629456E+03 -0.28620121440E+03 -0.29614537291E+02  0.47893084621E+03  0.00000000000E+00 0. -1.
<mgrwt>
<rscale>  0 0.10157291E+04</rscale>
<asrwt>0</asrwt>
<pdfrwt beam="1">  1        1 0.10174877E+00 0.10157291E+04</pdfrwt>
<pdfrwt beam="2">  1       -1 0.59998440E-01 0.10157291E+04</pdfrwt>
<totfact> 0.83753290E+01</totfact>
</mgrwt>
</event>
<event>
 6    1  0.1637818E-005  0.2767210E+04  0.7818608E-02  0.8313521E-01
         -2   -1    0    0    0  501 -0.00000000000E+00  0.00000000000E+00  0.57606905284E+03  0.57606905284E+03  0.00000000000E+00 0.  1.
          2   -1    0    0  501    0  0.00000000000E+00 -0.00000000000E+00 -0.33231484623E+04  0.33231484623E+04  0.00000000000E+00 0. -1.
         23    2    1    2    0    0 -0.81874886714E+03  0.96572532342E+03 -0.59368247688E+03  0.14011996095E+04  0.89030076580E+02 0.  0.
         11    1    3    3    0    0 -0.44651482789E+03  0.47942859420E+03 -0.27112018376E+03  0.70903696837E+03  0.00000000000E+00 0.  1.
        -11    1    3    3    0    0 -0.37223403925E+03  0.48629672921E+03 -0.32256229312E+03  0.69216264112E+03  0.00000000000E+00 0. -1.
         22    1    1    2    0    0  0.81874886714E+03 -0.96572532342E+03 -0.21533969326E+04  0.24980179057E+04  0.00000000000E+00 0. -1.
<mgrwt>
<rscale>  0 0.27672101E+04</rscale>
<asrwt>0</asrwt>
<pdfrwt beam="1">  1        2 0.51125361E+00 0.27672101E+04</pdfrwt>
<pdfrwt beam="2">  1       -2 0.88626008E-01 0.27672101E+04</pdfrwt>
<totfact> 0.10265797E+00</totfact>
</mgrwt>
</event>
<event>
 6    1  0.1679347E-005  0.2926569E+04  0.7818608E-02  0.8265016E-01
          2   -1    0    0  501    0  0.00000000000E+00  0.00000000000E+00  0.16187651288E+04  0.16187651288E+04  0.00000000000E+00 0. -1.
         -2   -1    0    0    0  501 -0.00000000000E+00 -0.00000000000E+00 -0.13227375637E+04  0.13227375637E+04  0.00000000000E+00 0.  1.
         23    2    1    2    0    0 -0.29728047077E+03 -0.93081404367E+03 -0.94472009332E+03  0.13621847340E+04  0.90888571824E+02 0.  0.
         11    1    3    3    0    0 -0.21166363684E+03 -0.51696080272E+03 -0.54839769360E+03  0.78280904252E+03  0.00000000000E+00 0. -1.
        -11    1    3    3    0    0 -0.85616833931E+02 -0.41385324095E+03 -0.39632239972E+03  0.57937569143E+03  0.00000000000E+00 0.  1.
         22    1    1    2    0    0  0.29728047077E+03  0.93081404367E+03  0.12407476584E+04  0.15793179585E+04  0.00000000000E+00 0. -1.
<mgrwt>
<rscale>  0 0.29265689E+04</rscale>
<asrwt>0</asrwt>
<pdfrwt beam="1">  1        2 0.24904079E+00 0.29265689E+04</pdfrwt>
<pdfrwt beam="2">  1       -2 0.20349809E+00 0.29265689E+04</pdfrwt>
<totfact> 0.11828932E+00</totfact>
</mgrwt>
</event>
<event>
 6    1  0.1637818E-005  0.1900813E+04  0.7818608E-02  0.8654452E-01
          1   -1    0    0  501    0  0.00000000000E+00  0.00000000000E+00  0.76948164439E+03  0.76948164439E+03  0.00000000000E+00 0. -1.
         -1   -1    0    0    0  501 -0.00000000000E+00 -0.00000000000E+00 -0.11738712871E+04  0.11738712871E+04  0.00000000000E+00 0.  1.
         23    2    1    2    0    0  0.54389047283E+03  0.68518534087E+03 -0.57664831255E+03  0.10517426764E+04  0.91343216068E+02 0.  0.
         13    1    3    3    0    0  0.25470759366E+03  0.30222645813E+03 -0.31328044353E+03  0.50434256865E+03  0.00000000000E+00 0.  1.
        -13    1    3    3    0    0  0.28918287918E+03  0.38295888275E+03 -0.26336786902E+03  0.54740010771E+03  0.00000000000E+00 0. -1.
         22    1    1    2    0    0 -0.54389047283E+03 -0.68518534087E+03  0.17225866980E+03  0.89161025516E+03  0.00000000000E+00 0. -1.
<mgrwt>
<rscale>  0 0.19008129E+04</rscale>
<asrwt>0</asrwt>
<pdfrwt beam="1">  1        1 0.11838179E+00 0.19008129E+04</pdfrwt>
<pdfrwt beam="2">  1       -1 0.18059558E+00 0.19008129E+04</pdfrwt>
<totfact> 0.45350131E+00</totfact>
</mgrwt>
</event>
<event>
 6    1  0.1637818E-005  0.1926050E+04  0.7818608E-02  0.8641997E-01
          1   -1    0    0  501    0  0.00000000000E+00  0.00000000000E+00  0.75037085240E+03  0.75037085240E+03  0.00000000000E+00 0. -1.
         -1   -1    0    0    0  501 -0.00000000000E+00 -0.00000000000E+00 -0.12359449661E+04  0.12359449661E+04  0.00000000000E+00 0.  1.
         23    2    1    2    0    0 -0.10903147414E+03 -0.20571337775E+03 -0.12047130080E+04  0.12304278602E+04  0.91724757615E+02 0.  0.
         13    1    3    3    0    0 -0.12572357828E+03 -0.17964963014E+03 -0.10511610628E+04  0.10737876827E+04  0.00000000000E+00 0. -1.
        -13    1    3    3    0    0  0.16692104138E+02 -0.26063747610E+02 -0.15355194528E+03  0.15664017741E+03  0.00000000000E+00 0.  1.
         22    1    1    2    0    0  0.10903147414E+03  0.20571337775E+03  0.71913889437E+03  0.75588795832E+03  0.00000000000E+00 0. -1.
<mgrwt>
<rscale>  0 0.19260499E+04</rscale>
<asrwt>0</asrwt>
<pdfrwt beam="1">  1        1 0.11544167E+00 0.19260499E+04</pdfrwt>
<pdfrwt beam="2">  1       -1 0.19014538E+00 0.19260499E+04</pdfrwt>
<totfact> 0.40271468E+00</totfact>
</mgrwt>
</event>
<event>
 6    1  0.1637818E-005  0.1498304E+04  0.7818608E-02  0.8885581E-01
         -1   -1    0    0    0  501 -0.00000000000E+00  0.00000000000E+00  0.59365940450E+03  0.59365940450E+03  0.00000000000E+00 0.  1.
          1   -1    0    0  501    0  0.00000000000E+00 -0.00000000000E+00 -0.94537206035E+03  0.94537206035E+03  0.00000000000E+00 0. -1.
         23    2    1    2    0    0  0.11181984203E+01 -0.53857617128E+03  0.35422805782E+03  0.65110250718E+03  0.91604668384E+02 0.  0.
         13    1    3    3    0    0  0.38120774844E+02 -0.16252054049E+03  0.13122084330E+03  0.21233235569E+03  0.00000000000E+00 0. -1.
        -13    1    3    3    0    0 -0.37002576424E+02 -0.37605563079E+03  0.22300721452E+03  0.43877015149E+03  0.00000000000E+00 0.  1.
         22    1    1    2    0    0 -0.11181984203E+01  0.53857617128E+03 -0.70594071368E+03  0.88792895767E+03  0.00000000000E+00 0. -1.
<mgrwt>
<rscale>  0 0.14983044E+04</rscale>
<asrwt>0</asrwt>
<pdfrwt beam="1">  1        1 0.14544185E+00 0.14983044E+04</pdfrwt>
<pdfrwt beam="2">  1       -1 0.91332216E-01 0.14983044E+04</pdfrwt>
<totfact> 0.18916246E+01</totfact>
</mgrwt>
</event>
<event>
 6    1  0.1637818E-005  0.2928213E+04  0.7818608E-02  0.8264533E-01
         -1   -1    0    0    0  501 -0.00000000000E+00  0.00000000000E+00  0.91439210559E+03  0.91439210559E+03  0.00000000000E+00 0.  1.
          1   -1    0    0  501    0  0.00000000000E+00 -0.00000000000E+00 -0.23442976752E+04  0.23442976752E+04  0.00000000000E+00 0. -1.
         23    2    1    2    0    0  0.33956817003E+02 -0.15554806171E+03 -0.23336525768E+04  0.23410259437E+04  0.95497929653E+02 0.  0.
         13    1    3    3    0    0 -0.19018332867E+02 -0.11405115607E+03 -0.12727767186E+04  0.12780179727E+04  0.00000000000E+00 0. -1.
        -13    1    3    3    0    0  0.52975149870E+02 -0.41496905636E+02 -0.10608758582E+04  0.10630079709E+04  0.00000000000E+00 0.  1.
         22    1    1    2    0    0 -0.33956817003E+02  0.15554806171E+03  0.90374700723E+03  0.91766383714E+03  0.00000000000E+00 0.  1.
<mgrwt>
<rscale>  0 0.29282126E+04</rscale>
<asrwt>0</asrwt>
<pdfrwt beam="1">  1        1 0.36066118E+00 0.29282126E+04</pdfrwt>
<pdfrwt beam="2">  1       -1 0.14067571E+00 0.29282126E+04</pdfrwt>
<totfact> 0.61485738E-01</totfact>
</mgrwt>
</event>
<event>
 6    1  0.1637818E-005  0.3132030E+04  0.7818608E-02  0.8207002E-01
         -2   -1    0    0    0  501 -0.00000000000E+00  0.00000000000E+00  0.10106495036E+04  0.10106495036E+04  0.00000000000E+00 0. -1.
          2   -1    0    0  501    0  0.00000000000E+00 -0.00000000000E+00 -0.24265605990E+04  0.24265605990E+04  0.00000000000E+00 0.  1.
         23    2    1    2    0    0 -0.14804450601E+04 -0.46677499948E+03 -0.49247375021E+03  0.16310171432E+04  0.89944708223E+02 0.  0.
         13    1    3    3    0    0 -0.56848467805E+03 -0.21459787907E+03 -0.16319122281E+03  0.62917283324E+03  0.00000000000E+00 0. -1.
        -13    1    3    3    0    0 -0.91196038208E+03 -0.25217712041E+03 -0.32928252740E+03  0.10018443100E+04  0.00000000000E+00 0.  1.
         22    1    1    2    0    0  0.14804450601E+04  0.46677499948E+03 -0.92343734514E+03  0.18061929594E+04  0.00000000000E+00 0.  1.
<mgrwt>
<rscale>  0 0.31320295E+04</rscale>
<asrwt>0</asrwt>
<pdfrwt beam="1">  1        2 0.37331702E+00 0.31320295E+04</pdfrwt>
<pdfrwt beam="2">  1       -2 0.15548454E+00 0.31320295E+04</pdfrwt>
<totfact> 0.88466163E-01</totfact>
</mgrwt>
</event>
<event>
 6    1  0.1637818E-005  0.3135051E+04  0.7818608E-02  0.8206184E-01
         -1   -1    0    0    0  501 -0.00000000000E+00  0.00000000000E+00  0.22546047048E+04  0.22546047048E+04  0.00000000000E+00 0.  1.
          1   -1    0    0  501    0  0.00000000000E+00 -0.00000000000E+00 -0.10898301091E+04  0.10898301091E+04  0.00000000000E+00 0. -1.
         23    2    1    2    0    0  0.13927789963E+04  0.69853510603E+03  0.41362966419E+03  0.16146939850E+04  0.91446920917E+02 0.  0.
         13    1    3    3    0    0  0.10816636473E+04  0.50383922982E+03  0.29806972759E+03  0.12299169801E+04  0.00000000000E+00 0.  1.
        -13    1    3    3    0    0  0.31111534896E+03  0.19469587620E+03  0.11555993659E+03  0.38477700492E+03  0.00000000000E+00 0. -1.
         22    1    1    2    0    0 -0.13927789963E+04 -0.69853510603E+03  0.75114493150E+03  0.17297408288E+04  0.00000000000E+00 0.  1.
<mgrwt>
<rscale>  0 0.31350509E+04</rscale>
<asrwt>0</asrwt>
<pdfrwt beam="1">  1        1 0.16766617E+00 0.31350509E+04</pdfrwt>
<pdfrwt beam="2">  1       -1 0.34686226E+00 0.31350509E+04</pdfrwt>
<totfact> 0.17690377E-01</totfact>
</mgrwt>
</event>
<event>
 6    1  0.1637818E-005  0.2288555E+04  0.7818608E-02  0.8482448E-01
          2   -1    0    0  501    0  0.00000000000E+00  0.00000000000E+00  0.16744250187E+04  0.16744250187E+04  0.00000000000E+00 0. -1.
         -2   -1    0    0    0  501 -0.00000000000E+00 -0.00000000000E+00 -0.78198216019E+03  0.78198216019E+03  0.00000000000E+00 0.  1.
         23    2    1    2    0    0  0.39302322407E+03  0.34899347969E+03  0.15356531554E+04  0.16257549113E+04  0.92653733775E+02 0.  0.
         13    1    3    3    0    0  0.26408295507E+03  0.21320933042E+03  0.85759078694E+03  0.92231230262E+03  0.00000000000E+00 0.  1.
        -13    1    3    3    0    0  0.12894026900E+03  0.13578414927E+03  0.67806236851E+03  0.70344260872E+03  0.00000000000E+00 0. -1.
         22    1    1    2    0    0 -0.39302322407E+03 -0.34899347969E+03 -0.64321029693E+03  0.83065226755E+03  0.00000000000E+00 0.  1.
<mgrwt>
<rscale>  0 0.22885546E+04</rscale>
<asrwt>0</asrwt>
<pdfrwt beam="1">  1        2 0.25760385E+00 0.22885546E+04</pdfrwt>
<pdfrwt beam="2">  1       -2 0.12030495E+00 0.22885546E+04</pdfrwt>
<totfact> 0.48530230E+00</totfact>
</mgrwt>
</event>
<event>
 6    1  0.1637818E-005  0.4297605E+04  0.7818608E-02  0.7947061E-01
          1   -1    0    0  501    0  0.00000000000E+00  0.00000000000E+00  0.13424612970E+04  0.13424612970E+04  0.00000000000E+00 0. -1.
         -1   -1    0    0    0  501 -0.00000000000E+00 -0.00000000000E+00 -0.34394671503E+04  0.34394671503E+04  0.00000000000E+00 0.  1.
         23    2    1    2    0    0  0.68086754641E+03 -0.18251104243E+04 -0.42301912551E+02  0.19506006739E+04  0.91895921637E+02 0.  0.
         11    1    3    3    0    0  0.53103988056E+03 -0.13420691581E+04 -0.27969508674E+01  0.14433159054E+04  0.00000000000E+00 0.  1.
        -11    1    3    3    0    0  0.14982766585E+03 -0.48304126618E+03 -0.39504961683E+02  0.50728476844E+03  0.00000000000E+00 0. -1.
         22    1    1    2    0    0 -0.68086754641E+03  0.18251104243E+04 -0.20547039407E+04  0.28313277734E+04  0.00000000000E+00 0.  1.
<mgrwt>
<rscale>  0 0.42976047E+04</rscale>
<asrwt>0</asrwt>
<pdfrwt beam="1">  1        1 0.20653251E+00 0.42976047E+04</pdfrwt>
<pdfrwt beam="2">  1       -1 0.52914879E+00 0.42976047E+04</pdfrwt>
<totfact> 0.63586486E-03</totfact>
</mgrwt>
</event>
<event>
 6    1  0.1637818E-005  0.2023813E+04  0.7818608E-02  0.8595567E-01
          2   -1    0    0  501    0  0.00000000000E+00  0.00000000000E+00  0.31437505673E+04  0.31437505673E+04  0.00000000000E+00 0. -1.
         -2   -1    0    0    0  501 -0.00000000000E+00 -0.00000000000E+00 -0.32571124429E+03  0.32571124429E+03  0.00000000000E+00 0.  1.
         23    2    1    2    0    0  0.81155699727E+03 -0.47559530500E+03  0.78143586219E+03  0.12261229360E+04  0.88993222101E+02 0.  0.
         13    1    3    3    0    0  0.52384732254E+03 -0.32582550104E+03  0.46054806142E+03  0.76985894250E+03  0.00000000000E+00 0.  1.
        -13    1    3    3    0    0  0.28770967472E+03 -0.14976980396E+03  0.32088780077E+03  0.45626399353E+03  0.00000000000E+00 0. -1.
         22    1    1    2    0    0 -0.81155699727E+03  0.47559530500E+03  0.20366034608E+04  0.22433388755E+04  0.00000000000E+00 0.  1.
<mgrwt>
<rscale>  0 0.20238131E+04</rscale>
<asrwt>0</asrwt>
<pdfrwt beam="1">  1        2 0.48365391E+00 0.20238131E+04</pdfrwt>
<pdfrwt beam="2">  1       -2 0.50109424E-01 0.20238131E+04</pdfrwt>
<totfact> 0.49423013E+00</totfact>
</mgrwt>
</event>
<event>
 6    1  0.1637818E-005  0.3273881E+04  0.7818608E-02  0.8169573E-01
         -1   -1    0    0    0  501 -0.00000000000E+00  0.00000000000E+00  0.88725016389E+03  0.88725016389E+03  0.00000000000E+00 0.  1.
          1   -1    0    0  501    0  0.00000000000E+00 -0.00000000000E+00 -0.30200884760E+04  0.30200884760E+04  0.00000000000E+00 0. -1.
         23    2    1    2    0    0  0.13243094020E+04 -0.62819083919E+03 -0.20091870505E+03  0.14823164769E+04  0.92058074113E+02 0.  0.
         13    1    3    3    0    0  0.11162497479E+04 -0.55282882853E+03 -0.19601927487E+03  0.12609745316E+04  0.00000000000E+00 0.  1.
        -13    1    3    3    0    0  0.20805965416E+03 -0.75362010663E+02 -0.48994301740E+01  0.22134194532E+03  0.00000000000E+00 0. -1.
         22    1    1    2    0    0 -0.13243094020E+04  0.62819083919E+03 -0.19319196071E+04  0.24250221630E+04  0.00000000000E+00 0.  1.
<mgrwt>
<rscale>  0 0.32738809E+04</rscale>
<asrwt>0</asrwt>
<pdfrwt beam="1">  1        1 0.46462900E+00 0.32738809E+04</pdfrwt>
<pdfrwt beam="2">  1       -1 0.13650002E+00 0.32738809E+04</pdfrwt>
<totfact> 0.21493079E-01</totfact>
</mgrwt>
</event>
<event>
 6    1  0.1637818E-005  0.1813813E+04  0.7818608E-02  0.8698988E-01
         -1   -1    0    0    0  501 -0.00000000000E+00  0.00000000000E+00  0.49068491009E+03  0.49068491009E+03  0.00000000000E+00 0.  1.
          1   -1    0    0  501    0  0.00000000000E+00 -0.00000000000E+00 -0.16761868711E+04  0.16761868711E+04  0.00000000000E+00 0. -1.
         23    2    1    2    0    0  0.32348028679E+03 -0.48038836825E+03  0.23556852055E+03  0.63231849315E+03  0.94454584937E+02 0.  0.
         13    1    3    3    0    0  0.22522487414E+03 -0.25236968114E+03  0.12658742355E+03  0.36116627154E+03  0.00000000000E+00 0. -1.
        -13    1    3    3    0    0  0.98255412645E+02 -0.22801868710E+03  0.10898109700E+03  0.27115222161E+03  0.00000000000E+00 0.  1.
         22    1    1    2    0    0 -0.32348028679E+03  0.48038836825E+03 -0.14210704816E+04  0.15345532881E+04  0.00000000000E+00 0. -1.
<mgrwt>
<rscale>  0 0.18138132E+04</rscale>
<asrwt>0</asrwt>
<pdfrwt beam="1">  1        1 0.25787490E+00 0.18138132E+04</pdfrwt>
<pdfrwt beam="2">  1       -1 0.75489986E-01 0.18138132E+04</pdfrwt>
<totfact> 0.82240533E+00</totfact>
</mgrwt>
</event>
<event>
 6    1  0.1637818E-005  0.2418041E+04  0.7818608E-02  0.8432780E-01
          2   -1    0    0  501    0  0.00000000000E+00  0.00000000000E+00  0.77978702301E+03  0.77978702301E+03  0.00000000000E+00 0. -1.
         -2   -1    0    0    0  501 -0.00000000000E+00 -0.00000000000E+00 -0.18745248234E+04  0.18745248234E+04  0.00000000000E+00 0.  1.
         23    2    1    2    0    0  0.28221513452E+03 -0.41885480469E+03  0.65551202564E+03  0.83264799621E+03  0.92314355693E+02 0.  0.
         11    1    3    3    0    0  0.92245438742E+02 -0.20862350170E+03  0.25638834851E+03  0.34317338428E+03  0.00000000000E+00 0. -1.
        -11    1    3    3    0    0  0.18996969578E+03 -0.21023130299E+03  0.39912367714E+03  0.48947461193E+03  0.00000000000E+00 0.  1.
         22    1    1    2    0    0 -0.28221513452E+03  0.41885480469E+03 -0.17502498261E+04  0.18216638502E+04  0.00000000000E+00 0.  1.
<mgrwt>
<rscale>  0 0.24180406E+04</rscale>
<asrwt>0</asrwt>
<pdfrwt beam="1">  1        2 0.11996723E+00 0.24180406E+04</pdfrwt>
<pdfrwt beam="2">  1       -2 0.28838844E+00 0.24180406E+04</pdfrwt>
<totfact> 0.11977827E+00</totfact>
</mgrwt>
</event>
<event>
 6    1  0.1637818E-005  0.1337249E+04  0.7818608E-02  0.9000537E-01
         -1   -1    0    0    0  501 -0.00000000000E+00  0.00000000000E+00  0.31698119418E+03  0.31698119418E+03  0.00000000000E+00 0.  1.
          1   -1    0    0  501    0  0.00000000000E+00 -0.00000000000E+00 -0.14103627056E+04  0.14103627056E+04  0.00000000000E+00 0. -1.
         23    2    1    2    0    0 -0.45180519208E+03 -0.42603083428E+03 -0.86164083264E+03  0.10645211893E+04  0.71765135093E+02 0.  0.
         11    1    3    3    0    0 -0.21978769307E+03 -0.21445174216E+03 -0.48652338901E+03  0.57532702682E+03  0.00000000000E+00 0. -1.
        -11    1    3    3    0    0 -0.23201749902E+03 -0.21157909212E+03 -0.37511744363E+03  0.48919416247E+03  0.00000000000E+00 0.  1.
         22    1    1    2    0    0  0.45180519208E+03  0.42603083428E+03 -0.23174067878E+03  0.66282271050E+03  0.00000000000E+00 0. -1.
<mgrwt>
<rscale>  0 0.13372486E+04</rscale>
<asrwt>0</asrwt>
<pdfrwt beam="1">  1        1 0.21697888E+00 0.13372486E+04</pdfrwt>
<pdfrwt beam="2">  1       -1 0.48766338E-01 0.13372486E+04</pdfrwt>
<totfact> 0.31153310E+01</totfact>
</mgrwt>
</event>
<event>
 6    1  0.1637818E-005  0.2330878E+04  0.7818608E-02  0.8465845E-01
          2   -1    0    0  501    0  0.00000000000E+00  0.00000000000E+00  0.26636378523E+04  0.26636378523E+04  0.00000000000E+00 0.  1.
         -2   -1    0    0    0  501 -0.00000000000E+00 -0.00000000000E+00 -0.50992227884E+03  0.50992227884E+03  0.00000000000E+00 0. -1.
         23    2    1    2    0    0  0.80490760095E+03 -0.52883415438E+03  0.19676534555E+04  0.21926621137E+04  0.92548447506E+02 0.  0.
         11    1    3    3    0    0  0.18451558740E+03 -0.78499324148E+02  0.38291918919E+03  0.43224443470E+03  0.00000000000E+00 0. -1.
        -11    1    3    3    0    0  0.62039201355E+03 -0.45033483023E+03  0.15847342663E+04  0.17604176790E+04  0.00000000000E+00 0.  1.
         22    1    1    2    0    0 -0.80490760095E+03  0.52883415438E+03  0.18606211800E+03  0.98089801746E+03  0.00000000000E+00 0. -1.
<mgrwt>
<rscale>  0 0.23308782E+04</rscale>
<asrwt>0</asrwt>
<pdfrwt beam="1">  1        2 0.40979043E+00 0.23308782E+04</pdfrwt>
<pdfrwt beam="2">  1       -2 0.78449583E-01 0.23308782E+04</pdfrwt>
<totfact> 0.36461234E+00</totfact>
</mgrwt>
</event>
<event>
 6    1  0.1637818E-005  0.2089045E+04  0.7818608E-02  0.8566085E-01
          2   -1    0    0  501    0  0.00000000000E+00  0.00000000000E+00  0.11614271271E+04  0.11614271271E+04  0.00000000000E+00 0. -1.
         -2   -1    0    0    0  501 -0.00000000000E+00 -0.00000000000E+00 -0.93938500530E+03  0.93938500530E+03  0.00000000000E+00 0.  1.
         23    2    1    2    0    0  0.53434015524E+03  0.26359464331E+03  0.97155692594E+03  0.11433289842E+04  0.90976745823E+02 0.  0.
         13    1    3    3    0    0  0.35595510324E+03  0.18406298265E+03  0.72933094307E+03  0.83216995958E+03  0.00000000000E+00 0. -1.
        -13    1    3    3    0    0  0.17838505201E+03  0.79531660655E+02  0.24222598287E+03  0.31115902462E+03  0.00000000000E+00 0.  1.
         22    1    1    2    0    0 -0.53434015524E+03 -0.26359464331E+03 -0.74951480414E+03  0.95748314821E+03  0.00000000000E+00 0.  1.
<mgrwt>
<rscale>  0 0.20890450E+04</rscale>
<asrwt>0</asrwt>
<pdfrwt beam="1">  1        2 0.17868110E+00 0.20890450E+04</pdfrwt>
<pdfrwt beam="2">  1       -2 0.14452077E+00 0.20890450E+04</pdfrwt>
<totfact> 0.60922331E+00</totfact>
</mgrwt>
</event>
<event>
 6    1  0.1637818E-005  0.3743624E+04  0.7818608E-02  0.8058362E-01
          2   -1    0    0  501    0  0.00000000000E+00  0.00000000000E+00  0.31936287156E+04  0.31936287156E+04  0.00000000000E+00 0. -1.
         -2   -1    0    0    0  501 -0.00000000000E+00 -0.00000000000E+00 -0.10970844664E+04  0.10970844664E+04  0.00000000000E+00 0.  1.
         23    2    1    2    0    0  0.14979098406E+04  0.49905571799E+03 -0.10126411319E+03  0.15845808685E+04  0.88609299763E+02 0.  0.
         13    1    3    3    0    0  0.20187457592E+03  0.93266458267E+02  0.41755518930E+01  0.22241720229E+03  0.00000000000E+00 0. -1.
        -13    1    3    3    0    0  0.12960352647E+04  0.40578925972E+03 -0.10543966508E+03  0.13621636662E+04  0.00000000000E+00 0.  1.
         22    1    1    2    0    0 -0.14979098406E+04 -0.49905571799E+03  0.21978083624E+04  0.27061323135E+04  0.00000000000E+00 0. -1.
<mgrwt>
<rscale>  0 0.37436242E+04</rscale>
<asrwt>0</asrwt>
<pdfrwt beam="1">  1        2 0.49132749E+00 0.37436242E+04</pdfrwt>
<pdfrwt beam="2">  1       -2 0.16878223E+00 0.37436242E+04</pdfrwt>
<totfact> 0.22908155E-01</totfact>
</mgrwt>
</event>
<event>
 6    1  0.1637818E-005  0.5039996E+03  0.7818608E-02  0.1012740E+00
          2   -1    0    0  501    0  0.00000000000E+00  0.00000000000E+00  0.17090244962E+03  0.17090244962E+03  0.00000000000E+00 0. -1.
         -2   -1    0    0    0  501 -0.00000000000E+00 -0.00000000000E+00 -0.37157975351E+03  0.37157975351E+03  0.00000000000E+00 0.  1.
         23    2    1    2    0    0  0.20658915021E+03 -0.39630859483E+02  0.29192346846E+02  0.23088994017E+03  0.90599610086E+02 0.  0.
         13    1    3    3    0    0  0.74038340634E+02  0.28905035060E+02  0.42089580968E+01  0.79592036435E+02  0.00000000000E+00 0. -1.
        -13    1    3    3    0    0  0.13255080958E+03 -0.68535894542E+02  0.24983388750E+02  0.15129790373E+03  0.00000000000E+00 0.  1.
         22    1    1    2    0    0 -0.20658915021E+03  0.39630859483E+02 -0.22986965074E+03  0.31159226296E+03  0.00000000000E+00 0.  1.
<mgrwt>
<rscale>  0 0.50399956E+03</rscale>
<asrwt>0</asrwt>
<pdfrwt beam="1">  1        2 0.26292685E-01 0.50399956E+03</pdfrwt>
<pdfrwt beam="2">  1       -2 0.57166116E-01 0.50399956E+03</pdfrwt>
<totfact> 0.59731255E+02</totfact>
</mgrwt>
</event>
<event>
 6    1  0.1637818E-005  0.2128530E+04  0.7818608E-02  0.8548779E-01
          1   -1    0    0  501    0  0.00000000000E+00  0.00000000000E+00  0.10782669224E+04  0.10782669224E+04  0.00000000000E+00 0. -1.
         -1   -1    0    0    0  501 -0.00000000000E+00 -0.00000000000E+00 -0.10504450679E+04  0.10504450679E+04  0.00000000000E+00 0.  1.
         23    2    1    2    0    0  0.53939746146E+03 -0.80721587479E+03  0.44525751621E+03  0.10719245842E+04  0.90669557325E+02 0.  0.
         11    1    3    3    0    0  0.30035221872E+03 -0.52445536169E+03  0.29162984761E+03  0.67105353714E+03  0.00000000000E+00 0.  1.
        -11    1    3    3    0    0  0.23904524274E+03 -0.28276051310E+03  0.15362766860E+03  0.40087104710E+03  0.00000000000E+00 0. -1.
         22    1    1    2    0    0 -0.53939746146E+03  0.80721587479E+03 -0.41743566173E+03  0.10567874061E+04  0.00000000000E+00 0.  1.
<mgrwt>
<rscale>  0 0.21285302E+04</rscale>
<asrwt>0</asrwt>
<pdfrwt beam="1">  1        1 0.16588722E+00 0.21285302E+04</pdfrwt>
<pdfrwt beam="2">  1       -1 0.16160693E+00 0.21285302E+04</pdfrwt>
<totfact> 0.34331951E+00</totfact>
</mgrwt>
</event>
<event>
 6    1  0.1637818E-005  0.3767556E+04  0.7818608E-02  0.8053153E-01
         -2   -1    0    0    0  501 -0.00000000000E+00  0.00000000000E+00  0.14873622998E+04  0.14873622998E+04  0.00000000000E+00 0.  1.
          2   -1    0    0  501    0  0.00000000000E+00 -0.00000000000E+00 -0.23858480117E+04  0.23858480117E+04  0.00000000000E+00 0. -1.
         23    2    1    2    0    0  0.72968644108E+02  0.18793855573E+04 -0.36293160339E+03  0.19176457640E+04  0.90727237415E+02 0.  0.
         13    1    3    3    0    0  0.33993162542E+02  0.13570262619E+04 -0.22493640398E+03  0.13759622801E+04  0.00000000000E+00 0. -1.
        -13    1    3    3    0    0  0.38975481566E+02  0.52235929540E+03 -0.13799519941E+03  0.54168348388E+03  0.00000000000E+00 0.  1.
         22    1    1    2    0    0 -0.72968644108E+02 -0.18793855573E+04 -0.53555410851E+03  0.19555645474E+04  0.00000000000E+00 0. -1.
<mgrwt>
<rscale>  0 0.37675564E+04</rscale>
<asrwt>0</asrwt>
<pdfrwt beam="1">  1        2 0.36705353E+00 0.37675564E+04</pdfrwt>
<pdfrwt beam="2">  1       -2 0.22882497E+00 0.37675564E+04</pdfrwt>
<totfact> 0.28317836E-01</totfact>
</mgrwt>
</event>
<event>
 6    1  0.1904678E-005  0.4825299E+04  0.7818608E-02  0.7856036E-01
         -2   -1    0    0    0  501 -0.00000000000E+00  0.00000000000E+00  0.16825597212E+04  0.16825597212E+04  0.00000000000E+00 0. -1.
          2   -1    0    0  501    0  0.00000000000E+00 -0.00000000000E+00 -0.34595376293E+04  0.34595376293E+04  0.00000000000E+00 0.  1.
         23    2    1    2    0    0 -0.54810525493E+03  0.31745430210E+03 -0.33686809757E+04  0.34289962852E+04  0.93847766459E+02 0.  0.
         11    1    3    3    0    0 -0.31432799849E+03  0.20757605726E+03 -0.17763592980E+04  0.18158585478E+04  0.00000000000E+00 0. -1.
        -11    1    3    3    0    0 -0.23377725644E+03  0.10987824484E+03 -0.15923216777E+04  0.16131377374E+04  0.00000000000E+00 0.  1.
         22    1    1    2    0    0  0.54810525493E+03 -0.31745430210E+03  0.15917030677E+04  0.17131010653E+04  0.00000000000E+00 0. -1.
<mgrwt>
<rscale>  0 0.48252994E+04</rscale>
<asrwt>0</asrwt>
<pdfrwt beam="1">  1        2 0.53223655E+00 0.48252994E+04</pdfrwt>
<pdfrwt beam="2">  1       -2 0.25885534E+00 0.48252994E+04</pdfrwt>
<totfact> 0.36245135E-02</totfact>
</mgrwt>
</event>
<event>
 6    1  0.1637818E-005  0.2085563E+04  0.7818608E-02  0.8567630E-01
         -1   -1    0    0    0  501 -0.00000000000E+00  0.00000000000E+00  0.96914562326E+03  0.96914562326E+03  0.00000000000E+00 0.  1.
          1   -1    0    0  501    0  0.00000000000E+00 -0.00000000000E+00 -0.11220122979E+04  0.11220122979E+04  0.00000000000E+00 0. -1.
         23    2    1    2    0    0  0.19951926801E+03 -0.53965587153E+03 -0.94631431749E+03  0.11110581507E+04  0.88898981328E+02 0.  0.
         13    1    3    3    0    0  0.91039836235E+02 -0.24171139078E+03 -0.34159450776E+03  0.42825162690E+03  0.00000000000E+00 0. -1.
        -13    1    3    3    0    0  0.10847943178E+03 -0.29794448075E+03 -0.60471980973E+03  0.68280652385E+03  0.00000000000E+00 0.  1.
         22    1    1    2    0    0 -0.19951926801E+03  0.53965587153E+03  0.79344764286E+03  0.98009977040E+03  0.00000000000E+00 0.  1.
<mgrwt>
<rscale>  0 0.20855630E+04</rscale>
<asrwt>0</asrwt>
<pdfrwt beam="1">  1        1 0.17261728E+00 0.20855630E+04</pdfrwt>
<pdfrwt beam="2">  1       -1 0.14909933E+00 0.20855630E+04</pdfrwt>
<totfact> 0.39857013E+00</totfact>
</mgrwt>
</event>
<event>
 6    1  0.1637818E-005  0.1043997E+04  0.7818608E-02  0.9261564E-01
         -1   -1    0    0    0  501 -0.00000000000E+00  0.00000000000E+00  0.31113237682E+03  0.31113237682E+03  0.00000000000E+00 0.  1.
          1   -1    0    0  501    0  0.00000000000E+00 -0.00000000000E+00 -0.87577647790E+03  0.87577647790E+03  0.00000000000E+00 0. -1.
         23    2    1    2    0    0 -0.23964629650E+03 -0.13156899159E+03 -0.78454667422E+03  0.83605576774E+03  0.93461306280E+02 0.  0.
         11    1    3    3    0    0 -0.10650170425E+03 -0.12193041522E+02 -0.35323692015E+03  0.36914442299E+03  0.00000000000E+00 0. -1.
        -11    1    3    3    0    0 -0.13314459225E+03 -0.11937595007E+03 -0.43130975407E+03  0.46691134475E+03  0.00000000000E+00 0.  1.
         22    1    1    2    0    0  0.23964629650E+03  0.13156899159E+03  0.21990257314E+03  0.35085308699E+03  0.00000000000E+00 0.  1.
<mgrwt>
<rscale>  0 0.10439970E+04</rscale>
<asrwt>0</asrwt>
<pdfrwt beam="1">  1        1 0.13473484E+00 0.10439970E+04</pdfrwt>
<pdfrwt beam="2">  1       -1 0.47866520E-01 0.10439970E+04</pdfrwt>
<totfact> 0.83050732E+01</totfact>
</mgrwt>
</event>
<event>
 6    1  0.1637818E-005  0.1985155E+04  0.7818608E-02  0.8613593E-01
          2   -1    0    0  501    0  0.00000000000E+00  0.00000000000E+00  0.24530281564E+04  0.24530281564E+04  0.00000000000E+00 0. -1.
         -2   -1    0    0    0  501 -0.00000000000E+00 -0.00000000000E+00 -0.40163036056E+03  0.40163036056E+03  0.00000000000E+00 0.  1.
         23    2    1    2    0    0  0.88219360307E+03  0.16771054983E+03  0.16289590915E+04  0.18622640184E+04  0.90150820992E+02 0.  0.
         13    1    3    3    0    0  0.48437930202E+03  0.13678724643E+03  0.92654636958E+03  0.10544298146E+04  0.00000000000E+00 0.  1.
        -13    1    3    3    0    0  0.39781430105E+03  0.30923303399E+02  0.70241272196E+03  0.80783420377E+03  0.00000000000E+00 0. -1.
         22    1    1    2    0    0 -0.88219360307E+03 -0.16771054983E+03  0.42243870429E+03  0.99239449853E+03  0.00000000000E+00 0. -1.
<mgrwt>
<rscale>  0 0.19851555E+04</rscale>
<asrwt>0</asrwt>
<pdfrwt beam="1">  1        2 0.37738894E+00 0.19851555E+04</pdfrwt>
<pdfrwt beam="2">  1       -2 0.61789288E-01 0.19851555E+04</pdfrwt>
<totfact> 0.83917454E+00</totfact>
</mgrwt>
</event>
<event>
 6    1  0.1637818E-005  0.3449047E+04  0.7818608E-02  0.8125972E-01
         -2   -1    0    0    0  501 -0.00000000000E+00  0.00000000000E+00  0.88110340762E+03  0.88110340762E+03  0.00000000000E+00 0.  1.
          2   -1    0    0  501    0  0.00000000000E+00 -0.00000000000E+00 -0.33752927227E+04  0.33752927227E+04  0.00000000000E+00 0. -1.
         23    2    1    2    0    0 -0.91874207150E+03  0.54977864810E+03 -0.29144291572E+04  0.31062026332E+04  0.90851144476E+02 0.  0.
         13    1    3    3    0    0 -0.50616427741E+03  0.27387752987E+03 -0.16737369390E+04  0.17699170936E+04  0.00000000000E+00 0. -1.
        -13    1    3    3    0    0 -0.41257779408E+03  0.27590111823E+03 -0.12406922182E+04  0.13362855396E+04  0.00000000000E+00 0.  1.
         22    1    1    2    0    0  0.91874207150E+03 -0.54977864810E+03  0.42023984212E+03  0.11501934971E+04  0.00000000000E+00 0.  1.
<mgrwt>
<rscale>  0 0.34490474E+04</rscale>
<asrwt>0</asrwt>
<pdfrwt beam="1">  1        2 0.51927581E+00 0.34490474E+04</pdfrwt>
<pdfrwt beam="2">  1       -2 0.13555437E+00 0.34490474E+04</pdfrwt>
<totfact> 0.31883461E-01</totfact>
</mgrwt>
</event>
<event>
 6    1  0.1637818E-005  0.3202107E+04  0.7818608E-02  0.8188261E-01
         -1   -1    0    0    0  501 -0.00000000000E+00  0.00000000000E+00  0.15269496135E+04  0.15269496135E+04  0.00000000000E+00 0.  1.
          1   -1    0    0  501    0  0.00000000000E+00 -0.00000000000E+00 -0.16787541979E+04  0.16787541979E+04  0.00000000000E+00 0. -1.
         23    2    1    2    0    0  0.54187170880E+03  0.12323495386E+04 -0.94068742246E+03  0.16453684415E+04  0.10017059182E+03 0.  0.
         11    1    3    3    0    0  0.47686870890E+03  0.11415331238E+04 -0.84359835762E+03  0.14973843285E+04  0.00000000000E+00 0. -1.
        -11    1    3    3    0    0  0.65002999897E+02  0.90816414815E+02 -0.97089064834E+02  0.14798411302E+03  0.00000000000E+00 0.  1.
         22    1    1    2    0    0 -0.54187170880E+03 -0.12323495386E+04  0.78888283803E+03  0.15603353698E+04  0.00000000000E+00 0.  1.
<mgrwt>
<rscale>  0 0.32021075E+04</rscale>
<asrwt>0</asrwt>
<pdfrwt beam="1">  1        1 0.25826987E+00 0.32021075E+04</pdfrwt>
<pdfrwt beam="2">  1       -1 0.23491533E+00 0.32021075E+04</pdfrwt>
<totfact> 0.36103237E-01</totfact>
</mgrwt>
</event>
<event>
 6    1  0.1637818E-005  0.3917363E+04  0.7818608E-02  0.8021428E-01
         -2   -1    0    0    0  501 -0.00000000000E+00  0.00000000000E+00  0.17088526653E+04  0.17088526653E+04  0.00000000000E+00 0.  1.
          2   -1    0    0  501    0  0.00000000000E+00 -0.00000000000E+00 -0.22450346575E+04  0.22450346575E+04  0.00000000000E+00 0. -1.
         23    2    1    2    0    0  0.83757977898E+03  0.16515468154E+04 -0.90905691487E+03  0.20649239887E+04  0.91541438691E+02 0.  0.
         11    1    3    3    0    0  0.79618776405E+03  0.15492179248E+04 -0.87592284377E+03  0.19496748350E+04  0.00000000000E+00 0.  1.
        -11    1    3    3    0    0  0.41392014935E+02  0.10232889057E+03 -0.33134071101E+02  0.11524915363E+03  0.00000000000E+00 0. -1.
         22    1    1    2    0    0 -0.83757977898E+03 -0.16515468154E+04  0.37287492267E+03  0.18889633341E+04  0.00000000000E+00 0. -1.
<mgrwt>
<rscale>  0 0.39173631E+04</rscale>
<asrwt>0</asrwt>
<pdfrwt beam="1">  1        2 0.34538995E+00 0.39173631E+04</pdfrwt>
<pdfrwt beam="2">  1       -2 0.26290041E+00 0.39173631E+04</pdfrwt>
<totfact> 0.20717949E-01</totfact>
</mgrwt>
</event>
<event>
 6    1  0.1637818E-005  0.2041732E+04  0.7818608E-02  0.8587355E-01
         -1   -1    0    0    0  501 -0.00000000000E+00  0.00000000000E+00  0.90839031898E+03  0.90839031898E+03  0.00000000000E+00 0.  1.
          1   -1    0    0  501    0  0.00000000000E+00 -0.00000000000E+00 -0.11472677452E+04  0.11472677452E+04  0.00000000000E+00 0. -1.
         23    2    1    2    0    0 -0.46157083046E+03  0.20867967906E+01  0.79474111869E+03  0.92366014782E+03  0.92101230722E+02 0.  0.
         11    1    3    3    0    0 -0.36298869905E+02 -0.11041025295E+02  0.12109315387E+03  0.12689784912E+03  0.00000000000E+00 0.  1.
        -11    1    3    3    0    0 -0.42527196055E+03  0.13127822085E+02  0.67364796481E+03  0.79676229871E+03  0.00000000000E+00 0. -1.
         22    1    1    2    0    0  0.46157083046E+03 -0.20867967906E+01 -0.10336185449E+04  0.11319979163E+04  0.00000000000E+00 0. -1.
<mgrwt>
<rscale>  0 0.20417315E+04</rscale>
<asrwt>0</asrwt>
<pdfrwt beam="1">  1        1 0.17650273E+00 0.20417315E+04</pdfrwt>
<pdfrwt beam="2">  1       -1 0.13975236E+00 0.20417315E+04</pdfrwt>
<totfact> 0.45493938E+00</totfact>
</mgrwt>
</event>
<event>
 6    1  0.1637818E-005  0.1900452E+04  0.7818608E-02  0.8654632E-01
         -1   -1    0    0    0  501 -0.00000000000E+00  0.00000000000E+00  0.20735111881E+03  0.20735111881E+03  0.00000000000E+00 0.  1.
          1   -1    0    0  501    0  0.00000000000E+00 -0.00000000000E+00 -0.43545908171E+04  0.43545908171E+04  0.00000000000E+00 0. -1.
         23    2    1    2    0    0 -0.49614640548E+03  0.58100263346E+03 -0.73114753310E+03  0.10614546846E+04  0.91564275125E+02 0.  0.
         13    1    3    3    0    0 -0.18081074990E+03  0.24833621863E+03 -0.24159067798E+03  0.39080616737E+03  0.00000000000E+00 0. -1.
        -13    1    3    3    0    0 -0.31533565558E+03  0.33266641483E+03 -0.48955685512E+03  0.67064851720E+03  0.00000000000E+00 0.  1.
         22    1    1    2    0    0  0.49614640548E+03 -0.58100263346E+03 -0.34160921652E+04  0.35004872513E+04  0.00000000000E+00 0. -1.
<mgrwt>
<rscale>  0 0.19004518E+04</rscale>
<asrwt>0</asrwt>
<pdfrwt beam="1">  1        1 0.66993704E+00 0.19004518E+04</pdfrwt>
<pdfrwt beam="2">  1       -1 0.31900173E-01 0.19004518E+04</pdfrwt>
<totfact> 0.39132299E-01</totfact>
</mgrwt>
</event>
<event>
 6    1  0.1637818E-005  0.1023256E+04  0.7818608E-02  0.9283400E-01
          2   -1    0    0  501    0  0.00000000000E+00  0.00000000000E+00  0.81895829499E+03  0.81895829499E+03  0.00000000000E+00 0. -1.
         -2   -1    0    0    0  501 -0.00000000000E+00 -0.00000000000E+00 -0.31962934901E+03  0.31962934901E+03  0.00000000000E+00 0.  1.
         23    2    1    2    0    0  0.12391194071E+03 -0.15983619701E+03  0.76966448827E+03  0.80097383452E+03  0.90960871564E+02 0.  0.
         13    1    3    3    0    0  0.11782248245E+03 -0.82055661660E+02  0.51292615692E+03  0.53264294930E+03  0.00000000000E+00 0. -1.
        -13    1    3    3    0    0  0.60894582646E+01 -0.77780535350E+02  0.25673833135E+03  0.26833088522E+03  0.00000000000E+00 0.  1.
         22    1    1    2    0    0 -0.12391194071E+03  0.15983619701E+03 -0.27033554229E+03  0.33761380948E+03  0.00000000000E+00 0.  1.
<mgrwt>
<rscale>  0 0.10232558E+04</rscale>
<asrwt>0</asrwt>
<pdfrwt beam="1">  1        2 0.12599358E+00 0.10232558E+04</pdfrwt>
<pdfrwt beam="2">  1       -2 0.49173746E-01 0.10232558E+04</pdfrwt>
<totfact> 0.13031361E+02</totfact>
</mgrwt>
</event>
<event>
 6    1  0.1637818E-005  0.3127335E+04  0.7818608E-02  0.8208276E-01
          2   -1    0    0  501    0  0.00000000000E+00  0.00000000000E+00  0.18742731226E+04  0.18742731226E+04  0.00000000000E+00 0. -1.
         -2   -1    0    0    0  501 -0.00000000000E+00 -0.00000000000E+00 -0.13045357562E+04  0.13045357562E+04  0.00000000000E+00 0.  1.
         23    2    1    2    0    0 -0.80031105832E+03 -0.90809363798E+03 -0.71895318072E+03  0.14108000633E+04  0.91275939718E+02 0.  0.
         11    1    3    3    0    0 -0.15558571839E+03 -0.18076298665E+03 -0.10074336086E+03  0.25890422528E+03  0.00000000000E+00 0. -1.
        -11    1    3    3    0    0 -0.64472533993E+03 -0.72733065132E+03 -0.61820981987E+03  0.11518958380E+04  0.00000000000E+00 0.  1.
         22    1    1    2    0    0  0.80031105832E+03  0.90809363798E+03  0.12886905471E+04  0.17680088155E+04  0.00000000000E+00 0.  1.
<mgrwt>
<rscale>  0 0.31273352E+04</rscale>
<asrwt>0</asrwt>
<pdfrwt beam="1">  1        2 0.28834971E+00 0.31273352E+04</pdfrwt>
<pdfrwt beam="2">  1       -2 0.20069781E+00 0.31273352E+04</pdfrwt>
<totfact> 0.87493078E-01</totfact>
</mgrwt>
</event>
<event>
 6    1  0.1637818E-005  0.1440243E+04  0.7818608E-02  0.8925193E-01
         -1   -1    0    0    0  501 -0.00000000000E+00  0.00000000000E+00  0.95226244225E+03  0.95226244225E+03  0.00000000000E+00 0.  1.
          1   -1    0    0  501    0  0.00000000000E+00 -0.00000000000E+00 -0.54457126259E+03  0.54457126259E+03  0.00000000000E+00 0. -1.
         23    2    1    2    0    0  0.99341743027E+02  0.70977349214E+03  0.24065048938E+03  0.76093304288E+03  0.86366924584E+02 0.  0.
         11    1    3    3    0    0  0.55862641059E+02  0.52925079482E+03  0.21285588710E+03  0.57317943713E+03  0.00000000000E+00 0.  1.
        -11    1    3    3    0    0  0.43479101968E+02  0.18052269732E+03  0.27794602286E+02  0.18775360575E+03  0.00000000000E+00 0. -1.
         22    1    1    2    0    0 -0.99341743027E+02 -0.70977349214E+03  0.16704069028E+03  0.73590066195E+03  0.00000000000E+00 0.  1.
<mgrwt>
<rscale>  0 0.14402427E+04</rscale>
<asrwt>0</asrwt>
<pdfrwt beam="1">  1        1 0.83780194E-01 0.14402427E+04</pdfrwt>
<pdfrwt beam="2">  1       -1 0.14650191E+00 0.14402427E+04</pdfrwt>
<totfact> 0.14215091E+01</totfact>
</mgrwt>
</event>
<event>
 6    1  0.1637818E-005  0.2364039E+04  0.7818608E-02  0.8453091E-01
          2   -1    0    0  501    0  0.00000000000E+00  0.00000000000E+00  0.22295893594E+04  0.22295893594E+04  0.00000000000E+00 0.  1.
         -2   -1    0    0    0  501 -0.00000000000E+00 -0.00000000000E+00 -0.62664891796E+03  0.62664891796E+03  0.00000000000E+00 0. -1.
         23    2    1    2    0    0  0.62140614786E+03 -0.31090224904E+01 -0.40967606694E+03  0.74987162446E+03  0.91201462253E+02 0.  0.
         13    1    3    3    0    0  0.26122317535E+03 -0.42865412552E+02 -0.15231947110E+03  0.30541154564E+03  0.00000000000E+00 0.  1.
        -13    1    3    3    0    0  0.36018297251E+03  0.39756390062E+02 -0.25735659585E+03  0.44446007882E+03  0.00000000000E+00 0. -1.
         22    1    1    2    0    0 -0.62140614786E+03  0.31090224904E+01  0.20126165084E+04  0.21063666529E+04  0.00000000000E+00 0.  1.
<mgrwt>
<rscale>  0 0.23640387E+04</rscale>
<asrwt>0</asrwt>
<pdfrwt beam="1">  1        2 0.34301374E+00 0.23640387E+04</pdfrwt>
<pdfrwt beam="2">  1       -2 0.96407527E-01 0.23640387E+04</pdfrwt>
<totfact> 0.40349478E+00</totfact>
</mgrwt>
</event>
<event>
 6    1  0.1637818E-005  0.8302454E+03  0.7818608E-02  0.9517241E-01
          1   -1    0    0  501    0  0.00000000000E+00  0.00000000000E+00  0.48418921122E+03  0.48418921122E+03  0.00000000000E+00 0. -1.
         -1   -1    0    0    0  501 -0.00000000000E+00 -0.00000000000E+00 -0.35590812361E+03  0.35590812361E+03  0.00000000000E+00 0.  1.
         23    2    1    2    0    0  0.30477347702E+03 -0.32889879854E+02 -0.21079688230E+03  0.38299506381E+03  0.91001520997E+02 0.  0.
         11    1    3    3    0    0  0.18318429821E+03  0.10682594130E+02 -0.83338233251E+02  0.20153378389E+03  0.00000000000E+00 0. -1.
        -11    1    3    3    0    0  0.12158917881E+03 -0.43572473984E+02 -0.12745864905E+03  0.18146127992E+03  0.00000000000E+00 0.  1.
         22    1    1    2    0    0 -0.30477347702E+03  0.32889879854E+02  0.33907796991E+03  0.45710227102E+03  0.00000000000E+00 0. -1.
<mgrwt>
<rscale>  0 0.83024544E+03</rscale>
<asrwt>0</asrwt>
<pdfrwt beam="1">  1        1 0.74490648E-01 0.83024544E+03</pdfrwt>
<pdfrwt beam="2">  1       -1 0.54755096E-01 0.83024544E+03</pdfrwt>
<totfact> 0.15782739E+02</totfact>
</mgrwt>
</event>
<event>
 6    1  0.1637818E-005  0.1884244E+04  0.7818608E-02  0.8662739E-01
         -2   -1    0    0    0  501 -0.00000000000E+00  0.00000000000E+00  0.54088146308E+03  0.54088146308E+03  0.00000000000E+00 0.  1.
          2   -1    0    0  501    0  0.00000000000E+00 -0.00000000000E+00 -0.16410144652E+04  0.16410144652E+04  0.00000000000E+00 0. -1.
         23    2    1    2    0    0 -0.43461378365E+03 -0.82647574080E+03 -0.68311092635E+03  0.11592235943E+04  0.72163098454E+02 0.  0.
         13    1    3    3    0    0 -0.15357929886E+03 -0.32748236369E+03 -0.22636483755E+03  0.42669935463E+03  0.00000000000E+00 0. -1.
        -13    1    3    3    0    0 -0.28103448479E+03 -0.49899337711E+03 -0.45674608880E+03  0.73252423965E+03  0.00000000000E+00 0.  1.
         22    1    1    2    0    0  0.43461378365E+03  0.82647574080E+03 -0.41702207579E+03  0.10226723340E+04  0.00000000000E+00 0. -1.
<mgrwt>
<rscale>  0 0.18842445E+04</rscale>
<asrwt>0</asrwt>
<pdfrwt beam="1">  1        2 0.25246376E+00 0.18842445E+04</pdfrwt>
<pdfrwt beam="2">  1       -2 0.83212535E-01 0.18842445E+04</pdfrwt>
<totfact> 0.12543832E+01</totfact>
</mgrwt>
</event>
<event>
 6    1  0.1637818E-005  0.3126370E+04  0.7818608E-02  0.8208538E-01
          1   -1    0    0  501    0  0.00000000000E+00  0.00000000000E+00  0.34019816033E+04  0.34019816033E+04  0.00000000000E+00 0. -1.
         -1   -1    0    0    0  501 -0.00000000000E+00 -0.00000000000E+00 -0.71827163373E+03  0.71827163373E+03  0.00000000000E+00 0.  1.
         23    2    1    2    0    0 -0.47063180376E+02  0.12100856932E+04  0.43100893271E+02  0.12151992579E+04  0.91264568220E+02 0.  0.
         13    1    3    3    0    0  0.21113037609E+02  0.97428805556E+02  0.31419817051E+01  0.99739683969E+02  0.00000000000E+00 0. -1.
        -13    1    3    3    0    0 -0.68176217985E+02  0.11126568877E+04  0.39958911566E+02  0.11154595739E+04  0.00000000000E+00 0.  1.
         22    1    1    2    0    0  0.47063180376E+02 -0.12100856932E+04  0.26406090763E+04  0.29050539791E+04  0.00000000000E+00 0. -1.
<mgrwt>
<rscale>  0 0.31263697E+04</rscale>
<asrwt>0</asrwt>
<pdfrwt beam="1">  1        1 0.52338177E+00 0.31263697E+04</pdfrwt>
<pdfrwt beam="2">  1       -1 0.11050333E+00 0.31263697E+04</pdfrwt>
<totfact> 0.18929795E-01</totfact>
</mgrwt>
</event>
<event>
 6    1  0.1637818E-005  0.1225157E+04  0.7818608E-02  0.9091117E-01
          2   -1    0    0  501    0  0.00000000000E+00  0.00000000000E+00  0.10913859810E+04  0.10913859810E+04  0.00000000000E+00 0. -1.
         -2   -1    0    0    0  501 -0.00000000000E+00 -0.00000000000E+00 -0.34383129933E+03  0.34383129933E+03  0.00000000000E+00 0.  1.
         23    2    1    2    0    0 -0.52147990676E+03  0.14212356522E+03  0.46528256923E+02  0.55001761408E+03  0.90631650996E+02 0.  0.
         13    1    3    3    0    0 -0.49352290532E+03  0.15118362400E+03  0.55882347059E+02  0.51917644684E+03  0.00000000000E+00 0. -1.
        -13    1    3    3    0    0 -0.27957001440E+02 -0.90600587765E+01 -0.93540901366E+01  0.30841167242E+02  0.00000000000E+00 0.  1.
         22    1    1    2    0    0  0.52147990676E+03 -0.14212356522E+03  0.70102642477E+03  0.88519966627E+03  0.00000000000E+00 0. -1.
<mgrwt>
<rscale>  0 0.12251574E+04</rscale>
<asrwt>0</asrwt>
<pdfrwt beam="1">  1        2 0.16790553E+00 0.12251574E+04</pdfrwt>
<pdfrwt beam="2">  1       -2 0.52897123E-01 0.12251574E+04</pdfrwt>
<totfact> 0.73227434E+01</totfact>
</mgrwt>
</event>
<event>
 6    1  0.1637818E-005  0.1520810E+04  0.7818608E-02  0.8870731E-01
          2   -1    0    0  501    0  0.00000000000E+00  0.00000000000E+00  0.23531767949E+04  0.23531767949E+04  0.00000000000E+00 0.  1.
         -2   -1    0    0    0  501 -0.00000000000E+00 -0.00000000000E+00 -0.24571721075E+03  0.24571721075E+03  0.00000000000E+00 0. -1.
         23    2    1    2    0    0 -0.26354989118E+03 -0.50877693647E+03  0.19047596407E+04  0.19911113280E+04  0.90013972616E+02 0.  0.
         11    1    3    3    0    0 -0.17352829666E+03 -0.24649026547E+03  0.92635061696E+03  0.97416373688E+03  0.00000000000E+00 0. -1.
        -11    1    3    3    0    0 -0.90021594523E+02 -0.26228667100E+03  0.97840902378E+03  0.10169475911E+04  0.00000000000E+00 0.  1.
         22    1    1    2    0    0  0.26354989118E+03  0.50877693647E+03  0.20269994344E+03  0.60778267769E+03  0.00000000000E+00 0. -1.
<mgrwt>
<rscale>  0 0.15208104E+04</rscale>
<asrwt>0</asrwt>
<pdfrwt beam="1">  1        2 0.36202718E+00 0.15208104E+04</pdfrwt>
<pdfrwt beam="2">  1       -2 0.37802649E-01 0.15208104E+04</pdfrwt>
<totfact> 0.26982664E+01</totfact>
</mgrwt>
</event>
<event>
 6    1  0.1637818E-005  0.1867303E+04  0.7818608E-02  0.8671305E-01
          1   -1    0    0  501    0  0.00000000000E+00  0.00000000000E+00  0.38679391931E+03  0.38679391931E+03  0.00000000000E+00 0. -1.
         -1   -1    0    0    0  501 -0.00000000000E+00 -0.00000000000E+00 -0.22536678671E+04  0.22536678671E+04  0.00000000000E+00 0.  1.
         23    2    1    2    0    0  0.76813211275E+02 -0.77921839871E+02 -0.22436278502E+04  0.22481410178E+04  0.91104461194E+02 0.  0.
         13    1    3    3    0    0  0.60746301621E+02 -0.23253096277E+02 -0.17545124219E+04  0.17557177046E+04  0.00000000000E+00 0.  1.
        -13    1    3    3    0    0  0.16066909654E+02 -0.54668743594E+02 -0.48911542837E+03  0.49242331320E+03  0.00000000000E+00 0. -1.
         22    1    1    2    0    0 -0.76813211275E+02  0.77921839871E+02  0.37675390241E+03  0.39232076868E+03  0.00000000000E+00 0. -1.
<mgrwt>
<rscale>  0 0.18673029E+04</rscale>
<asrwt>0</asrwt>
<pdfrwt beam="1">  1        1 0.59506758E-01 0.18673029E+04</pdfrwt>
<pdfrwt beam="2">  1       -1 0.34671813E+00 0.18673029E+04</pdfrwt>
<totfact> 0.96357243E-01</totfact>
</mgrwt>
</event>
<event>
 6    1  0.1637818E-005  0.9964973E+03  0.7818608E-02  0.9312395E-01
         -2   -1    0    0    0  501 -0.00000000000E+00  0.00000000000E+00  0.19820477213E+03  0.19820477213E+03  0.00000000000E+00 0.  1.
          2   -1    0    0  501    0  0.00000000000E+00 -0.00000000000E+00 -0.12525011722E+04  0.12525011722E+04  0.00000000000E+00 0. -1.
         23    2    1    2    0    0  0.13963245453E+03  0.18216317748E+03 -0.11683737972E+04  0.11943969548E+04  0.93840875859E+02 0.  0.
         11    1    3    3    0    0  0.10524391830E+03  0.60869027954E+02 -0.54366219215E+03  0.55709056721E+03  0.00000000000E+00 0. -1.
        -11    1    3    3    0    0  0.34388536237E+02  0.12129414953E+03 -0.62471160505E+03  0.63730638756E+03  0.00000000000E+00 0.  1.
         22    1    1    2    0    0 -0.13963245453E+03 -0.18216317748E+03  0.11407739714E+03  0.25630898956E+03  0.00000000000E+00 0.  1.
<mgrwt>
<rscale>  0 0.99649728E+03</rscale>
<asrwt>0</asrwt>
<pdfrwt beam="1">  1        2 0.19269249E+00 0.99649728E+03</pdfrwt>
<pdfrwt beam="2">  1       -2 0.30493042E-01 0.99649728E+03</pdfrwt>
<totfact> 0.17482938E+02</totfact>
</mgrwt>
</event>
<event>
 6    1  0.1637818E-005  0.2717272E+04  0.7818608E-02  0.8329422E-01
          2   -1    0    0  501    0  0.00000000000E+00  0.00000000000E+00  0.13356405109E+04  0.13356405109E+04  0.00000000000E+00 0. -1.
         -2   -1    0    0    0  501 -0.00000000000E+00 -0.00000000000E+00 -0.13820278113E+04  0.13820278113E+04  0.00000000000E+00 0.  1.
         23    2    1    2    0    0  0.10482764677E+04 -0.42181087409E+03 -0.77488396639E+03  0.13732296443E+04  0.92230843299E+02 0.  0.
         11    1    3    3    0    0  0.62544070685E+03 -0.25126167048E+03 -0.51653840415E+03  0.84918809918E+03  0.00000000000E+00 0. -1.
        -11    1    3    3    0    0  0.42283576083E+03 -0.17054920361E+03 -0.25834556224E+03  0.52404154512E+03  0.00000000000E+00 0.  1.
         22    1    1    2    0    0 -0.10482764677E+04  0.42181087409E+03  0.72849666602E+03  0.13444386779E+04  0.00000000000E+00 0. -1.
<mgrwt>
<rscale>  0 0.27172724E+04</rscale>
<asrwt>0</asrwt>
<pdfrwt beam="1">  1        2 0.20548316E+00 0.27172724E+04</pdfrwt>
<pdfrwt beam="2">  1       -2 0.21261966E+00 0.27172724E+04</pdfrwt>
<totfact> 0.15209603E+00</totfact>
</mgrwt>
</event>
<event>
 6    1  0.1637818E-005  0.2583568E+04  0.7818608E-02  0.8373804E-01
          2   -1    0    0  501    0  0.00000000000E+00  0.00000000000E+00  0.21352701262E+04  0.21352701262E+04  0.00000000000E+00 0.  1.
         -2   -1    0    0    0  501 -0.00000000000E+00 -0.00000000000E+00 -0.78149632954E+03  0.78149632954E+03  0.00000000000E+00 0. -1.
         23    2    1    2    0    0 -0.19566797004E+03 -0.12092854241E+04  0.11349189831E+04  0.16723571095E+04  0.89888888139E+02 0.  0.
         13    1    3    3    0    0 -0.80844883460E+02 -0.34106685981E+03  0.28196154423E+03  0.44984976433E+03  0.00000000000E+00 0.  1.
        -13    1    3    3    0    0 -0.11482308658E+03 -0.86821856432E+03  0.85295743885E+03  0.12225073452E+04  0.00000000000E+00 0. -1.
         22    1    1    2    0    0  0.19566797004E+03  0.12092854241E+04  0.21885481361E+03  0.12444093462E+04  0.00000000000E+00 0. -1.
<mgrwt>
<rscale>  0 0.25835679E+04</rscale>
<asrwt>0</asrwt>
<pdfrwt beam="1">  1        2 0.32850309E+00 0.25835679E+04</pdfrwt>
<pdfrwt beam="2">  1       -2 0.12023021E+00 0.25835679E+04</pdfrwt>
<totfact> 0.26281098E+00</totfact>
</mgrwt>
</event>
<event>
 6    1  0.1637818E-005  0.3573234E+04  0.7818608E-02  0.8096651E-01
          2   -1    0    0  501    0  0.00000000000E+00  0.00000000000E+00  0.17576694682E+04  0.17576694682E+04  0.00000000000E+00 0. -1.
         -2   -1    0    0    0  501 -0.00000000000E+00 -0.00000000000E+00 -0.18160407802E+04  0.18160407802E+04  0.00000000000E+00 0.  1.
         23    2    1    2    0    0  0.15791756285E+03 -0.11122610780E+04 -0.14170647396E+04  0.18107268417E+04  0.92717618879E+02 0.  0.
         13    1    3    3    0    0  0.24586124152E+02 -0.46798015793E+03 -0.62054482878E+03  0.77761545139E+03  0.00000000000E+00 0. -1.
        -13    1    3    3    0    0  0.13333143870E+03 -0.64428092006E+03 -0.79651991077E+03  0.10331113903E+04  0.00000000000E+00 0.  1.
         22    1    1    2    0    0 -0.15791756285E+03  0.11122610780E+04  0.13586934276E+04  0.17629834067E+04  0.00000000000E+00 0. -1.
<mgrwt>
<rscale>  0 0.35732335E+04</rscale>
<asrwt>0</asrwt>
<pdfrwt beam="1">  1        2 0.27041069E+00 0.35732335E+04</pdfrwt>
<pdfrwt beam="2">  1       -2 0.27939089E+00 0.35732335E+04</pdfrwt>
<totfact> 0.31601838E-01</totfact>
</mgrwt>
</event>
<event>
 6    1  0.1637818E-005  0.8644310E+03  0.7818608E-02  0.9471170E-01
         -1   -1    0    0    0  501 -0.00000000000E+00  0.00000000000E+00  0.16146103610E+03  0.16146103610E+03  0.00000000000E+00 0.  1.
          1   -1    0    0  501    0  0.00000000000E+00 -0.00000000000E+00 -0.11569989311E+04  0.11569989311E+04  0.00000000000E+00 0. -1.
         23    2    1    2    0    0  0.27111081922E+03 -0.32518775369E+03 -0.41689221208E+03  0.60146695621E+03  0.93355404058E+02 0.  0.
         11    1    3    3    0    0  0.10584507298E+03 -0.11846854514E+03 -0.96412548542E+02  0.18583152364E+03  0.00000000000E+00 0.  1.
        -11    1    3    3    0    0  0.16526574623E+03 -0.20671920856E+03 -0.32047966354E+03  0.41563543257E+03  0.00000000000E+00 0. -1.
         22    1    1    2    0    0 -0.27111081922E+03  0.32518775369E+03 -0.57864568287E+03  0.71699301095E+03  0.00000000000E+00 0. -1.
<mgrwt>
<rscale>  0 0.86443102E+03</rscale>
<asrwt>0</asrwt>
<pdfrwt beam="1">  1        1 0.17799984E+00 0.86443102E+03</pdfrwt>
<pdfrwt beam="2">  1       -1 0.24840159E-01 0.86443102E+03</pdfrwt>
<totfact> 0.16409019E+02</totfact>
</mgrwt>
</event>
<event>
 6    1  0.1637818E-005  0.2607638E+04  0.7818608E-02  0.8365611E-01
          1   -1    0    0  501    0  0.00000000000E+00  0.00000000000E+00  0.16274323444E+04  0.16274323444E+04  0.00000000000E+00 0. -1.
         -1   -1    0    0    0  501 -0.00000000000E+00 -0.00000000000E+00 -0.10445557122E+04  0.10445557122E+04  0.00000000000E+00 0.  1.
         23    2    1    2    0    0 -0.98768943755E+03 -0.49675074341E+03  0.99692388681E+03  0.14914259638E+04  0.90567341058E+02 0.  0.
         13    1    3    3    0    0 -0.70864383809E+03 -0.31080614069E+03  0.70659993863E+03  0.10478835907E+04  0.00000000000E+00 0.  1.
        -13    1    3    3    0    0 -0.27904559946E+03 -0.18594460272E+03  0.29032394817E+03  0.44354237311E+03  0.00000000000E+00 0. -1.
         22    1    1    2    0    0  0.98768943755E+03  0.49675074341E+03 -0.41404725459E+03  0.11805620929E+04  0.00000000000E+00 0.  1.
<mgrwt>
<rscale>  0 0.26076378E+04</rscale>
<asrwt>0</asrwt>
<pdfrwt beam="1">  1        1 0.25037421E+00 0.26076378E+04</pdfrwt>
<pdfrwt beam="2">  1       -1 0.16070088E+00 0.26076378E+04</pdfrwt>
<totfact> 0.13577240E+00</totfact>
</mgrwt>
</event>
<event>
 6    1  0.1637818E-005  0.2810240E+04  0.7818608E-02  0.8300096E-01
          1   -1    0    0  501    0  0.00000000000E+00  0.00000000000E+00  0.16239287184E+04  0.16239287184E+04  0.00000000000E+00 0. -1.
         -1   -1    0    0    0  501 -0.00000000000E+00 -0.00000000000E+00 -0.12157936379E+04  0.12157936379E+04  0.00000000000E+00 0.  1.
         23    2    1    2    0    0  0.18302958890E+03 -0.91390791693E+03 -0.85625651226E+03  0.12689220472E+04  0.90886941505E+02 0.  0.
         11    1    3    3    0    0  0.15508909629E+03 -0.81238069489E+03 -0.71874570232E+03  0.10957236905E+04  0.00000000000E+00 0.  1.
        -11    1    3    3    0    0  0.27940492612E+02 -0.10152722204E+03 -0.13751080994E+03  0.17319835678E+03  0.00000000000E+00 0. -1.
         22    1    1    2    0    0 -0.18302958890E+03  0.91390791693E+03  0.12643915927E+04  0.15708003090E+04  0.00000000000E+00 0. -1.
<mgrwt>
<rscale>  0 0.28102400E+04</rscale>
<asrwt>0</asrwt>
<pdfrwt beam="1">  1        1 0.24983519E+00 0.28102400E+04</pdfrwt>
<pdfrwt beam="2">  1       -1 0.18704518E+00 0.28102400E+04</pdfrwt>
<totfact> 0.86158153E-01</totfact>
</mgrwt>
</event>
<event>
 6    1  0.1637818E-005  0.1160499E+04  0.7818608E-02  0.9148152E-01
          2   -1    0    0  501    0  0.00000000000E+00  0.00000000000E+00  0.76273230980E+03  0.76273230980E+03  0.00000000000E+00 0. -1.
         -2   -1    0    0    0  501 -0.00000000000E+00 -0.00000000000E+00 -0.44142568083E+03  0.44142568083E+03  0.00000000000E+00 0.  1.
         23    2    1    2    0    0 -0.12301587966E+03  0.19122987309E+03 -0.38811874399E+03  0.45918407780E+03  0.92260971470E+02 0.  0.
         11    1    3    3    0    0 -0.70738715699E+02  0.12598718039E+03 -0.32083337765E+03  0.35186757699E+03  0.00000000000E+00 0.  1.
        -11    1    3    3    0    0 -0.52277163958E+02  0.65242692702E+02 -0.67285366338E+02  0.10731650081E+03  0.00000000000E+00 0. -1.
         22    1    1    2    0    0  0.12301587966E+03 -0.19122987309E+03  0.70942537296E+03  0.74497391284E+03  0.00000000000E+00 0. -1.
<mgrwt>
<rscale>  0 0.11604993E+04</rscale>
<asrwt>0</asrwt>
<pdfrwt beam="1">  1        2 0.11734343E+00 0.11604993E+04</pdfrwt>
<pdfrwt beam="2">  1       -2 0.67911643E-01 0.11604993E+04</pdfrwt>
<totfact> 0.72099327E+01</totfact>
</mgrwt>
</event>
<event>
 6    1  0.1637818E-005  0.1001135E+04  0.7818608E-02  0.9307301E-01
         -1   -1    0    0    0  501 -0.00000000000E+00  0.00000000000E+00  0.26057352605E+03  0.26057352605E+03  0.00000000000E+00 0.  1.
          1   -1    0    0  501    0  0.00000000000E+00 -0.00000000000E+00 -0.96160159483E+03  0.96160159483E+03  0.00000000000E+00 0. -1.
         23    2    1    2    0    0 -0.41719708015E+03 -0.26722397418E+03 -0.39163187460E+03  0.63806206587E+03  0.91025373590E+02 0.  0.
         11    1    3    3    0    0 -0.19693127932E+03 -0.16408464644E+03 -0.15984661369E+03  0.30208713955E+03  0.00000000000E+00 0.  1.
        -11    1    3    3    0    0 -0.22026580083E+03 -0.10313932774E+03 -0.23178526091E+03  0.33597492632E+03  0.00000000000E+00 0. -1.
         22    1    1    2    0    0  0.41719708015E+03  0.26722397418E+03 -0.30939619418E+03  0.58411305501E+03  0.00000000000E+00 0.  1.
<mgrwt>
<rscale>  0 0.10011352E+04</rscale>
<asrwt>0</asrwt>
<pdfrwt beam="1">  1        1 0.14793871E+00 0.10011352E+04</pdfrwt>
<pdfrwt beam="2">  1       -1 0.40088235E-01 0.10011352E+04</pdfrwt>
<totfact> 0.98584233E+01</totfact>
</mgrwt>
</event>
<event>
 6    1  0.1637818E-005  0.3099434E+04  0.7818608E-02  0.8215893E-01
          1   -1    0    0  501    0  0.00000000000E+00  0.00000000000E+00  0.16434439004E+04  0.16434439004E+04  0.00000000000E+00 0. -1.
         -1   -1    0    0    0  501 -0.00000000000E+00 -0.00000000000E+00 -0.14613356435E+04  0.14613356435E+04  0.00000000000E+00 0.  1.
         23    2    1    2    0    0 -0.91685452389E+03 -0.38461380293E+03 -0.10978940120E+04  0.14839909075E+04  0.91146895987E+02 0.  0.
         13    1    3    3    0    0 -0.47096137730E+03 -0.20830763288E+03 -0.50230804623E+03  0.71938172212E+03  0.00000000000E+00 0. -1.
        -13    1    3    3    0    0 -0.44589314660E+03 -0.17630617005E+03 -0.59558596572E+03  0.76460918536E+03  0.00000000000E+00 0.  1.
         22    1    1    2    0    0  0.91685452389E+03  0.38461380293E+03  0.12800022689E+04  0.16207886364E+04  0.00000000000E+00 0. -1.
<mgrwt>
<rscale>  0 0.30994342E+04</rscale>
<asrwt>0</asrwt>
<pdfrwt beam="1">  1        1 0.25283752E+00 0.30994342E+04</pdfrwt>
<pdfrwt beam="2">  1       -1 0.22482087E+00 0.30994342E+04</pdfrwt>
<totfact> 0.44925663E-01</totfact>
</mgrwt>
</event>
<event>
 6    1  0.1637818E-005  0.1811673E+04  0.7818608E-02  0.8700116E-01
          1   -1    0    0  501    0  0.00000000000E+00  0.00000000000E+00  0.18923115939E+04  0.18923115939E+04  0.00000000000E+00 0. -1.
         -1   -1    0    0    0  501 -0.00000000000E+00 -0.00000000000E+00 -0.43361785784E+03  0.43361785784E+03  0.00000000000E+00 0.  1.
         23    2    1    2    0    0  0.65261673207E+03 -0.48051626498E+03  0.12441630272E+04  0.14875811321E+04  0.90285694744E+02 0.  0.
         13    1    3    3    0    0  0.33985001086E+03 -0.25273739393E+03  0.56765038547E+03  0.70823808165E+03  0.00000000000E+00 0. -1.
        -13    1    3    3    0    0  0.31276672121E+03 -0.22777887105E+03  0.67651264168E+03  0.77934305049E+03  0.00000000000E+00 0.  1.
         22    1    1    2    0    0 -0.65261673207E+03  0.48051626498E+03  0.21453070889E+03  0.83834831958E+03  0.00000000000E+00 0.  1.
<mgrwt>
<rscale>  0 0.18116734E+04</rscale>
<asrwt>0</asrwt>
<pdfrwt beam="1">  1        1 0.29112486E+00 0.18116734E+04</pdfrwt>
<pdfrwt beam="2">  1       -1 0.66710441E-01 0.18116734E+04</pdfrwt>
<totfact> 0.75677837E+00</totfact>
</mgrwt>
</event>
<event>
 6    1  0.1637818E-005  0.1964293E+04  0.7818608E-02  0.8623499E-01
         -1   -1    0    0    0  501 -0.00000000000E+00  0.00000000000E+00  0.51053621300E+03  0.51053621300E+03  0.00000000000E+00 0.  1.
          1   -1    0    0  501    0  0.00000000000E+00 -0.00000000000E+00 -0.18894082157E+04  0.18894082157E+04  0.00000000000E+00 0. -1.
         23    2    1    2    0    0 -0.45440981174E+03  0.86095870678E+03 -0.55825716360E+03  0.11267017629E+04  0.10033758060E+03 0.  0.
         11    1    3    3    0    0 -0.98757744084E+02  0.13050794241E+03 -0.63971723801E+02  0.17572079130E+03  0.00000000000E+00 0. -1.
        -11    1    3    3    0    0 -0.35565206766E+03  0.73045076438E+03 -0.49428543980E+03  0.95098097163E+03  0.00000000000E+00 0.  1.
         22    1    1    2    0    0  0.45440981174E+03 -0.86095870678E+03 -0.82061483909E+03  0.12732426658E+04  0.00000000000E+00 0. -1.
<mgrwt>
<rscale>  0 0.19642926E+04</rscale>
<asrwt>0</asrwt>
<pdfrwt beam="1">  1        1 0.29067818E+00 0.19642926E+04</pdfrwt>
<pdfrwt beam="2">  1       -1 0.78544033E-01 0.19642926E+04</pdfrwt>
<totfact> 0.53459369E+00</totfact>
</mgrwt>
</event>
<event>
 6    1  0.1637818E-005  0.1484381E+04  0.7818608E-02  0.8894906E-01
          1   -1    0    0  501    0  0.00000000000E+00  0.00000000000E+00  0.15467596892E+04  0.15467596892E+04  0.00000000000E+00 0. -1.
         -1   -1    0    0    0  501 -0.00000000000E+00 -0.00000000000E+00 -0.35612951505E+03  0.35612951505E+03  0.00000000000E+00 0.  1.
         23    2    1    2    0    0  0.26109580100E+03  0.42903377175E+03 -0.97927022680E+02  0.51991391738E+03  0.92085748694E+02 0.  0.
         11    1    3    3    0    0  0.73611406620E+02  0.10928941661E+03 -0.67390103716E+02  0.14800081705E+03  0.00000000000E+00 0.  1.
        -11    1    3    3    0    0  0.18748439438E+03  0.31974435514E+03 -0.30536918964E+02  0.37191310033E+03  0.00000000000E+00 0. -1.
         22    1    1    2    0    0 -0.26109580100E+03 -0.42903377175E+03  0.12885571968E+04  0.13829752868E+04  0.00000000000E+00 0. -1.
<mgrwt>
<rscale>  0 0.14843811E+04</rscale>
<asrwt>0</asrwt>
<pdfrwt beam="1">  1        1 0.23796302E+00 0.14843811E+04</pdfrwt>
<pdfrwt beam="2">  1       -1 0.54789157E-01 0.14843811E+04</pdfrwt>
<totfact> 0.19795165E+01</totfact>
</mgrwt>
</event>
<event>
 6    1  0.1637818E-005  0.1932988E+04  0.7818608E-02  0.8638608E-01
         -1   -1    0    0    0  501 -0.00000000000E+00  0.00000000000E+00  0.80913436201E+03  0.80913436201E+03  0.00000000000E+00 0.  1.
          1   -1    0    0  501    0  0.00000000000E+00 -0.00000000000E+00 -0.11544563130E+04  0.11544563130E+04  0.00000000000E+00 0. -1.
         23    2    1    2    0    0 -0.18815546969E+02 -0.74445518167E+03  0.44938873677E+03  0.87449351700E+03  0.90670459420E+02 0.  0.
         11    1    3    3    0    0 -0.30494295255E+02 -0.65522480314E+03  0.36267006500E+03  0.74951919304E+03  0.00000000000E+00 0.  1.
        -11    1    3    3    0    0  0.11678748286E+02 -0.89230378528E+02  0.86718671771E+02  0.12497432395E+03  0.00000000000E+00 0. -1.
         22    1    1    2    0    0  0.18815546969E+02  0.74445518167E+03 -0.79471068774E+03  0.10890971580E+04  0.00000000000E+00 0. -1.
<mgrwt>
<rscale>  0 0.19329876E+04</rscale>
<asrwt>0</asrwt>
<pdfrwt beam="1">  1        1 0.17760866E+00 0.19329876E+04</pdfrwt>
<pdfrwt beam="2">  1       -1 0.12448221E+00 0.19329876E+04</pdfrwt>
<totfact> 0.60907992E+00</totfact>
</mgrwt>
</event>
<event>
 6    1  0.1637818E-005  0.1872111E+04  0.7818608E-02  0.8668864E-01
          1   -1    0    0  501    0  0.00000000000E+00  0.00000000000E+00  0.48448488676E+03  0.48448488676E+03  0.00000000000E+00 0. -1.
         -1   -1    0    0    0  501 -0.00000000000E+00 -0.00000000000E+00 -0.18085181389E+04  0.18085181389E+04  0.00000000000E+00 0.  1.
         23    2    1    2    0    0  0.23725814929E+03  0.78727553437E+03 -0.12147009553E+03  0.83620779569E+03  0.91620396488E+02 0.  0.
         11    1    3    3    0    0  0.21117331298E+03  0.64593038751E+03 -0.13129444556E+03  0.69214049518E+03  0.00000000000E+00 0.  1.
        -11    1    3    3    0    0  0.26084836306E+02  0.14134514686E+03  0.98243500324E+01  0.14406730052E+03  0.00000000000E+00 0. -1.
         22    1    1    2    0    0 -0.23725814929E+03 -0.78727553437E+03 -0.12025631566E+04  0.14567952300E+04  0.00000000000E+00 0.  1.
<mgrwt>
<rscale>  0 0.18721108E+04</rscale>
<asrwt>0</asrwt>
<pdfrwt beam="1">  1        1 0.74536139E-01 0.18721108E+04</pdfrwt>
<pdfrwt beam="2">  1       -1 0.27823355E+00 0.18721108E+04</pdfrwt>
<totfact> 0.19847708E+00</totfact>
</mgrwt>
</event>
<event>
 6    1  0.1637818E-005  0.1740353E+04  0.7818608E-02  0.8738678E-01
         -2   -1    0    0    0  501 -0.00000000000E+00  0.00000000000E+00  0.13123128222E+04  0.13123128222E+04  0.00000000000E+00 0.  1.
          2   -1    0    0  501    0  0.00000000000E+00 -0.00000000000E+00 -0.57700196843E+03  0.57700196843E+03  0.00000000000E+00 0. -1.
         23    2    1    2    0    0 -0.78059154026E+03 -0.14270191716E+03  0.74983860689E+03  0.10956536253E+04  0.92260176958E+02 0.  0.
         11    1    3    3    0    0 -0.71131012175E+03 -0.12262315552E+03  0.64253594897E+03  0.96635965008E+03  0.00000000000E+00 0. -1.
        -11    1    3    3    0    0 -0.69281418509E+02 -0.20078761646E+02  0.10730265792E+03  0.12929397517E+03  0.00000000000E+00 0.  1.
         22    1    1    2    0    0  0.78059154026E+03  0.14270191716E+03 -0.14527753082E+02  0.79366116542E+03  0.00000000000E+00 0. -1.
<mgrwt>
<rscale>  0 0.17403529E+04</rscale>
<asrwt>0</asrwt>
<pdfrwt beam="1">  1        2 0.88769534E-01 0.17403529E+04</pdfrwt>
<pdfrwt beam="2">  1       -2 0.20189428E+00 0.17403529E+04</pdfrwt>
<totfact> 0.63683988E+00</totfact>
</mgrwt>
</event>
<event>
 6    1  0.1637818E-005  0.1859541E+04  0.7818608E-02  0.8675262E-01
         -2   -1    0    0    0  501 -0.00000000000E+00  0.00000000000E+00  0.35100373379E+03  0.35100373379E+03  0.00000000000E+00 0. -1.
          2   -1    0    0  501    0  0.00000000000E+00 -0.00000000000E+00 -0.24628599505E+04  0.24628599505E+04  0.00000000000E+00 0.  1.
         23    2    1    2    0    0  0.54383904038E+03  0.66338314598E+03 -0.15923299657E+04  0.18109949861E+04  0.91378444008E+02 0.  0.
         11    1    3    3    0    0  0.11069246845E+03  0.19823286445E+03 -0.41312633704E+03  0.47140477456E+03  0.00000000000E+00 0. -1.
        -11    1    3    3    0    0  0.43314657194E+03  0.46515028153E+03 -0.11792036286E+04  0.13395902116E+04  0.00000000000E+00 0.  1.
         22    1    1    2    0    0 -0.54383904038E+03 -0.66338314598E+03 -0.51952625105E+03  0.10028686982E+04  0.00000000000E+00 0. -1.
<mgrwt>
<rscale>  0 0.18595408E+04</rscale>
<asrwt>0</asrwt>
<pdfrwt beam="1">  1        2 0.37890153E+00 0.18595408E+04</pdfrwt>
<pdfrwt beam="2">  1       -2 0.54000574E-01 0.18595408E+04</pdfrwt>
<totfact> 0.11109204E+01</totfact>
</mgrwt>
</event>
<event>
 6    1  0.1637818E-005  0.1064921E+04  0.7818608E-02  0.9240073E-01
          2   -1    0    0  501    0  0.00000000000E+00  0.00000000000E+00  0.15663731997E+04  0.15663731997E+04  0.00000000000E+00 0. -1.
         -2   -1    0    0    0  501 -0.00000000000E+00 -0.00000000000E+00 -0.18100050374E+03  0.18100050374E+03  0.00000000000E+00 0.  1.
         23    2    1    2    0    0 -0.10192324464E+03 -0.51610650721E+03  0.78385394220E+03  0.94826226834E+03  0.89554744540E+02 0.  0.
         11    1    3    3    0    0 -0.83516349264E+02 -0.34000806549E+03  0.44785783817E+03  0.56846909186E+03  0.00000000000E+00 0.  1.
        -11    1    3    3    0    0 -0.18406895377E+02 -0.17609844171E+03  0.33599610404E+03  0.37979317648E+03  0.00000000000E+00 0. -1.
         22    1    1    2    0    0  0.10192324464E+03  0.51610650721E+03  0.60151875372E+03  0.79911143507E+03  0.00000000000E+00 0.  1.
<mgrwt>
<rscale>  0 0.10649213E+04</rscale>
<asrwt>0</asrwt>
<pdfrwt beam="1">  1        2 0.24098048E+00 0.10649213E+04</pdfrwt>
<pdfrwt beam="2">  1       -2 0.27846232E-01 0.10649213E+04</pdfrwt>
<totfact> 0.13637080E+02</totfact>
</mgrwt>
</event>
<event>
 6    1  0.1637818E-005  0.1466844E+04  0.7818608E-02  0.8906805E-01
         -1   -1    0    0    0  501 -0.00000000000E+00  0.00000000000E+00  0.66699429625E+03  0.66699429625E+03  0.00000000000E+00 0.  1.
          1   -1    0    0  501    0  0.00000000000E+00 -0.00000000000E+00 -0.80646568140E+03  0.80646568140E+03  0.00000000000E+00 0. -1.
         23    2    1    2    0    0  0.25202761272E+03 -0.82305518478E+02 -0.75392569623E+03  0.80424684541E+03  0.90093934126E+02 0.  0.
         11    1    3    3    0    0  0.21556619904E+03 -0.34028079648E+02 -0.55658680140E+03  0.59784242394E+03  0.00000000000E+00 0. -1.
        -11    1    3    3    0    0  0.36461413682E+02 -0.48277438830E+02 -0.19733889483E+03  0.20640442146E+03  0.00000000000E+00 0.  1.
         22    1    1    2    0    0 -0.25202761272E+03  0.82305518478E+02  0.61445431108E+03  0.66921313223E+03  0.00000000000E+00 0.  1.
<mgrwt>
<rscale>  0 0.14668442E+04</rscale>
<asrwt>0</asrwt>
<pdfrwt beam="1">  1        1 0.12407164E+00 0.14668442E+04</pdfrwt>
<pdfrwt beam="2">  1       -1 0.10261451E+00 0.14668442E+04</pdfrwt>
<totfact> 0.19017678E+01</totfact>
</mgrwt>
</event>
<event>
 6    1  0.1637818E-005  0.1787566E+04  0.7818608E-02  0.8712940E-01
          4   -1    0    0  501    0  0.00000000000E+00  0.00000000000E+00  0.16234217522E+04  0.16234217522E+04  0.00000000000E+00 0. -1.
         -4   -1    0    0    0  501 -0.00000000000E+00 -0.00000000000E+00 -0.49207690655E+03  0.49207690655E+03  0.00000000000E+00 0.  1.
         23    2    1    2    0    0  0.29852189251E+03  0.58552791953E+03  0.12800029149E+04  0.14416607803E+04  0.89554889783E+02 0.  0.
         11    1    3    3    0    0  0.20000628183E+03  0.32721809403E+03  0.67138249394E+03  0.77319379653E+03  0.00000000000E+00 0.  1.
        -11    1    3    3    0    0  0.98515610682E+02  0.25830982550E+03  0.60862042100E+03  0.66846698374E+03  0.00000000000E+00 0. -1.
         22    1    1    2    0    0 -0.29852189251E+03 -0.58552791953E+03 -0.14865806932E+03  0.67383787845E+03  0.00000000000E+00 0.  1.
<mgrwt>
<rscale>  0 0.17875663E+04</rscale>
<asrwt>0</asrwt>
<pdfrwt beam="1">  1        4 0.24975719E+00 0.17875663E+04</pdfrwt>
<pdfrwt beam="2">  1       -4 0.75704140E-01 0.17875663E+04</pdfrwt>
<totfact> 0.18854230E-01</totfact>
</mgrwt>
</event>
<event>
 6    1  0.1637818E-005  0.3428499E+03  0.7818608E-02  0.1065589E+00
          2   -1    0    0  501    0  0.00000000000E+00  0.00000000000E+00  0.90983053361E+03  0.90983053361E+03  0.00000000000E+00 0. -1.
         -2   -1    0    0    0  501 -0.00000000000E+00 -0.00000000000E+00 -0.32298891161E+02  0.32298891161E+02  0.00000000000E+00 0.  1.
         23    2    1    2    0    0 -0.10237169079E+01  0.11402613488E+03  0.77572997138E+03  0.78926809001E+03  0.90466137202E+02 0.  0.
         13    1    3    3    0    0 -0.27002941774E+02  0.61799099641E+02  0.21058245425E+03  0.22111819830E+03  0.00000000000E+00 0. -1.
        -13    1    3    3    0    0  0.25979224866E+02  0.52227035236E+02  0.56514751713E+03  0.56814989171E+03  0.00000000000E+00 0.  1.
         22    1    1    2    0    0  0.10237169079E+01 -0.11402613488E+03  0.10180167106E+03  0.15286133475E+03  0.00000000000E+00 0.  1.
<mgrwt>
<rscale>  0 0.34284992E+03</rscale>
<asrwt>0</asrwt>
<pdfrwt beam="1">  1        2 0.13997391E+00 0.34284992E+03</pdfrwt>
<pdfrwt beam="2">  1       -2 0.49690609E-02 0.34284992E+03</pdfrwt>
<totfact> 0.59407301E+03</totfact>
</mgrwt>
</event>
<event>
 6    1  0.1637818E-005  0.1530076E+04  0.7818608E-02  0.8864695E-01
          1   -1    0    0  501    0  0.00000000000E+00  0.00000000000E+00  0.14559999592E+04  0.14559999592E+04  0.00000000000E+00 0. -1.
         -1   -1    0    0    0  501 -0.00000000000E+00 -0.00000000000E+00 -0.40198029847E+03  0.40198029847E+03  0.00000000000E+00 0.  1.
         23    2    1    2    0    0 -0.60436381446E+03  0.86315045887E+02  0.10832530419E+04  0.12467843006E+04  0.91258052676E+02 0.  0.
         13    1    3    3    0    0 -0.19092681877E+03  0.92656130506E+01  0.41974585845E+03  0.46122173344E+03  0.00000000000E+00 0. -1.
        -13    1    3    3    0    0 -0.41343699570E+03  0.77049432837E+02  0.66350718341E+03  0.78556256718E+03  0.00000000000E+00 0.  1.
         22    1    1    2    0    0  0.60436381446E+03 -0.86315045887E+02 -0.29233381104E+02  0.61119595708E+03  0.00000000000E+00 0.  1.
<mgrwt>
<rscale>  0 0.15300762E+04</rscale>
<asrwt>0</asrwt>
<pdfrwt beam="1">  1        1 0.22399999E+00 0.15300762E+04</pdfrwt>
<pdfrwt beam="2">  1       -1 0.61843124E-01 0.15300762E+04</pdfrwt>
<totfact> 0.17962863E+01</totfact>
</mgrwt>
</event>
<event>
 6    1  0.1637818E-005  0.7401791E+04  0.7818608E-02  0.7537361E-01
          2   -1    0    0  501    0  0.00000000000E+00  0.00000000000E+00  0.26711688833E+04  0.26711688833E+04  0.00000000000E+00 0. -1.
         -2   -1    0    0    0  501 -0.00000000000E+00 -0.00000000000E+00 -0.51275788063E+04  0.51275788063E+04  0.00000000000E+00 0.  1.
         23    2    1    2    0    0 -0.10414479475E+04  0.34919216344E+04 -0.19066342827E+04  0.41135904632E+04  0.90783712936E+02 0.  0.
         11    1    3    3    0    0 -0.99641447459E+03  0.32663573996E+04 -0.17798770797E+04  0.38509602550E+04  0.00000000000E+00 0.  1.
        -11    1    3    3    0    0 -0.45033472867E+02  0.22556423486E+03 -0.12675720296E+03  0.26263020814E+03  0.00000000000E+00 0. -1.
         22    1    1    2    0    0  0.10414479475E+04 -0.34919216344E+04 -0.54977564037E+03  0.36851572264E+04  0.00000000000E+00 0. -1.
<mgrwt>
<rscale>  0 0.74017914E+04</rscale>
<asrwt>0</asrwt>
<pdfrwt beam="1">  1        2 0.41094906E+00 0.74017914E+04</pdfrwt>
<pdfrwt beam="2">  1       -2 0.78885828E+00 0.74017914E+04</pdfrwt>
<totfact> 0.15431974E-04</totfact>
</mgrwt>
</event>
<event>
 6    1  0.1637818E-005  0.1691466E+04  0.7818608E-02  0.8766247E-01
         -1   -1    0    0    0  501 -0.00000000000E+00  0.00000000000E+00  0.59223672340E+03  0.59223672340E+03  0.00000000000E+00 0.  1.
          1   -1    0    0  501    0  0.00000000000E+00 -0.00000000000E+00 -0.12077335353E+04  0.12077335353E+04  0.00000000000E+00 0. -1.
         23    2    1    2    0    0  0.50157838864E+02 -0.65112797609E+03 -0.87623239640E+03  0.10967871424E+04  0.93141683736E+02 0.  0.
         13    1    3    3    0    0  0.16062007008E+02 -0.48008726028E+03 -0.69893214592E+03  0.84808484844E+03  0.00000000000E+00 0.  1.
        -13    1    3    3    0    0  0.34095831856E+02 -0.17104071582E+03 -0.17730025048E+03  0.24870229399E+03  0.00000000000E+00 0. -1.
         22    1    1    2    0    0 -0.50157838864E+02  0.65112797609E+03  0.26073558446E+03  0.70318311630E+03  0.00000000000E+00 0.  1.
<mgrwt>
<rscale>  0 0.16914658E+04</rscale>
<asrwt>0</asrwt>
<pdfrwt beam="1">  1        1 0.18580516E+00 0.16914658E+04</pdfrwt>
<pdfrwt beam="2">  1       -1 0.91113344E-01 0.16914658E+04</pdfrwt>
<totfact> 0.11808090E+01</totfact>
</mgrwt>
</event>
<event>
 6    1  0.1637818E-005  0.3454007E+04  0.7818608E-02  0.8124777E-01
         -2   -1    0    0    0  501 -0.00000000000E+00  0.00000000000E+00  0.10907908291E+04  0.10907908291E+04  0.00000000000E+00 0. -1.
          2   -1    0    0  501    0  0.00000000000E+00 -0.00000000000E+00 -0.27342917588E+04  0.27342917588E+04  0.00000000000E+00 0.  1.
         23    2    1    2    0    0 -0.12088587659E+04  0.11058252098E+04 -0.22286794225E+03  0.16565837995E+04  0.10203359614E+03 0.  0.
         13    1    3    3    0    0 -0.34618762349E+03  0.33563462708E+03 -0.20974072892E+02  0.48263483638E+03  0.00000000000E+00 0. -1.
        -13    1    3    3    0    0 -0.86267114238E+03  0.77019058272E+03 -0.20189386936E+03  0.11739489632E+04  0.00000000000E+00 0.  1.
         22    1    1    2    0    0  0.12088587659E+04 -0.11058252098E+04 -0.14206329874E+04  0.21684987884E+04  0.00000000000E+00 0. -1.
<mgrwt>
<rscale>  0 0.34540066E+04</rscale>
<asrwt>0</asrwt>
<pdfrwt beam="1">  1        2 0.42066026E+00 0.34540066E+04</pdfrwt>
<pdfrwt beam="2">  1       -2 0.16781398E+00 0.34540066E+04</pdfrwt>
<totfact> 0.46144748E-01</totfact>
</mgrwt>
</event>
<event>
 6    1  0.1637818E-005  0.8278436E+03  0.7818608E-02  0.9520567E-01
          1   -1    0    0  501    0  0.00000000000E+00  0.00000000000E+00  0.14009268518E+04  0.14009268518E+04  0.00000000000E+00 0. -1.
         -1   -1    0    0    0  501 -0.00000000000E+00 -0.00000000000E+00 -0.12229850971E+03  0.12229850971E+03  0.00000000000E+00 0.  1.
         23    2    1    2    0    0  0.26847933222E+03  0.29988651651E+03  0.77948000918E+03  0.88200610662E+03  0.91283146230E+02 0.  0.
         11    1    3    3    0    0  0.40109558149E+02  0.19298642145E+02  0.14446474463E+03  0.15116638742E+03  0.00000000000E+00 0. -1.
        -11    1    3    3    0    0  0.22836977407E+03  0.28058787437E+03  0.63501526455E+03  0.73083971920E+03  0.00000000000E+00 0.  1.
         22    1    1    2    0    0 -0.26847933222E+03 -0.29988651651E+03  0.49914833295E+03  0.64121925493E+03  0.00000000000E+00 0.  1.
<mgrwt>
<rscale>  0 0.82784362E+03</rscale>
<asrwt>0</asrwt>
<pdfrwt beam="1">  1        1 0.21552720E+00 0.82784362E+03</pdfrwt>
<pdfrwt beam="2">  1       -1 0.18815156E-01 0.82784362E+03</pdfrwt>
<totfact> 0.17584084E+02</totfact>
</mgrwt>
</event>
<event>
 6    1  0.1637818E-005  0.1881109E+04  0.7818608E-02  0.8664317E-01
          1   -1    0    0  501    0  0.00000000000E+00  0.00000000000E+00  0.17267063194E+04  0.17267063194E+04  0.00000000000E+00 0. -1.
         -1   -1    0    0    0  501 -0.00000000000E+00 -0.00000000000E+00 -0.51232933928E+03  0.51232933928E+03  0.00000000000E+00 0.  1.
         23    2    1    2    0    0 -0.59642613397E+03 -0.32580316185E+03  0.13786680798E+04  0.15398479878E+04  0.92381371157E+02 0.  0.
         11    1    3    3    0    0 -0.45943036722E+03 -0.20867015120E+03  0.10518123215E+04  0.11665884682E+04  0.00000000000E+00 0. -1.
        -11    1    3    3    0    0 -0.13699576675E+03 -0.11713301065E+03  0.32685575829E+03  0.37325951966E+03  0.00000000000E+00 0.  1.
         22    1    1    2    0    0  0.59642613397E+03  0.32580316185E+03 -0.16429109976E+03  0.69918767081E+03  0.00000000000E+00 0.  1.
<mgrwt>
<rscale>  0 0.18811085E+04</rscale>
<asrwt>0</asrwt>
<pdfrwt beam="1">  1        1 0.26564712E+00 0.18811085E+04</pdfrwt>
<pdfrwt beam="2">  1       -1 0.78819899E-01 0.18811085E+04</pdfrwt>
<totfact> 0.68947850E+00</totfact>
</mgrwt>
</event>
<event>
 6    1  0.1637818E-005  0.1294548E+04  0.7818608E-02  0.9033900E-01
          1   -1    0    0  501    0  0.00000000000E+00  0.00000000000E+00  0.11259307945E+04  0.11259307945E+04  0.00000000000E+00 0. -1.
         -1   -1    0    0    0  501 -0.00000000000E+00 -0.00000000000E+00 -0.37210444952E+03  0.37210444952E+03  0.00000000000E+00 0.  1.
         23    2    1    2    0    0 -0.41832227095E+03 -0.16847419529E+03 -0.15072342802E+03  0.48729919109E+03  0.10661084858E+03 0.  0.
         11    1    3    3    0    0 -0.30887688402E+03 -0.14968760127E+03 -0.15400829916E+03  0.37620455030E+03  0.00000000000E+00 0. -1.
        -11    1    3    3    0    0 -0.10944538692E+03 -0.18786594021E+02  0.32848711414E+01  0.11109464079E+03  0.00000000000E+00 0.  1.
         22    1    1    2    0    0  0.41832227095E+03  0.16847419529E+03  0.90454977301E+03  0.10107360529E+04  0.00000000000E+00 0. -1.
<mgrwt>
<rscale>  0 0.12945484E+04</rscale>
<asrwt>0</asrwt>
<pdfrwt beam="1">  1        1 0.17322012E+00 0.12945484E+04</pdfrwt>
<pdfrwt beam="2">  1       -1 0.57246839E-01 0.12945484E+04</pdfrwt>
<totfact> 0.36815787E+01</totfact>
</mgrwt>
</event>
<event>
 6    1  0.1637818E-005  0.1151376E+04  0.7818608E-02  0.9156515E-01
          2   -1    0    0  501    0  0.00000000000E+00  0.00000000000E+00  0.66798878527E+03  0.66798878527E+03  0.00000000000E+00 0. -1.
         -2   -1    0    0    0  501 -0.00000000000E+00 -0.00000000000E+00 -0.49614145752E+03  0.49614145752E+03  0.00000000000E+00 0.  1.
         23    2    1    2    0    0 -0.16927659977E+03 -0.19482976399E+03  0.60269744349E+03  0.66189023404E+03  0.90781437323E+02 0.  0.
         13    1    3    3    0    0 -0.86319003043E+01 -0.56049055998E+02  0.18255518894E+03  0.19116067427E+03  0.00000000000E+00 0.  1.
        -13    1    3    3    0    0 -0.16064469946E+03 -0.13878070799E+03  0.42014225455E+03  0.47072955977E+03  0.00000000000E+00 0. -1.
         22    1    1    2    0    0  0.16927659977E+03  0.19482976399E+03 -0.43085011574E+03  0.50224000876E+03  0.00000000000E+00 0.  1.
<mgrwt>
<rscale>  0 0.11513764E+04</rscale>
<asrwt>0</asrwt>
<pdfrwt beam="1">  1        2 0.10276751E+00 0.11513764E+04</pdfrwt>
<pdfrwt beam="2">  1       -2 0.76329455E-01 0.11513764E+04</pdfrwt>
<totfact> 0.66094961E+01</totfact>
</mgrwt>
</event>
<event>
 6    1  0.1637818E-005  0.6137144E+03  0.7818608E-02  0.9877355E-01
         -1   -1    0    0    0  501 -0.00000000000E+00  0.00000000000E+00  0.57685465419E+03  0.57685465419E+03  0.00000000000E+00 0.  1.
          1   -1    0    0  501    0  0.00000000000E+00 -0.00000000000E+00 -0.16323234917E+03  0.16323234917E+03  0.00000000000E+00 0. -1.
         23    2    1    2    0    0  0.65873520062E+02 -0.14421660443E+03  0.51843525533E+03  0.55002516029E+03  0.92816018752E+02 0.  0.
         11    1    3    3    0    0 -0.17131608839E+02 -0.68517890315E+02  0.17639430278E+03  0.19000827184E+03  0.00000000000E+00 0. -1.
        -11    1    3    3    0    0  0.83005128902E+02 -0.75698714115E+02  0.34204095255E+03  0.36001688845E+03  0.00000000000E+00 0.  1.
         22    1    1    2    0    0 -0.65873520062E+02  0.14421660443E+03 -0.10481295031E+03  0.19006184307E+03  0.00000000000E+00 0. -1.
<mgrwt>
<rscale>  0 0.61371440E+03</rscale>
<asrwt>0</asrwt>
<pdfrwt beam="1">  1        1 0.25112669E-01 0.61371440E+03</pdfrwt>
<pdfrwt beam="2">  1       -1 0.88746869E-01 0.61371440E+03</pdfrwt>
<totfact> 0.24582961E+02</totfact>
</mgrwt>
</event>
<event>
 6    1  0.1637818E-005  0.2448739E+04  0.7818608E-02  0.8421478E-01
          1   -1    0    0  501    0  0.00000000000E+00  0.00000000000E+00  0.14004766301E+04  0.14004766301E+04  0.00000000000E+00 0. -1.
         -1   -1    0    0    0  501 -0.00000000000E+00 -0.00000000000E+00 -0.10704078421E+04  0.10704078421E+04  0.00000000000E+00 0.  1.
         23    2    1    2    0    0 -0.45590191097E+03 -0.10018262005E+04 -0.37197223038E+03  0.11653715921E+04  0.90693544009E+02 0.  0.
         13    1    3    3    0    0 -0.25227868650E+03 -0.44828442647E+03 -0.18464553040E+03  0.54653218988E+03  0.00000000000E+00 0.  1.
        -13    1    3    3    0    0 -0.20362322447E+03 -0.55354177406E+03 -0.18732669998E+03  0.61883940219E+03  0.00000000000E+00 0. -1.
         22    1    1    2    0    0  0.45590191097E+03  0.10018262005E+04  0.70204101844E+03  0.13055128801E+04  0.00000000000E+00 0. -1.
<mgrwt>
<rscale>  0 0.24487394E+04</rscale>
<asrwt>0</asrwt>
<pdfrwt beam="1">  1        1 0.21545794E+00 0.24487394E+04</pdfrwt>
<pdfrwt beam="2">  1       -1 0.16467813E+00 0.24487394E+04</pdfrwt>
<totfact> 0.18461558E+00</totfact>
</mgrwt>
</event>
<event>
 6    1  0.1637818E-005  0.1196437E+04  0.7818608E-02  0.9115981E-01
          2   -1    0    0  501    0  0.00000000000E+00  0.00000000000E+00  0.95916289236E+03  0.95916289236E+03  0.00000000000E+00 0.  1.
         -2   -1    0    0    0  501 -0.00000000000E+00 -0.00000000000E+00 -0.37310151299E+03  0.37310151299E+03  0.00000000000E+00 0. -1.
         23    2    1    2    0    0  0.91251324334E+02  0.36130988290E+03  0.81043343522E+03  0.89727652606E+03  0.97114240049E+02 0.  0.
         13    1    3    3    0    0  0.81181923732E+02  0.12819002048E+03  0.32481909785E+03  0.35851169077E+03  0.00000000000E+00 0.  1.
        -13    1    3    3    0    0  0.10069400602E+02  0.23311986243E+03  0.48561433738E+03  0.53876483530E+03  0.00000000000E+00 0. -1.
         22    1    1    2    0    0 -0.91251324334E+02 -0.36130988290E+03 -0.22437205586E+03  0.43498787929E+03  0.00000000000E+00 0. -1.
<mgrwt>
<rscale>  0 0.11964366E+04</rscale>
<asrwt>0</asrwt>
<pdfrwt beam="1">  1        2 0.14756352E+00 0.11964366E+04</pdfrwt>
<pdfrwt beam="2">  1       -2 0.57400233E-01 0.11964366E+04</pdfrwt>
<totfact> 0.75149045E+01</totfact>
</mgrwt>
</event>
<event>
 6    1  0.1637818E-005  0.7760649E+03  0.7818608E-02  0.9595323E-01
          2   -1    0    0  501    0  0.00000000000E+00  0.00000000000E+00  0.84743079182E+03  0.84743079182E+03  0.00000000000E+00 0. -1.
         -2   -1    0    0    0  501 -0.00000000000E+00 -0.00000000000E+00 -0.17767725146E+03  0.17767725146E+03  0.00000000000E+00 0.  1.
         23    2    1    2    0    0  0.28104288204E+03 -0.25600770487E+03  0.27794096313E+03  0.47917568284E+03  0.88504856029E+02 0.  0.
         13    1    3    3    0    0  0.13536878234E+03 -0.66389447702E+02  0.96431582591E+02  0.17897294801E+03  0.00000000000E+00 0.  1.
        -13    1    3    3    0    0  0.14567409970E+03 -0.18961825717E+03  0.18150938054E+03  0.30020273483E+03  0.00000000000E+00 0. -1.
         22    1    1    2    0    0 -0.28104288204E+03  0.25600770487E+03  0.39181257724E+03  0.54593236044E+03  0.00000000000E+00 0. -1.
<mgrwt>
<rscale>  0 0.77606488E+03</rscale>
<asrwt>0</asrwt>
<pdfrwt beam="1">  1        2 0.13037397E+00 0.77606488E+03</pdfrwt>
<pdfrwt beam="2">  1       -2 0.27334962E-01 0.77606488E+03</pdfrwt>
<totfact> 0.39008498E+02</totfact>
</mgrwt>
</event>
<event>
 6    1  0.1637818E-005  0.3555928E+03  0.7818608E-02  0.1060343E+00
         -1   -1    0    0    0  501 -0.00000000000E+00  0.00000000000E+00  0.63157413035E+02  0.63157413035E+02  0.00000000000E+00 0. -1.
          1   -1    0    0  501    0  0.00000000000E+00 -0.00000000000E+00 -0.50052010351E+03  0.50052010351E+03  0.00000000000E+00 0.  1.
         23    2    1    2    0    0 -0.61696745782E+01  0.84267437559E+02 -0.94994676921E+01  0.12755138418E+03  0.95079176500E+02 0.  0.
         11    1    3    3    0    0 -0.41695788104E+02  0.77592444994E+01 -0.81438862352E+01  0.43186427310E+02  0.00000000000E+00 0. -1.
        -11    1    3    3    0    0  0.35526113525E+02  0.76508193059E+02 -0.13555814569E+01  0.84364956875E+02  0.00000000000E+00 0.  1.
         22    1    1    2    0    0  0.61696745782E+01 -0.84267437559E+02 -0.42786322278E+03  0.43612613236E+03  0.00000000000E+00 0.  1.
<mgrwt>
<rscale>  0 0.35559277E+03</rscale>
<asrwt>0</asrwt>
<pdfrwt beam="1">  1        1 0.77003094E-01 0.35559277E+03</pdfrwt>
<pdfrwt beam="2">  1       -1 0.97165249E-02 0.35559277E+03</pdfrwt>
<totfact> 0.28835622E+03</totfact>
</mgrwt>
</event>
<event>
 6    1  0.1637818E-005  0.1134113E+04  0.7818608E-02  0.9172567E-01
         -2   -1    0    0    0  501 -0.00000000000E+00  0.00000000000E+00  0.55817545214E+03  0.55817545214E+03  0.00000000000E+00 0. -1.
          2   -1    0    0  501    0  0.00000000000E+00 -0.00000000000E+00 -0.57607856309E+03  0.57607856309E+03  0.00000000000E+00 0.  1.
         23    2    1    2    0    0 -0.82035397409E+02 -0.69559086046E+02 -0.56212156032E+03  0.57950903462E+03  0.91004394118E+02 0.  0.
         11    1    3    3    0    0 -0.52550572125E+02 -0.49589562335E+02 -0.51701556948E+03  0.52204002376E+03  0.00000000000E+00 0. -1.
        -11    1    3    3    0    0 -0.29484825284E+02 -0.19969523710E+02 -0.45105990835E+02  0.57469010853E+02  0.00000000000E+00 0.  1.
         22    1    1    2    0    0  0.82035397409E+02  0.69559086046E+02  0.54421844937E+03  0.55474498061E+03  0.00000000000E+00 0. -1.
<mgrwt>
<rscale>  0 0.11341127E+04</rscale>
<asrwt>0</asrwt>
<pdfrwt beam="1">  1        2 0.88627471E-01 0.11341127E+04</pdfrwt>
<pdfrwt beam="2">  1       -2 0.85873147E-01 0.11341127E+04</pdfrwt>
<totfact> 0.60787756E+01</totfact>
</mgrwt>
</event>
<event>
 6    1  0.1637818E-005  0.5091111E+04  0.7818608E-02  0.7814604E-01
         -2   -1    0    0    0  501 -0.00000000000E+00  0.00000000000E+00  0.19781541392E+04  0.19781541392E+04  0.00000000000E+00 0. -1.
          2   -1    0    0  501    0  0.00000000000E+00 -0.00000000000E+00 -0.32757073570E+04  0.32757073570E+04  0.00000000000E+00 0.  1.
         23    2    1    2    0    0  0.23522943057E+04 -0.94282691869E+03 -0.88883340993E+03  0.26869055207E+04  0.85002043536E+02 0.  0.
         13    1    3    3    0    0  0.13965926792E+04 -0.57755562227E+03 -0.57052261836E+03  0.16154063472E+04  0.00000000000E+00 0.  1.
        -13    1    3    3    0    0  0.95570162645E+03 -0.36527129642E+03 -0.31831079157E+03  0.10714991735E+04  0.00000000000E+00 0. -1.
         22    1    1    2    0    0 -0.23522943057E+04  0.94282691869E+03 -0.40871980788E+03  0.25669559756E+04  0.00000000000E+00 0. -1.
<mgrwt>
<rscale>  0 0.50911115E+04</rscale>
<asrwt>0</asrwt>
<pdfrwt beam="1">  1        2 0.50395497E+00 0.50911115E+04</pdfrwt>
<pdfrwt beam="2">  1       -2 0.30433141E+00 0.50911115E+04</pdfrwt>
<totfact> 0.24954969E-02</totfact>
</mgrwt>
</event>
<event>
 6    1  0.1637818E-005  0.3696771E+04  0.7818608E-02  0.8068678E-01
         -2   -1    0    0    0  501 -0.00000000000E+00  0.00000000000E+00  0.27972088964E+04  0.27972088964E+04  0.00000000000E+00 0.  1.
          2   -1    0    0  501    0  0.00000000000E+00 -0.00000000000E+00 -0.12214065845E+04  0.12214065845E+04  0.00000000000E+00 0. -1.
         23    2    1    2    0    0 -0.87610307312E+03 -0.16204397376E+04  0.63855277855E+03  0.19517777451E+04  0.91132745656E+02 0.  0.
         13    1    3    3    0    0 -0.51952483243E+03 -0.94360142403E+03  0.32652894679E+03  0.11255713447E+04  0.00000000000E+00 0. -1.
        -13    1    3    3    0    0 -0.35657824069E+03 -0.67683831360E+03  0.31202383176E+03  0.82620640041E+03  0.00000000000E+00 0.  1.
         22    1    1    2    0    0  0.87610307312E+03  0.16204397376E+04  0.93724953337E+03  0.20668377357E+04  0.00000000000E+00 0.  1.
<mgrwt>
<rscale>  0 0.36967712E+04</rscale>
<asrwt>0</asrwt>
<pdfrwt beam="1">  1        2 0.18790871E+00 0.36967712E+04</pdfrwt>
<pdfrwt beam="2">  1       -2 0.43033983E+00 0.36967712E+04</pdfrwt>
<totfact> 0.69606706E-02</totfact>
</mgrwt>
</event>
<event>
 6    1  0.1637818E-005  0.5471134E+03  0.7818608E-02  0.1002164E+00
         -1   -1    0    0    0  501 -0.00000000000E+00  0.00000000000E+00  0.15820349632E+03  0.15820349632E+03  0.00000000000E+00 0.  1.
          1   -1    0    0  501    0  0.00000000000E+00 -0.00000000000E+00 -0.47301912009E+03  0.47301912009E+03  0.00000000000E+00 0. -1.
         23    2    1    2    0    0 -0.75303188203E+02  0.78866366203E+01 -0.45676292883E+03  0.47034438108E+03  0.82817235360E+02 0.  0.
         11    1    3    3    0    0 -0.48141999890E+02  0.42500743280E+02 -0.32924430326E+03  0.33544861985E+03  0.00000000000E+00 0.  1.
        -11    1    3    3    0    0 -0.27161188313E+02 -0.34614106660E+02 -0.12751862557E+03  0.13489576123E+03  0.00000000000E+00 0. -1.
         22    1    1    2    0    0  0.75303188203E+02 -0.78866366203E+01  0.14194730506E+03  0.16087823533E+03  0.00000000000E+00 0.  1.
<mgrwt>
<rscale>  0 0.54711344E+03</rscale>
<asrwt>0</asrwt>
<pdfrwt beam="1">  1        1 0.72772172E-01 0.54711344E+03</pdfrwt>
<pdfrwt beam="2">  1       -1 0.24339000E-01 0.54711344E+03</pdfrwt>
<totfact> 0.70680387E+02</totfact>
</mgrwt>
</event>
<event>
 6    1  0.1637818E-005  0.4580016E+04  0.7818608E-02  0.7896776E-01
         -1   -1    0    0    0  501 -0.00000000000E+00  0.00000000000E+00  0.18619103480E+04  0.18619103480E+04  0.00000000000E+00 0.  1.
          1   -1    0    0  501    0  0.00000000000E+00 -0.00000000000E+00 -0.28165357711E+04  0.28165357711E+04  0.00000000000E+00 0. -1.
         23    2    1    2    0    0 -0.91207514168E+03  0.37510892096E+03 -0.25875663507E+04  0.27708078306E+04  0.96377631621E+02 0.  0.
         11    1    3    3    0    0 -0.46780511642E+03  0.16247603230E+03 -0.14075982610E+04  0.14921705507E+04  0.00000000000E+00 0. -1.
        -11    1    3    3    0    0 -0.44427002526E+03  0.21263288866E+03 -0.11799680897E+04  0.12786372798E+04  0.00000000000E+00 0.  1.
         22    1    1    2    0    0  0.91207514168E+03 -0.37510892096E+03  0.16329409276E+04  0.19076382885E+04  0.00000000000E+00 0.  1.
<mgrwt>
<rscale>  0 0.45800162E+04</rscale>
<asrwt>0</asrwt>
<pdfrwt beam="1">  1        1 0.43331320E+00 0.45800162E+04</pdfrwt>
<pdfrwt beam="2">  1       -1 0.28644775E+00 0.45800162E+04</pdfrwt>
<totfact> 0.24477711E-02</totfact>
</mgrwt>
</event>
<event>
 6    1  0.1637818E-005  0.1124933E+04  0.7818608E-02  0.9181225E-01
         -1   -1    0    0    0  501 -0.00000000000E+00  0.00000000000E+00  0.36869452968E+03  0.36869452968E+03  0.00000000000E+00 0.  1.
          1   -1    0    0  501    0  0.00000000000E+00 -0.00000000000E+00 -0.85807843554E+03  0.85807843554E+03  0.00000000000E+00 0. -1.
         23    2    1    2    0    0  0.35871318742E+03 -0.11684400523E+03  0.20339469661E+03  0.43793212929E+03  0.89930389005E+02 0.  0.
         11    1    3    3    0    0  0.16605390777E+03 -0.22081740868E+02  0.52653901580E+02  0.17559594789E+03  0.00000000000E+00 0. -1.
        -11    1    3    3    0    0  0.19265927965E+03 -0.94762264359E+02  0.15074079503E+03  0.26233618139E+03  0.00000000000E+00 0.  1.
         22    1    1    2    0    0 -0.35871318742E+03  0.11684400523E+03 -0.69277860247E+03  0.78884083593E+03  0.00000000000E+00 0. -1.
<mgrwt>
<rscale>  0 0.11249335E+04</rscale>
<asrwt>0</asrwt>
<pdfrwt beam="1">  1        1 0.13201207E+00 0.11249335E+04</pdfrwt>
<pdfrwt beam="2">  1       -1 0.56722236E-01 0.11249335E+04</pdfrwt>
<totfact> 0.61706774E+01</totfact>
</mgrwt>
</event>
<event>
 6    1  0.1637818E-005  0.2905751E+04  0.7818608E-02  0.8271169E-01
          2   -1    0    0  501    0  0.00000000000E+00  0.00000000000E+00  0.19061973457E+04  0.19061973457E+04  0.00000000000E+00 0. -1.
         -2   -1    0    0    0  501 -0.00000000000E+00 -0.00000000000E+00 -0.11073600425E+04  0.11073600425E+04  0.00000000000E+00 0.  1.
         23    2    1    2    0    0 -0.35720664352E+03 -0.20650714998E+03  0.18429842505E+04  0.18908443187E+04  0.91975545111E+02 0.  0.
         11    1    3    3    0    0 -0.29986091117E+03 -0.14077563601E+03  0.15571564327E+04  0.15920020419E+04  0.00000000000E+00 0.  1.
        -11    1    3    3    0    0 -0.57345732344E+02 -0.65731513969E+02  0.28582781780E+03  0.29884227675E+03  0.00000000000E+00 0. -1.
         22    1    1    2    0    0  0.35720664352E+03  0.20650714998E+03 -0.10441469472E+04  0.11227130695E+04  0.00000000000E+00 0.  1.
<mgrwt>
<rscale>  0 0.29057507E+04</rscale>
<asrwt>0</asrwt>
<pdfrwt beam="1">  1        2 0.29326113E+00 0.29057507E+04</pdfrwt>
<pdfrwt beam="2">  1       -2 0.17036308E+00 0.29057507E+04</pdfrwt>
<totfact> 0.13770612E+00</totfact>
</mgrwt>
</event>
<event>
 6    1  0.1893604E-005  0.3526417E+04  0.7818608E-02  0.8107558E-01
          1   -1    0    0  501    0  0.00000000000E+00  0.00000000000E+00  0.20232614840E+04  0.20232614840E+04  0.00000000000E+00 0. -1.
         -1   -1    0    0    0  501 -0.00000000000E+00 -0.00000000000E+00 -0.15365808210E+04  0.15365808210E+04  0.00000000000E+00 0.  1.
         23    2    1    2    0    0 -0.55776560708E+03 -0.14593820743E+04 -0.57906934862E+03  0.16686200551E+04  0.89850244600E+02 0.  0.
         13    1    3    3    0    0 -0.34120794709E+03 -0.77126795695E+03 -0.30019983618E+03  0.89520783409E+03  0.00000000000E+00 0. -1.
        -13    1    3    3    0    0 -0.21655765999E+03 -0.68811411738E+03 -0.27886951244E+03  0.77341222101E+03  0.00000000000E+00 0.  1.
         22    1    1    2    0    0  0.55776560708E+03  0.14593820743E+04  0.10657500116E+04  0.18912222499E+04  0.00000000000E+00 0. -1.
<mgrwt>
<rscale>  0 0.35264173E+04</rscale>
<asrwt>0</asrwt>
<pdfrwt beam="1">  1        1 0.31127100E+00 0.35264173E+04</pdfrwt>
<pdfrwt beam="2">  1       -1 0.23639705E+00 0.35264173E+04</pdfrwt>
<totfact> 0.20031440E-01</totfact>
</mgrwt>
</event>
<event>
 6    1  0.1637818E-005  0.1000864E+04  0.7818608E-02  0.9307597E-01
          1   -1    0    0  501    0  0.00000000000E+00  0.00000000000E+00  0.94661844414E+03  0.94661844414E+03  0.00000000000E+00 0. -1.
         -1   -1    0    0    0  501 -0.00000000000E+00 -0.00000000000E+00 -0.26455461796E+03  0.26455461796E+03  0.00000000000E+00 0.  1.
         23    2    1    2    0    0 -0.25574534452E+03  0.19049830023E+03 -0.11673223399E+03  0.35107398097E+03  0.89057520891E+02 0.  0.
         13    1    3    3    0    0 -0.22604213366E+03  0.12902751843E+03 -0.10967569289E+03  0.28243920463E+03  0.00000000000E+00 0. -1.
        -13    1    3    3    0    0 -0.29703210858E+02  0.61470781806E+02 -0.70565411043E+01  0.68634776342E+02  0.00000000000E+00 0.  1.
         22    1    1    2    0    0  0.25574534452E+03 -0.19049830023E+03  0.79879606016E+03  0.86009908113E+03  0.00000000000E+00 0. -1.
<mgrwt>
<rscale>  0 0.10008642E+04</rscale>
<asrwt>0</asrwt>
<pdfrwt beam="1">  1        1 0.14563361E+00 0.10008642E+04</pdfrwt>
<pdfrwt beam="2">  1       -1 0.40700711E-01 0.10008642E+04</pdfrwt>
<totfact> 0.98561975E+01</totfact>
</mgrwt>
</event>
<event>
 6    1  0.1637818E-005  0.1913733E+04  0.7818608E-02  0.8648050E-01
          1   -1    0    0  501    0  0.00000000000E+00  0.00000000000E+00  0.57276020090E+03  0.57276020090E+03  0.00000000000E+00 0. -1.
         -1   -1    0    0    0  501 -0.00000000000E+00 -0.00000000000E+00 -0.15985641139E+04  0.15985641139E+04  0.00000000000E+00 0.  1.
         23    2    1    2    0    0 -0.16138316605E+03  0.93520896074E+03 -0.39527810093E+03  0.10319283668E+04  0.89280740674E+02 0.  0.
         13    1    3    3    0    0 -0.35153241118E+02  0.10152626668E+03 -0.69704688926E+02  0.12807059321E+03  0.00000000000E+00 0.  1.
        -13    1    3    3    0    0 -0.12622992493E+03  0.83368269406E+03 -0.32557341200E+03  0.90385777362E+03  0.00000000000E+00 0. -1.
         22    1    1    2    0    0  0.16138316605E+03 -0.93520896074E+03 -0.63052581206E+03  0.11393959480E+04  0.00000000000E+00 0. -1.
<mgrwt>
<rscale>  0 0.19137334E+04</rscale>
<asrwt>0</asrwt>
<pdfrwt beam="1">  1        1 0.88116955E-01 0.19137334E+04</pdfrwt>
<pdfrwt beam="2">  1       -1 0.24593294E+00 0.19137334E+04</pdfrwt>
<totfact> 0.25364708E+00</totfact>
</mgrwt>
</event>
<event>
 6    1  0.1637818E-005  0.1248753E+04  0.7818608E-02  0.9071221E-01
          2   -1    0    0  501    0  0.00000000000E+00  0.00000000000E+00  0.20107506382E+04  0.20107506382E+04  0.00000000000E+00 0. -1.
         -2   -1    0    0    0  501 -0.00000000000E+00 -0.00000000000E+00 -0.19388098340E+03  0.19388098340E+03  0.00000000000E+00 0.  1.
         23    2    1    2    0    0 -0.34111472010E+03 -0.50666274181E+03  0.71427319811E+03  0.94416133931E+03  0.90487827367E+02 0.  0.
         11    1    3    3    0    0 -0.24734231358E+03 -0.39353473696E+03  0.59420098250E+03  0.75440215859E+03  0.00000000000E+00 0. -1.
        -11    1    3    3    0    0 -0.93772406524E+02 -0.11312800485E+03  0.12007221561E+03  0.18975918072E+03  0.00000000000E+00 0.  1.
         22    1    1    2    0    0  0.34111472010E+03  0.50666274181E+03  0.11025964567E+04  0.12604702823E+04  0.00000000000E+00 0. -1.
<mgrwt>
<rscale>  0 0.12487535E+04</rscale>
<asrwt>0</asrwt>
<pdfrwt beam="1">  1        2 0.30934624E+00 0.12487535E+04</pdfrwt>
<pdfrwt beam="2">  1       -2 0.29827845E-01 0.12487535E+04</pdfrwt>
<totfact> 0.67261042E+01</totfact>
</mgrwt>
</event>
<event>
 6    1  0.1637818E-005  0.4490036E+04  0.7818608E-02  0.7912383E-01
          2   -1    0    0  501    0  0.00000000000E+00  0.00000000000E+00  0.35499029110E+04  0.35499029110E+04  0.00000000000E+00 0. -1.
         -2   -1    0    0    0  501 -0.00000000000E+00 -0.00000000000E+00 -0.14197872140E+04  0.14197872140E+04  0.00000000000E+00 0.  1.
         23    2    1    2    0    0 -0.22323710120E+04  0.15959166121E+03  0.88304827404E+03  0.24076348971E+04  0.89340417480E+02 0.  0.
         13    1    3    3    0    0 -0.60837928676E+03  0.76317795722E+02  0.21750499495E+03  0.65058295806E+03  0.00000000000E+00 0. -1.
        -13    1    3    3    0    0 -0.16239917252E+04  0.83273865486E+02  0.66554327909E+03  0.17570519391E+04  0.00000000000E+00 0.  1.
         22    1    1    2    0    0  0.22323710120E+04 -0.15959166121E+03  0.12470674230E+04  0.25620552279E+04  0.00000000000E+00 0. -1.
<mgrwt>
<rscale>  0 0.44900364E+04</rscale>
<asrwt>0</asrwt>
<pdfrwt beam="1">  1        2 0.54613891E+00 0.44900364E+04</pdfrwt>
<pdfrwt beam="2">  1       -2 0.21842880E+00 0.44900364E+04</pdfrwt>
<totfact> 0.57374348E-02</totfact>
</mgrwt>
</event>
<event>
 6    1  0.1637818E-005  0.1506374E+04  0.7818608E-02  0.8880225E-01
         -2   -1    0    0    0  501 -0.00000000000E+00  0.00000000000E+00  0.32433485346E+03  0.32433485346E+03  0.00000000000E+00 0.  1.
          2   -1    0    0  501    0  0.00000000000E+00 -0.00000000000E+00 -0.17490890004E+04  0.17490890004E+04  0.00000000000E+00 0. -1.
         23    2    1    2    0    0 -0.35492073344E+03 -0.21263424867E+03  0.14676927068E+03  0.44834911623E+03  0.91069536485E+02 0.  0.
         13    1    3    3    0    0 -0.20571083587E+03 -0.12809631017E+03  0.13267756677E+03  0.27627694330E+03  0.00000000000E+00 0.  1.
        -13    1    3    3    0    0 -0.14920989757E+03 -0.84537938498E+02  0.14091703910E+02  0.17207217293E+03  0.00000000000E+00 0. -1.
         22    1    1    2    0    0  0.35492073344E+03  0.21263424867E+03 -0.15715234177E+04  0.16250747377E+04  0.00000000000E+00 0. -1.
<mgrwt>
<rscale>  0 0.15063738E+04</rscale>
<asrwt>0</asrwt>
<pdfrwt beam="1">  1        2 0.26909061E+00 0.15063738E+04</pdfrwt>
<pdfrwt beam="2">  1       -2 0.49897670E-01 0.15063738E+04</pdfrwt>
<totfact> 0.33794444E+01</totfact>
</mgrwt>
</event>
<event>
 6    1  0.1637818E-005  0.1609389E+04  0.7818608E-02  0.8814801E-01
          1   -1    0    0  501    0  0.00000000000E+00  0.00000000000E+00  0.14941384575E+04  0.14941384575E+04  0.00000000000E+00 0. -1.
         -1   -1    0    0    0  501 -0.00000000000E+00 -0.00000000000E+00 -0.43338227132E+03  0.43338227132E+03  0.00000000000E+00 0.  1.
         23    2    1    2    0    0 -0.74190296091E+03  0.14178283094E+03  0.20890294691E+03  0.78902333499E+03  0.91624272837E+02 0.  0.
         13    1    3    3    0    0 -0.53300319455E+03  0.66839164212E+02  0.17198277171E+03  0.56403719118E+03  0.00000000000E+00 0. -1.
        -13    1    3    3    0    0 -0.20889976636E+03  0.74943666725E+02  0.36920175201E+02  0.22498614380E+03  0.00000000000E+00 0.  1.
         22    1    1    2    0    0  0.74190296091E+03 -0.14178283094E+03  0.85185323928E+03  0.11384973939E+04  0.00000000000E+00 0. -1.
<mgrwt>
<rscale>  0 0.16093889E+04</rscale>
<asrwt>0</asrwt>
<pdfrwt beam="1">  1        1 0.22986745E+00 0.16093889E+04</pdfrwt>
<pdfrwt beam="2">  1       -1 0.66674196E-01 0.16093889E+04</pdfrwt>
<totfact> 0.14429086E+01</totfact>
</mgrwt>
</event>
<event>
 6    1  0.1637818E-005  0.3180835E+04  0.7818608E-02  0.8193897E-01
          1   -1    0    0  501    0  0.00000000000E+00  0.00000000000E+00  0.36386000345E+04  0.36386000345E+04  0.00000000000E+00 0. -1.
         -1   -1    0    0    0  501 -0.00000000000E+00 -0.00000000000E+00 -0.69516518901E+03  0.69516518901E+03  0.00000000000E+00 0.  1.
         23    2    1    2    0    0  0.35086719679E+03 -0.15405763324E+03  0.35741243605E+04  0.35957877114E+04  0.92101994502E+02 0.  0.
         13    1    3    3    0    0  0.12872443298E+03 -0.10168444503E+03  0.13262702319E+04  0.13363766064E+04  0.00000000000E+00 0.  1.
        -13    1    3    3    0    0  0.22214276382E+03 -0.52373188208E+02  0.22478541286E+04  0.22594111051E+04  0.00000000000E+00 0. -1.
         22    1    1    2    0    0 -0.35086719679E+03  0.15405763324E+03 -0.63068951494E+03  0.73797751212E+03  0.00000000000E+00 0.  1.
<mgrwt>
<rscale>  0 0.31808352E+04</rscale>
<asrwt>0</asrwt>
<pdfrwt beam="1">  1        1 0.55978461E+00 0.31808352E+04</pdfrwt>
<pdfrwt beam="2">  1       -1 0.10694849E+00 0.31808352E+04</pdfrwt>
<totfact> 0.13214340E-01</totfact>
</mgrwt>
</event>
<event>
 6    1  0.1637818E-005  0.1533895E+04  0.7818608E-02  0.8862221E-01
         -2   -1    0    0    0  501 -0.00000000000E+00  0.00000000000E+00  0.50956936554E+03  0.50956936554E+03  0.00000000000E+00 0.  1.
          2   -1    0    0  501    0  0.00000000000E+00 -0.00000000000E+00 -0.11543252019E+04  0.11543252019E+04  0.00000000000E+00 0. -1.
         23    2    1    2    0    0  0.17416648180E+03 -0.41242371878E+03 -0.99543296702E+03  0.10952103518E+04  0.90397100354E+02 0.  0.
         13    1    3    3    0    0  0.82103786997E+02 -0.26337090678E+03 -0.52222502479E+03  0.59061344626E+03  0.00000000000E+00 0.  1.
        -13    1    3    3    0    0  0.92062694806E+02 -0.14905281200E+03 -0.47320794222E+03  0.50459690558E+03  0.00000000000E+00 0. -1.
         22    1    1    2    0    0 -0.17416648180E+03  0.41242371878E+03  0.35067713061E+03  0.56868421565E+03  0.00000000000E+00 0.  1.
<mgrwt>
<rscale>  0 0.15338954E+04</rscale>
<asrwt>0</asrwt>
<pdfrwt beam="1">  1        2 0.17758849E+00 0.15338954E+04</pdfrwt>
<pdfrwt beam="2">  1       -2 0.78395287E-01 0.15338954E+04</pdfrwt>
<totfact> 0.28139441E+01</totfact>
</mgrwt>
</event>
<event>
 6    1  0.1637818E-005  0.1144844E+04  0.7818608E-02  0.9162553E-01
         -2   -1    0    0    0  501 -0.00000000000E+00  0.00000000000E+00  0.19329260156E+03  0.19329260156E+03  0.00000000000E+00 0. -1.
          2   -1    0    0  501    0  0.00000000000E+00 -0.00000000000E+00 -0.16951874269E+04  0.16951874269E+04  0.00000000000E+00 0.  1.
         23    2    1    2    0    0 -0.28163180857E+03  0.48661808720E+03 -0.59024228098E+03  0.81739459769E+03  0.60285484848E+02 0.  0.
         13    1    3    3    0    0 -0.18553241016E+03  0.33674865718E+03 -0.36346942156E+03  0.52908596064E+03  0.00000000000E+00 0. -1.
        -13    1    3    3    0    0 -0.96099398409E+02  0.14986943002E+03 -0.22677285942E+03  0.28830863705E+03  0.00000000000E+00 0.  1.
         22    1    1    2    0    0  0.28163180857E+03 -0.48661808720E+03 -0.91165254437E+03  0.10710854308E+04  0.00000000000E+00 0.  1.
<mgrwt>
<rscale>  0 0.11448444E+04</rscale>
<asrwt>0</asrwt>
<pdfrwt beam="1">  1        2 0.26079806E+00 0.11448444E+04</pdfrwt>
<pdfrwt beam="2">  1       -2 0.29737324E-01 0.11448444E+04</pdfrwt>
<totfact> 0.10183983E+02</totfact>
</mgrwt>
</event>
<event>
 6    1  0.1637818E-005  0.3935050E+04  0.7818608E-02  0.8017779E-01
         -2   -1    0    0    0  501 -0.00000000000E+00  0.00000000000E+00  0.74595593318E+03  0.74595593318E+03  0.00000000000E+00 0. -1.
          2   -1    0    0  501    0  0.00000000000E+00 -0.00000000000E+00 -0.51895222695E+04  0.51895222695E+04  0.00000000000E+00 0.  1.
         23    2    1    2    0    0  0.15379887747E+04 -0.16339032375E+03 -0.40547878237E+04  0.43407197254E+04  0.91856246399E+02 0.  0.
         11    1    3    3    0    0  0.10320789484E+04 -0.15281614399E+03 -0.27208452711E+04  0.29140244884E+04  0.00000000000E+00 0.  1.
        -11    1    3    3    0    0  0.50590982628E+03 -0.10574179758E+02 -0.13339425526E+04  0.14266952370E+04  0.00000000000E+00 0. -1.
         22    1    1    2    0    0 -0.15379887747E+04  0.16339032375E+03 -0.38877851261E+03  0.15947584773E+04  0.00000000000E+00 0. -1.
<mgrwt>
<rscale>  0 0.39350502E+04</rscale>
<asrwt>0</asrwt>
<pdfrwt beam="1">  1        2 0.79838803E+00 0.39350502E+04</pdfrwt>
<pdfrwt beam="2">  1       -2 0.11476245E+00 0.39350502E+04</pdfrwt>
<totfact> 0.88498119E-03</totfact>
</mgrwt>
</event>
<event>
 6    1  0.1637818E-005  0.2414208E+04  0.7818608E-02  0.8434203E-01
          2   -1    0    0  501    0  0.00000000000E+00  0.00000000000E+00  0.16738263564E+04  0.16738263564E+04  0.00000000000E+00 0. -1.
         -2   -1    0    0    0  501 -0.00000000000E+00 -0.00000000000E+00 -0.87052051832E+03  0.87052051832E+03  0.00000000000E+00 0.  1.
         23    2    1    2    0    0  0.30560477431E+03  0.49246299212E+03 -0.71161226361E+03  0.92234473800E+03  0.91726360997E+02 0.  0.
         13    1    3    3    0    0  0.27602256925E+03  0.42476782885E+03 -0.56965149971E+03  0.76231161495E+03  0.00000000000E+00 0. -1.
        -13    1    3    3    0    0  0.29582205060E+02  0.67695163273E+02 -0.14196076389E+03  0.16003312305E+03  0.00000000000E+00 0.  1.
         22    1    1    2    0    0 -0.30560477431E+03 -0.49246299212E+03  0.15149181017E+04  0.16220021367E+04  0.00000000000E+00 0. -1.
<mgrwt>
<rscale>  0 0.24142081E+04</rscale>
<asrwt>0</asrwt>
<pdfrwt beam="1">  1        2 0.25751175E+00 0.24142081E+04</pdfrwt>
<pdfrwt beam="2">  1       -2 0.13392623E+00 0.24142081E+04</pdfrwt>
<totfact> 0.36683117E+00</totfact>
</mgrwt>
</event>
<event>
 6    1  0.1637818E-005  0.1755402E+04  0.7818608E-02  0.8730383E-01
         -1   -1    0    0    0  501 -0.00000000000E+00  0.00000000000E+00  0.57125717306E+03  0.57125717306E+03  0.00000000000E+00 0.  1.
          1   -1    0    0  501    0  0.00000000000E+00 -0.00000000000E+00 -0.13485320856E+04  0.13485320856E+04  0.00000000000E+00 0. -1.
         23    2    1    2    0    0 -0.11844874953E+03  0.24130101157E+03 -0.13006349294E+04  0.13314339308E+04  0.93855251147E+02 0.  0.
         13    1    3    3    0    0 -0.14068071618E+02  0.13476549225E+03 -0.63425406142E+03  0.64856600510E+03  0.00000000000E+00 0. -1.
        -13    1    3    3    0    0 -0.10438067791E+03  0.10653551931E+03 -0.66638086798E+03  0.68286792574E+03  0.00000000000E+00 0.  1.
         22    1    1    2    0    0  0.11844874953E+03 -0.24130101157E+03  0.52336001690E+03  0.58835532779E+03  0.00000000000E+00 0.  1.
<mgrwt>
<rscale>  0 0.17554015E+04</rscale>
<asrwt>0</asrwt>
<pdfrwt beam="1">  1        1 0.20746648E+00 0.17554015E+04</pdfrwt>
<pdfrwt beam="2">  1       -1 0.87885719E-01 0.17554015E+04</pdfrwt>
<totfact> 0.10071478E+01</totfact>
</mgrwt>
</event>
<event>
 6    1  0.2150244E-005  0.3444636E+04  0.7818608E-02  0.8127037E-01
          2   -1    0    0  501    0  0.00000000000E+00  0.00000000000E+00  0.16304743222E+04  0.16304743222E+04  0.00000000000E+00 0. -1.
         -2   -1    0    0    0  501 -0.00000000000E+00 -0.00000000000E+00 -0.18193350116E+04  0.18193350116E+04  0.00000000000E+00 0.  1.
         23    2    1    2    0    0  0.21489446469E+02  0.10240860860E+04  0.12907112711E+04  0.16502684774E+04  0.90754361911E+02 0.  0.
         13    1    3    3    0    0 -0.26326751154E+02  0.27644897670E+03  0.38895248829E+03  0.47791335270E+03  0.00000000000E+00 0. -1.
        -13    1    3    3    0    0  0.47816197623E+02  0.74763710928E+03  0.90175878281E+03  0.11723551247E+04  0.00000000000E+00 0.  1.
         22    1    1    2    0    0 -0.21489446469E+02 -0.10240860860E+04 -0.14795719605E+04  0.17995408565E+04  0.00000000000E+00 0.  1.
<mgrwt>
<rscale>  0 0.34446358E+04</rscale>
<asrwt>0</asrwt>
<pdfrwt beam="1">  1        2 0.25084220E+00 0.34446358E+04</pdfrwt>
<pdfrwt beam="2">  1       -2 0.27989769E+00 0.34446358E+04</pdfrwt>
<totfact> 0.37325759E-01</totfact>
</mgrwt>
</event>
<event>
 6    1  0.1637818E-005  0.7349274E+03  0.7818608E-02  0.9659298E-01
         -1   -1    0    0    0  501 -0.00000000000E+00  0.00000000000E+00  0.31398364629E+03  0.31398364629E+03  0.00000000000E+00 0.  1.
          1   -1    0    0  501    0  0.00000000000E+00 -0.00000000000E+00 -0.43005286770E+03  0.43005286770E+03  0.00000000000E+00 0. -1.
         23    2    1    2    0    0  0.13184883236E+03 -0.33833912080E+02 -0.39838188747E+03  0.43062099169E+03  0.90539836635E+02 0.  0.
         13    1    3    3    0    0  0.81155826688E+02  0.25826820483E+02 -0.20369835695E+03  0.22078567319E+03  0.00000000000E+00 0.  1.
        -13    1    3    3    0    0  0.50693005668E+02 -0.59660732563E+02 -0.19468353052E+03  0.20983531850E+03  0.00000000000E+00 0. -1.
         22    1    1    2    0    0 -0.13184883236E+03  0.33833912080E+02  0.28231266606E+03  0.31341552230E+03  0.00000000000E+00 0.  1.
<mgrwt>
<rscale>  0 0.73492739E+03</rscale>
<asrwt>0</asrwt>
<pdfrwt beam="1">  1        1 0.66161979E-01 0.73492739E+03</pdfrwt>
<pdfrwt beam="2">  1       -1 0.48305177E-01 0.73492739E+03</pdfrwt>
<totfact> 0.23636849E+02</totfact>
</mgrwt>
</event>
<event>
 6    1  0.1637818E-005  0.1929777E+04  0.7818608E-02  0.8640175E-01
          2   -1    0    0  501    0  0.00000000000E+00  0.00000000000E+00  0.20195664259E+04  0.20195664259E+04  0.00000000000E+00 0. -1.
         -2   -1    0    0    0  501 -0.00000000000E+00 -0.00000000000E+00 -0.46099484871E+03  0.46099484871E+03  0.00000000000E+00 0.  1.
         23    2    1    2    0    0  0.23466587554E+03 -0.74333831520E+03  0.54576670526E+02  0.78656581912E+03  0.89929143500E+02 0.  0.
         11    1    3    3    0    0  0.15870749943E+03 -0.38424099766E+03  0.16795164560E+01  0.41573072467E+03  0.00000000000E+00 0.  1.
        -11    1    3    3    0    0  0.75958376108E+02 -0.35909731754E+03  0.52897154070E+02  0.37083509445E+03  0.00000000000E+00 0. -1.
         22    1    1    2    0    0 -0.23466587554E+03  0.74333831520E+03  0.15039949067E+04  0.16939954555E+04  0.00000000000E+00 0. -1.
<mgrwt>
<rscale>  0 0.19297769E+04</rscale>
<asrwt>0</asrwt>
<pdfrwt beam="1">  1        2 0.31070252E+00 0.19297769E+04</pdfrwt>
<pdfrwt beam="2">  1       -2 0.70922286E-01 0.19297769E+04</pdfrwt>
<totfact> 0.10996343E+01</totfact>
</mgrwt>
</event>
<event>
 6    1  0.1637818E-005  0.1872877E+04  0.7818608E-02  0.8668476E-01
         -1   -1    0    0    0  501 -0.00000000000E+00  0.00000000000E+00  0.94841395815E+03  0.94841395815E+03  0.00000000000E+00 0.  1.
          1   -1    0    0  501    0  0.00000000000E+00 -0.00000000000E+00 -0.92461395082E+03  0.92461395082E+03  0.00000000000E+00 0. -1.
         23    2    1    2    0    0  0.51575407708E+03  0.27594098748E+03 -0.71653769437E+03  0.92949963216E+03  0.91638431509E+02 0.  0.
         11    1    3    3    0    0  0.30226326779E+02  0.45303238701E+02 -0.70496990815E+02  0.89083331669E+02  0.00000000000E+00 0. -1.
        -11    1    3    3    0    0  0.48552775030E+03  0.23063774878E+03 -0.64604070355E+03  0.84041630049E+03  0.00000000000E+00 0.  1.
         22    1    1    2    0    0 -0.51575407708E+03 -0.27594098748E+03  0.74033770170E+03  0.94352827681E+03  0.00000000000E+00 0.  1.
<mgrwt>
<rscale>  0 0.18728767E+04</rscale>
<asrwt>0</asrwt>
<pdfrwt beam="1">  1        1 0.14224830E+00 0.18728767E+04</pdfrwt>
<pdfrwt beam="2">  1       -1 0.14590984E+00 0.18728767E+04</pdfrwt>
<totfact> 0.61230029E+00</totfact>
</mgrwt>
</event>
<event>
 6    1  0.1637818E-005  0.5082280E+04  0.7818608E-02  0.7815939E-01
          2   -1    0    0  501    0  0.00000000000E+00  0.00000000000E+00  0.25688968661E+04  0.25688968661E+04  0.00000000000E+00 0.  1.
         -2   -1    0    0    0  501 -0.00000000000E+00 -0.00000000000E+00 -0.25136831458E+04  0.25136831458E+04  0.00000000000E+00 0. -1.
         23    2    1    2    0    0  0.60011201409E+03  0.22118781144E+04 -0.10674795377E+04  0.25305260599E+04  0.10728631793E+03 0.  0.
         11    1    3    3    0    0  0.62962255854E+02  0.27756648349E+03 -0.17011771555E+03  0.33158322570E+03  0.00000000000E+00 0.  1.
        -11    1    3    3    0    0  0.53714975824E+03  0.19343116309E+04 -0.89736182211E+03  0.21989428342E+04  0.00000000000E+00 0. -1.
         22    1    1    2    0    0 -0.60011201409E+03 -0.22118781144E+04  0.11226932580E+04  0.25520539520E+04  0.00000000000E+00 0.  1.
<mgrwt>
<rscale>  0 0.50822801E+04</rscale>
<asrwt>0</asrwt>
<pdfrwt beam="1">  1        2 0.39521490E+00 0.50822801E+04</pdfrwt>
<pdfrwt beam="2">  1       -2 0.38672049E+00 0.50822801E+04</pdfrwt>
<totfact> 0.20804016E-02</totfact>
</mgrwt>
</event>
<event>
 6    1  0.1637818E-005  0.6948837E+04  0.7818608E-02  0.7582735E-01
          1   -1    0    0  501    0  0.00000000000E+00  0.00000000000E+00  0.22072654839E+04  0.22072654839E+04  0.00000000000E+00 0. -1.
         -1   -1    0    0    0  501 -0.00000000000E+00 -0.00000000000E+00 -0.54690215326E+04  0.54690215326E+04  0.00000000000E+00 0.  1.
         23    2    1    2    0    0  0.15613369624E+04  0.27459726800E+04 -0.32279478338E+04  0.45172868479E+04  0.89967655270E+02 0.  0.
         11    1    3    3    0    0  0.30821399466E+03  0.60814930826E+03 -0.67179830518E+03  0.95715955330E+03  0.00000000000E+00 0.  1.
        -11    1    3    3    0    0  0.12531229678E+04  0.21378233717E+04 -0.25561495286E+04  0.35601272946E+04  0.00000000000E+00 0. -1.
         22    1    1    2    0    0 -0.15613369624E+04 -0.27459726800E+04 -0.33808214871E+02  0.31590001685E+04  0.00000000000E+00 0. -1.
<mgrwt>
<rscale>  0 0.69488366E+04</rscale>
<asrwt>0</asrwt>
<pdfrwt beam="1">  1        1 0.33957931E+00 0.69488366E+04</pdfrwt>
<pdfrwt beam="2">  1       -1 0.84138792E+00 0.69488366E+04</pdfrwt>
<totfact> 0.46968456E-05</totfact>
</mgrwt>
</event>
<event>
 6    1  0.1637818E-005  0.1755858E+04  0.7818608E-02  0.8730132E-01
          2   -1    0    0  501    0  0.00000000000E+00  0.00000000000E+00  0.52667328621E+03  0.52667328621E+03  0.00000000000E+00 0. -1.
         -2   -1    0    0    0  501 -0.00000000000E+00 -0.00000000000E+00 -0.14634492167E+04  0.14634492167E+04  0.00000000000E+00 0.  1.
         23    2    1    2    0    0  0.69575538764E+03 -0.46135021134E+03 -0.17093579091E+03  0.85723649967E+03  0.93358421260E+02 0.  0.
         11    1    3    3    0    0  0.45029705472E+03 -0.34728370517E+03 -0.99474116421E+02  0.57729412712E+03  0.00000000000E+00 0. -1.
        -11    1    3    3    0    0  0.24545833292E+03 -0.11406650616E+03 -0.71461674487E+02  0.27994237255E+03  0.00000000000E+00 0.  1.
         22    1    1    2    0    0 -0.69575538764E+03  0.46135021134E+03 -0.76584013956E+03  0.11328860032E+04  0.00000000000E+00 0. -1.
<mgrwt>
<rscale>  0 0.17558583E+04</rscale>
<asrwt>0</asrwt>
<pdfrwt beam="1">  1        2 0.81026659E-01 0.17558583E+04</pdfrwt>
<pdfrwt beam="2">  1       -2 0.22514604E+00 0.17558583E+04</pdfrwt>
<totfact> 0.50313992E+00</totfact>
</mgrwt>
</event>
<event>
 6    1  0.1637818E-005  0.1808133E+04  0.7818608E-02  0.8701986E-01
          1   -1    0    0  501    0  0.00000000000E+00  0.00000000000E+00  0.88191626961E+03  0.88191626961E+03  0.00000000000E+00 0. -1.
         -1   -1    0    0    0  501 -0.00000000000E+00 -0.00000000000E+00 -0.92677326208E+03  0.92677326208E+03  0.00000000000E+00 0.  1.
         23    2    1    2    0    0  0.99536221950E+02 -0.65140561696E+03  0.59311503606E+03  0.89149541566E+03  0.93498090064E+02 0.  0.
         11    1    3    3    0    0  0.21344942143E+02 -0.48730613372E+02  0.80256064781E+02  0.96287668831E+02  0.00000000000E+00 0.  1.
        -11    1    3    3    0    0  0.78191279807E+02 -0.60267500359E+03  0.51285897128E+03  0.79520774683E+03  0.00000000000E+00 0. -1.
         22    1    1    2    0    0 -0.99536221950E+02  0.65140561696E+03 -0.63797202854E+03  0.91719411603E+03  0.00000000000E+00 0.  1.
<mgrwt>
<rscale>  0 0.18081332E+04</rscale>
<asrwt>0</asrwt>
<pdfrwt beam="1">  1        1 0.13567943E+00 0.18081332E+04</pdfrwt>
<pdfrwt beam="2">  1       -1 0.14258050E+00 0.18081332E+04</pdfrwt>
<totfact> 0.70954434E+00</totfact>
</mgrwt>
</event>
<event>
 6    1  0.1637818E-005  0.1128764E+04  0.7818608E-02  0.9177602E-01
         -2   -1    0    0    0  501 -0.00000000000E+00  0.00000000000E+00  0.16094420952E+03  0.16094420952E+03  0.00000000000E+00 0. -1.
          2   -1    0    0  501    0  0.00000000000E+00 -0.00000000000E+00 -0.19791136981E+04  0.19791136981E+04  0.00000000000E+00 0.  1.
         23    2    1    2    0    0  0.38688243678E+03  0.35516340219E+03 -0.54194368804E+03  0.75999582347E+03  0.89842242485E+02 0.  0.
         13    1    3    3    0    0  0.26124620503E+03  0.27997733411E+03 -0.42925405383E+03  0.57523554305E+03  0.00000000000E+00 0. -1.
        -13    1    3    3    0    0  0.12563623175E+03  0.75186068084E+02 -0.11268963422E+03  0.18476028042E+03  0.00000000000E+00 0.  1.
         22    1    1    2    0    0 -0.38688243678E+03 -0.35516340219E+03 -0.12762258006E+04  0.13800620842E+04  0.00000000000E+00 0.  1.
<mgrwt>
<rscale>  0 0.11287637E+04</rscale>
<asrwt>0</asrwt>
<pdfrwt beam="1">  1        2 0.30447907E+00 0.11287637E+04</pdfrwt>
<pdfrwt beam="2">  1       -2 0.24760645E-01 0.11287637E+04</pdfrwt>
<totfact> 0.99467750E+01</totfact>
</mgrwt>
</event>
<event>
 6    1  0.1637818E-005  0.3881609E+04  0.7818608E-02  0.8028865E-01
         -2   -1    0    0    0  501 -0.00000000000E+00  0.00000000000E+00  0.12516145406E+04  0.12516145406E+04  0.00000000000E+00 0.  1.
          2   -1    0    0  501    0  0.00000000000E+00 -0.00000000000E+00 -0.30094909355E+04  0.30094909355E+04  0.00000000000E+00 0. -1.
         23    2    1    2    0    0 -0.29144697664E+03  0.13131671829E+04 -0.24136516601E+04  0.27646461252E+04  0.90578535150E+02 0.  0.
         11    1    3    3    0    0 -0.89485826131E+02  0.24913120034E+03 -0.44715380656E+03  0.51963505923E+03  0.00000000000E+00 0.  1.
        -11    1    3    3    0    0 -0.20196115051E+03  0.10640359825E+04 -0.19664978535E+04  0.22450110660E+04  0.00000000000E+00 0. -1.
         22    1    1    2    0    0  0.29144697664E+03 -0.13131671829E+04  0.65577526517E+03  0.14964593509E+04  0.00000000000E+00 0.  1.
<mgrwt>
<rscale>  0 0.38816093E+04</rscale>
<asrwt>0</asrwt>
<pdfrwt beam="1">  1        2 0.46299861E+00 0.38816093E+04</pdfrwt>
<pdfrwt beam="2">  1       -2 0.19255608E+00 0.38816093E+04</pdfrwt>
<totfact> 0.20369468E-01</totfact>
</mgrwt>
</event>
<event>
 6    1  0.1637818E-005  0.2960246E+04  0.7818608E-02  0.8255175E-01
         -2   -1    0    0    0  501 -0.00000000000E+00  0.00000000000E+00  0.10719537687E+04  0.10719537687E+04  0.00000000000E+00 0.  1.
          2   -1    0    0  501    0  0.00000000000E+00 -0.00000000000E+00 -0.20437114776E+04  0.20437114776E+04  0.00000000000E+00 0. -1.
         23    2    1    2    0    0  0.17898312541E+03  0.56783694870E+03 -0.19109994280E+04  0.20036181402E+04  0.89961538179E+02 0.  0.
         11    1    3    3    0    0  0.17615707479E+03  0.46342655983E+03 -0.15139325370E+04  0.15930433823E+04  0.00000000000E+00 0. -1.
        -11    1    3    3    0    0  0.28260506231E+01  0.10441038887E+03 -0.39706689104E+03  0.41057475790E+03  0.00000000000E+00 0.  1.
         22    1    1    2    0    0 -0.17898312541E+03 -0.56783694870E+03  0.93924171907E+03  0.11120471062E+04  0.00000000000E+00 0.  1.
<mgrwt>
<rscale>  0 0.29602461E+04</rscale>
<asrwt>0</asrwt>
<pdfrwt beam="1">  1        2 0.31441715E+00 0.29602461E+04</pdfrwt>
<pdfrwt beam="2">  1       -2 0.16491597E+00 0.29602461E+04</pdfrwt>
<totfact> 0.12578356E+00</totfact>
</mgrwt>
</event>
<event>
 6    1  0.1637818E-005  0.1648368E+04  0.7818608E-02  0.8791372E-01
         -3   -1    0    0    0  501 -0.00000000000E+00  0.00000000000E+00  0.11981036226E+04  0.11981036226E+04  0.00000000000E+00 0.  1.
          3   -1    0    0  501    0  0.00000000000E+00 -0.00000000000E+00 -0.56696211383E+03  0.56696211383E+03  0.00000000000E+00 0. -1.
         23    2    1    2    0    0 -0.47716491573E+03  0.70723495225E+02  0.10284614240E+04  0.11401247115E+04  0.97279430372E+02 0.  0.
         13    1    3    3    0    0 -0.38119055795E+03  0.20069302170E+02  0.83970956061E+03  0.92239967722E+03  0.00000000000E+00 0. -1.
        -13    1    3    3    0    0 -0.95974357774E+02  0.50654193055E+02  0.18875186340E+03  0.21772503430E+03  0.00000000000E+00 0.  1.
         22    1    1    2    0    0  0.47716491573E+03 -0.70723495225E+02 -0.39731991523E+03  0.62494102491E+03  0.00000000000E+00 0. -1.
<mgrwt>
<rscale>  0 0.16483681E+04</rscale>
<asrwt>0</asrwt>
<pdfrwt beam="1">  1        3 0.87224941E-01 0.16483681E+04</pdfrwt>
<pdfrwt beam="2">  1       -3 0.18432363E+00 0.16483681E+04</pdfrwt>
<totfact> 0.55416029E-01</totfact>
</mgrwt>
</event>
<event>
 6    1  0.1637818E-005  0.1297977E+04  0.7818608E-02  0.9031171E-01
          2   -1    0    0  501    0  0.00000000000E+00  0.00000000000E+00  0.23036227973E+04  0.23036227973E+04  0.00000000000E+00 0. -1.
         -2   -1    0    0    0  501 -0.00000000000E+00 -0.00000000000E+00 -0.18283638021E+03  0.18283638021E+03  0.00000000000E+00 0.  1.
         23    2    1    2    0    0  0.58918696675E+03  0.89649706561E+02  0.58988751366E+03  0.84364762283E+03  0.92712895803E+02 0.  0.
         13    1    3    3    0    0  0.38947402767E+03  0.70309101085E+02  0.32988149592E+03  0.51522343627E+03  0.00000000000E+00 0. -1.
        -13    1    3    3    0    0  0.19971293908E+03  0.19340605476E+02  0.26000601774E+03  0.32842418656E+03  0.00000000000E+00 0.  1.
         22    1    1    2    0    0 -0.58918696675E+03 -0.89649706561E+02  0.15308989034E+04  0.16428115547E+04  0.00000000000E+00 0. -1.
<mgrwt>
<rscale>  0 0.12979770E+04</rscale>
<asrwt>0</asrwt>
<pdfrwt beam="1">  1        2 0.35440349E+00 0.12979770E+04</pdfrwt>
<pdfrwt beam="2">  1       -2 0.28128676E-01 0.12979770E+04</pdfrwt>
<totfact> 0.51278323E+01</totfact>
</mgrwt>
</event>
<event>
 6    1  0.1637818E-005  0.1320668E+04  0.7818608E-02  0.9013334E-01
         -2   -1    0    0    0  501 -0.00000000000E+00  0.00000000000E+00  0.24233742215E+03  0.24233742215E+03  0.00000000000E+00 0.  1.
          2   -1    0    0  501    0  0.00000000000E+00 -0.00000000000E+00 -0.17993141135E+04  0.17993141135E+04  0.00000000000E+00 0. -1.
         23    2    1    2    0    0 -0.63928959805E+03 -0.68120223217E+02 -0.99248644507E+03  0.11860927749E+04  0.91952009187E+02 0.  0.
         13    1    3    3    0    0 -0.20458951217E+03  0.15040030262E+02 -0.35551873195E+03  0.41045905979E+03  0.00000000000E+00 0.  1.
        -13    1    3    3    0    0 -0.43470008588E+03 -0.83160253479E+02 -0.63696771312E+03  0.77563371509E+03  0.00000000000E+00 0. -1.
         22    1    1    2    0    0  0.63928959805E+03  0.68120223217E+02 -0.56449024631E+03  0.85555876079E+03  0.00000000000E+00 0.  1.
<mgrwt>
<rscale>  0 0.13206682E+04</rscale>
<asrwt>0</asrwt>
<pdfrwt beam="1">  1        2 0.27681756E+00 0.13206682E+04</pdfrwt>
<pdfrwt beam="2">  1       -2 0.37282680E-01 0.13206682E+04</pdfrwt>
<totfact> 0.57342518E+01</totfact>
</mgrwt>
</event>
<event>
 6    1  0.1637818E-005  0.3089357E+04  0.7818608E-02  0.8218665E-01
         -2   -1    0    0    0  501 -0.00000000000E+00  0.00000000000E+00  0.97694402670E+03  0.97694402670E+03  0.00000000000E+00 0.  1.
          2   -1    0    0  501    0  0.00000000000E+00 -0.00000000000E+00 -0.24423416887E+04  0.24423416887E+04  0.00000000000E+00 0. -1.
         23    2    1    2    0    0 -0.10079248923E+03  0.51837474234E+03 -0.23383312809E+04  0.23990481929E+04  0.93635213219E+02 0.  0.
         11    1    3    3    0    0 -0.83167808655E+02  0.38156490165E+03 -0.15312745964E+04  0.15802881219E+04  0.00000000000E+00 0. -1.
        -11    1    3    3    0    0 -0.17624680577E+02  0.13680984068E+03 -0.80705668449E+03  0.81876007099E+03  0.00000000000E+00 0.  1.
         22    1    1    2    0    0  0.10079248923E+03 -0.51837474234E+03  0.87293361889E+03  0.10202375225E+04  0.00000000000E+00 0.  1.
<mgrwt>
<rscale>  0 0.30893566E+04</rscale>
<asrwt>0</asrwt>
<pdfrwt beam="1">  1        2 0.37574487E+00 0.30893566E+04</pdfrwt>
<pdfrwt beam="2">  1       -2 0.15029908E+00 0.30893566E+04</pdfrwt>
<totfact> 0.95180763E-01</totfact>
</mgrwt>
</event>
<event>
 6    1  0.1637818E-005  0.1995542E+04  0.7818608E-02  0.8608708E-01
          2   -1    0    0  501    0  0.00000000000E+00  0.00000000000E+00  0.95118945250E+03  0.95118945250E+03  0.00000000000E+00 0.  1.
         -2   -1    0    0    0  501 -0.00000000000E+00 -0.00000000000E+00 -0.10466332565E+04  0.10466332565E+04  0.00000000000E+00 0. -1.
         23    2    1    2    0    0  0.68030177991E+03 -0.68879521925E+03  0.18521147092E+03  0.98984614722E+03  0.90789539018E+02 0.  0.
         11    1    3    3    0    0  0.51618779854E+03 -0.47269215921E+03  0.11235895436E+03  0.70888098815E+03  0.00000000000E+00 0.  1.
        -11    1    3    3    0    0  0.16411398137E+03 -0.21610306005E+03  0.72852516560E+02  0.28096515907E+03  0.00000000000E+00 0. -1.
         22    1    1    2    0    0 -0.68030177991E+03  0.68879521925E+03 -0.28065527496E+03  0.10079765618E+04  0.00000000000E+00 0. -1.
<mgrwt>
<rscale>  0 0.19955415E+04</rscale>
<asrwt>0</asrwt>
<pdfrwt beam="1">  1        2 0.14633684E+00 0.19955415E+04</pdfrwt>
<pdfrwt beam="2">  1       -2 0.16102050E+00 0.19955415E+04</pdfrwt>
<totfact> 0.62340240E+00</totfact>
</mgrwt>
</event>
<event>
 6    1  0.1637818E-005  0.5048747E+04  0.7818608E-02  0.7821031E-01
         -1   -1    0    0    0  501 -0.00000000000E+00  0.00000000000E+00  0.22798681298E+04  0.22798681298E+04  0.00000000000E+00 0.  1.
          1   -1    0    0  501    0  0.00000000000E+00 -0.00000000000E+00 -0.27951009163E+04  0.27951009163E+04  0.00000000000E+00 0. -1.
         23    2    1    2    0    0 -0.27085511447E+03  0.10121489980E+04  0.20499377653E+04  0.23040652140E+04  0.93078362812E+02 0.  0.
         13    1    3    3    0    0 -0.14674716423E+03  0.71327141009E+03  0.14303295671E+04  0.16050338019E+04  0.00000000000E+00 0. -1.
        -13    1    3    3    0    0 -0.12410795023E+03  0.29887758792E+03  0.61960819819E+03  0.69903141212E+03  0.00000000000E+00 0.  1.
         22    1    1    2    0    0  0.27085511447E+03 -0.10121489980E+04 -0.25651705518E+04  0.27709038321E+04  0.00000000000E+00 0. -1.
<mgrwt>
<rscale>  0 0.50487470E+04</rscale>
<asrwt>0</asrwt>
<pdfrwt beam="1">  1        1 0.43001552E+00 0.50487470E+04</pdfrwt>
<pdfrwt beam="2">  1       -1 0.35074895E+00 0.50487470E+04</pdfrwt>
<totfact> 0.92821695E-03</totfact>
</mgrwt>
</event>
<event>
 6    1  0.1637818E-005  0.2221327E+04  0.7818608E-02  0.8509604E-01
         -2   -1    0    0    0  501 -0.00000000000E+00  0.00000000000E+00  0.39226602909E+03  0.39226602909E+03  0.00000000000E+00 0.  1.
          2   -1    0    0  501    0  0.00000000000E+00 -0.00000000000E+00 -0.31447355555E+04  0.31447355555E+04  0.00000000000E+00 0. -1.
         23    2    1    2    0    0  0.52414419584E+03 -0.35599721720E+02  0.17646356974E+03  0.56132627301E+03  0.89181360752E+02 0.  0.
         13    1    3    3    0    0  0.47883164583E+03 -0.36705793763E+02  0.13249620901E+03  0.49817898967E+03  0.00000000000E+00 0.  1.
        -13    1    3    3    0    0  0.45312550013E+02  0.11060720427E+01  0.43967360734E+02  0.63147283346E+02  0.00000000000E+00 0. -1.
         22    1    1    2    0    0 -0.52414419584E+03  0.35599721720E+02 -0.29289330962E+04  0.29756753116E+04  0.00000000000E+00 0. -1.
<mgrwt>
<rscale>  0 0.22213266E+04</rscale>
<asrwt>0</asrwt>
<pdfrwt beam="1">  1        2 0.48380549E+00 0.22213266E+04</pdfrwt>
<pdfrwt beam="2">  1       -2 0.60348617E-01 0.22213266E+04</pdfrwt>
<totfact> 0.32932091E+00</totfact>
</mgrwt>
</event>
<event>
 6    1  0.1637818E-005  0.1243829E+04  0.7818608E-02  0.9075335E-01
         -2   -1    0    0    0  501 -0.00000000000E+00  0.00000000000E+00  0.13007615681E+04  0.13007615681E+04  0.00000000000E+00 0.  1.
          2   -1    0    0  501    0  0.00000000000E+00 -0.00000000000E+00 -0.29734703779E+03  0.29734703779E+03  0.00000000000E+00 0. -1.
         23    2    1    2    0    0 -0.49487474634E+03 -0.20387408729E+03  0.10603084793E+03  0.55323390937E+03  0.91430627951E+02 0.  0.
         13    1    3    3    0    0 -0.23658420705E+03 -0.57312309241E+02  0.21032382107E+02  0.24433409282E+03  0.00000000000E+00 0.  1.
        -13    1    3    3    0    0 -0.25829053929E+03 -0.14656177805E+03  0.84998465826E+02  0.30889981655E+03  0.00000000000E+00 0. -1.
         22    1    1    2    0    0  0.49487474634E+03  0.20387408729E+03  0.89738368235E+03  0.10448746965E+04  0.00000000000E+00 0.  1.
<mgrwt>
<rscale>  0 0.12438289E+04</rscale>
<asrwt>0</asrwt>
<pdfrwt beam="1">  1        2 0.45745699E-01 0.12438289E+04</pdfrwt>
<pdfrwt beam="2">  1       -2 0.20011716E+00 0.12438289E+04</pdfrwt>
<totfact> 0.14474460E+01</totfact>
</mgrwt>
</event>
<event>
 6    1  0.1637818E-005  0.5534299E+04  0.7818608E-02  0.7750987E-01
         -1   -1    0    0    0  501 -0.00000000000E+00  0.00000000000E+00  0.22251874511E+04  0.22251874511E+04  0.00000000000E+00 0.  1.
          1   -1    0    0  501    0  0.00000000000E+00 -0.00000000000E+00 -0.34411105583E+04  0.34411105583E+04  0.00000000000E+00 0. -1.
         23    2    1    2    0    0  0.19165974267E+04 -0.12044472850E+04 -0.22363490920E+04  0.31832941534E+04  0.89807835902E+02 0.  0.
         11    1    3    3    0    0  0.36575345950E+03 -0.23869105923E+03 -0.38380423485E+03  0.58142472048E+03  0.00000000000E+00 0. -1.
        -11    1    3    3    0    0  0.15508439672E+04 -0.96575622580E+03 -0.18525448572E+04  0.26018694330E+04  0.00000000000E+00 0.  1.
         22    1    1    2    0    0 -0.19165974267E+04  0.12044472850E+04  0.10204259848E+04  0.24830038560E+04  0.00000000000E+00 0.  1.
<mgrwt>
<rscale>  0 0.55342989E+04</rscale>
<asrwt>0</asrwt>
<pdfrwt beam="1">  1        1 0.52940163E+00 0.55342989E+04</pdfrwt>
<pdfrwt beam="2">  1       -1 0.34233653E+00 0.55342989E+04</pdfrwt>
<totfact> 0.33574299E-03</totfact>
</mgrwt>
</event>
<event>
 6    1  0.1637818E-005  0.2085995E+04  0.7818608E-02  0.8567438E-01
          2   -1    0    0  501    0  0.00000000000E+00  0.00000000000E+00  0.26357884111E+04  0.26357884111E+04  0.00000000000E+00 0. -1.
         -2   -1    0    0    0  501 -0.00000000000E+00 -0.00000000000E+00 -0.41272032832E+03  0.41272032832E+03  0.00000000000E+00 0.  1.
         23    2    1    2    0    0 -0.13186426316E+03 -0.69752195697E+03  0.97662240887E+00  0.71578168240E+03  0.91746382551E+02 0.  0.
         13    1    3    3    0    0 -0.74814401141E+02 -0.18768030431E+03  0.14682086993E+02  0.20257505997E+03  0.00000000000E+00 0. -1.
        -13    1    3    3    0    0 -0.57049862024E+02 -0.50984165265E+03 -0.13705464584E+02  0.51320662242E+03  0.00000000000E+00 0.  1.
         22    1    1    2    0    0  0.13186426316E+03  0.69752195697E+03  0.22220914604E+04  0.23327270571E+04  0.00000000000E+00 0. -1.
<mgrwt>
<rscale>  0 0.20859947E+04</rscale>
<asrwt>0</asrwt>
<pdfrwt beam="1">  1        2 0.40550590E+00 0.20859947E+04</pdfrwt>
<pdfrwt beam="2">  1       -2 0.63495437E-01 0.20859947E+04</pdfrwt>
<totfact> 0.61441924E+00</totfact>
</mgrwt>
</event>
<event>
 6    1  0.1637818E-005  0.3294682E+04  0.7818608E-02  0.8164250E-01
          1   -1    0    0  501    0  0.00000000000E+00  0.00000000000E+00  0.15074077507E+04  0.15074077507E+04  0.00000000000E+00 0. -1.
         -1   -1    0    0    0  501 -0.00000000000E+00 -0.00000000000E+00 -0.18002641518E+04  0.18002641518E+04  0.00000000000E+00 0.  1.
         23    2    1    2    0    0 -0.86594275855E+03 -0.15680693597E+03 -0.15431366011E+04  0.17787357184E+04  0.90470491934E+02 0.  0.
         13    1    3    3    0    0 -0.38160029274E+03 -0.29643654502E+02 -0.71383356616E+03  0.80997277106E+03  0.00000000000E+00 0. -1.
        -13    1    3    3    0    0 -0.48434246581E+03 -0.12716328147E+03 -0.82930303496E+03  0.96876294734E+03  0.00000000000E+00 0.  1.
         22    1    1    2    0    0  0.86594275855E+03  0.15680693597E+03  0.12502802001E+04  0.15289361841E+04  0.00000000000E+00 0. -1.
<mgrwt>
<rscale>  0 0.32946819E+04</rscale>
<asrwt>0</asrwt>
<pdfrwt beam="1">  1        1 0.23190888E+00 0.32946819E+04</pdfrwt>
<pdfrwt beam="2">  1       -1 0.27696372E+00 0.32946819E+04</pdfrwt>
<totfact> 0.24985362E-01</totfact>
</mgrwt>
</event>
<event>
 6    1  0.1637818E-005  0.1114900E+04  0.7818608E-02  0.9190789E-01
         -2   -1    0    0    0  501 -0.00000000000E+00  0.00000000000E+00  0.56119967078E+03  0.56119967078E+03  0.00000000000E+00 0.  1.
          2   -1    0    0  501    0  0.00000000000E+00 -0.00000000000E+00 -0.55372582015E+03  0.55372582015E+03  0.00000000000E+00 0. -1.
         23    2    1    2    0    0  0.49771903782E+02 -0.38499422902E+03 -0.39082395036E+03  0.55874302352E+03  0.93555370662E+02 0.  0.
         11    1    3    3    0    0  0.65815945118E+02 -0.31636533721E+03 -0.35369709427E+03  0.47908287354E+03  0.00000000000E+00 0.  1.
        -11    1    3    3    0    0 -0.16044041336E+02 -0.68628891807E+02 -0.37126856087E+02  0.79660149987E+02  0.00000000000E+00 0. -1.
         22    1    1    2    0    0 -0.49771903782E+02  0.38499422902E+03  0.39829780098E+03  0.55618246741E+03  0.00000000000E+00 0.  1.
<mgrwt>
<rscale>  0 0.11149004E+04</rscale>
<asrwt>0</asrwt>
<pdfrwt beam="1">  1        2 0.85188588E-01 0.11149004E+04</pdfrwt>
<pdfrwt beam="2">  1       -2 0.86338411E-01 0.11149004E+04</pdfrwt>
<totfact> 0.63021225E+01</totfact>
</mgrwt>
</event>
<event>
 6    1  0.1637818E-005  0.3517454E+04  0.7818608E-02  0.8109666E-01
         -2   -1    0    0    0  501 -0.00000000000E+00  0.00000000000E+00  0.13827060195E+04  0.13827060195E+04  0.00000000000E+00 0.  1.
          2   -1    0    0  501    0  0.00000000000E+00 -0.00000000000E+00 -0.22370048098E+04  0.22370048098E+04  0.00000000000E+00 0. -1.
         23    2    1    2    0    0 -0.15910050120E+04 -0.19875880839E+03 -0.11682736242E+04  0.19858864176E+04  0.89886543161E+02 0.  0.
         13    1    3    3    0    0 -0.13147579120E+04 -0.16172489696E+03 -0.10060625449E+04  0.16634016814E+04  0.00000000000E+00 0. -1.
        -13    1    3    3    0    0 -0.27624710000E+03 -0.37033911426E+02 -0.16221107931E+03  0.32248473623E+03  0.00000000000E+00 0.  1.
         22    1    1    2    0    0  0.15910050120E+04  0.19875880839E+03  0.31397483394E+03  0.16338244117E+04  0.00000000000E+00 0.  1.
<mgrwt>
<rscale>  0 0.35174536E+04</rscale>
<asrwt>0</asrwt>
<pdfrwt beam="1">  1        2 0.34415459E+00 0.35174536E+04</pdfrwt>
<pdfrwt beam="2">  1       -2 0.21272400E+00 0.35174536E+04</pdfrwt>
<totfact> 0.44415966E-01</totfact>
</mgrwt>
</event>
<event>
 6    1  0.1637818E-005  0.1832949E+04  0.7818608E-02  0.8688971E-01
          1   -1    0    0  501    0  0.00000000000E+00  0.00000000000E+00  0.10211309910E+04  0.10211309910E+04  0.00000000000E+00 0. -1.
         -1   -1    0    0    0  501 -0.00000000000E+00 -0.00000000000E+00 -0.82254416989E+03  0.82254416989E+03  0.00000000000E+00 0.  1.
         23    2    1    2    0    0  0.56035999611E+03 -0.52745248625E+03 -0.39751498265E+03  0.87025499932E+03  0.84357287241E+02 0.  0.
         11    1    3    3    0    0  0.27953665773E+03 -0.21029448308E+03 -0.16091295647E+03  0.38504219534E+03  0.00000000000E+00 0. -1.
        -11    1    3    3    0    0  0.28082333838E+03 -0.31715800317E+03 -0.23660202618E+03  0.48521280398E+03  0.00000000000E+00 0.  1.
         22    1    1    2    0    0 -0.56035999611E+03  0.52745248625E+03  0.59610180377E+03  0.97342016158E+03  0.00000000000E+00 0. -1.
<mgrwt>
<rscale>  0 0.18329488E+04</rscale>
<asrwt>0</asrwt>
<pdfrwt beam="1">  1        1 0.15709707E+00 0.18329488E+04</pdfrwt>
<pdfrwt beam="2">  1       -1 0.12654526E+00 0.18329488E+04</pdfrwt>
<totfact> 0.74405024E+00</totfact>
</mgrwt>
</event>
<event>
 6    1  0.1637818E-005  0.2806487E+04  0.7818608E-02  0.8301257E-01
         -2   -1    0    0    0  501 -0.00000000000E+00  0.00000000000E+00  0.47434177295E+03  0.47434177295E+03  0.00000000000E+00 0.  1.
          2   -1    0    0  501    0  0.00000000000E+00 -0.00000000000E+00 -0.41512095452E+04  0.41512095452E+04  0.00000000000E+00 0. -1.
         23    2    1    2    0    0  0.72868041160E+02 -0.13585828226E+04 -0.23967939703E+04  0.27574919038E+04  0.89906763526E+02 0.  0.
         13    1    3    3    0    0  0.48058654196E+02 -0.56526819859E+03 -0.91760041238E+03  0.10788087353E+04  0.00000000000E+00 0.  1.
        -13    1    3    3    0    0  0.24809386964E+02 -0.79331462396E+03 -0.14791935580E+04  0.16786831685E+04  0.00000000000E+00 0. -1.
         22    1    1    2    0    0 -0.72868041160E+02  0.13585828226E+04 -0.12800738019E+04  0.18680594143E+04  0.00000000000E+00 0. -1.
<mgrwt>
<rscale>  0 0.28064868E+04</rscale>
<asrwt>0</asrwt>
<pdfrwt beam="1">  1        2 0.63864764E+00 0.28064868E+04</pdfrwt>
<pdfrwt beam="2">  1       -2 0.72975656E-01 0.28064868E+04</pdfrwt>
<totfact> 0.37826658E-01</totfact>
</mgrwt>
</event>
<event>
 6    1  0.1637818E-005  0.1477529E+04  0.7818608E-02  0.8899535E-01
          2   -1    0    0  501    0  0.00000000000E+00  0.00000000000E+00  0.21330378473E+04  0.21330378473E+04  0.00000000000E+00 0. -1.
         -2   -1    0    0    0  501 -0.00000000000E+00 -0.00000000000E+00 -0.25586640612E+03  0.25586640612E+03  0.00000000000E+00 0.  1.
         23    2    1    2    0    0  0.48477658408E+03 -0.54628097423E+03  0.10889763413E+04  0.13143425964E+04  0.90530379088E+02 0.  0.
         13    1    3    3    0    0  0.30184227350E+03 -0.35900463707E+03  0.62247440190E+03  0.77940199418E+03  0.00000000000E+00 0. -1.
        -13    1    3    3    0    0  0.18293431058E+03 -0.18727633715E+03  0.46650193937E+03  0.53494060220E+03  0.00000000000E+00 0.  1.
         22    1    1    2    0    0 -0.48477658408E+03  0.54628097423E+03  0.78819509991E+03  0.10745616570E+04  0.00000000000E+00 0.  1.
<mgrwt>
<rscale>  0 0.14775287E+04</rscale>
<asrwt>0</asrwt>
<pdfrwt beam="1">  1        2 0.32815966E+00 0.14775287E+04</pdfrwt>
<pdfrwt beam="2">  1       -2 0.39364064E-01 0.14775287E+04</pdfrwt>
<totfact> 0.33287653E+01</totfact>
</mgrwt>
</event>
<event>
 6    1  0.1637818E-005  0.1262475E+04  0.7818608E-02  0.9059864E-01
          2   -1    0    0  501    0  0.00000000000E+00  0.00000000000E+00  0.21116735735E+04  0.21116735735E+04  0.00000000000E+00 0. -1.
         -2   -1    0    0    0  501 -0.00000000000E+00 -0.00000000000E+00 -0.18869416578E+03  0.18869416578E+03  0.00000000000E+00 0.  1.
         23    2    1    2    0    0 -0.49935106556E+03  0.31353263419E+03  0.13593588319E+04  0.14846947945E+04  0.93850943493E+02 0.  0.
         11    1    3    3    0    0 -0.18134063206E+03  0.10940239961E+03  0.60461118390E+03  0.64063093398E+03  0.00000000000E+00 0. -1.
        -11    1    3    3    0    0 -0.31801043349E+03  0.20413023458E+03  0.75474764796E+03  0.84406386049E+03  0.00000000000E+00 0.  1.
         22    1    1    2    0    0  0.49935106556E+03 -0.31353263419E+03  0.56362057589E+03  0.81567294484E+03  0.00000000000E+00 0.  1.
<mgrwt>
<rscale>  0 0.12624745E+04</rscale>
<asrwt>0</asrwt>
<pdfrwt beam="1">  1        2 0.32487284E+00 0.12624745E+04</pdfrwt>
<pdfrwt beam="2">  1       -2 0.29029873E-01 0.12624745E+04</pdfrwt>
<totfact> 0.62117650E+01</totfact>
</mgrwt>
</event>
<event>
 6    1  0.1637818E-005  0.9793544E+03  0.7818608E-02  0.9331483E-01
         -1   -1    0    0    0  501 -0.00000000000E+00  0.00000000000E+00  0.19398758254E+03  0.19398758254E+03  0.00000000000E+00 0.  1.
          1   -1    0    0  501    0  0.00000000000E+00 -0.00000000000E+00 -0.12360779424E+04  0.12360779424E+04  0.00000000000E+00 0. -1.
         23    2    1    2    0    0 -0.39620166770E+03  0.27899082572E+03 -0.47988785349E+03  0.68785039407E+03  0.89633533741E+02 0.  0.
         13    1    3    3    0    0 -0.26765888153E+03  0.22925011078E+03 -0.31244852048E+03  0.47097873424E+03  0.00000000000E+00 0. -1.
        -13    1    3    3    0    0 -0.12854278617E+03  0.49740714935E+02 -0.16743933301E+03  0.21687165983E+03  0.00000000000E+00 0.  1.
         22    1    1    2    0    0  0.39620166770E+03 -0.27899082572E+03 -0.56220250636E+03  0.74221513086E+03  0.00000000000E+00 0. -1.
<mgrwt>
<rscale>  0 0.97935442E+03</rscale>
<asrwt>0</asrwt>
<pdfrwt beam="1">  1        1 0.19016584E+00 0.97935442E+03</pdfrwt>
<pdfrwt beam="2">  1       -1 0.29844243E-01 0.97935442E+03</pdfrwt>
<totfact> 0.10385255E+02</totfact>
</mgrwt>
</event>
<event>
 6    1  0.1637818E-005  0.1163961E+04  0.7818608E-02  0.9145000E-01
         -1   -1    0    0    0  501 -0.00000000000E+00  0.00000000000E+00  0.48048437558E+03  0.48048437558E+03  0.00000000000E+00 0.  1.
          1   -1    0    0  501    0  0.00000000000E+00 -0.00000000000E+00 -0.70491637243E+03  0.70491637243E+03  0.00000000000E+00 0. -1.
         23    2    1    2    0    0 -0.21208026157E+03 -0.17655013866E+03 -0.63054436215E+03  0.69440661154E+03  0.92012829040E+02 0.  0.
         13    1    3    3    0    0 -0.18307074243E+03 -0.17303789937E+03 -0.49115857831E+03  0.55199072493E+03  0.00000000000E+00 0. -1.
        -13    1    3    3    0    0 -0.29009519143E+02 -0.35122392858E+01 -0.13938578383E+03  0.14241588662E+03  0.00000000000E+00 0.  1.
         22    1    1    2    0    0  0.21208026157E+03  0.17655013866E+03  0.40611236529E+03  0.49099413647E+03  0.00000000000E+00 0.  1.
<mgrwt>
<rscale>  0 0.11639610E+04</rscale>
<asrwt>0</asrwt>
<pdfrwt beam="1">  1        1 0.10844867E+00 0.11639610E+04</pdfrwt>
<pdfrwt beam="2">  1       -1 0.73920673E-01 0.11639610E+04</pdfrwt>
<totfact> 0.49310151E+01</totfact>
</mgrwt>
</event>
<event>
 6    1  0.1637818E-005  0.4983842E+04  0.7818608E-02  0.7831005E-01
          2   -1    0    0  501    0  0.00000000000E+00  0.00000000000E+00  0.13739542851E+04  0.13739542851E+04  0.00000000000E+00 0. -1.
         -2   -1    0    0    0  501 -0.00000000000E+00 -0.00000000000E+00 -0.45195611776E+04  0.45195611776E+04  0.00000000000E+00 0.  1.
         23    2    1    2    0    0 -0.50394352141E+03  0.20869487483E+04 -0.79292860392E+02  0.21503088301E+04  0.90700367244E+02 0.  0.
         11    1    3    3    0    0 -0.25077184219E+03  0.12110787279E+04 -0.26429530909E+02  0.12370516247E+04  0.00000000000E+00 0. -1.
        -11    1    3    3    0    0 -0.25317167922E+03  0.87587002040E+03 -0.52863329483E+02  0.91325720550E+03  0.00000000000E+00 0.  1.
         22    1    1    2    0    0  0.50394352141E+03 -0.20869487483E+04 -0.30663140321E+04  0.37432066326E+04  0.00000000000E+00 0.  1.
<mgrwt>
<rscale>  0 0.49838421E+04</rscale>
<asrwt>0</asrwt>
<pdfrwt beam="1">  1        2 0.21137759E+00 0.49838421E+04</pdfrwt>
<pdfrwt beam="2">  1       -2 0.69531709E+00 0.49838421E+04</pdfrwt>
<totfact> 0.26034121E-03</totfact>
</mgrwt>
</event>
<event>
 6    1  0.1637818E-005  0.5308974E+04  0.7818608E-02  0.7782536E-01
         -1   -1    0    0    0  501 -0.00000000000E+00  0.00000000000E+00  0.45374751897E+04  0.45374751897E+04  0.00000000000E+00 0.  1.
          1   -1    0    0  501    0  0.00000000000E+00 -0.00000000000E+00 -0.15529122272E+04  0.15529122272E+04  0.00000000000E+00 0. -1.
         23    2    1    2    0    0  0.18024087528E+04  0.13218621529E+04  0.31337502777E+04  0.38502415024E+04  0.89285831845E+02 0.  0.
         11    1    3    3    0    0  0.16663047026E+04  0.12473497622E+04  0.28990035464E+04  0.35688477627E+04  0.00000000000E+00 0.  1.
        -11    1    3    3    0    0  0.13610405025E+03  0.74512390667E+02  0.23474673136E+03  0.28139373970E+03  0.00000000000E+00 0. -1.
         22    1    1    2    0    0 -0.18024087528E+04 -0.13218621529E+04 -0.14918731519E+03  0.22401459145E+04  0.00000000000E+00 0. -1.
<mgrwt>
<rscale>  0 0.53089738E+04</rscale>
<asrwt>0</asrwt>
<pdfrwt beam="1">  1        1 0.23890958E+00 0.53089738E+04</pdfrwt>
<pdfrwt beam="2">  1       -1 0.69807310E+00 0.53089738E+04</pdfrwt>
<totfact> 0.87174632E-04</totfact>
</mgrwt>
</event>
<event>
 6    1  0.1637818E-005  0.1458111E+04  0.7818608E-02  0.8912797E-01
         -4   -1    0    0    0  501 -0.00000000000E+00  0.00000000000E+00  0.38996847849E+03  0.38996847849E+03  0.00000000000E+00 0.  1.
          4   -1    0    0  501    0  0.00000000000E+00 -0.00000000000E+00 -0.13629867883E+04  0.13629867883E+04  0.00000000000E+00 0. -1.
         23    2    1    2    0    0 -0.68521718656E+03  0.23729482732E+03 -0.44474201500E+03  0.85578902159E+03  0.93530539025E+02 0.  0.
         11    1    3    3    0    0 -0.33543314527E+03  0.11846020902E+03 -0.16357481685E+03  0.39154174334E+03  0.00000000000E+00 0.  1.
        -11    1    3    3    0    0 -0.34978404129E+03  0.11883461830E+03 -0.28116719815E+03  0.46424727825E+03  0.00000000000E+00 0. -1.
         22    1    1    2    0    0  0.68521718656E+03 -0.23729482732E+03 -0.52827629476E+03  0.89716624515E+03  0.00000000000E+00 0. -1.
<mgrwt>
<rscale>  0 0.14581109E+04</rscale>
<asrwt>0</asrwt>
<pdfrwt beam="1">  1        4 0.20969028E+00 0.14581109E+04</pdfrwt>
<pdfrwt beam="2">  1       -4 0.59995151E-01 0.14581109E+04</pdfrwt>
<totfact> 0.57803900E-01</totfact>
</mgrwt>
</event>
<event>
 6    1  0.1637818E-005  0.5117830E+04  0.7818608E-02  0.7810584E-01
         -1   -1    0    0    0  501 -0.00000000000E+00  0.00000000000E+00  0.22933584640E+04  0.22933584640E+04  0.00000000000E+00 0.  1.
          1   -1    0    0  501    0  0.00000000000E+00 -0.00000000000E+00 -0.28552209325E+04  0.28552209325E+04  0.00000000000E+00 0. -1.
         23    2    1    2    0    0  0.60068020181E+03 -0.29991566149E+02 -0.27823696800E+04  0.28480645682E+04  0.90413216184E+02 0.  0.
         13    1    3    3    0    0  0.38064747879E+03  0.24228220977E+02 -0.17761918372E+04  0.18166829531E+04  0.00000000000E+00 0.  1.
        -13    1    3    3    0    0  0.22003272302E+03 -0.54219787126E+02 -0.10061778429E+04  0.10313816151E+04  0.00000000000E+00 0. -1.
         22    1    1    2    0    0 -0.60068020181E+03  0.29991566149E+02  0.22205072115E+04  0.23005148283E+04  0.00000000000E+00 0.  1.
<mgrwt>
<rscale>  0 0.51178297E+04</rscale>
<asrwt>0</asrwt>
<pdfrwt beam="1">  1        1 0.43926476E+00 0.51178297E+04</pdfrwt>
<pdfrwt beam="2">  1       -1 0.35282438E+00 0.51178297E+04</pdfrwt>
<totfact> 0.80999901E-03</totfact>
</mgrwt>
</event>
<event>
 6    1  0.1637818E-005  0.1157409E+04  0.7818608E-02  0.9150975E-01
          1   -1    0    0  501    0  0.00000000000E+00  0.00000000000E+00  0.22776499225E+04  0.22776499225E+04  0.00000000000E+00 0. -1.
         -1   -1    0    0    0  501 -0.00000000000E+00 -0.00000000000E+00 -0.14703708197E+03  0.14703708197E+03  0.00000000000E+00 0.  1.
         23    2    1    2    0    0  0.15583477088E+03 -0.40997300890E+03  0.29247092940E+03  0.53494415708E+03  0.90904690788E+02 0.  0.
         13    1    3    3    0    0  0.34356553424E+02 -0.11641339249E+03  0.35891390315E+02  0.12657267720E+03  0.00000000000E+00 0. -1.
        -13    1    3    3    0    0  0.12147821745E+03 -0.29355961641E+03  0.25657953908E+03  0.40837147988E+03  0.00000000000E+00 0.  1.
         22    1    1    2    0    0 -0.15583477088E+03  0.40997300890E+03  0.18381419112E+04  0.18897428474E+04  0.00000000000E+00 0. -1.
<mgrwt>
<rscale>  0 0.11574092E+04</rscale>
<asrwt>0</asrwt>
<pdfrwt beam="1">  1        1 0.35040765E+00 0.11574092E+04</pdfrwt>
<pdfrwt beam="2">  1       -1 0.22621091E-01 0.11574092E+04</pdfrwt>
<totfact> 0.31952804E+01</totfact>
</mgrwt>
</event>
<event>
 6    1  0.1637818E-005  0.3207313E+04  0.7818608E-02  0.8186888E-01
         -1   -1    0    0    0  501 -0.00000000000E+00  0.00000000000E+00  0.16348174549E+04  0.16348174549E+04  0.00000000000E+00 0.  1.
          1   -1    0    0  501    0  0.00000000000E+00 -0.00000000000E+00 -0.15730898259E+04  0.15730898259E+04  0.00000000000E+00 0. -1.
         23    2    1    2    0    0 -0.53438956394E+03  0.28935399144E+03  0.15137859796E+04  0.16338134488E+04  0.92197912170E+02 0.  0.
         13    1    3    3    0    0 -0.32397309935E+03  0.21224211998E+03  0.87595944530E+03  0.95776314212E+03  0.00000000000E+00 0. -1.
        -13    1    3    3    0    0 -0.21041646459E+03  0.77111871461E+02  0.63782653434E+03  0.67605030671E+03  0.00000000000E+00 0.  1.
         22    1    1    2    0    0  0.53438956394E+03 -0.28935399144E+03 -0.14520583506E+04  0.15740938320E+04  0.00000000000E+00 0. -1.
<mgrwt>
<rscale>  0 0.32073133E+04</rscale>
<asrwt>0</asrwt>
<pdfrwt beam="1">  1        1 0.24201382E+00 0.32073133E+04</pdfrwt>
<pdfrwt beam="2">  1       -1 0.25151038E+00 0.32073133E+04</pdfrwt>
<totfact> 0.33183278E-01</totfact>
</mgrwt>
</event>
<event>
 6    1  0.1637818E-005  0.3383128E+04  0.7818608E-02  0.8142060E-01
          2   -1    0    0  501    0  0.00000000000E+00  0.00000000000E+00  0.25485405476E+04  0.25485405476E+04  0.00000000000E+00 0. -1.
         -2   -1    0    0    0  501 -0.00000000000E+00 -0.00000000000E+00 -0.11227555882E+04  0.11227555882E+04  0.00000000000E+00 0.  1.
         23    2    1    2    0    0 -0.59837786981E+03  0.98021456337E+03  0.20593295877E+04  0.23597110408E+04  0.92310237533E+02 0.  0.
         11    1    3    3    0    0 -0.21868722320E+03  0.27834208066E+03  0.61469066766E+03  0.70932575899E+03  0.00000000000E+00 0.  1.
        -11    1    3    3    0    0 -0.37969064661E+03  0.70187248270E+03  0.14446389201E+04  0.16503852818E+04  0.00000000000E+00 0. -1.
         22    1    1    2    0    0  0.59837786981E+03 -0.98021456337E+03 -0.63354462835E+03  0.13115850950E+04  0.00000000000E+00 0.  1.
<mgrwt>
<rscale>  0 0.33831276E+04</rscale>
<asrwt>0</asrwt>
<pdfrwt beam="1">  1        2 0.39208316E+00 0.33831276E+04</pdfrwt>
<pdfrwt beam="2">  1       -2 0.17273163E+00 0.33831276E+04</pdfrwt>
<totfact> 0.55149560E-01</totfact>
</mgrwt>
</event>
<event>
 6    1  0.1637818E-005  0.4330388E+04  0.7818608E-02  0.7941023E-01
          2   -1    0    0  501    0  0.00000000000E+00  0.00000000000E+00  0.27163446512E+04  0.27163446512E+04  0.00000000000E+00 0. -1.
         -2   -1    0    0    0  501 -0.00000000000E+00 -0.00000000000E+00 -0.17258730345E+04  0.17258730345E+04  0.00000000000E+00 0.  1.
         23    2    1    2    0    0 -0.93359839021E+01 -0.21211102706E+04  0.93644794916E+03  0.23203990088E+04  0.90115804304E+02 0.  0.
         11    1    3    3    0    0 -0.29496054806E+02 -0.10655075160E+04  0.51156535218E+03  0.11823178056E+04  0.00000000000E+00 0. -1.
        -11    1    3    3    0    0  0.20160070904E+02 -0.10556027546E+04  0.42488259698E+03  0.11380812033E+04  0.00000000000E+00 0.  1.
         22    1    1    2    0    0  0.93359839021E+01  0.21211102706E+04  0.54023667568E+02  0.21218186768E+04  0.00000000000E+00 0.  1.
<mgrwt>
<rscale>  0 0.43303884E+04</rscale>
<asrwt>0</asrwt>
<pdfrwt beam="1">  1        2 0.41789917E+00 0.43303884E+04</pdfrwt>
<pdfrwt beam="2">  1       -2 0.26551893E+00 0.43303884E+04</pdfrwt>
<totfact> 0.10294596E-01</totfact>
</mgrwt>
</event>
<event>
 6    1  0.1637818E-005  0.8230202E+03  0.7818608E-02  0.9527281E-01
         -1   -1    0    0    0  501 -0.00000000000E+00  0.00000000000E+00  0.35621002107E+03  0.35621002107E+03  0.00000000000E+00 0.  1.
          1   -1    0    0  501    0  0.00000000000E+00 -0.00000000000E+00 -0.47539530993E+03  0.47539530993E+03  0.00000000000E+00 0. -1.
         23    2    1    2    0    0  0.31656692287E+03 -0.43396541961E+02  0.19349535074E+03  0.38454039288E+03  0.91285193139E+02 0.  0.
         11    1    3    3    0    0  0.16892727020E+03 -0.29174072151E+02  0.15545479846E+03  0.23141681760E+03  0.00000000000E+00 0.  1.
        -11    1    3    3    0    0  0.14763965267E+03 -0.14222469809E+02  0.38040552278E+02  0.15312357528E+03  0.00000000000E+00 0. -1.
         22    1    1    2    0    0 -0.31656692287E+03  0.43396541961E+02 -0.31268063960E+03  0.44706493812E+03  0.00000000000E+00 0. -1.
<mgrwt>
<rscale>  0 0.82302023E+03</rscale>
<asrwt>0</asrwt>
<pdfrwt beam="1">  1        1 0.73137740E-01 0.82302023E+03</pdfrwt>
<pdfrwt beam="2">  1       -1 0.54801542E-01 0.82302023E+03</pdfrwt>
<totfact> 0.16162466E+02</totfact>
</mgrwt>
</event>
<event>
 6    1  0.1637818E-005  0.3944807E+04  0.7818608E-02  0.8015774E-01
         -2   -1    0    0    0  501 -0.00000000000E+00  0.00000000000E+00  0.20379788520E+04  0.20379788520E+04  0.00000000000E+00 0.  1.
          2   -1    0    0  501    0  0.00000000000E+00 -0.00000000000E+00 -0.19089380573E+04  0.19089380573E+04  0.00000000000E+00 0. -1.
         23    2    1    2    0    0  0.79733017197E+03 -0.20793127964E+03 -0.17272592724E+04  0.19159514346E+04  0.92056967343E+02 0.  0.
         13    1    3    3    0    0  0.20145038229E+03 -0.40524446090E+02 -0.52357378465E+03  0.56245354939E+03  0.00000000000E+00 0. -1.
        -13    1    3    3    0    0  0.59587978969E+03 -0.16740683355E+03 -0.12036854878E+04  0.13534978852E+04  0.00000000000E+00 0.  1.
         22    1    1    2    0    0 -0.79733017197E+03  0.20793127964E+03  0.18563000671E+04  0.20309654747E+04  0.00000000000E+00 0.  1.
<mgrwt>
<rscale>  0 0.39448069E+04</rscale>
<asrwt>0</asrwt>
<pdfrwt beam="1">  1        2 0.29368278E+00 0.39448069E+04</pdfrwt>
<pdfrwt beam="2">  1       -2 0.31353521E+00 0.39448069E+04</pdfrwt>
<totfact> 0.15612706E-01</totfact>
</mgrwt>
</event>
<event>
 6    1  0.1637818E-005  0.3014137E+04  0.7818608E-02  0.8239706E-01
         -2   -1    0    0    0  501 -0.00000000000E+00  0.00000000000E+00  0.15194074450E+04  0.15194074450E+04  0.00000000000E+00 0.  1.
          2   -1    0    0  501    0  0.00000000000E+00 -0.00000000000E+00 -0.14948294412E+04  0.14948294412E+04  0.00000000000E+00 0. -1.
         23    2    1    2    0    0  0.22148500750E+03 -0.56261719941E+03 -0.13667589647E+04  0.14971962533E+04  0.89290713787E+02 0.  0.
         13    1    3    3    0    0  0.19287897897E+03 -0.39924997709E+03 -0.10459326218E+04  0.11360360443E+04  0.00000000000E+00 0.  1.
        -13    1    3    3    0    0  0.28606028538E+02 -0.16336722233E+03 -0.32082634296E+03  0.36116020896E+03  0.00000000000E+00 0. -1.
         22    1    1    2    0    0 -0.22148500750E+03  0.56261719941E+03  0.13913369686E+04  0.15170406329E+04  0.00000000000E+00 0.  1.
<mgrwt>
<rscale>  0 0.30141367E+04</rscale>
<asrwt>0</asrwt>
<pdfrwt beam="1">  1        2 0.22997376E+00 0.30141367E+04</pdfrwt>
<pdfrwt beam="2">  1       -2 0.23375499E+00 0.30141367E+04</pdfrwt>
<totfact> 0.88513122E-01</totfact>
</mgrwt>
</event>
<event>
 6    1  0.1637818E-005  0.2203336E+04  0.7818608E-02  0.8517041E-01
          1   -1    0    0  501    0  0.00000000000E+00  0.00000000000E+00  0.94097252501E+03  0.94097252501E+03  0.00000000000E+00 0. -1.
         -1   -1    0    0    0  501 -0.00000000000E+00 -0.00000000000E+00 -0.12898059045E+04  0.12898059045E+04  0.00000000000E+00 0.  1.
         23    2    1    2    0    0  0.81279442535E+03 -0.42876528934E+03 -0.78681909680E+03  0.12127872999E+04  0.85406630921E+02 0.  0.
         13    1    3    3    0    0  0.53593147004E+03 -0.25997174272E+03 -0.46206020295E+03  0.75386171062E+03  0.00000000000E+00 0. -1.
        -13    1    3    3    0    0  0.27686295531E+03 -0.16879354662E+03 -0.32475889385E+03  0.45892558932E+03  0.00000000000E+00 0.  1.
         22    1    1    2    0    0 -0.81279442535E+03  0.42876528934E+03  0.43798571733E+03  0.10179911295E+04  0.00000000000E+00 0. -1.
<mgrwt>
<rscale>  0 0.22033356E+04</rscale>
<asrwt>0</asrwt>
<pdfrwt beam="1">  1        1 0.14476500E+00 0.22033356E+04</pdfrwt>
<pdfrwt beam="2">  1       -1 0.19843168E+00 0.22033356E+04</pdfrwt>
<totfact> 0.23702967E+00</totfact>
</mgrwt>
</event>
<event>
 6    1  0.1637818E-005  0.1763142E+04  0.7818608E-02  0.8726149E-01
          2   -1    0    0  501    0  0.00000000000E+00  0.00000000000E+00  0.82104453128E+03  0.82104453128E+03  0.00000000000E+00 0. -1.
         -2   -1    0    0    0  501 -0.00000000000E+00 -0.00000000000E+00 -0.94655947299E+03  0.94655947299E+03  0.00000000000E+00 0.  1.
         23    2    1    2    0    0  0.16472456240E+03  0.59766277107E+03  0.56205104295E+03  0.84181679726E+03  0.91756067351E+02 0.  0.
         13    1    3    3    0    0  0.74791377831E+02  0.20651309835E+03  0.25451928692E+03  0.33618667047E+03  0.00000000000E+00 0. -1.
        -13    1    3    3    0    0  0.89933184566E+02  0.39114967272E+03  0.30753175603E+03  0.50563012680E+03  0.00000000000E+00 0.  1.
         22    1    1    2    0    0 -0.16472456240E+03 -0.59766277107E+03 -0.68756598466E+03  0.92578720700E+03  0.00000000000E+00 0.  1.
<mgrwt>
<rscale>  0 0.17631421E+04</rscale>
<asrwt>0</asrwt>
<pdfrwt beam="1">  1        2 0.12631454E+00 0.17631421E+04</pdfrwt>
<pdfrwt beam="2">  1       -2 0.14562453E+00 0.17631421E+04</pdfrwt>
<totfact> 0.10202339E+01</totfact>
</mgrwt>
</event>
<event>
 6    1  0.1637818E-005  0.3691778E+04  0.7818608E-02  0.8069786E-01
          1   -1    0    0  501    0  0.00000000000E+00  0.00000000000E+00  0.18687783489E+04  0.18687783489E+04  0.00000000000E+00 0. -1.
         -1   -1    0    0    0  501 -0.00000000000E+00 -0.00000000000E+00 -0.18232800122E+04  0.18232800122E+04  0.00000000000E+00 0.  1.
         23    2    1    2    0    0  0.17935788491E+04 -0.42924090997E+03  0.73985285971E+02  0.18476114650E+04  0.83794130502E+02 0.  0.
         11    1    3    3    0    0  0.40827809864E+03 -0.61822462551E+02  0.16680110162E+02  0.41326897873E+03  0.00000000000E+00 0. -1.
        -11    1    3    3    0    0  0.13853007504E+04 -0.36741844742E+03  0.57305175809E+02  0.14343424862E+04  0.00000000000E+00 0.  1.
         22    1    1    2    0    0 -0.17935788491E+04  0.42924090997E+03 -0.28486949266E+02  0.18444468962E+04  0.00000000000E+00 0.  1.
<mgrwt>
<rscale>  0 0.36917780E+04</rscale>
<asrwt>0</asrwt>
<pdfrwt beam="1">  1        1 0.28750436E+00 0.36917780E+04</pdfrwt>
<pdfrwt beam="2">  1       -1 0.28050462E+00 0.36917780E+04</pdfrwt>
<totfact> 0.12974794E-01</totfact>
</mgrwt>
</event>
<event>
 6    1  0.1637818E-005  0.2523907E+04  0.7818608E-02  0.8394518E-01
         -1   -1    0    0    0  501 -0.00000000000E+00  0.00000000000E+00  0.77107097864E+03  0.77107097864E+03  0.00000000000E+00 0.  1.
          1   -1    0    0  501    0  0.00000000000E+00 -0.00000000000E+00 -0.20653441112E+04  0.20653441112E+04  0.00000000000E+00 0. -1.
         23    2    1    2    0    0 -0.41157745927E+03 -0.10976268778E+04 -0.11677115308E+04  0.16573482525E+04  0.95248322746E+02 0.  0.
         11    1    3    3    0    0 -0.13859978372E+03 -0.26284524920E+03 -0.27089698189E+03  0.40209787350E+03  0.00000000000E+00 0.  1.
        -11    1    3    3    0    0 -0.27297767555E+03 -0.83478162861E+03 -0.89681454894E+03  0.12552503790E+04  0.00000000000E+00 0. -1.
         22    1    1    2    0    0  0.41157745927E+03  0.10976268778E+04 -0.12656160174E+03  0.11790668373E+04  0.00000000000E+00 0.  1.
<mgrwt>
<rscale>  0 0.25239072E+04</rscale>
<asrwt>0</asrwt>
<pdfrwt beam="1">  1        1 0.31774524E+00 0.25239072E+04</pdfrwt>
<pdfrwt beam="2">  1       -1 0.11862631E+00 0.25239072E+04</pdfrwt>
<totfact> 0.15186355E+00</totfact>
</mgrwt>
</event>
<event>
 6    1  0.1637818E-005  0.2474155E+04  0.7818608E-02  0.8412251E-01
          2   -1    0    0  501    0  0.00000000000E+00  0.00000000000E+00  0.21385355840E+04  0.21385355840E+04  0.00000000000E+00 0. -1.
         -2   -1    0    0    0  501 -0.00000000000E+00 -0.00000000000E+00 -0.71561165577E+03  0.71561165577E+03  0.00000000000E+00 0.  1.
         23    2    1    2    0    0 -0.95200654366E+03 -0.68970603432E+03  0.27452828155E+03  0.12107290233E+04  0.92130980091E+02 0.  0.
         13    1    3    3    0    0 -0.71915251676E+03 -0.49828854369E+03  0.24060634398E+03  0.90739364551E+03  0.00000000000E+00 0. -1.
        -13    1    3    3    0    0 -0.23285402690E+03 -0.19141749063E+03  0.33921937565E+02  0.30333537778E+03  0.00000000000E+00 0.  1.
         22    1    1    2    0    0  0.95200654366E+03  0.68970603432E+03  0.11483956467E+04  0.16434182165E+04  0.00000000000E+00 0. -1.
<mgrwt>
<rscale>  0 0.24741552E+04</rscale>
<asrwt>0</asrwt>
<pdfrwt beam="1">  1        2 0.32900547E+00 0.24741552E+04</pdfrwt>
<pdfrwt beam="2">  1       -2 0.11009410E+00 0.24741552E+04</pdfrwt>
<totfact> 0.32761441E+00</totfact>
</mgrwt>
</event>
<event>
 6    1  0.1637818E-005  0.4607964E+04  0.7818608E-02  0.7892003E-01
          2   -1    0    0  501    0  0.00000000000E+00  0.00000000000E+00  0.13486705312E+04  0.13486705312E+04  0.00000000000E+00 0. -1.
         -2   -1    0    0    0  501 -0.00000000000E+00 -0.00000000000E+00 -0.39359747015E+04  0.39359747015E+04  0.00000000000E+00 0.  1.
         23    2    1    2    0    0 -0.17678881934E+04 -0.32080557917E+03  0.35808424705E+03  0.18344774377E+04  0.93478647128E+02 0.  0.
         13    1    3    3    0    0 -0.88837287308E+03 -0.20826266241E+03  0.18808874636E+03  0.93164213874E+03  0.00000000000E+00 0. -1.
        -13    1    3    3    0    0 -0.87951532037E+03 -0.11254291677E+03  0.16999550069E+03  0.90283529900E+03  0.00000000000E+00 0.  1.
         22    1    1    2    0    0  0.17678881934E+04  0.32080557917E+03 -0.29453884173E+04  0.34501677949E+04  0.00000000000E+00 0.  1.
<mgrwt>
<rscale>  0 0.46079640E+04</rscale>
<asrwt>0</asrwt>
<pdfrwt beam="1">  1        2 0.20748778E+00 0.46079640E+04</pdfrwt>
<pdfrwt beam="2">  1       -2 0.60553456E+00 0.46079640E+04</pdfrwt>
<totfact> 0.56537541E-03</totfact>
</mgrwt>
</event>
<event>
 6    1  0.1637818E-005  0.2085874E+04  0.7818608E-02  0.8567492E-01
         -2   -1    0    0    0  501 -0.00000000000E+00  0.00000000000E+00  0.44380750170E+03  0.44380750170E+03  0.00000000000E+00 0.  1.
          2   -1    0    0  501    0  0.00000000000E+00 -0.00000000000E+00 -0.24508763851E+04  0.24508763851E+04  0.00000000000E+00 0. -1.
         23    2    1    2    0    0  0.82958493995E+03 -0.47757233295E+02 -0.13522020041E+03  0.84668256406E+03  0.89971860970E+02 0.  0.
         11    1    3    3    0    0  0.13916359737E+03 -0.32789257584E+02  0.56091933252E-01  0.14297428228E+03  0.00000000000E+00 0. -1.
        -11    1    3    3    0    0  0.69042134258E+03 -0.14967975711E+02 -0.13527629235E+03  0.70370828179E+03  0.00000000000E+00 0.  1.
         22    1    1    2    0    0 -0.82958493995E+03  0.47757233295E+02 -0.18718486830E+04  0.20480013227E+04  0.00000000000E+00 0. -1.
<mgrwt>
<rscale>  0 0.20858738E+04</rscale>
<asrwt>0</asrwt>
<pdfrwt beam="1">  1        2 0.37705791E+00 0.20858738E+04</pdfrwt>
<pdfrwt beam="2">  1       -2 0.68278077E-01 0.20858738E+04</pdfrwt>
<totfact> 0.67314440E+00</totfact>
</mgrwt>
</event>
<event>
 6    1  0.1637818E-005  0.2278370E+04  0.7818608E-02  0.8486499E-01
         -1   -1    0    0    0  501 -0.00000000000E+00  0.00000000000E+00  0.67830395583E+03  0.67830395583E+03  0.00000000000E+00 0.  1.
          1   -1    0    0  501    0  0.00000000000E+00 -0.00000000000E+00 -0.19132162370E+04  0.19132162370E+04  0.00000000000E+00 0. -1.
         23    2    1    2    0    0  0.11039577064E+04  0.96813776712E+02 -0.90917451386E+03  0.14364441702E+04  0.93155958108E+02 0.  0.
         13    1    3    3    0    0  0.34006823413E+03  0.67334624171E+02 -0.31182289232E+03  0.46627660423E+03  0.00000000000E+00 0. -1.
        -13    1    3    3    0    0  0.76388947230E+03  0.29479152542E+02 -0.59735162154E+03  0.97016756598E+03  0.00000000000E+00 0.  1.
         22    1    1    2    0    0 -0.11039577064E+04 -0.96813776712E+02 -0.32573776729E+03  0.11550760226E+04  0.00000000000E+00 0.  1.
<mgrwt>
<rscale>  0 0.22783697E+04</rscale>
<asrwt>0</asrwt>
<pdfrwt beam="1">  1        1 0.29434096E+00 0.22783697E+04</pdfrwt>
<pdfrwt beam="2">  1       -1 0.10435445E+00 0.22783697E+04</pdfrwt>
<totfact> 0.26688629E+00</totfact>
</mgrwt>
</event>
<event>
 6    1  0.1637818E-005  0.1522267E+04  0.7818608E-02  0.8869779E-01
         -1   -1    0    0    0  501 -0.00000000000E+00  0.00000000000E+00  0.30626340286E+03  0.30626340286E+03  0.00000000000E+00 0.  1.
          1   -1    0    0  501    0  0.00000000000E+00 -0.00000000000E+00 -0.18915891668E+04  0.18915891668E+04  0.00000000000E+00 0. -1.
         23    2    1    2    0    0  0.12291511033E+03  0.27839642121E+03 -0.17986488081E+04  0.18262083676E+04  0.85362610223E+02 0.  0.
         13    1    3    3    0    0  0.57395575752E+02  0.43052162862E+02 -0.39847485270E+03  0.40488263617E+03  0.00000000000E+00 0. -1.
        -13    1    3    3    0    0  0.65519534574E+02  0.23534425835E+03 -0.14001739554E+04  0.14213257314E+04  0.00000000000E+00 0.  1.
         22    1    1    2    0    0 -0.12291511033E+03 -0.27839642121E+03  0.21332304423E+03  0.37164420201E+03  0.00000000000E+00 0.  1.
<mgrwt>
<rscale>  0 0.15222674E+04</rscale>
<asrwt>0</asrwt>
<pdfrwt beam="1">  1        1 0.29101372E+00 0.15222674E+04</pdfrwt>
<pdfrwt beam="2">  1       -1 0.47117446E-01 0.15222674E+04</pdfrwt>
<totfact> 0.15318278E+01</totfact>
</mgrwt>
</event>
<event>
 6    1  0.1637818E-005  0.4113775E+04  0.7818608E-02  0.7981980E-01
         -2   -1    0    0    0  501 -0.00000000000E+00  0.00000000000E+00  0.17613080484E+04  0.17613080484E+04  0.00000000000E+00 0.  1.
          2   -1    0    0  501    0  0.00000000000E+00 -0.00000000000E+00 -0.24020708407E+04  0.24020708407E+04  0.00000000000E+00 0. -1.
         23    2    1    2    0    0  0.12912637148E+03 -0.13642203553E+04  0.12306915249E+04  0.18438720323E+04  0.86554284674E+02 0.  0.
         11    1    3    3    0    0  0.38018524408E+02 -0.27586567823E+03  0.20730781344E+03  0.34716539306E+03  0.00000000000E+00 0. -1.
        -11    1    3    3    0    0  0.91107847074E+02 -0.10883546771E+04  0.10233837114E+04  0.14967066392E+04  0.00000000000E+00 0.  1.
         22    1    1    2    0    0 -0.12912637148E+03  0.13642203553E+04 -0.18714543172E+04  0.23195068568E+04  0.00000000000E+00 0. -1.
<mgrwt>
<rscale>  0 0.41137753E+04</rscale>
<asrwt>0</asrwt>
<pdfrwt beam="1">  1        2 0.36954936E+00 0.41137753E+04</pdfrwt>
<pdfrwt beam="2">  1       -2 0.27097047E+00 0.41137753E+04</pdfrwt>
<totfact> 0.14817327E-01</totfact>
</mgrwt>
</event>
<event>
 6    1  0.1637818E-005  0.3401353E+04  0.7818608E-02  0.8137574E-01
          2   -1    0    0  501    0  0.00000000000E+00  0.00000000000E+00  0.28924940705E+04  0.28924940705E+04  0.00000000000E+00 0. -1.
         -2   -1    0    0    0  501 -0.00000000000E+00 -0.00000000000E+00 -0.99993327606E+03  0.99993327606E+03  0.00000000000E+00 0.  1.
         23    2    1    2    0    0 -0.38597946115E+03  0.13566712758E+04 -0.13791353438E+03  0.14201079709E+04  0.90274088812E+02 0.  0.
         11    1    3    3    0    0 -0.18249464290E+03  0.75881762787E+03 -0.10771871226E+03  0.78785265629E+03  0.00000000000E+00 0. -1.
        -11    1    3    3    0    0 -0.20348481826E+03  0.59785364794E+03 -0.30194822128E+02  0.63225531465E+03  0.00000000000E+00 0.  1.
         22    1    1    2    0    0  0.38597946115E+03 -0.13566712758E+04  0.20304743289E+04  0.24723193757E+04  0.00000000000E+00 0. -1.
<mgrwt>
<rscale>  0 0.34013533E+04</rscale>
<asrwt>0</asrwt>
<pdfrwt beam="1">  1        2 0.44499908E+00 0.34013533E+04</pdfrwt>
<pdfrwt beam="2">  1       -2 0.15383589E+00 0.34013533E+04</pdfrwt>
<totfact> 0.47089919E-01</totfact>
</mgrwt>
</event>
<event>
 6    1  0.1637818E-005  0.2760681E+04  0.7818608E-02  0.8315580E-01
          2   -1    0    0  501    0  0.00000000000E+00  0.00000000000E+00  0.14331836920E+04  0.14331836920E+04  0.00000000000E+00 0. -1.
         -2   -1    0    0    0  501 -0.00000000000E+00 -0.00000000000E+00 -0.13294455826E+04  0.13294455826E+04  0.00000000000E+00 0.  1.
         23    2    1    2    0    0 -0.77056186915E+02  0.86302222033E+03 -0.10214428728E+04  0.13424964457E+04  0.90587832852E+02 0.  0.
         13    1    3    3    0    0 -0.54602544879E+02  0.82587513069E+03 -0.96615346824E+03  0.12722042657E+04  0.00000000000E+00 0. -1.
        -13    1    3    3    0    0 -0.22453642035E+02  0.37147089646E+02 -0.55289404605E+02  0.70292180016E+02  0.00000000000E+00 0.  1.
         22    1    1    2    0    0  0.77056186915E+02 -0.86302222033E+03  0.11251809823E+04  0.14201328288E+04  0.00000000000E+00 0. -1.
<mgrwt>
<rscale>  0 0.27606809E+04</rscale>
<asrwt>0</asrwt>
<pdfrwt beam="1">  1        2 0.22048980E+00 0.27606809E+04</pdfrwt>
<pdfrwt beam="2">  1       -2 0.20453009E+00 0.27606809E+04</pdfrwt>
<totfact> 0.15023815E+00</totfact>
</mgrwt>
</event>
<event>
 6    1  0.1637818E-005  0.3806338E+04  0.7818608E-02  0.8044796E-01
         -2   -1    0    0    0  501 -0.00000000000E+00  0.00000000000E+00  0.19410040653E+04  0.19410040653E+04  0.00000000000E+00 0. -1.
          2   -1    0    0  501    0  0.00000000000E+00 -0.00000000000E+00 -0.18660718047E+04  0.18660718047E+04  0.00000000000E+00 0.  1.
         23    2    1    2    0    0 -0.16549909848E+03 -0.46306130783E+03 -0.18002685669E+04  0.18684697032E+04  0.91631831514E+02 0.  0.
         13    1    3    3    0    0 -0.14573624971E+03 -0.35325853634E+03 -0.15070122520E+04  0.15547078747E+04  0.00000000000E+00 0. -1.
        -13    1    3    3    0    0 -0.19762848762E+02 -0.10980277149E+03 -0.29325631485E+03  0.31376182849E+03  0.00000000000E+00 0.  1.
         22    1    1    2    0    0  0.16549909848E+03  0.46306130783E+03  0.18752008274E+04  0.19386061667E+04  0.00000000000E+00 0. -1.
<mgrwt>
<rscale>  0 0.38063384E+04</rscale>
<asrwt>0</asrwt>
<pdfrwt beam="1">  1        2 0.28708797E+00 0.38063384E+04</pdfrwt>
<pdfrwt beam="2">  1       -2 0.29861601E+00 0.38063384E+04</pdfrwt>
<totfact> 0.20596470E-01</totfact>
</mgrwt>
</event>
<event>
 6    1  0.1637818E-005  0.2757628E+04  0.7818608E-02  0.8316545E-01
          2   -1    0    0  501    0  0.00000000000E+00  0.00000000000E+00  0.18773620361E+04  0.18773620361E+04  0.00000000000E+00 0. -1.
         -2   -1    0    0    0  501 -0.00000000000E+00 -0.00000000000E+00 -0.10126592179E+04  0.10126592179E+04  0.00000000000E+00 0.  1.
         23    2    1    2    0    0  0.43282717030E+03  0.33843148247E+03 -0.89084379039E+03  0.10505052517E+04  0.89907715905E+02 0.  0.
         11    1    3    3    0    0  0.28148522823E+03  0.26111756672E+03 -0.66471357235E+03  0.76763301819E+03  0.00000000000E+00 0.  1.
        -11    1    3    3    0    0  0.15134194207E+03  0.77313915751E+02 -0.22613021805E+03  0.28287223355E+03  0.00000000000E+00 0. -1.
         22    1    1    2    0    0 -0.43282717030E+03 -0.33843148247E+03  0.17555466086E+04  0.18395160023E+04  0.00000000000E+00 0. -1.
<mgrwt>
<rscale>  0 0.27576279E+04</rscale>
<asrwt>0</asrwt>
<pdfrwt beam="1">  1        2 0.28882493E+00 0.27576279E+04</pdfrwt>
<pdfrwt beam="2">  1       -2 0.15579373E+00 0.27576279E+04</pdfrwt>
<totfact> 0.18482617E+00</totfact>
</mgrwt>
</event>
<event>
 6    1  0.1637818E-005  0.2538642E+04  0.7818608E-02  0.8389347E-01
         -2   -1    0    0    0  501 -0.00000000000E+00  0.00000000000E+00  0.65917792495E+03  0.65917792495E+03  0.00000000000E+00 0.  1.
          2   -1    0    0  501    0  0.00000000000E+00 -0.00000000000E+00 -0.24442192703E+04  0.24442192703E+04  0.00000000000E+00 0. -1.
         23    2    1    2    0    0 -0.60864985680E+03 -0.55495157624E+03  0.28433074685E+03  0.87612829453E+03  0.91273844554E+02 0.  0.
         13    1    3    3    0    0 -0.22064204427E+03 -0.15653610188E+03  0.12215555642E+03  0.29683066360E+03  0.00000000000E+00 0.  1.
        -13    1    3    3    0    0 -0.38800781254E+03 -0.39841547436E+03  0.16217519043E+03  0.57929763092E+03  0.00000000000E+00 0. -1.
         22    1    1    2    0    0  0.60864985680E+03  0.55495157624E+03 -0.20693720922E+04  0.22272689007E+04  0.00000000000E+00 0. -1.
<mgrwt>
<rscale>  0 0.25386417E+04</rscale>
<asrwt>0</asrwt>
<pdfrwt beam="1">  1        2 0.37603373E+00 0.25386417E+04</pdfrwt>
<pdfrwt beam="2">  1       -2 0.10141199E+00 0.25386417E+04</pdfrwt>
<totfact> 0.26625728E+00</totfact>
</mgrwt>
</event>
<event>
 6    1  0.1637818E-005  0.6089885E+03  0.7818608E-02  0.9886931E-01
          1   -1    0    0  501    0  0.00000000000E+00  0.00000000000E+00  0.18089242580E+03  0.18089242580E+03  0.00000000000E+00 0. -1.
         -1   -1    0    0    0  501 -0.00000000000E+00 -0.00000000000E+00 -0.51255181913E+03  0.51255181913E+03  0.00000000000E+00 0.  1.
         23    2    1    2    0    0 -0.13223115677E+03  0.69807758644E+02 -0.46247812218E+03  0.49476927970E+03  0.92479320132E+02 0.  0.
         11    1    3    3    0    0 -0.81505497864E+02 -0.60263954533E+01 -0.26324029625E+03  0.27563547884E+03  0.00000000000E+00 0. -1.
        -11    1    3    3    0    0 -0.50725658904E+02  0.75834154098E+02 -0.19923782593E+03  0.21913380086E+03  0.00000000000E+00 0.  1.
         22    1    1    2    0    0  0.13223115677E+03 -0.69807758644E+02  0.13081872885E+03  0.19867496522E+03  0.00000000000E+00 0. -1.
<mgrwt>
<rscale>  0 0.60898848E+03</rscale>
<asrwt>0</asrwt>
<pdfrwt beam="1">  1        1 0.27829605E-01 0.60898848E+03</pdfrwt>
<pdfrwt beam="2">  1       -1 0.78854124E-01 0.60898848E+03</pdfrwt>
<totfact> 0.27711495E+02</totfact>
</mgrwt>
</event>
<event>
 6    1  0.1637818E-005  0.9691853E+03  0.7818608E-02  0.9343003E-01
         -2   -1    0    0    0  501 -0.00000000000E+00  0.00000000000E+00  0.21282554121E+03  0.21282554121E+03  0.00000000000E+00 0.  1.
          2   -1    0    0  501    0  0.00000000000E+00 -0.00000000000E+00 -0.11033921533E+04  0.11033921533E+04  0.00000000000E+00 0. -1.
         23    2    1    2    0    0  0.17131243620E+02 -0.36070045604E+03 -0.87898569206E+03  0.95492499293E+03  0.94167917908E+02 0.  0.
         13    1    3    3    0    0  0.37350556872E+02 -0.73183137502E+02 -0.24723818929E+03  0.26053321853E+03  0.00000000000E+00 0. -1.
        -13    1    3    3    0    0 -0.20219313252E+02 -0.28751731854E+03 -0.63174750277E+03  0.69439177440E+03  0.00000000000E+00 0.  1.
         22    1    1    2    0    0 -0.17131243620E+02  0.36070045604E+03 -0.11580920013E+02  0.36129270157E+03  0.00000000000E+00 0.  1.
<mgrwt>
<rscale>  0 0.96918529E+03</rscale>
<asrwt>0</asrwt>
<pdfrwt beam="1">  1        2 0.16975264E+00 0.96918529E+03</pdfrwt>
<pdfrwt beam="2">  1       -2 0.32742391E-01 0.96918529E+03</pdfrwt>
<totfact> 0.18829685E+02</totfact>
</mgrwt>
</event>
<event>
 6    1  0.1637818E-005  0.1279717E+04  0.7818608E-02  0.9045806E-01
          1   -1    0    0  501    0  0.00000000000E+00  0.00000000000E+00  0.42489716799E+03  0.42489716799E+03  0.00000000000E+00 0. -1.
         -1   -1    0    0    0  501 -0.00000000000E+00 -0.00000000000E+00 -0.96357232098E+03  0.96357232098E+03  0.00000000000E+00 0.  1.
         23    2    1    2    0    0 -0.44487985544E+03  0.21258843627E+01 -0.76484767688E+03  0.88939372747E+03  0.90036817285E+02 0.  0.
         13    1    3    3    0    0 -0.32886485638E+03 -0.36298269492E+02 -0.53402260814E+03  0.62821159185E+03  0.00000000000E+00 0.  1.
        -13    1    3    3    0    0 -0.11601499906E+03  0.38424153854E+02 -0.23082506873E+03  0.26118213561E+03  0.00000000000E+00 0. -1.
         22    1    1    2    0    0  0.44487985544E+03 -0.21258843627E+01  0.22617252389E+03  0.49907576151E+03  0.00000000000E+00 0. -1.
<mgrwt>
<rscale>  0 0.12797174E+04</rscale>
<asrwt>0</asrwt>
<pdfrwt beam="1">  1        1 0.65368795E-01 0.12797174E+04</pdfrwt>
<pdfrwt beam="2">  1       -1 0.14824189E+00 0.12797174E+04</pdfrwt>
<totfact> 0.19611494E+01</totfact>
</mgrwt>
</event>
<event>
 6    1  0.1637818E-005  0.4082053E+03  0.7818608E-02  0.1040975E+00
          1   -1    0    0  501    0  0.00000000000E+00  0.00000000000E+00  0.90357661037E+03  0.90357661037E+03  0.00000000000E+00 0. -1.
         -1   -1    0    0    0  501 -0.00000000000E+00 -0.00000000000E+00 -0.46103332989E+02  0.46103332989E+02  0.00000000000E+00 0.  1.
         23    2    1    2    0    0 -0.10968029166E+03  0.14692480794E+03  0.59200124936E+03  0.62704692703E+03  0.95423811928E+02 0.  0.
         11    1    3    3    0    0 -0.83874726500E+02  0.77518493118E+02  0.47534920380E+03  0.48887723620E+03  0.00000000000E+00 0. -1.
        -11    1    3    3    0    0 -0.25805565163E+02  0.69406314818E+02  0.11665204556E+03  0.13816969083E+03  0.00000000000E+00 0.  1.
         22    1    1    2    0    0  0.10968029166E+03 -0.14692480794E+03  0.26547202802E+03  0.32263301633E+03  0.00000000000E+00 0.  1.
<mgrwt>
<rscale>  0 0.40820531E+03</rscale>
<asrwt>0</asrwt>
<pdfrwt beam="1">  1        1 0.13901177E+00 0.40820531E+03</pdfrwt>
<pdfrwt beam="2">  1       -1 0.70928212E-02 0.40820531E+03</pdfrwt>
<totfact> 0.19679904E+03</totfact>
</mgrwt>
</event>
<event>
 6    1  0.1637818E-005  0.7054338E+03  0.7818608E-02  0.9707985E-01
          1   -1    0    0  501    0  0.00000000000E+00  0.00000000000E+00  0.18231596239E+04  0.18231596239E+04  0.00000000000E+00 0. -1.
         -1   -1    0    0    0  501 -0.00000000000E+00 -0.00000000000E+00 -0.68238238383E+02  0.68238238383E+02  0.00000000000E+00 0.  1.
         23    2    1    2    0    0  0.33729101932E+03 -0.54933615042E+02  0.73754016759E+03  0.81815628818E+03  0.92904678618E+02 0.  0.
         11    1    3    3    0    0  0.19092867528E+03 -0.57727217424E+02  0.33577142510E+03  0.39054915259E+03  0.00000000000E+00 0.  1.
        -11    1    3    3    0    0  0.14636234404E+03  0.27936023825E+01  0.40176874249E+03  0.42760713560E+03  0.00000000000E+00 0. -1.
         22    1    1    2    0    0 -0.33729101932E+03  0.54933615042E+02  0.10173812179E+04  0.10732415741E+04  0.00000000000E+00 0. -1.
<mgrwt>
<rscale>  0 0.70543377E+03</rscale>
<asrwt>0</asrwt>
<pdfrwt beam="1">  1        1 0.28048606E+00 0.70543377E+03</pdfrwt>
<pdfrwt beam="2">  1       -1 0.10498192E-01 0.70543377E+03</pdfrwt>
<totfact> 0.23607126E+02</totfact>
</mgrwt>
</event>
<event>
 6    1  0.1637818E-005  0.1475677E+04  0.7818608E-02  0.8900790E-01
          2   -1    0    0  501    0  0.00000000000E+00  0.00000000000E+00  0.14744942792E+04  0.14744942792E+04  0.00000000000E+00 0. -1.
         -2   -1    0    0    0  501 -0.00000000000E+00 -0.00000000000E+00 -0.36921538072E+03  0.36921538072E+03  0.00000000000E+00 0.  1.
         23    2    1    2    0    0 -0.33005010692E+03 -0.44198717729E+03 -0.52013189360E+02  0.56167584035E+03  0.92133814622E+02 0.  0.
         13    1    3    3    0    0 -0.17864650426E+03 -0.16711307192E+03 -0.76710354675E+01  0.24474516763E+03  0.00000000000E+00 0. -1.
        -13    1    3    3    0    0 -0.15140360266E+03 -0.27487410537E+03 -0.44342153893E+02  0.31693067272E+03  0.00000000000E+00 0.  1.
         22    1    1    2    0    0  0.33005010692E+03  0.44198717729E+03  0.11572920878E+04  0.12820338196E+04  0.00000000000E+00 0. -1.
<mgrwt>
<rscale>  0 0.14756774E+04</rscale>
<asrwt>0</asrwt>
<pdfrwt beam="1">  1        2 0.22684527E+00 0.14756774E+04</pdfrwt>
<pdfrwt beam="2">  1       -2 0.56802367E-01 0.14756774E+04</pdfrwt>
<totfact> 0.36913718E+01</totfact>
</mgrwt>
</event>
<event>
 6    1  0.1637818E-005  0.3417664E+03  0.7818608E-02  0.1066046E+00
         -2   -1    0    0    0  501 -0.00000000000E+00  0.00000000000E+00  0.56290721943E+02  0.56290721943E+02  0.00000000000E+00 0. -1.
          2   -1    0    0  501    0  0.00000000000E+00 -0.00000000000E+00 -0.51875464450E+03  0.51875464450E+03  0.00000000000E+00 0.  1.
         23    2    1    2    0    0  0.35968274925E+02 -0.15305724490E+03 -0.24024918598E+03  0.30283290132E+03  0.96269713514E+02 0.  0.
         11    1    3    3    0    0  0.60274981046E+02 -0.50825225808E+02 -0.11333844774E+03  0.13806476978E+03  0.00000000000E+00 0.  1.
        -11    1    3    3    0    0 -0.24306706121E+02 -0.10223201909E+03 -0.12691073824E+03  0.16476813154E+03  0.00000000000E+00 0. -1.
         22    1    1    2    0    0 -0.35968274925E+02  0.15305724490E+03 -0.22221473657E+03  0.27221246512E+03  0.00000000000E+00 0. -1.
<mgrwt>
<rscale>  0 0.34176643E+03</rscale>
<asrwt>0</asrwt>
<pdfrwt beam="1">  1        2 0.79808410E-01 0.34176643E+03</pdfrwt>
<pdfrwt beam="2">  1       -2 0.86601107E-02 0.34176643E+03</pdfrwt>
<totfact> 0.49970803E+03</totfact>
</mgrwt>
</event>
<event>
 6    1  0.1637818E-005  0.1087273E+04  0.7818608E-02  0.9217686E-01
         -1   -1    0    0    0  501 -0.00000000000E+00  0.00000000000E+00  0.30732372902E+03  0.30732372902E+03  0.00000000000E+00 0.  1.
          1   -1    0    0  501    0  0.00000000000E+00 -0.00000000000E+00 -0.96165980511E+03  0.96165980511E+03  0.00000000000E+00 0. -1.
         23    2    1    2    0    0  0.28367229746E+03  0.36359948608E+03 -0.65540480575E+03  0.80781577636E+03  0.10166764733E+03 0.  0.
         13    1    3    3    0    0  0.19980608205E+03  0.26394771361E+03 -0.54207785877E+03  0.63516869484E+03  0.00000000000E+00 0. -1.
        -13    1    3    3    0    0  0.83866215411E+02  0.99651772474E+02 -0.11332694698E+03  0.17264708152E+03  0.00000000000E+00 0.  1.
         22    1    1    2    0    0 -0.28367229746E+03 -0.36359948608E+03  0.10687296599E+01  0.46116775777E+03  0.00000000000E+00 0.  1.
<mgrwt>
<rscale>  0 0.10872734E+04</rscale>
<asrwt>0</asrwt>
<pdfrwt beam="1">  1        1 0.14794766E+00 0.10872734E+04</pdfrwt>
<pdfrwt beam="2">  1       -1 0.47280575E-01 0.10872734E+04</pdfrwt>
<totfact> 0.72175475E+01</totfact>
</mgrwt>
</event>
<event>
 6    1  0.1637818E-005  0.8364115E+03  0.7818608E-02  0.9508759E-01
         -1   -1    0    0    0  501 -0.00000000000E+00  0.00000000000E+00  0.20567911762E+03  0.20567911762E+03  0.00000000000E+00 0.  1.
          1   -1    0    0  501    0  0.00000000000E+00 -0.00000000000E+00 -0.85033445342E+03  0.85033445342E+03  0.00000000000E+00 0. -1.
         23    2    1    2    0    0  0.59557581502E+02  0.29396714588E+03 -0.68598027402E+03  0.75324048953E+03  0.82695286185E+02 0.  0.
         11    1    3    3    0    0 -0.12341184045E+02  0.25773276355E+02 -0.11256901224E+03  0.11613935214E+03  0.00000000000E+00 0. -1.
        -11    1    3    3    0    0  0.71898765548E+02  0.26819386953E+03 -0.57341126178E+03  0.63710113740E+03  0.00000000000E+00 0.  1.
         22    1    1    2    0    0 -0.59557581502E+02 -0.29396714588E+03  0.41324938220E+02  0.30277308152E+03  0.00000000000E+00 0.  1.
<mgrwt>
<rscale>  0 0.83641148E+03</rscale>
<asrwt>0</asrwt>
<pdfrwt beam="1">  1        1 0.13082069E+00 0.83641148E+03</pdfrwt>
<pdfrwt beam="2">  1       -1 0.31642941E-01 0.83641148E+03</pdfrwt>
<totfact> 0.18750312E+02</totfact>
</mgrwt>
</event>
<event>
 6    1  0.1637818E-005  0.9307021E+03  0.7818608E-02  0.9387996E-01
          2   -1    0    0  501    0  0.00000000000E+00  0.00000000000E+00  0.52138002858E+03  0.52138002858E+03  0.00000000000E+00 0.  1.
         -2   -1    0    0    0  501 -0.00000000000E+00 -0.00000000000E+00 -0.41534309930E+03  0.41534309930E+03  0.00000000000E+00 0. -1.
         23    2    1    2    0    0  0.19876705100E+03 -0.14700371110E+03  0.44517745403E+03  0.51703904769E+03  0.89598993399E+02 0.  0.
         11    1    3    3    0    0  0.10274443541E+03 -0.62400571955E+02  0.30177114817E+03  0.32483238179E+03  0.00000000000E+00 0. -1.
        -11    1    3    3    0    0  0.96022615587E+02 -0.84603139142E+02  0.14340630586E+03  0.19220666590E+03  0.00000000000E+00 0.  1.
         22    1    1    2    0    0 -0.19876705100E+03  0.14700371110E+03 -0.33914052475E+03  0.41968408019E+03  0.00000000000E+00 0. -1.
<mgrwt>
<rscale>  0 0.93070209E+03</rscale>
<asrwt>0</asrwt>
<pdfrwt beam="1">  1        2 0.80212313E-01 0.93070209E+03</pdfrwt>
<pdfrwt beam="2">  1       -2 0.63898938E-01 0.93070209E+03</pdfrwt>
<totfact> 0.13314173E+02</totfact>
</mgrwt>
</event>
<event>
 6    1  0.1637818E-005  0.3035439E+04  0.7818608E-02  0.8233683E-01
         -2   -1    0    0    0  501 -0.00000000000E+00  0.00000000000E+00  0.81348513039E+03  0.81348513039E+03  0.00000000000E+00 0.  1.
          2   -1    0    0  501    0  0.00000000000E+00 -0.00000000000E+00 -0.28316090272E+04  0.28316090272E+04  0.00000000000E+00 0. -1.
         23    2    1    2    0    0 -0.33006827839E+03 -0.14031923939E+04 -0.44485923022E+03  0.15113051160E+04  0.90826516746E+02 0.  0.
         11    1    3    3    0    0 -0.21830344868E+02 -0.31689568168E+02 -0.83392546878E+01  0.39374304521E+02  0.00000000000E+00 0. -1.
        -11    1    3    3    0    0 -0.30823793353E+03 -0.13715028258E+04 -0.43651997553E+03  0.14719308115E+04  0.00000000000E+00 0.  1.
         22    1    1    2    0    0  0.33006827839E+03  0.14031923939E+04 -0.15732646666E+04  0.21337890415E+04  0.00000000000E+00 0. -1.
<mgrwt>
<rscale>  0 0.30354386E+04</rscale>
<asrwt>0</asrwt>
<pdfrwt beam="1">  1        2 0.43563216E+00 0.30354386E+04</pdfrwt>
<pdfrwt beam="2">  1       -2 0.12515156E+00 0.30354386E+04</pdfrwt>
<totfact> 0.90225758E-01</totfact>
</mgrwt>
</event>
<event>
 6    1  0.1637818E-005  0.3793498E+04  0.7818608E-02  0.8047552E-01
         -1   -1    0    0    0  501 -0.00000000000E+00  0.00000000000E+00  0.10769173722E+04  0.10769173722E+04  0.00000000000E+00 0.  1.
          1   -1    0    0  501    0  0.00000000000E+00 -0.00000000000E+00 -0.33406997987E+04  0.33406997987E+04  0.00000000000E+00 0. -1.
         23    2    1    2    0    0  0.17165074508E+04 -0.68900969484E+03 -0.64909866951E+03  0.19623502154E+04  0.91417157939E+02 0.  0.
         11    1    3    3    0    0  0.13279913780E+04 -0.51898107282E+03 -0.46160142041E+03  0.14986588422E+04  0.00000000000E+00 0. -1.
        -11    1    3    3    0    0  0.38851607281E+03 -0.17002862201E+03 -0.18749724910E+03  0.46369137317E+03  0.00000000000E+00 0.  1.
         22    1    1    2    0    0 -0.17165074508E+04  0.68900969484E+03 -0.16146837570E+04  0.24552669556E+04  0.00000000000E+00 0. -1.
<mgrwt>
<rscale>  0 0.37934985E+04</rscale>
<asrwt>0</asrwt>
<pdfrwt beam="1">  1        1 0.51395381E+00 0.37934985E+04</pdfrwt>
<pdfrwt beam="2">  1       -1 0.16567960E+00 0.37934985E+04</pdfrwt>
<totfact> 0.70009197E-02</totfact>
</mgrwt>
</event>
<event>
 6    1  0.1637818E-005  0.2696039E+04  0.7818608E-02  0.8336291E-01
         -1   -1    0    0    0  501 -0.00000000000E+00  0.00000000000E+00  0.92695702711E+03  0.92695702711E+03  0.00000000000E+00 0.  1.
          1   -1    0    0  501    0  0.00000000000E+00 -0.00000000000E+00 -0.19603458402E+04  0.19603458402E+04  0.00000000000E+00 0. -1.
         23    2    1    2    0    0  0.12883816332E+03 -0.80677783000E+03 -0.16635065401E+04  0.18555383162E+04  0.90987331896E+02 0.  0.
         11    1    3    3    0    0  0.11016171548E+03 -0.44705518637E+03 -0.98701163796E+03  0.10891216262E+04  0.00000000000E+00 0. -1.
        -11    1    3    3    0    0  0.18676447849E+02 -0.35972264363E+03 -0.67649490212E+03  0.76641668995E+03  0.00000000000E+00 0.  1.
         22    1    1    2    0    0 -0.12883816332E+03  0.80677783000E+03  0.63011772694E+03  0.10317645512E+04  0.00000000000E+00 0.  1.
<mgrwt>
<rscale>  0 0.26960388E+04</rscale>
<asrwt>0</asrwt>
<pdfrwt beam="1">  1        1 0.30159166E+00 0.26960388E+04</pdfrwt>
<pdfrwt beam="2">  1       -1 0.14260878E+00 0.26960388E+04</pdfrwt>
<totfact> 0.11056460E+00</totfact>
</mgrwt>
</event>
<event>
 6    1  0.1637818E-005  0.4414141E+04  0.7818608E-02  0.7925843E-01
         -1   -1    0    0    0  501 -0.00000000000E+00  0.00000000000E+00  0.18550090730E+04  0.18550090730E+04  0.00000000000E+00 0.  1.
          1   -1    0    0  501    0  0.00000000000E+00 -0.00000000000E+00 -0.26259492902E+04  0.26259492902E+04  0.00000000000E+00 0. -1.
         23    2    1    2    0    0 -0.43415916214E+03 -0.21584964077E+04 -0.52690879651E+03  0.22657490605E+04  0.91569673101E+02 0.  0.
         13    1    3    3    0    0 -0.10961089706E+03 -0.66380001416E+03 -0.19714818931E+03  0.70107946490E+03  0.00000000000E+00 0. -1.
        -13    1    3    3    0    0 -0.32454826508E+03 -0.14946963936E+04 -0.32976060719E+03  0.15646695956E+04  0.00000000000E+00 0.  1.
         22    1    1    2    0    0  0.43415916214E+03  0.21584964077E+04 -0.24403142077E+03  0.22152093027E+04  0.00000000000E+00 0. -1.
<mgrwt>
<rscale>  0 0.44141408E+04</rscale>
<asrwt>0</asrwt>
<pdfrwt beam="1">  1        1 0.40399220E+00 0.44141408E+04</pdfrwt>
<pdfrwt beam="2">  1       -1 0.28538601E+00 0.44141408E+04</pdfrwt>
<totfact> 0.34391428E-02</totfact>
</mgrwt>
</event>
<event>
 6    1  0.1637818E-005  0.6871946E+03  0.7818608E-02  0.9739385E-01
          2   -1    0    0  501    0  0.00000000000E+00  0.00000000000E+00  0.96655617713E+03  0.96655617713E+03  0.00000000000E+00 0. -1.
         -2   -1    0    0    0  501 -0.00000000000E+00 -0.00000000000E+00 -0.12214408261E+03  0.12214408261E+03  0.00000000000E+00 0.  1.
         23    2    1    2    0    0  0.88298704244E+02  0.44767265408E+02  0.94084987794E+03  0.95049383698E+03  0.91865510840E+02 0.  0.
         13    1    3    3    0    0  0.18731631463E+02 -0.25506859323E+02  0.34987461565E+03  0.35130289007E+03  0.00000000000E+00 0.  1.
        -13    1    3    3    0    0  0.69567072780E+02  0.70274124731E+02  0.59097526229E+03  0.59919094691E+03  0.00000000000E+00 0. -1.
         22    1    1    2    0    0 -0.88298704244E+02 -0.44767265408E+02 -0.96437783415E+02  0.13820642276E+03  0.00000000000E+00 0.  1.
<mgrwt>
<rscale>  0 0.68719464E+03</rscale>
<asrwt>0</asrwt>
<pdfrwt beam="1">  1        2 0.14870095E+00 0.68719464E+03</pdfrwt>
<pdfrwt beam="2">  1       -2 0.18791398E-01 0.68719464E+03</pdfrwt>
<totfact> 0.63447022E+02</totfact>
</mgrwt>
</event>
<event>
 6    1  0.1637818E-005  0.2752710E+04  0.7818608E-02  0.8318102E-01
          2   -1    0    0  501    0  0.00000000000E+00  0.00000000000E+00  0.24061416730E+04  0.24061416730E+04  0.00000000000E+00 0.  1.
         -2   -1    0    0    0  501 -0.00000000000E+00 -0.00000000000E+00 -0.78729899975E+03  0.78729899975E+03  0.00000000000E+00 0. -1.
         23    2    1    2    0    0  0.11981999932E+04 -0.66097883139E+03  0.65785755446E+03  0.15212957514E+04  0.94804863596E+02 0.  0.
         13    1    3    3    0    0  0.66579618791E+03 -0.38643602282E+03  0.41853272584E+03  0.87623456116E+03  0.00000000000E+00 0.  1.
        -13    1    3    3    0    0  0.53240380529E+03 -0.27454280856E+03  0.23932482863E+03  0.64506119029E+03  0.00000000000E+00 0. -1.
         22    1    1    2    0    0 -0.11981999932E+04  0.66097883139E+03  0.96098511875E+03  0.16721449213E+04  0.00000000000E+00 0.  1.
<mgrwt>
<rscale>  0 0.27527099E+04</rscale>
<asrwt>0</asrwt>
<pdfrwt beam="1">  1        2 0.37017564E+00 0.27527099E+04</pdfrwt>
<pdfrwt beam="2">  1       -2 0.12112292E+00 0.27527099E+04</pdfrwt>
<totfact> 0.17868421E+00</totfact>
</mgrwt>
</event>
<event>
 6    1  0.1637818E-005  0.2582662E+04  0.7818608E-02  0.8374115E-01
         -2   -1    0    0    0  501 -0.00000000000E+00  0.00000000000E+00  0.14228395758E+04  0.14228395758E+04  0.00000000000E+00 0.  1.
          2   -1    0    0  501    0  0.00000000000E+00 -0.00000000000E+00 -0.11719771740E+04  0.11719771740E+04  0.00000000000E+00 0. -1.
         23    2    1    2    0    0  0.93605068530E+03 -0.67454558618E+03  0.70463792234E+03  0.13550123878E+04  0.91330915351E+02 0.  0.
         11    1    3    3    0    0  0.51334208866E+03 -0.41947615566E+03  0.42792885123E+03  0.78905224597E+03  0.00000000000E+00 0. -1.
        -11    1    3    3    0    0  0.42270859664E+03 -0.25506943052E+03  0.27670907111E+03  0.56596014179E+03  0.00000000000E+00 0.  1.
         22    1    1    2    0    0 -0.93605068530E+03  0.67454558618E+03 -0.45377552051E+03  0.12398043621E+04  0.00000000000E+00 0. -1.
<mgrwt>
<rscale>  0 0.25826618E+04</rscale>
<asrwt>0</asrwt>
<pdfrwt beam="1">  1        2 0.18030418E+00 0.25826618E+04</pdfrwt>
<pdfrwt beam="2">  1       -2 0.21889840E+00 0.25826618E+04</pdfrwt>
<totfact> 0.17517363E+00</totfact>
</mgrwt>
</event>
<event>
 6    1  0.1637818E-005  0.1704056E+04  0.7818608E-02  0.8759054E-01
         -2   -1    0    0    0  501 -0.00000000000E+00  0.00000000000E+00  0.77606514236E+03  0.77606514236E+03  0.00000000000E+00 0. -1.
          2   -1    0    0  501    0  0.00000000000E+00 -0.00000000000E+00 -0.93542666404E+03  0.93542666404E+03  0.00000000000E+00 0.  1.
         23    2    1    2    0    0 -0.74456715169E+03 -0.40859967146E+03 -0.99542140266E+02  0.86007399281E+03  0.92112434167E+02 0.  0.
         11    1    3    3    0    0 -0.33291315661E+03 -0.22450494918E+03 -0.18953074502E+02  0.40198614538E+03  0.00000000000E+00 0.  1.
        -11    1    3    3    0    0 -0.41165399509E+03 -0.18409472228E+03 -0.80589065764E+02  0.45808784743E+03  0.00000000000E+00 0. -1.
         22    1    1    2    0    0  0.74456715169E+03  0.40859967146E+03 -0.59819381411E+02  0.85141781358E+03  0.00000000000E+00 0. -1.
<mgrwt>
<rscale>  0 0.17040564E+04</rscale>
<asrwt>0</asrwt>
<pdfrwt beam="1">  1        2 0.14391179E+00 0.17040564E+04</pdfrwt>
<pdfrwt beam="2">  1       -2 0.11939464E+00 0.17040564E+04</pdfrwt>
<totfact> 0.14199710E+01</totfact>
</mgrwt>
</event>
<event>
 6    1  0.1637818E-005  0.1884119E+04  0.7818608E-02  0.8662802E-01
         -2   -1    0    0    0  501 -0.00000000000E+00  0.00000000000E+00  0.10630836608E+04  0.10630836608E+04  0.00000000000E+00 0.  1.
          2   -1    0    0  501    0  0.00000000000E+00 -0.00000000000E+00 -0.83481269999E+03  0.83481269999E+03  0.00000000000E+00 0. -1.
         23    2    1    2    0    0  0.44763246557E+03 -0.59676050631E+03 -0.46158013981E+03  0.88182920399E+03  0.89825349629E+02 0.  0.
         11    1    3    3    0    0  0.31384945579E+03 -0.45549704858E+03 -0.30218246175E+03  0.63031205157E+03  0.00000000000E+00 0. -1.
        -11    1    3    3    0    0  0.13378300978E+03 -0.14126345772E+03 -0.15939767805E+03  0.25151715242E+03  0.00000000000E+00 0.  1.
         22    1    1    2    0    0 -0.44763246557E+03  0.59676050631E+03  0.68985110062E+03  0.10160671568E+04  0.00000000000E+00 0.  1.
<mgrwt>
<rscale>  0 0.18841186E+04</rscale>
<asrwt>0</asrwt>
<pdfrwt beam="1">  1        2 0.12843272E+00 0.18841186E+04</pdfrwt>
<pdfrwt beam="2">  1       -2 0.16355133E+00 0.18841186E+04</pdfrwt>
<totfact> 0.72325657E+00</totfact>
</mgrwt>
</event>
<event>
 6    1  0.1637818E-005  0.2953441E+04  0.7818608E-02  0.8257152E-01
          2   -1    0    0  501    0  0.00000000000E+00  0.00000000000E+00  0.13495911216E+04  0.13495911216E+04  0.00000000000E+00 0. -1.
         -2   -1    0    0    0  501 -0.00000000000E+00 -0.00000000000E+00 -0.16158251261E+04  0.16158251261E+04  0.00000000000E+00 0.  1.
         23    2    1    2    0    0  0.18753082113E+02  0.14748872057E+04 -0.10262698619E+03  0.14813639561E+04  0.90900629522E+02 0.  0.
         13    1    3    3    0    0  0.52099631952E+02  0.10414755157E+04 -0.86780803013E+02  0.10463825922E+04  0.00000000000E+00 0.  1.
        -13    1    3    3    0    0 -0.33346549839E+02  0.43341169001E+03 -0.15846183172E+02  0.43498136391E+03  0.00000000000E+00 0. -1.
         22    1    1    2    0    0 -0.18753082113E+02 -0.14748872057E+04 -0.16360701829E+03  0.14840522916E+04  0.00000000000E+00 0. -1.
<mgrwt>
<rscale>  0 0.29534409E+04</rscale>
<asrwt>0</asrwt>
<pdfrwt beam="1">  1        2 0.20762940E+00 0.29534409E+04</pdfrwt>
<pdfrwt beam="2">  1       -2 0.24858848E+00 0.29534409E+04</pdfrwt>
<totfact> 0.87154686E-01</totfact>
</mgrwt>
</event>
<event>
 6    1  0.1637818E-005  0.6683081E+03  0.7818608E-02  0.9773019E-01
          1   -1    0    0  501    0  0.00000000000E+00  0.00000000000E+00  0.12135793076E+04  0.12135793076E+04  0.00000000000E+00 0. -1.
         -1   -1    0    0    0  501 -0.00000000000E+00 -0.00000000000E+00 -0.92007929150E+02  0.92007929150E+02  0.00000000000E+00 0.  1.
         23    2    1    2    0    0  0.11288704645E+02  0.19428102050E+03  0.10869208893E+04  0.11079178001E+04  0.90621645119E+02 0.  0.
         11    1    3    3    0    0  0.36315367018E+02  0.83868868424E+02  0.32403136089E+03  0.33667360427E+03  0.00000000000E+00 0.  1.
        -11    1    3    3    0    0 -0.25026662373E+02  0.11041215208E+03  0.76288952839E+03  0.77124419588E+03  0.00000000000E+00 0. -1.
         22    1    1    2    0    0 -0.11288704645E+02 -0.19428102050E+03  0.34650489217E+02  0.19766943664E+03  0.00000000000E+00 0.  1.
<mgrwt>
<rscale>  0 0.66830807E+03</rscale>
<asrwt>0</asrwt>
<pdfrwt beam="1">  1        1 0.18670450E+00 0.66830807E+03</pdfrwt>
<pdfrwt beam="2">  1       -1 0.14155067E-01 0.66830807E+03</pdfrwt>
<totfact> 0.38397224E+02</totfact>
</mgrwt>
</event>
<event>
 6    1  0.1637818E-005  0.1272305E+04  0.7818608E-02  0.9051820E-01
         -1   -1    0    0    0  501 -0.00000000000E+00  0.00000000000E+00  0.30929660688E+03  0.30929660688E+03  0.00000000000E+00 0.  1.
          1   -1    0    0  501    0  0.00000000000E+00 -0.00000000000E+00 -0.13084207225E+04  0.13084207225E+04  0.00000000000E+00 0. -1.
         23    2    1    2    0    0 -0.45861136963E+03  0.21532821731E+03 -0.98475955629E+03  0.11108672824E+04  0.87086771907E+02 0.  0.
         13    1    3    3    0    0 -0.24999184285E+03  0.13953969438E+03 -0.47063523645E+03  0.55087636870E+03  0.00000000000E+00 0.  1.
        -13    1    3    3    0    0 -0.20861952679E+03  0.75788522927E+02 -0.51412431984E+03  0.55999091369E+03  0.00000000000E+00 0. -1.
         22    1    1    2    0    0  0.45861136963E+03 -0.21532821731E+03 -0.14364559286E+02  0.50685004695E+03  0.00000000000E+00 0.  1.
<mgrwt>
<rscale>  0 0.12723051E+04</rscale>
<asrwt>0</asrwt>
<pdfrwt beam="1">  1        1 0.20129549E+00 0.12723051E+04</pdfrwt>
<pdfrwt beam="2">  1       -1 0.47584094E-01 0.12723051E+04</pdfrwt>
<totfact> 0.38718934E+01</totfact>
</mgrwt>
</event>
<event>
 6    1  0.1637818E-005  0.1223288E+04  0.7818608E-02  0.9092714E-01
          2   -1    0    0  501    0  0.00000000000E+00  0.00000000000E+00  0.17626061021E+04  0.17626061021E+04  0.00000000000E+00 0. -1.
         -2   -1    0    0    0  501 -0.00000000000E+00 -0.00000000000E+00 -0.21224716187E+03  0.21224716187E+03  0.00000000000E+00 0.  1.
         23    2    1    2    0    0 -0.33037494890E+03  0.50583278446E+03  0.89094639460E+03  0.10805159014E+04  0.93352677955E+02 0.  0.
         11    1    3    3    0    0 -0.25779711440E+03  0.41929394947E+03  0.65892993563E+03  0.82246910478E+03  0.00000000000E+00 0.  1.
        -11    1    3    3    0    0 -0.72577834507E+02  0.86538834988E+02  0.23201645897E+03  0.25804679664E+03  0.00000000000E+00 0. -1.
         22    1    1    2    0    0  0.33037494890E+03 -0.50583278446E+03  0.65941254560E+03  0.89433736251E+03  0.00000000000E+00 0. -1.
<mgrwt>
<rscale>  0 0.12232876E+04</rscale>
<asrwt>0</asrwt>
<pdfrwt beam="1">  1        2 0.27117016E+00 0.12232876E+04</pdfrwt>
<pdfrwt beam="2">  1       -2 0.32653411E-01 0.12232876E+04</pdfrwt>
<totfact> 0.77976206E+01</totfact>
</mgrwt>
</event>
<event>
 6    1  0.1637818E-005  0.2003265E+04  0.7818608E-02  0.8605096E-01
         -1   -1    0    0    0  501 -0.00000000000E+00  0.00000000000E+00  0.17783576817E+04  0.17783576817E+04  0.00000000000E+00 0.  1.
          1   -1    0    0  501    0  0.00000000000E+00 -0.00000000000E+00 -0.56415396981E+03  0.56415396981E+03  0.00000000000E+00 0. -1.
         23    2    1    2    0    0 -0.49232777402E+03 -0.35643820895E+03 -0.31941948949E+03  0.69283442318E+03  0.92498074641E+02 0.  0.
         11    1    3    3    0    0 -0.30071738232E+03 -0.25446716415E+03 -0.24230125568E+03  0.46248716756E+03  0.00000000000E+00 0.  1.
        -11    1    3    3    0    0 -0.19161039170E+03 -0.10197104480E+03 -0.77118233809E+02  0.23034725562E+03  0.00000000000E+00 0. -1.
         22    1    1    2    0    0  0.49232777402E+03  0.35643820895E+03  0.15336232013E+04  0.16496772283E+04  0.00000000000E+00 0.  1.
<mgrwt>
<rscale>  0 0.20032649E+04</rscale>
<asrwt>0</asrwt>
<pdfrwt beam="1">  1        1 0.86792920E-01 0.20032649E+04</pdfrwt>
<pdfrwt beam="2">  1       -1 0.27359349E+00 0.20032649E+04</pdfrwt>
<totfact> 0.16996678E+00</totfact>
</mgrwt>
</event>
<event>
 6    1  0.1637818E-005  0.1006722E+04  0.7818608E-02  0.9301203E-01
         -1   -1    0    0    0  501 -0.00000000000E+00  0.00000000000E+00  0.30210132815E+03  0.30210132815E+03  0.00000000000E+00 0.  1.
          1   -1    0    0  501    0  0.00000000000E+00 -0.00000000000E+00 -0.83869958886E+03  0.83869958886E+03  0.00000000000E+00 0. -1.
         23    2    1    2    0    0  0.18367940784E+03  0.35557456585E+03 -0.60907836479E+03  0.73407648667E+03  0.87866017764E+02 0.  0.
         13    1    3    3    0    0  0.60119279501E+01  0.11519663233E+02 -0.81571513639E+00  0.13019650912E+02  0.00000000000E+00 0. -1.
        -13    1    3    3    0    0  0.17766747989E+03  0.34405490262E+03 -0.60826264966E+03  0.72105683576E+03  0.00000000000E+00 0.  1.
         22    1    1    2    0    0 -0.18367940784E+03 -0.35557456585E+03  0.72480104075E+02  0.40672443034E+03  0.00000000000E+00 0.  1.
<mgrwt>
<rscale>  0 0.10067219E+04</rscale>
<asrwt>0</asrwt>
<pdfrwt beam="1">  1        1 0.12903070E+00 0.10067219E+04</pdfrwt>
<pdfrwt beam="2">  1       -1 0.46477128E-01 0.10067219E+04</pdfrwt>
<totfact> 0.94536241E+01</totfact>
</mgrwt>
</event>
<event>
 6    1  0.2020427E-005  0.3114604E+04  0.7818608E-02  0.8211741E-01
          2   -1    0    0  501    0  0.00000000000E+00  0.00000000000E+00  0.11767445403E+04  0.11767445403E+04  0.00000000000E+00 0.  1.
         -2   -1    0    0    0  501 -0.00000000000E+00 -0.00000000000E+00 -0.20609308073E+04  0.20609308073E+04  0.00000000000E+00 0. -1.
         23    2    1    2    0    0  0.75486560511E+03 -0.70484399857E+03  0.76772608047E+03  0.12894860478E+04  0.82120573602E+02 0.  0.
         11    1    3    3    0    0  0.58937833954E+03 -0.56756074350E+03  0.56828890849E+03  0.99621499095E+03  0.00000000000E+00 0.  1.
        -11    1    3    3    0    0  0.16548726557E+03 -0.13728325507E+03  0.19943717198E+03  0.29327105680E+03  0.00000000000E+00 0. -1.
         22    1    1    2    0    0 -0.75486560511E+03  0.70484399857E+03 -0.16519123475E+04  0.19481892998E+04  0.00000000000E+00 0. -1.
<mgrwt>
<rscale>  0 0.31146037E+04</rscale>
<asrwt>0</asrwt>
<pdfrwt beam="1">  1        2 0.18103762E+00 0.31146037E+04</pdfrwt>
<pdfrwt beam="2">  1       -2 0.31706628E+00 0.31146037E+04</pdfrwt>
<totfact> 0.41400242E-01</totfact>
</mgrwt>
</event>
<event>
 6    1  0.1637818E-005  0.3505505E+04  0.7818608E-02  0.8112487E-01
          1   -1    0    0  501    0  0.00000000000E+00  0.00000000000E+00  0.78684820211E+03  0.78684820211E+03  0.00000000000E+00 0. -1.
         -1   -1    0    0    0  501 -0.00000000000E+00 -0.00000000000E+00 -0.39043624881E+04  0.39043624881E+04  0.00000000000E+00 0.  1.
         23    2    1    2    0    0  0.84798666906E+03 -0.64263564991E+03 -0.34218299297E+04  0.35845626068E+04  0.90039129726E+02 0.  0.
         13    1    3    3    0    0  0.33487769959E+03 -0.23123559692E+03 -0.11764404984E+04  0.12448394360E+04  0.00000000000E+00 0.  1.
        -13    1    3    3    0    0  0.51310896947E+03 -0.41140005299E+03 -0.22453894313E+04  0.23397231709E+04  0.00000000000E+00 0. -1.
         22    1    1    2    0    0 -0.84798666906E+03  0.64263564991E+03  0.30431564374E+03  0.11066480834E+04  0.00000000000E+00 0. -1.
<mgrwt>
<rscale>  0 0.35055046E+04</rscale>
<asrwt>0</asrwt>
<pdfrwt beam="1">  1        1 0.12105357E+00 0.35055046E+04</pdfrwt>
<pdfrwt beam="2">  1       -1 0.60067115E+00 0.35055046E+04</pdfrwt>
<totfact> 0.80671732E-03</totfact>
</mgrwt>
</event>
<event>
 6    1  0.1637818E-005  0.1697700E+04  0.7818608E-02  0.8762677E-01
          2   -1    0    0  501    0  0.00000000000E+00  0.00000000000E+00  0.17521585081E+04  0.17521585081E+04  0.00000000000E+00 0. -1.
         -2   -1    0    0    0  501 -0.00000000000E+00 -0.00000000000E+00 -0.41123341586E+03  0.41123341586E+03  0.00000000000E+00 0.  1.
         23    2    1    2    0    0  0.52503778674E+03  0.13262440121E+03 -0.15594251906E+03  0.57157957476E+03  0.95557478716E+02 0.  0.
         13    1    3    3    0    0  0.26600939969E+03  0.11456556039E+03 -0.68810257996E+02  0.29769299615E+03  0.00000000000E+00 0. -1.
        -13    1    3    3    0    0  0.25902838704E+03  0.18058840824E+02 -0.87132261060E+02  0.27388657861E+03  0.00000000000E+00 0.  1.
         22    1    1    2    0    0 -0.52503778674E+03 -0.13262440121E+03  0.14968676113E+04  0.15918123492E+04  0.00000000000E+00 0. -1.
<mgrwt>
<rscale>  0 0.16976998E+04</rscale>
<asrwt>0</asrwt>
<pdfrwt beam="1">  1        2 0.26956284E+00 0.16976998E+04</pdfrwt>
<pdfrwt beam="2">  1       -2 0.63266680E-01 0.16976998E+04</pdfrwt>
<totfact> 0.20196064E+01</totfact>
</mgrwt>
</event>
<event>
 6    1  0.1637818E-005  0.1028978E+04  0.7818608E-02  0.9277322E-01
          1   -1    0    0  501    0  0.00000000000E+00  0.00000000000E+00  0.79774454483E+03  0.79774454483E+03  0.00000000000E+00 0. -1.
         -1   -1    0    0    0  501 -0.00000000000E+00 -0.00000000000E+00 -0.33180886724E+03  0.33180886724E+03  0.00000000000E+00 0.  1.
         23    2    1    2    0    0  0.34240195182E+03  0.12402632014E+03 -0.15789298914E+03  0.40720735224E+03  0.90917583598E+02 0.  0.
         13    1    3    3    0    0  0.10394128989E+03 -0.80581794215E+00 -0.24432697614E+02  0.10677732811E+03  0.00000000000E+00 0.  1.
        -13    1    3    3    0    0  0.23846066192E+03  0.12483213808E+03 -0.13346029153E+03  0.30043002413E+03  0.00000000000E+00 0. -1.
         22    1    1    2    0    0 -0.34240195182E+03 -0.12402632014E+03  0.62382866673E+03  0.72234605982E+03  0.00000000000E+00 0. -1.
<mgrwt>
<rscale>  0 0.10289776E+04</rscale>
<asrwt>0</asrwt>
<pdfrwt beam="1">  1        1 0.12272993E+00 0.10289776E+04</pdfrwt>
<pdfrwt beam="2">  1       -1 0.51047518E-01 0.10289776E+04</pdfrwt>
<totfact> 0.85738976E+01</totfact>
</mgrwt>
</event>
<event>
 6    1  0.1637818E-005  0.2212306E+04  0.7818608E-02  0.8513324E-01
          2   -1    0    0  501    0  0.00000000000E+00  0.00000000000E+00  0.19411378638E+04  0.19411378638E+04  0.00000000000E+00 0. -1.
         -2   -1    0    0    0  501 -0.00000000000E+00 -0.00000000000E+00 -0.63033874231E+03  0.63033874231E+03  0.00000000000E+00 0.  1.
         23    2    1    2    0    0  0.77193100385E+03 -0.58555407971E+03  0.40855315952E+02  0.97413245903E+03  0.92270449903E+02 0.  0.
         11    1    3    3    0    0  0.56742772949E+03 -0.39295594823E+03  0.58335102802E+02  0.69266989949E+03  0.00000000000E+00 0. -1.
        -11    1    3    3    0    0  0.20450327436E+03 -0.19259813148E+03 -0.17479786850E+02  0.28146255954E+03  0.00000000000E+00 0.  1.
         22    1    1    2    0    0 -0.77193100385E+03  0.58555407971E+03  0.12699438056E+04  0.15973441471E+04  0.00000000000E+00 0. -1.
<mgrwt>
<rscale>  0 0.22123059E+04</rscale>
<asrwt>0</asrwt>
<pdfrwt beam="1">  1        2 0.29863659E+00 0.22123059E+04</pdfrwt>
<pdfrwt beam="2">  1       -2 0.96975192E-01 0.22123059E+04</pdfrwt>
<totfact> 0.58419012E+00</totfact>
</mgrwt>
</event>
<event>
 6    1  0.1637818E-005  0.1789649E+04  0.7818608E-02  0.8711823E-01
         -2   -1    0    0    0  501 -0.00000000000E+00  0.00000000000E+00  0.45425297826E+03  0.45425297826E+03  0.00000000000E+00 0.  1.
          2   -1    0    0  501    0  0.00000000000E+00 -0.00000000000E+00 -0.17626983605E+04  0.17626983605E+04  0.00000000000E+00 0. -1.
         23    2    1    2    0    0 -0.63672546121E+03  0.58121652726E+03 -0.94180118194E+03  0.12801162763E+04  0.92066552695E+02 0.  0.
         11    1    3    3    0    0 -0.41705527389E+03  0.40149612334E+03 -0.57063716376E+03  0.81287207555E+03  0.00000000000E+00 0. -1.
        -11    1    3    3    0    0 -0.21967018733E+03  0.17972040392E+03 -0.37116401818E+03  0.46724420079E+03  0.00000000000E+00 0.  1.
         22    1    1    2    0    0  0.63672546121E+03 -0.58121652726E+03 -0.36664420027E+03  0.93683506238E+03  0.00000000000E+00 0.  1.
<mgrwt>
<rscale>  0 0.17896491E+04</rscale>
<asrwt>0</asrwt>
<pdfrwt beam="1">  1        2 0.27118436E+00 0.17896491E+04</pdfrwt>
<pdfrwt beam="2">  1       -2 0.69885074E-01 0.17896491E+04</pdfrwt>
<totfact> 0.15951534E+01</totfact>
</mgrwt>
</event>
<event>
 6    1  0.1637818E-005  0.2017626E+04  0.7818608E-02  0.8598424E-01
          2   -1    0    0  501    0  0.00000000000E+00  0.00000000000E+00  0.21944667078E+04  0.21944667078E+04  0.00000000000E+00 0.  1.
         -2   -1    0    0    0  501 -0.00000000000E+00 -0.00000000000E+00 -0.46375903304E+03  0.46375903304E+03  0.00000000000E+00 0. -1.
         23    2    1    2    0    0  0.85341391638E+03 -0.52683491763E+03  0.98378929080E+03  0.14077228758E+04  0.89285963354E+02 0.  0.
         11    1    3    3    0    0  0.19441565703E+03 -0.77673153120E+02  0.20030534699E+03  0.28974609306E+03  0.00000000000E+00 0. -1.
        -11    1    3    3    0    0  0.65899825935E+03 -0.44916176451E+03  0.78348394382E+03  0.11179767827E+04  0.00000000000E+00 0.  1.
         22    1    1    2    0    0 -0.85341391638E+03  0.52683491763E+03  0.74691838394E+03  0.12505028650E+04  0.00000000000E+00 0. -1.
<mgrwt>
<rscale>  0 0.20176261E+04</rscale>
<asrwt>0</asrwt>
<pdfrwt beam="1">  1        2 0.33761026E+00 0.20176261E+04</pdfrwt>
<pdfrwt beam="2">  1       -2 0.71347545E-01 0.20176261E+04</pdfrwt>
<totfact> 0.86025805E+00</totfact>
</mgrwt>
</event>
<event>
 6    1  0.1637818E-005  0.3675493E+04  0.7818608E-02  0.8073415E-01
          2   -1    0    0  501    0  0.00000000000E+00  0.00000000000E+00  0.18413543860E+04  0.18413543860E+04  0.00000000000E+00 0. -1.
         -2   -1    0    0    0  501 -0.00000000000E+00 -0.00000000000E+00 -0.18341459280E+04  0.18341459280E+04  0.00000000000E+00 0.  1.
         23    2    1    2    0    0  0.47858746906E+03  0.14229754751E+04  0.10615588558E+04  0.18409540678E+04  0.91101629777E+02 0.  0.
         11    1    3    3    0    0  0.22871126386E+03  0.81702450463E+03  0.61300170402E+03  0.10467134147E+04  0.00000000000E+00 0.  1.
        -11    1    3    3    0    0  0.24987620520E+03  0.60595097046E+03  0.44855715181E+03  0.79424065306E+03  0.00000000000E+00 0. -1.
         22    1    1    2    0    0 -0.47858746906E+03 -0.14229754751E+04 -0.10543503978E+04  0.18345462462E+04  0.00000000000E+00 0. -1.
<mgrwt>
<rscale>  0 0.36754932E+04</rscale>
<asrwt>0</asrwt>
<pdfrwt beam="1">  1        2 0.28328529E+00 0.36754932E+04</pdfrwt>
<pdfrwt beam="2">  1       -2 0.28217630E+00 0.36754932E+04</pdfrwt>
<totfact> 0.27078960E-01</totfact>
</mgrwt>
</event>
<event>
 6    1  0.1637818E-005  0.1734139E+04  0.7818608E-02  0.8742130E-01
          1   -1    0    0  501    0  0.00000000000E+00  0.00000000000E+00  0.47258038209E+03  0.47258038209E+03  0.00000000000E+00 0. -1.
         -1   -1    0    0    0  501 -0.00000000000E+00 -0.00000000000E+00 -0.15908608259E+04  0.15908608259E+04  0.00000000000E+00 0.  1.
         23    2    1    2    0    0 -0.41332406127E+03  0.21331393704E+03  0.30696219102E+03  0.56422268372E+03  0.88214708270E+02 0.  0.
         11    1    3    3    0    0 -0.29474370031E+03  0.10721958832E+03  0.21759243715E+03  0.38172812013E+03  0.00000000000E+00 0. -1.
        -11    1    3    3    0    0 -0.11858036096E+03  0.10609434872E+03  0.89369753872E+02  0.18249456360E+03  0.00000000000E+00 0.  1.
         22    1    1    2    0    0  0.41332406127E+03 -0.21331393704E+03 -0.14252426349E+04  0.14992185243E+04  0.00000000000E+00 0.  1.
<mgrwt>
<rscale>  0 0.17341391E+04</rscale>
<asrwt>0</asrwt>
<pdfrwt beam="1">  1        1 0.72704674E-01 0.17341391E+04</pdfrwt>
<pdfrwt beam="2">  1       -1 0.24474782E+00 0.17341391E+04</pdfrwt>
<totfact> 0.34301343E+00</totfact>
</mgrwt>
</event>
<event>
 6    1  0.1637818E-005  0.1334748E+04  0.7818608E-02  0.9002455E-01
         -2   -1    0    0    0  501 -0.00000000000E+00  0.00000000000E+00  0.34065502682E+03  0.34065502682E+03  0.00000000000E+00 0.  1.
          2   -1    0    0  501    0  0.00000000000E+00 -0.00000000000E+00 -0.13074457884E+04  0.13074457884E+04  0.00000000000E+00 0. -1.
         23    2    1    2    0    0 -0.39226069979E+03  0.35847071775E+03  0.66287512105E+01  0.53908536901E+03  0.90550442612E+02 0.  0.
         11    1    3    3    0    0 -0.12161514321E+03  0.16000036583E+03 -0.22380827642E+02  0.20221587863E+03  0.00000000000E+00 0.  1.
        -11    1    3    3    0    0 -0.27064555657E+03  0.19847035192E+03  0.29009578852E+02  0.33686949038E+03  0.00000000000E+00 0. -1.
         22    1    1    2    0    0  0.39226069979E+03 -0.35847071775E+03 -0.97341951283E+03  0.11090154463E+04  0.00000000000E+00 0. -1.
<mgrwt>
<rscale>  0 0.13347479E+04</rscale>
<asrwt>0</asrwt>
<pdfrwt beam="1">  1        2 0.20114550E+00 0.13347479E+04</pdfrwt>
<pdfrwt beam="2">  1       -2 0.52408467E-01 0.13347479E+04</pdfrwt>
<totfact> 0.54976936E+01</totfact>
</mgrwt>
</event>
<event>
 6    1  0.1637818E-005  0.3381502E+04  0.7818608E-02  0.8142461E-01
          2   -1    0    0  501    0  0.00000000000E+00  0.00000000000E+00  0.26129368733E+04  0.26129368733E+04  0.00000000000E+00 0. -1.
         -2   -1    0    0    0  501 -0.00000000000E+00 -0.00000000000E+00 -0.10940328931E+04  0.10940328931E+04  0.00000000000E+00 0.  1.
         23    2    1    2    0    0  0.64680530917E+03 -0.10906715820E+04 -0.46403927808E+03  0.13532523719E+04  0.89654462554E+02 0.  0.
         13    1    3    3    0    0  0.40659184630E+03 -0.61361231380E+03 -0.29514191216E+03  0.79306099982E+03  0.00000000000E+00 0.  1.
        -13    1    3    3    0    0  0.24021346287E+03 -0.47705926817E+03 -0.16889736592E+03  0.56019137204E+03  0.00000000000E+00 0. -1.
         22    1    1    2    0    0 -0.64680530917E+03  0.10906715820E+04  0.19829432583E+04  0.23537173945E+04  0.00000000000E+00 0. -1.
<mgrwt>
<rscale>  0 0.33815020E+04</rscale>
<asrwt>0</asrwt>
<pdfrwt beam="1">  1        2 0.40199029E+00 0.33815020E+04</pdfrwt>
<pdfrwt beam="2">  1       -2 0.16831275E+00 0.33815020E+04</pdfrwt>
<totfact> 0.54354270E-01</totfact>
</mgrwt>
</event>
<event>
 6    1  0.1637818E-005  0.2581552E+04  0.7818608E-02  0.8374495E-01
         -1   -1    0    0    0  501 -0.00000000000E+00  0.00000000000E+00  0.52409180139E+03  0.52409180139E+03  0.00000000000E+00 0.  1.
          1   -1    0    0  501    0  0.00000000000E+00 -0.00000000000E+00 -0.31790276327E+04  0.31790276327E+04  0.00000000000E+00 0. -1.
         23    2    1    2    0    0  0.14242267278E+03  0.54999640467E+03 -0.29892159718E+04  0.30439354877E+04  0.85737180977E+02 0.  0.
         13    1    3    3    0    0  0.67430645148E+02  0.24383078490E+03 -0.11098218647E+04  0.11382903474E+04  0.00000000000E+00 0. -1.
        -13    1    3    3    0    0  0.74992027632E+02  0.30616561977E+03 -0.18793941071E+04  0.19056451403E+04  0.00000000000E+00 0.  1.
         22    1    1    2    0    0 -0.14242267278E+03 -0.54999640467E+03  0.33428014050E+03  0.65918394641E+03  0.00000000000E+00 0.  1.
<mgrwt>
<rscale>  0 0.25815517E+04</rscale>
<asrwt>0</asrwt>
<pdfrwt beam="1">  1        1 0.48908117E+00 0.25815517E+04</pdfrwt>
<pdfrwt beam="2">  1       -1 0.80629508E-01 0.25815517E+04</pdfrwt>
<totfact> 0.59641043E-01</totfact>
</mgrwt>
</event>
<event>
 6    1  0.1637818E-005  0.1705907E+04  0.7818608E-02  0.8758002E-01
         -2   -1    0    0    0  501 -0.00000000000E+00  0.00000000000E+00  0.55042548439E+03  0.55042548439E+03  0.00000000000E+00 0. -1.
          2   -1    0    0  501    0  0.00000000000E+00 -0.00000000000E+00 -0.13217594007E+04  0.13217594007E+04  0.00000000000E+00 0.  1.
         23    2    1    2    0    0  0.45490170517E+03  0.56393583379E+03  0.10156937244E+03  0.73776021263E+03  0.94945289121E+02 0.  0.
         11    1    3    3    0    0  0.41137463534E+03  0.54607299440E+03  0.94808465142E+02  0.69022710094E+03  0.00000000000E+00 0. -1.
        -11    1    3    3    0    0  0.43527069835E+02  0.17862839387E+02  0.67609072931E+01  0.47533111688E+02  0.00000000000E+00 0.  1.
         22    1    1    2    0    0 -0.45490170517E+03 -0.56393583379E+03 -0.87290328877E+03  0.11344246725E+04  0.00000000000E+00 0. -1.
<mgrwt>
<rscale>  0 0.17059075E+04</rscale>
<asrwt>0</asrwt>
<pdfrwt beam="1">  1        2 0.20334760E+00 0.17059075E+04</pdfrwt>
<pdfrwt beam="2">  1       -2 0.84680845E-01 0.17059075E+04</pdfrwt>
<totfact> 0.18560102E+01</totfact>
</mgrwt>
</event>
<event>
 6    1  0.1637818E-005  0.2541544E+04  0.7818608E-02  0.8388333E-01
         -2   -1    0    0    0  501 -0.00000000000E+00  0.00000000000E+00  0.25355334999E+04  0.25355334999E+04  0.00000000000E+00 0.  1.
          2   -1    0    0  501    0  0.00000000000E+00 -0.00000000000E+00 -0.63689231921E+03  0.63689231921E+03  0.00000000000E+00 0. -1.
         23    2    1    2    0    0  0.10037779929E+04  0.22712939829E+03  0.18775587004E+04  0.21430558692E+04  0.91124983406E+02 0.  0.
         11    1    3    3    0    0  0.68727554034E+03  0.17426711064E+03  0.12114098230E+04  0.14036489780E+04  0.00000000000E+00 0.  1.
        -11    1    3    3    0    0  0.31650245260E+03  0.52862287647E+02  0.66614887734E+03  0.73940689119E+03  0.00000000000E+00 0. -1.
         22    1    1    2    0    0 -0.10037779929E+04 -0.22712939829E+03  0.21082480291E+02  0.10293699498E+04  0.00000000000E+00 0. -1.
<mgrwt>
<rscale>  0 0.25415443E+04</rscale>
<asrwt>0</asrwt>
<pdfrwt beam="1">  1        2 0.97983435E-01 0.25415443E+04</pdfrwt>
<pdfrwt beam="2">  1       -2 0.39008207E+00 0.25415443E+04</pdfrwt>
<totfact> 0.35314665E-01</totfact>
</mgrwt>
</event>
<event>
 6    1  0.1637818E-005  0.2810029E+04  0.7818608E-02  0.8300161E-01
         -2   -1    0    0    0  501 -0.00000000000E+00  0.00000000000E+00  0.21876265886E+04  0.21876265886E+04  0.00000000000E+00 0.  1.
          2   -1    0    0  501    0  0.00000000000E+00 -0.00000000000E+00 -0.90237798655E+03  0.90237798655E+03  0.00000000000E+00 0. -1.
         23    2    1    2    0    0  0.86780577220E+03  0.11026776844E+04  0.62868283183E+03  0.15407907279E+04  0.99040547935E+02 0.  0.
         11    1    3    3    0    0  0.36737364697E+03  0.41258748946E+03  0.20919077187E+03  0.59072211062E+03  0.00000000000E+00 0.  1.
        -11    1    3    3    0    0  0.50043212523E+03  0.69009019494E+03  0.41949205996E+03  0.95006861725E+03  0.00000000000E+00 0. -1.
         22    1    1    2    0    0 -0.86780577220E+03 -0.11026776844E+04  0.65656577020E+03  0.15492138473E+04  0.00000000000E+00 0.  1.
<mgrwt>
<rscale>  0 0.28100292E+04</rscale>
<asrwt>0</asrwt>
<pdfrwt beam="1">  1        2 0.13882738E+00 0.28100292E+04</pdfrwt>
<pdfrwt beam="2">  1       -2 0.33655793E+00 0.28100292E+04</pdfrwt>
<totfact> 0.47988897E-01</totfact>
</mgrwt>
</event>
<event>
 6    1  0.1637818E-005  0.4976572E+04  0.7818608E-02  0.7832131E-01
          1   -1    0    0  501    0  0.00000000000E+00  0.00000000000E+00  0.47798143509E+04  0.47798143509E+04  0.00000000000E+00 0. -1.
         -1   -1    0    0    0  501 -0.00000000000E+00 -0.00000000000E+00 -0.12953571431E+04  0.12953571431E+04  0.00000000000E+00 0.  1.
         23    2    1    2    0    0  0.35296991625E+03 -0.18997401865E+04 -0.17002863669E+03  0.19413031693E+04  0.78407397823E+02 0.  0.
         11    1    3    3    0    0  0.26638727308E+03 -0.14476279574E+04 -0.96005469210E+02  0.14750613318E+04  0.00000000000E+00 0. -1.
        -11    1    3    3    0    0  0.86582643171E+02 -0.45211222907E+03 -0.74023167480E+02  0.46624183757E+03  0.00000000000E+00 0.  1.
         22    1    1    2    0    0 -0.35296991625E+03  0.18997401865E+04  0.36544858445E+04  0.41338683247E+04  0.00000000000E+00 0. -1.
<mgrwt>
<rscale>  0 0.49765718E+04</rscale>
<asrwt>0</asrwt>
<pdfrwt beam="1">  1        1 0.73535604E+00 0.49765718E+04</pdfrwt>
<pdfrwt beam="2">  1       -1 0.19928572E+00 0.49765718E+04</pdfrwt>
<totfact> 0.17419724E-03</totfact>
</mgrwt>
</event>
<event>
 6    1  0.1637818E-005  0.2006333E+04  0.7818608E-02  0.8603666E-01
         -2   -1    0    0    0  501 -0.00000000000E+00  0.00000000000E+00  0.18799383460E+04  0.18799383460E+04  0.00000000000E+00 0. -1.
          2   -1    0    0  501    0  0.00000000000E+00 -0.00000000000E+00 -0.53530631909E+03  0.53530631909E+03  0.00000000000E+00 0.  1.
         23    2    1    2    0    0  0.40948020594E+03 -0.40523115215E+03  0.16592875349E+04  0.17588191823E+04  0.91233036772E+02 0.  0.
         11    1    3    3    0    0  0.19265866294E+03 -0.14123550154E+03  0.76848443684E+03  0.80475658243E+03  0.00000000000E+00 0. -1.
        -11    1    3    3    0    0  0.21682154301E+03 -0.26399565061E+03  0.89080309805E+03  0.95406259991E+03  0.00000000000E+00 0.  1.
         22    1    1    2    0    0 -0.40948020594E+03  0.40523115215E+03 -0.31465550796E+03  0.65642548276E+03  0.00000000000E+00 0.  1.
<mgrwt>
<rscale>  0 0.20063328E+04</rscale>
<asrwt>0</asrwt>
<pdfrwt beam="1">  1        2 0.82354819E-01 0.20063328E+04</pdfrwt>
<pdfrwt beam="2">  1       -2 0.28922128E+00 0.20063328E+04</pdfrwt>
<totfact> 0.19540879E+00</totfact>
</mgrwt>
</event>
<event>
 6    1  0.1637818E-005  0.3451977E+04  0.7818608E-02  0.8125266E-01
          1   -1    0    0  501    0  0.00000000000E+00  0.00000000000E+00  0.18904703338E+04  0.18904703338E+04  0.00000000000E+00 0. -1.
         -1   -1    0    0    0  501 -0.00000000000E+00 -0.00000000000E+00 -0.15758171425E+04  0.15758171425E+04  0.00000000000E+00 0.  1.
         23    2    1    2    0    0 -0.13334426993E+04 -0.10516517958E+04  0.46013087857E+03  0.17618213754E+04  0.90847133028E+02 0.  0.
         11    1    3    3    0    0 -0.12531816339E+04 -0.10075982389E+04  0.42072903821E+03  0.16621466067E+04  0.00000000000E+00 0. -1.
        -11    1    3    3    0    0 -0.80261065414E+02 -0.44053556828E+02  0.39401840354E+02  0.99674768693E+02  0.00000000000E+00 0.  1.
         22    1    1    2    0    0  0.13334426993E+04  0.10516517958E+04 -0.14547768728E+03  0.17044661009E+04  0.00000000000E+00 0.  1.
<mgrwt>
<rscale>  0 0.34519766E+04</rscale>
<asrwt>0</asrwt>
<pdfrwt beam="1">  1        1 0.29084159E+00 0.34519766E+04</pdfrwt>
<pdfrwt beam="2">  1       -1 0.24243341E+00 0.34519766E+04</pdfrwt>
<totfact> 0.22637915E-01</totfact>
</mgrwt>
</event>
<event>
 6    1  0.1637818E-005  0.1279816E+04  0.7818608E-02  0.9045726E-01
          2   -1    0    0  501    0  0.00000000000E+00  0.00000000000E+00  0.23121048102E+03  0.23121048102E+03  0.00000000000E+00 0. -1.
         -2   -1    0    0    0  501 -0.00000000000E+00 -0.00000000000E+00 -0.17710374061E+04  0.17710374061E+04  0.00000000000E+00 0.  1.
         23    2    1    2    0    0 -0.17387806036E+03  0.57151759811E+03 -0.11182611088E+04  0.12710955895E+04  0.91159999041E+02 0.  0.
         13    1    3    3    0    0 -0.10841723500E+03  0.21490942918E+03 -0.48278431817E+03  0.53946367576E+03  0.00000000000E+00 0. -1.
        -13    1    3    3    0    0 -0.65460825363E+02  0.35660816893E+03 -0.63547679064E+03  0.73163191377E+03  0.00000000000E+00 0.  1.
         22    1    1    2    0    0  0.17387806036E+03 -0.57151759811E+03 -0.42156581624E+03  0.73115229757E+03  0.00000000000E+00 0. -1.
<mgrwt>
<rscale>  0 0.12798163E+04</rscale>
<asrwt>0</asrwt>
<pdfrwt beam="1">  1        2 0.35570844E-01 0.12798163E+04</pdfrwt>
<pdfrwt beam="2">  1       -2 0.27246728E+00 0.12798163E+04</pdfrwt>
<totfact> 0.67776424E+00</totfact>
</mgrwt>
</event>
<event>
 6    1  0.1637818E-005  0.5248837E+04  0.7818608E-02  0.7791228E-01
          2   -1    0    0  501    0  0.00000000000E+00  0.00000000000E+00  0.14701980483E+04  0.14701980483E+04  0.00000000000E+00 0. -1.
         -2   -1    0    0    0  501 -0.00000000000E+00 -0.00000000000E+00 -0.46847921249E+04  0.46847921249E+04  0.00000000000E+00 0.  1.
         23    2    1    2    0    0  0.82752632294E+02 -0.11537834841E+04  0.11535360832E+04  0.16362928587E+04  0.93512020122E+02 0.  0.
         11    1    3    3    0    0  0.66771677945E+02 -0.57320417722E+03  0.51975404154E+03  0.77663746333E+03  0.00000000000E+00 0. -1.
        -11    1    3    3    0    0  0.15980954348E+02 -0.58057930692E+03  0.63378204166E+03  0.85965539541E+03  0.00000000000E+00 0.  1.
         22    1    1    2    0    0 -0.82752632294E+02  0.11537834841E+04 -0.43681301598E+04  0.45186973144E+04  0.00000000000E+00 0.  1.
<mgrwt>
<rscale>  0 0.52488369E+04</rscale>
<asrwt>0</asrwt>
<pdfrwt beam="1">  1        2 0.22618431E+00 0.52488369E+04</pdfrwt>
<pdfrwt beam="2">  1       -2 0.72073726E+00 0.52488369E+04</pdfrwt>
<totfact> 0.18111363E-03</totfact>
</mgrwt>
</event>
<event>
 6    1  0.1637818E-005  0.2440816E+04  0.7818608E-02  0.8424379E-01
         -1   -1    0    0    0  501 -0.00000000000E+00  0.00000000000E+00  0.78033440746E+03  0.78033440746E+03  0.00000000000E+00 0.  1.
          1   -1    0    0  501    0  0.00000000000E+00 -0.00000000000E+00 -0.19086627889E+04  0.19086627889E+04  0.00000000000E+00 0. -1.
         23    2    1    2    0    0  0.61897078850E+03 -0.35172597405E+03 -0.16545183822E+04  0.18037221460E+04  0.95637363464E+02 0.  0.
         11    1    3    3    0    0  0.31218525903E+03 -0.21244513398E+03 -0.96616101840E+03  0.10373329670E+04  0.00000000000E+00 0. -1.
        -11    1    3    3    0    0  0.30678552947E+03 -0.13928084007E+03 -0.68835736376E+03  0.76638917904E+03  0.00000000000E+00 0.  1.
         22    1    1    2    0    0 -0.61897078850E+03  0.35172597405E+03  0.52619000074E+03  0.88527505032E+03  0.00000000000E+00 0.  1.
<mgrwt>
<rscale>  0 0.24408156E+04</rscale>
<asrwt>0</asrwt>
<pdfrwt beam="1">  1        1 0.29364042E+00 0.24408156E+04</pdfrwt>
<pdfrwt beam="2">  1       -1 0.12005145E+00 0.24408156E+04</pdfrwt>
<totfact> 0.18979152E+00</totfact>
</mgrwt>
</event>
<event>
 6    1  0.1637818E-005  0.1418207E+04  0.7818608E-02  0.8940744E-01
         -2   -1    0    0    0  501 -0.00000000000E+00  0.00000000000E+00  0.18316931383E+03  0.18316931383E+03  0.00000000000E+00 0.  1.
          2   -1    0    0  501    0  0.00000000000E+00 -0.00000000000E+00 -0.27451512635E+04  0.27451512635E+04  0.00000000000E+00 0. -1.
         23    2    1    2    0    0  0.52029301906E+03 -0.37305896228E+03 -0.67069926751E+03  0.93161629304E+03  0.90518478829E+02 0.  0.
         13    1    3    3    0    0  0.25732510582E+03 -0.13192663242E+03 -0.27995539636E+03  0.40248710585E+03  0.00000000000E+00 0. -1.
        -13    1    3    3    0    0  0.26296791324E+03 -0.24113232986E+03 -0.39074387115E+03  0.52912918719E+03  0.00000000000E+00 0.  1.
         22    1    1    2    0    0 -0.52029301906E+03  0.37305896228E+03 -0.18912826822E+04  0.19967042843E+04  0.00000000000E+00 0.  1.
<mgrwt>
<rscale>  0 0.14182066E+04</rscale>
<asrwt>0</asrwt>
<pdfrwt beam="1">  1        2 0.42233097E+00 0.14182066E+04</pdfrwt>
<pdfrwt beam="2">  1       -2 0.28179894E-01 0.14182066E+04</pdfrwt>
<totfact> 0.28104755E+01</totfact>
</mgrwt>
</event>
<event>
 6    1  0.1637818E-005  0.3385486E+04  0.7818608E-02  0.8141478E-01
          1   -1    0    0  501    0  0.00000000000E+00  0.00000000000E+00  0.95721929672E+03  0.95721929672E+03  0.00000000000E+00 0. -1.
         -1   -1    0    0    0  501 -0.00000000000E+00 -0.00000000000E+00 -0.29934404423E+04  0.29934404423E+04  0.00000000000E+00 0.  1.
         23    2    1    2    0    0 -0.94260422860E+03 -0.13971468400E+04 -0.11893603777E+04  0.20644743864E+04  0.83392804605E+02 0.  0.
         11    1    3    3    0    0 -0.62871953844E+03 -0.98056061853E+03 -0.85461217256E+03  0.14446969752E+04  0.00000000000E+00 0. -1.
        -11    1    3    3    0    0 -0.31388469016E+03 -0.41658622145E+03 -0.33474820517E+03  0.61977741124E+03  0.00000000000E+00 0.  1.
         22    1    1    2    0    0  0.94260422860E+03  0.13971468400E+04 -0.84686076788E+03  0.18861853526E+04  0.00000000000E+00 0.  1.
<mgrwt>
<rscale>  0 0.33854861E+04</rscale>
<asrwt>0</asrwt>
<pdfrwt beam="1">  1        1 0.14726451E+00 0.33854861E+04</pdfrwt>
<pdfrwt beam="2">  1       -1 0.46052930E+00 0.33854861E+04</pdfrwt>
<totfact> 0.36861782E-02</totfact>
</mgrwt>
</event>
<event>
 6    1  0.1637818E-005  0.2734201E+04  0.7818608E-02  0.8323993E-01
          2   -1    0    0  501    0  0.00000000000E+00  0.00000000000E+00  0.21001253120E+04  0.21001253120E+04  0.00000000000E+00 0. -1.
         -2   -1    0    0    0  501 -0.00000000000E+00 -0.00000000000E+00 -0.88992950230E+03  0.88992950230E+03  0.00000000000E+00 0.  1.
         23    2    1    2    0    0 -0.49791858184E+03  0.12605393548E+04  0.78828263248E+03  0.15705855092E+04  0.92016052426E+02 0.  0.
         11    1    3    3    0    0 -0.26429757175E+03  0.76952619488E+03  0.50235387838E+03  0.95623385746E+03  0.00000000000E+00 0. -1.
        -11    1    3    3    0    0 -0.23362101009E+03  0.49101315988E+03  0.28592875410E+03  0.61435165170E+03  0.00000000000E+00 0.  1.
         22    1    1    2    0    0  0.49791858184E+03 -0.12605393548E+04  0.42191317718E+03  0.14194693051E+04  0.00000000000E+00 0.  1.
<mgrwt>
<rscale>  0 0.27342008E+04</rscale>
<asrwt>0</asrwt>
<pdfrwt beam="1">  1        2 0.32309620E+00 0.27342008E+04</pdfrwt>
<pdfrwt beam="2">  1       -2 0.13691223E+00 0.27342008E+04</pdfrwt>
<totfact> 0.19558558E+00</totfact>
</mgrwt>
</event>
<event>
 6    1  0.1904579E-005  0.4027657E+04  0.7818608E-02  0.7998990E-01
          2   -1    0    0  501    0  0.00000000000E+00  0.00000000000E+00  0.28713378678E+04  0.28713378678E+04  0.00000000000E+00 0. -1.
         -2   -1    0    0    0  501 -0.00000000000E+00 -0.00000000000E+00 -0.14124096562E+04  0.14124096562E+04  0.00000000000E+00 0.  1.
         23    2    1    2    0    0 -0.13955320135E+04 -0.89543535013E+03  0.19435911221E+04  0.25562602725E+04  0.87212752315E+02 0.  0.
         13    1    3    3    0    0 -0.50299603374E+03 -0.37274706516E+03  0.72685444541E+03  0.95930327288E+03  0.00000000000E+00 0. -1.
        -13    1    3    3    0    0 -0.89253597973E+03 -0.52268828497E+03  0.12167366767E+04  0.15969569997E+04  0.00000000000E+00 0.  1.
         22    1    1    2    0    0  0.13955320135E+04  0.89543535013E+03 -0.48466291050E+03  0.17274872514E+04  0.00000000000E+00 0.  1.
<mgrwt>
<rscale>  0 0.40276571E+04</rscale>
<asrwt>0</asrwt>
<pdfrwt beam="1">  1        2 0.44174428E+00 0.40276571E+04</pdfrwt>
<pdfrwt beam="2">  1       -2 0.21729379E+00 0.40276571E+04</pdfrwt>
<totfact> 0.16927424E-01</totfact>
</mgrwt>
</event>
<event>
 6    1  0.1637818E-005  0.1298433E+04  0.7818608E-02  0.9030808E-01
         -1   -1    0    0    0  501 -0.00000000000E+00  0.00000000000E+00  0.77394803341E+03  0.77394803341E+03  0.00000000000E+00 0.  1.
          1   -1    0    0  501    0  0.00000000000E+00 -0.00000000000E+00 -0.54458744751E+03  0.54458744751E+03  0.00000000000E+00 0. -1.
         23    2    1    2    0    0 -0.56923943054E+03 -0.13331142638E+03 -0.16369149944E+03  0.61405311247E+03  0.91982891109E+02 0.  0.
         13    1    3    3    0    0 -0.29658865769E+03 -0.30188287389E+02 -0.10927027149E+03  0.31751560087E+03  0.00000000000E+00 0. -1.
        -13    1    3    3    0    0 -0.27265077285E+03 -0.10312313899E+03 -0.54421227945E+02  0.29653751160E+03  0.00000000000E+00 0.  1.
         22    1    1    2    0    0  0.56923943054E+03  0.13331142638E+03  0.39305208534E+03  0.70448236846E+03  0.00000000000E+00 0. -1.
<mgrwt>
<rscale>  0 0.12984335E+04</rscale>
<asrwt>0</asrwt>
<pdfrwt beam="1">  1        1 0.83782684E-01 0.12984335E+04</pdfrwt>
<pdfrwt beam="2">  1       -1 0.11906893E+00 0.12984335E+04</pdfrwt>
<totfact> 0.24400789E+01</totfact>
</mgrwt>
</event>
<event>
 6    1  0.1637818E-005  0.2724066E+04  0.7818608E-02  0.8327238E-01
         -1   -1    0    0    0  501 -0.00000000000E+00  0.00000000000E+00  0.81284609215E+03  0.81284609215E+03  0.00000000000E+00 0.  1.
          1   -1    0    0  501    0  0.00000000000E+00 -0.00000000000E+00 -0.22822696636E+04  0.22822696636E+04  0.00000000000E+00 0. -1.
         23    2    1    2    0    0 -0.33667433355E+03 -0.20374262195E+02 -0.22330791404E+04  0.22602896987E+04  0.92208229172E+02 0.  0.
         13    1    3    3    0    0 -0.23869220794E+03 -0.55894990597E+02 -0.16086911074E+04  0.16272631315E+04  0.00000000000E+00 0. -1.
        -13    1    3    3    0    0 -0.97982125609E+02  0.35520728403E+02 -0.62438803294E+03  0.63302656719E+03  0.00000000000E+00 0.  1.
         22    1    1    2    0    0  0.33667433355E+03  0.20374262195E+02  0.76365556896E+03  0.83482605699E+03  0.00000000000E+00 0.  1.
<mgrwt>
<rscale>  0 0.27240661E+04</rscale>
<asrwt>0</asrwt>
<pdfrwt beam="1">  1        1 0.35111841E+00 0.27240661E+04</pdfrwt>
<pdfrwt beam="2">  1       -1 0.12505325E+00 0.27240661E+04</pdfrwt>
<totfact> 0.93203739E-01</totfact>
</mgrwt>
</event>
<event>
 6    1  0.1637818E-005  0.1405042E+04  0.7818608E-02  0.8950177E-01
         -1   -1    0    0    0  501 -0.00000000000E+00  0.00000000000E+00  0.61268144324E+03  0.61268144324E+03  0.00000000000E+00 0.  1.
          1   -1    0    0  501    0  0.00000000000E+00 -0.00000000000E+00 -0.80553378526E+03  0.80553378526E+03  0.00000000000E+00 0. -1.
         23    2    1    2    0    0 -0.40045917572E+03 -0.38686154902E+03 -0.52460978663E+03  0.77006986549E+03  0.88106526283E+02 0.  0.
         13    1    3    3    0    0 -0.17171678041E+03 -0.18847369119E+03 -0.29599250275E+03  0.39066679745E+03  0.00000000000E+00 0. -1.
        -13    1    3    3    0    0 -0.22874239531E+03 -0.19838785783E+03 -0.22861728388E+03  0.37940306804E+03  0.00000000000E+00 0.  1.
         22    1    1    2    0    0  0.40045917572E+03  0.38686154902E+03  0.33175744461E+03  0.64814536301E+03  0.00000000000E+00 0.  1.
<mgrwt>
<rscale>  0 0.14050418E+04</rscale>
<asrwt>0</asrwt>
<pdfrwt beam="1">  1        1 0.12392827E+00 0.14050418E+04</pdfrwt>
<pdfrwt beam="2">  1       -1 0.94258684E-01 0.14050418E+04</pdfrwt>
<totfact> 0.23234145E+01</totfact>
</mgrwt>
</event>
<event>
 6    1  0.1637818E-005  0.3166795E+04  0.7818608E-02  0.8197642E-01
          2   -1    0    0  501    0  0.00000000000E+00  0.00000000000E+00  0.19119046340E+04  0.19119046340E+04  0.00000000000E+00 0. -1.
         -2   -1    0    0    0  501 -0.00000000000E+00 -0.00000000000E+00 -0.13113354984E+04  0.13113354984E+04  0.00000000000E+00 0.  1.
         23    2    1    2    0    0 -0.33524899595E+03  0.93190161288E+03 -0.95490322810E+03  0.13792426326E+04  0.98171070801E+02 0.  0.
         13    1    3    3    0    0 -0.25247249595E+03  0.56893692894E+03 -0.61855086664E+03  0.87751738726E+03  0.00000000000E+00 0.  1.
        -13    1    3    3    0    0 -0.82776499999E+02  0.36296468395E+03 -0.33635236145E+03  0.50172524533E+03  0.00000000000E+00 0. -1.
         22    1    1    2    0    0  0.33524899595E+03 -0.93190161288E+03  0.15554723637E+04  0.18439974999E+04  0.00000000000E+00 0. -1.
<mgrwt>
<rscale>  0 0.31667955E+04</rscale>
<asrwt>0</asrwt>
<pdfrwt beam="1">  1        2 0.29413918E+00 0.31667955E+04</pdfrwt>
<pdfrwt beam="2">  1       -2 0.20174392E+00 0.31667955E+04</pdfrwt>
<totfact> 0.81811023E-01</totfact>
</mgrwt>
</event>
<event>
 6    1  0.1637818E-005  0.1731639E+04  0.7818608E-02  0.8743522E-01
          2   -1    0    0  501    0  0.00000000000E+00  0.00000000000E+00  0.21602931133E+04  0.21602931133E+04  0.00000000000E+00 0.  1.
         -2   -1    0    0    0  501 -0.00000000000E+00 -0.00000000000E+00 -0.34701001526E+03  0.34701001526E+03  0.00000000000E+00 0. -1.
         23    2    1    2    0    0 -0.76114211390E+03  0.33948762153E+03  0.12364292884E+04  0.14937206305E+04  0.88627162292E+02 0.  0.
         11    1    3    3    0    0 -0.37610617082E+03  0.11936746124E+03  0.57844163858E+03  0.70021366152E+03  0.00000000000E+00 0.  1.
        -11    1    3    3    0    0 -0.38503594307E+03  0.22012016029E+03  0.65798764987E+03  0.79350696897E+03  0.00000000000E+00 0. -1.
         22    1    1    2    0    0  0.76114211390E+03 -0.33948762153E+03  0.57685380955E+03  0.10135824980E+04  0.00000000000E+00 0. -1.
<mgrwt>
<rscale>  0 0.17316389E+04</rscale>
<asrwt>0</asrwt>
<pdfrwt beam="1">  1        2 0.33235278E+00 0.17316389E+04</pdfrwt>
<pdfrwt beam="2">  1       -2 0.53386158E-01 0.17316389E+04</pdfrwt>
<totfact> 0.17071064E+01</totfact>
</mgrwt>
</event>
<event>
 6    1  0.1637818E-005  0.2799100E+04  0.7818608E-02  0.8303548E-01
         -1   -1    0    0    0  501 -0.00000000000E+00  0.00000000000E+00  0.15062869506E+04  0.15062869506E+04  0.00000000000E+00 0.  1.
          1   -1    0    0  501    0  0.00000000000E+00 -0.00000000000E+00 -0.13003766851E+04  0.13003766851E+04  0.00000000000E+00 0. -1.
         23    2    1    2    0    0  0.73159262518E+03  0.11034276877E+04 -0.34787401390E+03  0.13715826416E+04  0.86268082263E+02 0.  0.
         11    1    3    3    0    0  0.51032185310E+03  0.82202797315E+03 -0.22782167954E+03  0.99401262571E+03  0.00000000000E+00 0.  1.
        -11    1    3    3    0    0  0.22127077209E+03  0.28139971458E+03 -0.12005233436E+03  0.37757001593E+03  0.00000000000E+00 0. -1.
         22    1    1    2    0    0 -0.73159262518E+03 -0.11034276877E+04  0.55378427947E+03  0.14350809940E+04  0.00000000000E+00 0. -1.
<mgrwt>
<rscale>  0 0.27991002E+04</rscale>
<asrwt>0</asrwt>
<pdfrwt beam="1">  1        1 0.20005795E+00 0.27991002E+04</pdfrwt>
<pdfrwt beam="2">  1       -1 0.23173645E+00 0.27991002E+04</pdfrwt>
<totfact> 0.71945504E-01</totfact>
</mgrwt>
</event>
<event>
 6    1  0.1637818E-005  0.6339735E+04  0.7818608E-02  0.7649649E-01
         -2   -1    0    0    0  501 -0.00000000000E+00  0.00000000000E+00  0.25132569120E+04  0.25132569120E+04  0.00000000000E+00 0.  1.
          2   -1    0    0  501    0  0.00000000000E+00 -0.00000000000E+00 -0.39980235850E+04  0.39980235850E+04  0.00000000000E+00 0. -1.
         23    2    1    2    0    0 -0.21897133020E+04  0.46570354329E+03  0.15609424868E+04  0.27313243569E+04  0.10893649583E+03 0.  0.
         13    1    3    3    0    0 -0.14262778588E+04  0.25029049176E+03  0.10029438550E+04  0.17614795591E+04  0.00000000000E+00 0.  1.
        -13    1    3    3    0    0 -0.76343544317E+03  0.21541305153E+03  0.55799863179E+03  0.96984479776E+03  0.00000000000E+00 0. -1.
         22    1    1    2    0    0  0.21897133020E+04 -0.46570354329E+03 -0.30457091597E+04  0.37799561401E+04  0.00000000000E+00 0. -1.
<mgrwt>
<rscale>  0 0.63397351E+04</rscale>
<asrwt>0</asrwt>
<pdfrwt beam="1">  1        2 0.61508054E+00 0.63397351E+04</pdfrwt>
<pdfrwt beam="2">  1       -2 0.38665492E+00 0.63397351E+04</pdfrwt>
<totfact> 0.20321483E-03</totfact>
</mgrwt>
</event>
<event>
 6    1  0.1637818E-005  0.4065253E+04  0.7818608E-02  0.7991511E-01
          2   -1    0    0  501    0  0.00000000000E+00  0.00000000000E+00  0.23816951748E+04  0.23816951748E+04  0.00000000000E+00 0. -1.
         -2   -1    0    0    0  501 -0.00000000000E+00 -0.00000000000E+00 -0.17347185357E+04  0.17347185357E+04  0.00000000000E+00 0.  1.
         23    2    1    2    0    0  0.95876003878E+03  0.14087299254E+04 -0.79646860568E+03  0.18831929445E+04  0.91173524511E+02 0.  0.
         11    1    3    3    0    0  0.59363778851E+03  0.87845386044E+03 -0.54390644904E+03  0.11916044789E+04  0.00000000000E+00 0. -1.
        -11    1    3    3    0    0  0.36512225027E+03  0.53027606500E+03 -0.25256215664E+03  0.69158846558E+03  0.00000000000E+00 0.  1.
         22    1    1    2    0    0 -0.95876003878E+03 -0.14087299254E+04  0.14434452448E+04  0.22332207660E+04  0.00000000000E+00 0.  1.
<mgrwt>
<rscale>  0 0.40652531E+04</rscale>
<asrwt>0</asrwt>
<pdfrwt beam="1">  1        2 0.36641464E+00 0.40652531E+04</pdfrwt>
<pdfrwt beam="2">  1       -2 0.26687977E+00 0.40652531E+04</pdfrwt>
<totfact> 0.16186057E-01</totfact>
</mgrwt>
</event>
<event>
 6    1  0.1637818E-005  0.1888778E+04  0.7818608E-02  0.8660462E-01
          2   -1    0    0  501    0  0.00000000000E+00  0.00000000000E+00  0.57372087628E+03  0.57372087628E+03  0.00000000000E+00 0. -1.
         -2   -1    0    0    0  501 -0.00000000000E+00 -0.00000000000E+00 -0.15545376637E+04  0.15545376637E+04  0.00000000000E+00 0.  1.
         23    2    1    2    0    0  0.32779483946E+03 -0.86892796082E+03 -0.31488669991E+03  0.98547766014E+03  0.97608027266E+02 0.  0.
         11    1    3    3    0    0  0.18194650054E+03 -0.34674052000E+03 -0.13779187404E+03  0.41511458396E+03  0.00000000000E+00 0. -1.
        -11    1    3    3    0    0  0.14584833892E+03 -0.52218744082E+03 -0.17709482587E+03  0.57036307618E+03  0.00000000000E+00 0.  1.
         22    1    1    2    0    0 -0.32779483946E+03  0.86892796082E+03 -0.66593008751E+03  0.11427808798E+04  0.00000000000E+00 0. -1.
<mgrwt>
<rscale>  0 0.18887781E+04</rscale>
<asrwt>0</asrwt>
<pdfrwt beam="1">  1        2 0.88264751E-01 0.18887781E+04</pdfrwt>
<pdfrwt beam="2">  1       -2 0.23915964E+00 0.18887781E+04</pdfrwt>
<totfact> 0.36774498E+00</totfact>
</mgrwt>
</event>
<event>
 6    1  0.1637818E-005  0.2546671E+04  0.7818608E-02  0.8386545E-01
         -4   -1    0    0    0  501 -0.00000000000E+00  0.00000000000E+00  0.18677040688E+04  0.18677040688E+04  0.00000000000E+00 0.  1.
          4   -1    0    0  501    0  0.00000000000E+00 -0.00000000000E+00 -0.86811555643E+03  0.86811555643E+03  0.00000000000E+00 0. -1.
         23    2    1    2    0    0 -0.11309104020E+04 -0.14740059530E+03 -0.10392505748E+03  0.11488642158E+04  0.91669493210E+02 0.  0.
         13    1    3    3    0    0 -0.47595031405E+03 -0.20847252354E+02 -0.23886252382E+02  0.47700509686E+03  0.00000000000E+00 0.  1.
        -13    1    3    3    0    0 -0.65496008791E+03 -0.12655334295E+03 -0.80038805101E+02  0.67185911892E+03  0.00000000000E+00 0. -1.
         22    1    1    2    0    0  0.11309104020E+04  0.14740059530E+03  0.11035135699E+04  0.15869554095E+04  0.00000000000E+00 0. -1.
<mgrwt>
<rscale>  0 0.25466707E+04</rscale>
<asrwt>0</asrwt>
<pdfrwt beam="1">  1        4 0.13355624E+00 0.25466707E+04</pdfrwt>
<pdfrwt beam="2">  1       -4 0.28733909E+00 0.25466707E+04</pdfrwt>
<totfact> 0.26498295E-02</totfact>
</mgrwt>
</event>
<event>
 6    1  0.1637818E-005  0.4411645E+04  0.7818608E-02  0.7926290E-01
         -1   -1    0    0    0  501 -0.00000000000E+00  0.00000000000E+00  0.22412019673E+04  0.22412019673E+04  0.00000000000E+00 0.  1.
          1   -1    0    0  501    0  0.00000000000E+00 -0.00000000000E+00 -0.21710010639E+04  0.21710010639E+04  0.00000000000E+00 0. -1.
         23    2    1    2    0    0  0.30435664759E+03 -0.19945340261E+04 -0.85350249840E+03  0.21931881767E+04  0.10396592349E+03 0.  0.
         11    1    3    3    0    0  0.23518164240E+03 -0.17343303337E+04 -0.71776362706E+03  0.18916650696E+04  0.00000000000E+00 0.  1.
        -11    1    3    3    0    0  0.69175005197E+02 -0.26020369246E+03 -0.13573887135E+03  0.30152310709E+03  0.00000000000E+00 0. -1.
         22    1    1    2    0    0 -0.30435664759E+03  0.19945340261E+04  0.92370340182E+03  0.22190148546E+04  0.00000000000E+00 0.  1.
<mgrwt>
<rscale>  0 0.44116445E+04</rscale>
<asrwt>0</asrwt>
<pdfrwt beam="1">  1        1 0.33400016E+00 0.44116445E+04</pdfrwt>
<pdfrwt beam="2">  1       -1 0.34480030E+00 0.44116445E+04</pdfrwt>
<totfact> 0.29022151E-02</totfact>
</mgrwt>
</event>
<event>
 6    1  0.1637818E-005  0.5729829E+04  0.7818608E-02  0.7724833E-01
          2   -1    0    0  501    0  0.00000000000E+00  0.00000000000E+00  0.46547391961E+04  0.46547391961E+04  0.00000000000E+00 0. -1.
         -2   -1    0    0    0  501 -0.00000000000E+00 -0.00000000000E+00 -0.17633072609E+04  0.17633072609E+04  0.00000000000E+00 0.  1.
         23    2    1    2    0    0  0.20766834751E+04 -0.72290928291E+03 -0.60964806872E+03  0.22837057259E+04  0.91809519500E+02 0.  0.
         11    1    3    3    0    0  0.13382507674E+04 -0.46063311562E+03 -0.43758069252E+03  0.14814097496E+04  0.00000000000E+00 0. -1.
        -11    1    3    3    0    0  0.73843270765E+03 -0.26227616729E+03 -0.17206737620E+03  0.80229597631E+03  0.00000000000E+00 0.  1.
         22    1    1    2    0    0 -0.20766834751E+04  0.72290928291E+03  0.35010800040E+04  0.41343407311E+04  0.00000000000E+00 0. -1.
<mgrwt>
<rscale>  0 0.57298291E+04</rscale>
<asrwt>0</asrwt>
<pdfrwt beam="1">  1        2 0.71611372E+00 0.57298291E+04</pdfrwt>
<pdfrwt beam="2">  1       -2 0.27127804E+00 0.57298291E+04</pdfrwt>
<totfact> 0.27666011E-03</totfact>
</mgrwt>
</event>
<event>
 6    1  0.1637818E-005  0.1217751E+04  0.7818608E-02  0.9097460E-01
          2   -1    0    0  501    0  0.00000000000E+00  0.00000000000E+00  0.14753757199E+04  0.14753757199E+04  0.00000000000E+00 0. -1.
         -2   -1    0    0    0  501 -0.00000000000E+00 -0.00000000000E+00 -0.25127782263E+03  0.25127782263E+03  0.00000000000E+00 0.  1.
         23    2    1    2    0    0 -0.55307128646E+03 -0.62734698280E+01  0.96475057513E+03  0.11157621956E+04  0.90853731305E+02 0.  0.
         13    1    3    3    0    0 -0.29187474622E+03 -0.48623236710E+02  0.50530245924E+03  0.58556439607E+03  0.00000000000E+00 0.  1.
        -13    1    3    3    0    0 -0.26119654024E+03  0.42349766882E+02  0.45944811588E+03  0.53019779948E+03  0.00000000000E+00 0. -1.
         22    1    1    2    0    0  0.55307128646E+03  0.62734698280E+01  0.25934732219E+03  0.61089134702E+03  0.00000000000E+00 0.  1.
<mgrwt>
<rscale>  0 0.12177507E+04</rscale>
<asrwt>0</asrwt>
<pdfrwt beam="1">  1        2 0.22698087E+00 0.12177507E+04</pdfrwt>
<pdfrwt beam="2">  1       -2 0.38658128E-01 0.12177507E+04</pdfrwt>
<totfact> 0.81632220E+01</totfact>
</mgrwt>
</event>
<event>
 6    1  0.1637818E-005  0.1957526E+04  0.7818608E-02  0.8626740E-01
         -2   -1    0    0    0  501 -0.00000000000E+00  0.00000000000E+00  0.38280172181E+03  0.38280172181E+03  0.00000000000E+00 0. -1.
          2   -1    0    0  501    0  0.00000000000E+00 -0.00000000000E+00 -0.25025413579E+04  0.25025413579E+04  0.00000000000E+00 0.  1.
         23    2    1    2    0    0  0.30812481922E+03 -0.86379834154E+02 -0.24222045714E+04  0.24450165905E+04  0.92891128452E+02 0.  0.
         13    1    3    3    0    0  0.60879161157E+02 -0.46888965423E+01 -0.77016844586E+03  0.77258507170E+03  0.00000000000E+00 0. -1.
        -13    1    3    3    0    0  0.24724565806E+03 -0.81690937612E+02 -0.16520361256E+04  0.16724315188E+04  0.00000000000E+00 0.  1.
         22    1    1    2    0    0 -0.30812481922E+03  0.86379834154E+02  0.30246493539E+03  0.44032648921E+03  0.00000000000E+00 0. -1.
<mgrwt>
<rscale>  0 0.19575261E+04</rscale>
<asrwt>0</asrwt>
<pdfrwt beam="1">  1        2 0.38500636E+00 0.19575261E+04</pdfrwt>
<pdfrwt beam="2">  1       -2 0.58892573E-01 0.19575261E+04</pdfrwt>
<totfact> 0.87187867E+00</totfact>
</mgrwt>
</event>
<event>
 6    1  0.1637818E-005  0.3647701E+04  0.7818608E-02  0.8079652E-01
          1   -1    0    0  501    0  0.00000000000E+00  0.00000000000E+00  0.34757949231E+04  0.34757949231E+04  0.00000000000E+00 0. -1.
         -1   -1    0    0    0  501 -0.00000000000E+00 -0.00000000000E+00 -0.95702715006E+03  0.95702715006E+03  0.00000000000E+00 0.  1.
         23    2    1    2    0    0 -0.13805785862E+04 -0.27703162218E+03 -0.14633843744E+03  0.14185999736E+04  0.90924114239E+02 0.  0.
         11    1    3    3    0    0 -0.74709384520E+03 -0.10494590721E+03 -0.88932129089E+02  0.75965240772E+03  0.00000000000E+00 0.  1.
        -11    1    3    3    0    0 -0.63348474098E+03 -0.17208571496E+03 -0.57406308347E+02  0.65894756589E+03  0.00000000000E+00 0. -1.
         22    1    1    2    0    0  0.13805785862E+04  0.27703162218E+03  0.26651062105E+04  0.30142220996E+04  0.00000000000E+00 0. -1.
<mgrwt>
<rscale>  0 0.36477007E+04</rscale>
<asrwt>0</asrwt>
<pdfrwt beam="1">  1        1 0.53473767E+00 0.36477007E+04</pdfrwt>
<pdfrwt beam="2">  1       -1 0.14723495E+00 0.36477007E+04</pdfrwt>
<totfact> 0.77058671E-02</totfact>
</mgrwt>
</event>
<event>
 6    1  0.1637818E-005  0.3185986E+04  0.7818608E-02  0.8192528E-01
         -1   -1    0    0    0  501 -0.00000000000E+00  0.00000000000E+00  0.73320455401E+03  0.73320455401E+03  0.00000000000E+00 0.  1.
          1   -1    0    0  501    0  0.00000000000E+00 -0.00000000000E+00 -0.34610088603E+04  0.34610088603E+04  0.00000000000E+00 0. -1.
         23    2    1    2    0    0 -0.14673930267E+04 -0.61627310220E+03 -0.13359042802E+04  0.20798765173E+04  0.90615949524E+02 0.  0.
         11    1    3    3    0    0 -0.78012717413E+03 -0.34477255032E+03 -0.77087904432E+03  0.11496612633E+04  0.00000000000E+00 0. -1.
        -11    1    3    3    0    0 -0.68726585255E+03 -0.27150055188E+03 -0.56502523587E+03  0.93021525408E+03  0.00000000000E+00 0.  1.
         22    1    1    2    0    0  0.14673930267E+04  0.61627310220E+03 -0.13919000261E+04  0.21143368969E+04  0.00000000000E+00 0.  1.
<mgrwt>
<rscale>  0 0.31859865E+04</rscale>
<asrwt>0</asrwt>
<pdfrwt beam="1">  1        1 0.53246290E+00 0.31859865E+04</pdfrwt>
<pdfrwt beam="2">  1       -1 0.11280070E+00 0.31859865E+04</pdfrwt>
<totfact> 0.16129056E-01</totfact>
</mgrwt>
</event>
<event>
 6    1  0.1637818E-005  0.2138912E+04  0.7818608E-02  0.8544293E-01
         -1   -1    0    0    0  501 -0.00000000000E+00  0.00000000000E+00  0.90304703599E+03  0.90304703599E+03  0.00000000000E+00 0.  1.
          1   -1    0    0  501    0  0.00000000000E+00 -0.00000000000E+00 -0.12665304331E+04  0.12665304331E+04  0.00000000000E+00 0. -1.
         23    2    1    2    0    0  0.25157942631E+03  0.79319130808E+03  0.49624806519E+03  0.97308975656E+03  0.90536584611E+02 0.  0.
         13    1    3    3    0    0  0.14073097257E+03  0.41915366851E+03  0.21164897093E+03  0.49019413640E+03  0.00000000000E+00 0.  1.
        -13    1    3    3    0    0  0.11084845374E+03  0.37403763958E+03  0.28459909426E+03  0.48289562016E+03  0.00000000000E+00 0. -1.
         22    1    1    2    0    0 -0.25157942631E+03 -0.79319130808E+03 -0.85973146232E+03  0.11964877125E+04  0.00000000000E+00 0. -1.
<mgrwt>
<rscale>  0 0.21389124E+04</rscale>
<asrwt>0</asrwt>
<pdfrwt beam="1">  1        1 0.19485084E+00 0.21389124E+04</pdfrwt>
<pdfrwt beam="2">  1       -1 0.13893031E+00 0.21389124E+04</pdfrwt>
<totfact> 0.37477599E+00</totfact>
</mgrwt>
</event>
<event>
 6    1  0.1637818E-005  0.1612911E+04  0.7818608E-02  0.8812655E-01
         -2   -1    0    0    0  501 -0.00000000000E+00  0.00000000000E+00  0.24134937467E+03  0.24134937467E+03  0.00000000000E+00 0.  1.
          2   -1    0    0  501    0  0.00000000000E+00 -0.00000000000E+00 -0.26947278266E+04  0.26947278266E+04  0.00000000000E+00 0. -1.
         23    2    1    2    0    0 -0.46629090695E+03  0.18892006861E+02 -0.24220579573E+04  0.24683538950E+04  0.92855182777E+02 0.  0.
         11    1    3    3    0    0 -0.18401019907E+03  0.50671983132E+02 -0.10485774411E+04  0.10658058235E+04  0.00000000000E+00 0. -1.
        -11    1    3    3    0    0 -0.28228070788E+03 -0.31779976271E+02 -0.13734805161E+04  0.14025480716E+04  0.00000000000E+00 0.  1.
         22    1    1    2    0    0  0.46629090695E+03 -0.18892006861E+02 -0.31320494688E+02  0.46772330625E+03  0.00000000000E+00 0.  1.
<mgrwt>
<rscale>  0 0.16129115E+04</rscale>
<asrwt>0</asrwt>
<pdfrwt beam="1">  1        2 0.41457350E+00 0.16129115E+04</pdfrwt>
<pdfrwt beam="2">  1       -2 0.37130674E-01 0.16129115E+04</pdfrwt>
<totfact> 0.17577130E+01</totfact>
</mgrwt>
</event>
<event>
 6    1  0.1637818E-005  0.1388630E+04  0.7818608E-02  0.8962090E-01
         -1   -1    0    0    0  501 -0.00000000000E+00  0.00000000000E+00  0.77028686148E+03  0.77028686148E+03  0.00000000000E+00 0.  1.
          1   -1    0    0  501    0  0.00000000000E+00 -0.00000000000E+00 -0.62583617084E+03  0.62583617084E+03  0.00000000000E+00 0. -1.
         23    2    1    2    0    0  0.32924298050E+03 -0.12987981026E+03 -0.52458629168E+03  0.63923454051E+03  0.90334462090E+02 0.  0.
         11    1    3    3    0    0  0.33627799399E+02  0.45793812987E+00 -0.17334096992E+02  0.37835294611E+02  0.00000000000E+00 0. -1.
        -11    1    3    3    0    0  0.29561518110E+03 -0.13033774839E+03 -0.50725219469E+03  0.60139924590E+03  0.00000000000E+00 0.  1.
         22    1    1    2    0    0 -0.32924298050E+03  0.12987981026E+03  0.66903698231E+03  0.75688849181E+03  0.00000000000E+00 0.  1.
<mgrwt>
<rscale>  0 0.13886301E+04</rscale>
<asrwt>0</asrwt>
<pdfrwt beam="1">  1        1 0.96282488E-01 0.13886301E+04</pdfrwt>
<pdfrwt beam="2">  1       -1 0.11850567E+00 0.13886301E+04</pdfrwt>
<totfact> 0.20072635E+01</totfact>
</mgrwt>
</event>
<event>
 6    1  0.1637818E-005  0.1561515E+04  0.7818608E-02  0.8844546E-01
         -2   -1    0    0    0  501 -0.00000000000E+00  0.00000000000E+00  0.11336169213E+04  0.11336169213E+04  0.00000000000E+00 0.  1.
          2   -1    0    0  501    0  0.00000000000E+00 -0.00000000000E+00 -0.53773234253E+03  0.53773234253E+03  0.00000000000E+00 0. -1.
         23    2    1    2    0    0 -0.75721453517E+03  0.16005081895E+03  0.21275863863E+03  0.80776626090E+03  0.90719220780E+02 0.  0.
         11    1    3    3    0    0 -0.31303633806E+03  0.37802773246E+02  0.50475437439E+02  0.31932517658E+03  0.00000000000E+00 0. -1.
        -11    1    3    3    0    0 -0.44417819710E+03  0.12224804571E+03  0.16228320119E+03  0.48844108432E+03  0.00000000000E+00 0.  1.
         22    1    1    2    0    0  0.75721453517E+03 -0.16005081895E+03  0.38312594009E+03  0.86358300289E+03  0.00000000000E+00 0. -1.
<mgrwt>
<rscale>  0 0.15615153E+04</rscale>
<asrwt>0</asrwt>
<pdfrwt beam="1">  1        2 0.82728053E-01 0.15615153E+04</pdfrwt>
<pdfrwt beam="2">  1       -2 0.17440260E+00 0.15615153E+04</pdfrwt>
<totfact> 0.10777142E+01</totfact>
</mgrwt>
</event>
<event>
 6    1  0.1637818E-005  0.2115376E+04  0.7818608E-02  0.8554500E-01
         -2   -1    0    0    0  501 -0.00000000000E+00  0.00000000000E+00  0.99635153555E+03  0.99635153555E+03  0.00000000000E+00 0.  1.
          2   -1    0    0  501    0  0.00000000000E+00 -0.00000000000E+00 -0.11227998724E+04  0.11227998724E+04  0.00000000000E+00 0. -1.
         23    2    1    2    0    0  0.76117323296E+03 -0.67884105346E+03  0.21001810276E+03  0.10451776972E+04  0.89882972396E+02 0.  0.
         13    1    3    3    0    0  0.49287966200E+03 -0.49269677063E+03  0.12923074322E+03  0.70878844093E+03  0.00000000000E+00 0.  1.
        -13    1    3    3    0    0  0.26829357096E+03 -0.18614428283E+03  0.80787359545E+02  0.33638925623E+03  0.00000000000E+00 0. -1.
         22    1    1    2    0    0 -0.76117323296E+03  0.67884105346E+03 -0.33646643958E+03  0.10739737108E+04  0.00000000000E+00 0.  1.
<mgrwt>
<rscale>  0 0.21153755E+04</rscale>
<asrwt>0</asrwt>
<pdfrwt beam="1">  1        2 0.17273844E+00 0.21153755E+04</pdfrwt>
<pdfrwt beam="2">  1       -2 0.15328485E+00 0.21153755E+04</pdfrwt>
<totfact> 0.54908787E+00</totfact>
</mgrwt>
</event>
<event>
 6    1  0.1637818E-005  0.9191211E+03  0.7818608E-02  0.9401990E-01
         -1   -1    0    0    0  501 -0.00000000000E+00  0.00000000000E+00  0.60309547513E+03  0.60309547513E+03  0.00000000000E+00 0.  1.
          1   -1    0    0  501    0  0.00000000000E+00 -0.00000000000E+00 -0.35018652055E+03  0.35018652055E+03  0.00000000000E+00 0. -1.
         23    2    1    2    0    0 -0.22505427581E+03  0.34643634390E+03  0.32558633977E+03  0.53381856491E+03  0.91039706535E+02 0.  0.
         13    1    3    3    0    0 -0.37809140581E+02  0.10831920021E+03  0.12930826893E+03  0.17286760443E+03  0.00000000000E+00 0. -1.
        -13    1    3    3    0    0 -0.18724513523E+03  0.23811714368E+03  0.19627807085E+03  0.36095096049E+03  0.00000000000E+00 0.  1.
         22    1    1    2    0    0  0.22505427581E+03 -0.34643634390E+03 -0.72677385195E+02  0.41946343077E+03  0.00000000000E+00 0. -1.
<mgrwt>
<rscale>  0 0.91912111E+03</rscale>
<asrwt>0</asrwt>
<pdfrwt beam="1">  1        1 0.53874849E-01 0.91912111E+03</pdfrwt>
<pdfrwt beam="2">  1       -1 0.92783919E-01 0.91912111E+03</pdfrwt>
<totfact> 0.81408692E+01</totfact>
</mgrwt>
</event>
<event>
 6    1  0.1637818E-005  0.1557058E+04  0.7818608E-02  0.8847372E-01
         -2   -1    0    0    0  501 -0.00000000000E+00  0.00000000000E+00  0.57514448813E+03  0.57514448813E+03  0.00000000000E+00 0.  1.
          2   -1    0    0  501    0  0.00000000000E+00 -0.00000000000E+00 -0.10538347126E+04  0.10538347126E+04  0.00000000000E+00 0. -1.
         23    2    1    2    0    0  0.21226791412E+03  0.21288884378E+03  0.50838015602E+03  0.59714236130E+03  0.88030048611E+02 0.  0.
         11    1    3    3    0    0 -0.56847279364E+01  0.23997787427E+02  0.34860077571E+02  0.42701697172E+02  0.00000000000E+00 0. -1.
        -11    1    3    3    0    0  0.21795264205E+03  0.18889105635E+03  0.47352007845E+03  0.55444066413E+03  0.00000000000E+00 0.  1.
         22    1    1    2    0    0 -0.21226791412E+03 -0.21288884378E+03 -0.98707038044E+03  0.10318368394E+04  0.00000000000E+00 0. -1.
<mgrwt>
<rscale>  0 0.15570578E+04</rscale>
<asrwt>0</asrwt>
<pdfrwt beam="1">  1        2 0.16212842E+00 0.15570578E+04</pdfrwt>
<pdfrwt beam="2">  1       -2 0.88483768E-01 0.15570578E+04</pdfrwt>
<totfact> 0.24618443E+01</totfact>
</mgrwt>
</event>
<event>
 6    1  0.1637818E-005  0.1354946E+04  0.7818608E-02  0.8987093E-01
         -1   -1    0    0    0  501 -0.00000000000E+00  0.00000000000E+00  0.52108652376E+03  0.52108652376E+03  0.00000000000E+00 0.  1.
          1   -1    0    0  501    0  0.00000000000E+00 -0.00000000000E+00 -0.88079333385E+03  0.88079333385E+03  0.00000000000E+00 0. -1.
         23    2    1    2    0    0  0.56268084373E+03  0.10102077632E+03  0.18941353551E+03  0.60919575718E+03  0.91798986818E+02 0.  0.
         11    1    3    3    0    0  0.36470664896E+03  0.66204995893E+02  0.75938843798E+02  0.37836589338E+03  0.00000000000E+00 0. -1.
        -11    1    3    3    0    0  0.19797419477E+03  0.34815780427E+02  0.11347469171E+03  0.23082986380E+03  0.00000000000E+00 0.  1.
         22    1    1    2    0    0 -0.56268084373E+03 -0.10102077632E+03 -0.54912034560E+03  0.79268410044E+03  0.00000000000E+00 0. -1.
<mgrwt>
<rscale>  0 0.13549458E+04</rscale>
<asrwt>0</asrwt>
<pdfrwt beam="1">  1        1 0.13550667E+00 0.13549458E+04</pdfrwt>
<pdfrwt beam="2">  1       -1 0.80167158E-01 0.13549458E+04</pdfrwt>
<totfact> 0.28687868E+01</totfact>
</mgrwt>
</event>
<event>
 6    1  0.1637818E-005  0.1750973E+04  0.7818608E-02  0.8732815E-01
         -3   -1    0    0    0  501 -0.00000000000E+00  0.00000000000E+00  0.16489351990E+04  0.16489351990E+04  0.00000000000E+00 0. -1.
          3   -1    0    0  501    0  0.00000000000E+00 -0.00000000000E+00 -0.46483147100E+03  0.46483147100E+03  0.00000000000E+00 0.  1.
         23    2    1    2    0    0 -0.84822985533E+03 -0.11019778458E+03  0.38182653626E+03  0.94104072947E+03  0.90159367399E+02 0.  0.
         11    1    3    3    0    0 -0.63788986986E+03 -0.11571042083E+03  0.31092471076E+03  0.71900386878E+03  0.00000000000E+00 0. -1.
        -11    1    3    3    0    0 -0.21033998547E+03  0.55126362489E+01  0.70901825495E+02  0.22203686069E+03  0.00000000000E+00 0.  1.
         22    1    1    2    0    0  0.84822985533E+03  0.11019778458E+03  0.80227719174E+03  0.11727259405E+04  0.00000000000E+00 0.  1.
<mgrwt>
<rscale>  0 0.17509734E+04</rscale>
<asrwt>0</asrwt>
<pdfrwt beam="1">  1        3 0.71512535E-01 0.17509734E+04</pdfrwt>
<pdfrwt beam="2">  1       -3 0.25368234E+00 0.17509734E+04</pdfrwt>
<totfact> 0.32193057E-01</totfact>
</mgrwt>
</event>
<event>
 6    1  0.1637818E-005  0.2350594E+04  0.7818608E-02  0.8458236E-01
         -1   -1    0    0    0  501 -0.00000000000E+00  0.00000000000E+00  0.62528546590E+03  0.62528546590E+03  0.00000000000E+00 0.  1.
          1   -1    0    0  501    0  0.00000000000E+00 -0.00000000000E+00 -0.22091069865E+04  0.22091069865E+04  0.00000000000E+00 0. -1.
         23    2    1    2    0    0  0.68014855224E+03 -0.75752036801E+03 -0.14967490134E+04  0.18126191005E+04  0.94293336952E+02 0.  0.
         11    1    3    3    0    0  0.46287795342E+03 -0.57798808201E+03 -0.10938964805E+04  0.13209601557E+04  0.00000000000E+00 0.  1.
        -11    1    3    3    0    0  0.21727059882E+03 -0.17953228600E+03 -0.40285253289E+03  0.49165894489E+03  0.00000000000E+00 0. -1.
         22    1    1    2    0    0 -0.68014855224E+03  0.75752036801E+03 -0.87072507167E+02  0.10217733519E+04  0.00000000000E+00 0.  1.
<mgrwt>
<rscale>  0 0.23505935E+04</rscale>
<asrwt>0</asrwt>
<pdfrwt beam="1">  1        1 0.33986261E+00 0.23505935E+04</pdfrwt>
<pdfrwt beam="2">  1       -1 0.96197764E-01 0.23505935E+04</pdfrwt>
<totfact> 0.20113925E+00</totfact>
</mgrwt>
</event>
<event>
 6    1  0.1637818E-005  0.1556260E+04  0.7818608E-02  0.8847879E-01
         -1   -1    0    0    0  501 -0.00000000000E+00  0.00000000000E+00  0.99776193807E+03  0.99776193807E+03  0.00000000000E+00 0.  1.
          1   -1    0    0  501    0  0.00000000000E+00 -0.00000000000E+00 -0.60684451434E+03  0.60684451434E+03  0.00000000000E+00 0. -1.
         23    2    1    2    0    0  0.63875079631E+03 -0.28559665489E+03  0.54107784146E+03  0.88898352089E+03  0.89210093689E+02 0.  0.
         13    1    3    3    0    0  0.36698010438E+03 -0.20058747527E+03  0.28575058301E+03  0.50652060958E+03  0.00000000000E+00 0. -1.
        -13    1    3    3    0    0  0.27177069194E+03 -0.85009179621E+02  0.25532725845E+03  0.38246291130E+03  0.00000000000E+00 0.  1.
         22    1    1    2    0    0 -0.63875079631E+03  0.28559665489E+03 -0.15016041773E+03  0.71562293153E+03  0.00000000000E+00 0. -1.
<mgrwt>
<rscale>  0 0.15562601E+04</rscale>
<asrwt>0</asrwt>
<pdfrwt beam="1">  1        1 0.93360695E-01 0.15562601E+04</pdfrwt>
<pdfrwt beam="2">  1       -1 0.15350184E+00 0.15562601E+04</pdfrwt>
<totfact> 0.10632085E+01</totfact>
</mgrwt>
</event>
<event>
 6    1  0.1637818E-005  0.1606981E+04  0.7818608E-02  0.8816271E-01
         -2   -1    0    0    0  501 -0.00000000000E+00  0.00000000000E+00  0.39541174328E+03  0.39541174328E+03  0.00000000000E+00 0.  1.
          2   -1    0    0  501    0  0.00000000000E+00 -0.00000000000E+00 -0.16327209786E+04  0.16327209786E+04  0.00000000000E+00 0. -1.
         23    2    1    2    0    0 -0.23878089899E+03 -0.40647430311E+03  0.19688946028E+03  0.51844282815E+03  0.88203342821E+02 0.  0.
         13    1    3    3    0    0 -0.12298027625E+03 -0.24379470470E+03  0.70121109625E+02  0.28191661250E+03  0.00000000000E+00 0. -1.
        -13    1    3    3    0    0 -0.11580062274E+03 -0.16267959840E+03  0.12676835065E+03  0.23652621565E+03  0.00000000000E+00 0.  1.
         22    1    1    2    0    0  0.23878089899E+03  0.40647430311E+03 -0.14341986956E+04  0.15096898938E+04  0.00000000000E+00 0. -1.
<mgrwt>
<rscale>  0 0.16069811E+04</rscale>
<asrwt>0</asrwt>
<pdfrwt beam="1">  1        2 0.25118784E+00 0.16069811E+04</pdfrwt>
<pdfrwt beam="2">  1       -2 0.60832576E-01 0.16069811E+04</pdfrwt>
<totfact> 0.25772184E+01</totfact>
</mgrwt>
</event>
<event>
 6    1  0.1637818E-005  0.2405688E+04  0.7818608E-02  0.8437377E-01
          1   -1    0    0  501    0  0.00000000000E+00  0.00000000000E+00  0.10318282131E+04  0.10318282131E+04  0.00000000000E+00 0. -1.
         -1   -1    0    0    0  501 -0.00000000000E+00 -0.00000000000E+00 -0.14022043678E+04  0.14022043678E+04  0.00000000000E+00 0.  1.
         23    2    1    2    0    0 -0.88505990318E+03  0.69876709642E+03 -0.60460970352E+03  0.12823069874E+04  0.84568487953E+02 0.  0.
         13    1    3    3    0    0 -0.71079607944E+03  0.60176022347E+03 -0.50309888931E+03  0.10585154347E+04  0.00000000000E+00 0. -1.
        -13    1    3    3    0    0 -0.17426382375E+03  0.97006872945E+02 -0.10151081421E+03  0.22379155271E+03  0.00000000000E+00 0.  1.
         22    1    1    2    0    0  0.88505990318E+03 -0.69876709642E+03  0.23423354880E+03  0.11517255935E+04  0.00000000000E+00 0. -1.
<mgrwt>
<rscale>  0 0.24056883E+04</rscale>
<asrwt>0</asrwt>
<pdfrwt beam="1">  1        1 0.15874280E+00 0.24056883E+04</pdfrwt>
<pdfrwt beam="2">  1       -1 0.21572375E+00 0.24056883E+04</pdfrwt>
<totfact> 0.15052021E+00</totfact>
</mgrwt>
</event>
<event>
 6    1  0.1637818E-005  0.2619547E+04  0.7818608E-02  0.8361592E-01
         -2   -1    0    0    0  501 -0.00000000000E+00  0.00000000000E+00  0.15762203136E+04  0.15762203136E+04  0.00000000000E+00 0.  1.
          2   -1    0    0  501    0  0.00000000000E+00 -0.00000000000E+00 -0.10883669732E+04  0.10883669732E+04  0.00000000000E+00 0. -1.
         23    2    1    2    0    0 -0.34426148902E+03 -0.69024188750E+02  0.15260488554E+04  0.15686264122E+04  0.92105377790E+02 0.  0.
         13    1    3    3    0    0 -0.10069401942E+03 -0.62998447689E+02  0.54234096332E+03  0.55519529037E+03  0.00000000000E+00 0.  1.
        -13    1    3    3    0    0 -0.24356746960E+03 -0.60257410608E+01  0.98370789207E+03  0.10134311218E+04  0.00000000000E+00 0. -1.
         22    1    1    2    0    0  0.34426148902E+03  0.69024188750E+02 -0.10381955149E+04  0.10959608746E+04  0.00000000000E+00 0. -1.
<mgrwt>
<rscale>  0 0.26195466E+04</rscale>
<asrwt>0</asrwt>
<pdfrwt beam="1">  1        2 0.16744107E+00 0.26195466E+04</pdfrwt>
<pdfrwt beam="2">  1       -2 0.24249543E+00 0.26195466E+04</pdfrwt>
<totfact> 0.13983297E+00</totfact>
</mgrwt>
</event>
<event>
 6    1  0.1637818E-005  0.3237799E+04  0.7818608E-02  0.8178905E-01
          1   -1    0    0  501    0  0.00000000000E+00  0.00000000000E+00  0.20783224325E+04  0.20783224325E+04  0.00000000000E+00 0. -1.
         -1   -1    0    0    0  501 -0.00000000000E+00 -0.00000000000E+00 -0.12610339583E+04  0.12610339583E+04  0.00000000000E+00 0.  1.
         23    2    1    2    0    0 -0.90501648733E+03  0.93623274695E+03  0.13987909668E+04  0.19132667206E+04  0.91579346509E+02 0.  0.
         13    1    3    3    0    0 -0.49542123606E+03  0.56947102036E+03  0.77714605771E+03  0.10833722533E+04  0.00000000000E+00 0.  1.
        -13    1    3    3    0    0 -0.40959525127E+03  0.36676172659E+03  0.62164490905E+03  0.82989446733E+03  0.00000000000E+00 0. -1.
         22    1    1    2    0    0  0.90501648733E+03 -0.93623274695E+03 -0.58150249252E+03  0.14260896702E+04  0.00000000000E+00 0.  1.
<mgrwt>
<rscale>  0 0.32377987E+04</rscale>
<asrwt>0</asrwt>
<pdfrwt beam="1">  1        1 0.31974191E+00 0.32377987E+04</pdfrwt>
<pdfrwt beam="2">  1       -1 0.19400522E+00 0.32377987E+04</pdfrwt>
<totfact> 0.36420331E-01</totfact>
</mgrwt>
</event>
<event>
 6    1  0.1637818E-005  0.1468715E+04  0.7818608E-02  0.8905528E-01
         -2   -1    0    0    0  501 -0.00000000000E+00  0.00000000000E+00  0.63082299278E+03  0.63082299278E+03  0.00000000000E+00 0.  1.
          2   -1    0    0  501    0  0.00000000000E+00 -0.00000000000E+00 -0.85488471036E+03  0.85488471036E+03  0.00000000000E+00 0. -1.
         23    2    1    2    0    0 -0.63287251212E+03 -0.33213447231E+03 -0.27025759333E+03  0.76948498413E+03  0.90703085780E+02 0.  0.
         13    1    3    3    0    0 -0.20510421409E+03 -0.13081986276E+03 -0.13268025739E+03  0.27710219384E+03  0.00000000000E+00 0.  1.
        -13    1    3    3    0    0 -0.42776829803E+03 -0.20131460954E+03 -0.13757733593E+03  0.49238279029E+03  0.00000000000E+00 0. -1.
         22    1    1    2    0    0  0.63287251212E+03  0.33213447231E+03  0.46195875745E+02  0.71622271901E+03  0.00000000000E+00 0.  1.
<mgrwt>
<rscale>  0 0.14687150E+04</rscale>
<asrwt>0</asrwt>
<pdfrwt beam="1">  1        2 0.13152073E+00 0.14687150E+04</pdfrwt>
<pdfrwt beam="2">  1       -2 0.97049691E-01 0.14687150E+04</pdfrwt>
<totfact> 0.27042022E+01</totfact>
</mgrwt>
</event>
<event>
 6    1  0.1637818E-005  0.3893805E+04  0.7818608E-02  0.8026319E-01
          1   -1    0    0  501    0  0.00000000000E+00  0.00000000000E+00  0.27520175378E+04  0.27520175378E+04  0.00000000000E+00 0. -1.
         -1   -1    0    0    0  501 -0.00000000000E+00 -0.00000000000E+00 -0.13773273679E+04  0.13773273679E+04  0.00000000000E+00 0.  1.
         23    2    1    2    0    0  0.78892612586E+03  0.15963012881E+04  0.15192627861E+04  0.23428725505E+04  0.10153886211E+03 0.  0.
         11    1    3    3    0    0  0.70856871793E+03  0.14222353219E+04  0.13947124647E+04  0.21142482820E+04  0.00000000000E+00 0.  1.
        -11    1    3    3    0    0  0.80357407932E+02  0.17406596623E+03  0.12455032135E+03  0.22862426852E+03  0.00000000000E+00 0. -1.
         22    1    1    2    0    0 -0.78892612586E+03 -0.15963012881E+04 -0.14457261617E+03  0.17864723552E+04  0.00000000000E+00 0.  1.
<mgrwt>
<rscale>  0 0.38938049E+04</rscale>
<asrwt>0</asrwt>
<pdfrwt beam="1">  1        1 0.42338731E+00 0.38938049E+04</pdfrwt>
<pdfrwt beam="2">  1       -1 0.21189652E+00 0.38938049E+04</pdfrwt>
<totfact> 0.88812093E-02</totfact>
</mgrwt>
</event>
<event>
 6    1  0.1637818E-005  0.9560943E+03  0.7818608E-02  0.9358055E-01
          1   -1    0    0  501    0  0.00000000000E+00  0.00000000000E+00  0.97265178918E+03  0.97265178918E+03  0.00000000000E+00 0. -1.
         -1   -1    0    0    0  501 -0.00000000000E+00 -0.00000000000E+00 -0.23495468435E+03  0.23495468435E+03  0.00000000000E+00 0.  1.
         23    2    1    2    0    0  0.12690552053E+03 -0.42836836547E+03  0.57106876769E+03  0.73077372464E+03  0.91138529222E+02 0.  0.
         11    1    3    3    0    0  0.46551443187E+02 -0.25127034707E+03  0.26496777396E+03  0.36811920001E+03  0.00000000000E+00 0. -1.
        -11    1    3    3    0    0  0.80354077345E+02 -0.17709801840E+03  0.30610099374E+03  0.36265452463E+03  0.00000000000E+00 0.  1.
         22    1    1    2    0    0 -0.12690552053E+03  0.42836836547E+03  0.16662833713E+03  0.47683274889E+03  0.00000000000E+00 0.  1.
<mgrwt>
<rscale>  0 0.95609433E+03</rscale>
<asrwt>0</asrwt>
<pdfrwt beam="1">  1        1 0.14963874E+00 0.95609433E+03</pdfrwt>
<pdfrwt beam="2">  1       -1 0.36146875E-01 0.95609433E+03</pdfrwt>
<totfact> 0.11687033E+02</totfact>
</mgrwt>
</event>
<event>
 6    1  0.1637818E-005  0.9899373E+03  0.7818608E-02  0.9319651E-01
          2   -1    0    0  501    0  0.00000000000E+00  0.00000000000E+00  0.19513819263E+04  0.19513819263E+04  0.00000000000E+00 0. -1.
         -2   -1    0    0    0  501 -0.00000000000E+00 -0.00000000000E+00 -0.12554896458E+03  0.12554896458E+03  0.00000000000E+00 0.  1.
         23    2    1    2    0    0 -0.10989374891E+03  0.46782584405E+03  0.71558636959E+03  0.86714365680E+03  0.94533659453E+02 0.  0.
         13    1    3    3    0    0 -0.92193665367E+02  0.40573173867E+03  0.55177798015E+03  0.69106935620E+03  0.00000000000E+00 0.  1.
        -13    1    3    3    0    0 -0.17700083540E+02  0.62094105379E+02  0.16380838944E+03  0.17607430060E+03  0.00000000000E+00 0. -1.
         22    1    1    2    0    0  0.10989374891E+03 -0.46782584405E+03  0.11102465922E+04  0.12097872341E+04  0.00000000000E+00 0. -1.
<mgrwt>
<rscale>  0 0.98993733E+03</rscale>
<asrwt>0</asrwt>
<pdfrwt beam="1">  1        2 0.30021258E+00 0.98993733E+03</pdfrwt>
<pdfrwt beam="2">  1       -2 0.19315227E-01 0.98993733E+03</pdfrwt>
<totfact> 0.16191655E+02</totfact>
</mgrwt>
</event>
<event>
 6    1  0.1637818E-005  0.2487223E+04  0.7818608E-02  0.8407552E-01
          1   -1    0    0  501    0  0.00000000000E+00  0.00000000000E+00  0.16862018222E+04  0.16862018222E+04  0.00000000000E+00 0. -1.
         -1   -1    0    0    0  501 -0.00000000000E+00 -0.00000000000E+00 -0.91719118016E+03  0.91719118016E+03  0.00000000000E+00 0.  1.
         23    2    1    2    0    0  0.36381240838E+03  0.74495977992E+03  0.13528183225E+04  0.15894127512E+04  0.93760000524E+02 0.  0.
         13    1    3    3    0    0  0.90171011092E+02  0.25818702741E+03  0.38899827954E+03  0.47551131832E+03  0.00000000000E+00 0. -1.
        -13    1    3    3    0    0  0.27364139729E+03  0.48677275251E+03  0.96382004294E+03  0.11139014328E+04  0.00000000000E+00 0.  1.
         22    1    1    2    0    0 -0.36381240838E+03 -0.74495977992E+03 -0.58380768041E+03  0.10139802512E+04  0.00000000000E+00 0.  1.
<mgrwt>
<rscale>  0 0.24872229E+04</rscale>
<asrwt>0</asrwt>
<pdfrwt beam="1">  1        1 0.25941567E+00 0.24872229E+04</pdfrwt>
<pdfrwt beam="2">  1       -1 0.14110634E+00 0.24872229E+04</pdfrwt>
<totfact> 0.17785708E+00</totfact>
</mgrwt>
</event>
<event>
 6    1  0.1637818E-005  0.3506879E+04  0.7818608E-02  0.8112162E-01
          2   -1    0    0  501    0  0.00000000000E+00  0.00000000000E+00  0.20130376692E+04  0.20130376692E+04  0.00000000000E+00 0.  1.
         -2   -1    0    0    0  501 -0.00000000000E+00 -0.00000000000E+00 -0.15273189644E+04  0.15273189644E+04  0.00000000000E+00 0. -1.
         23    2    1    2    0    0 -0.55106563886E+03  0.15788981191E+04 -0.28521466697E+03  0.16989085966E+04  0.91380547929E+02 0.  0.
         11    1    3    3    0    0 -0.37976775150E+03  0.10374890420E+04 -0.14776040896E+03  0.11146480144E+04  0.00000000000E+00 0.  1.
        -11    1    3    3    0    0 -0.17129788736E+03  0.54140907706E+03 -0.13745425801E+03  0.58426058226E+03  0.00000000000E+00 0. -1.
         22    1    1    2    0    0  0.55106563886E+03 -0.15788981191E+04  0.77093337179E+03  0.18414480369E+04  0.00000000000E+00 0.  1.
<mgrwt>
<rscale>  0 0.35068793E+04</rscale>
<asrwt>0</asrwt>
<pdfrwt beam="1">  1        2 0.30969810E+00 0.35068793E+04</pdfrwt>
<pdfrwt beam="2">  1       -2 0.23497215E+00 0.35068793E+04</pdfrwt>
<totfact> 0.42954370E-01</totfact>
</mgrwt>
</event>
<event>
 6    1  0.1637818E-005  0.7390214E+03  0.7818608E-02  0.9652733E-01
         -3   -1    0    0    0  501 -0.00000000000E+00  0.00000000000E+00  0.75975424635E+03  0.75975424635E+03  0.00000000000E+00 0.  1.
          3   -1    0    0  501    0  0.00000000000E+00 -0.00000000000E+00 -0.17971359704E+03  0.17971359704E+03  0.00000000000E+00 0. -1.
         23    2    1    2    0    0  0.60294969724E+02  0.14935249253E+03 -0.12133830740E+03  0.21983315042E+03  0.87532729752E+02 0.  0.
         11    1    3    3    0    0  0.11538253010E+02  0.13499120710E+02 -0.60754053496E+02  0.63296228629E+02  0.00000000000E+00 0. -1.
        -11    1    3    3    0    0  0.48756716714E+02  0.13585337182E+03 -0.60584253907E+02  0.15653692179E+03  0.00000000000E+00 0.  1.
         22    1    1    2    0    0 -0.60294969724E+02 -0.14935249253E+03  0.70137895672E+03  0.71963469297E+03  0.00000000000E+00 0.  1.
<mgrwt>
<rscale>  0 0.73902143E+03</rscale>
<asrwt>0</asrwt>
<pdfrwt beam="1">  1        3 0.27648246E-01 0.73902143E+03</pdfrwt>
<pdfrwt beam="2">  1       -3 0.11688527E+00 0.73902143E+03</pdfrwt>
<totfact> 0.20104165E+01</totfact>
</mgrwt>
</event>
<event>
 6    1  0.1637818E-005  0.1584457E+04  0.7818608E-02  0.8830154E-01
         -2   -1    0    0    0  501 -0.00000000000E+00  0.00000000000E+00  0.26300019299E+03  0.26300019299E+03  0.00000000000E+00 0. -1.
          2   -1    0    0  501    0  0.00000000000E+00 -0.00000000000E+00 -0.23864081029E+04  0.23864081029E+04  0.00000000000E+00 0.  1.
         23    2    1    2    0    0  0.74233605130E+03  0.10747956477E+03 -0.65290967695E+03  0.99865703569E+03  0.91706917842E+02 0.  0.
         13    1    3    3    0    0  0.41745491945E+03  0.93730822041E+02 -0.41198621470E+03  0.59395851528E+03  0.00000000000E+00 0. -1.
        -13    1    3    3    0    0  0.32488113186E+03  0.13748742729E+02 -0.24092346224E+03  0.40469852041E+03  0.00000000000E+00 0.  1.
         22    1    1    2    0    0 -0.74233605130E+03 -0.10747956477E+03 -0.14704982329E+04  0.16507512602E+04  0.00000000000E+00 0.  1.
<mgrwt>
<rscale>  0 0.15844567E+04</rscale>
<asrwt>0</asrwt>
<pdfrwt beam="1">  1        2 0.36713972E+00 0.15844567E+04</pdfrwt>
<pdfrwt beam="2">  1       -2 0.40461567E-01 0.15844567E+04</pdfrwt>
<totfact> 0.22506435E+01</totfact>
</mgrwt>
</event>
<event>
 6    1  0.1637818E-005  0.4918760E+04  0.7818608E-02  0.7841163E-01
         -1   -1    0    0    0  501 -0.00000000000E+00  0.00000000000E+00  0.16016551831E+04  0.16016551831E+04  0.00000000000E+00 0.  1.
          1   -1    0    0  501    0  0.00000000000E+00 -0.00000000000E+00 -0.37764376180E+04  0.37764376180E+04  0.00000000000E+00 0. -1.
         23    2    1    2    0    0  0.80556204630E+03 -0.60553032391E+03 -0.35396743248E+04  0.36814705524E+04  0.91290301765E+02 0.  0.
         11    1    3    3    0    0  0.36334304948E+03 -0.32687708846E+03 -0.16547550377E+04  0.17254219882E+04  0.00000000000E+00 0. -1.
        -11    1    3    3    0    0  0.44221899683E+03 -0.27865323545E+03 -0.18849192871E+04  0.19560485643E+04  0.00000000000E+00 0.  1.
         22    1    1    2    0    0 -0.80556204630E+03  0.60553032391E+03  0.13648918899E+04  0.16966222487E+04  0.00000000000E+00 0.  1.
<mgrwt>
<rscale>  0 0.49187604E+04</rscale>
<asrwt>0</asrwt>
<pdfrwt beam="1">  1        1 0.58099040E+00 0.49187604E+04</pdfrwt>
<pdfrwt beam="2">  1       -1 0.24640849E+00 0.49187604E+04</pdfrwt>
<totfact> 0.79575344E-03</totfact>
</mgrwt>
</event>
<event>
 6    1  0.1637818E-005  0.3898234E+04  0.7818608E-02  0.8025397E-01
          2   -1    0    0  501    0  0.00000000000E+00  0.00000000000E+00  0.34038820931E+04  0.34038820931E+04  0.00000000000E+00 0. -1.
         -2   -1    0    0    0  501 -0.00000000000E+00 -0.00000000000E+00 -0.11160951077E+04  0.11160951077E+04  0.00000000000E+00 0.  1.
         23    2    1    2    0    0  0.15120246691E+04 -0.12278747586E+04  0.11041304901E+04  0.22407365988E+04  0.88889499602E+02 0.  0.
         11    1    3    3    0    0  0.91896853836E+02 -0.53354814787E+02  0.47252023375E+02  0.11629497719E+03  0.00000000000E+00 0.  1.
        -11    1    3    3    0    0  0.14201278153E+04 -0.11745199438E+04  0.10568784668E+04  0.21244416216E+04  0.00000000000E+00 0. -1.
         22    1    1    2    0    0 -0.15120246691E+04  0.12278747586E+04  0.11836564953E+04  0.22792406020E+04  0.00000000000E+00 0. -1.
<mgrwt>
<rscale>  0 0.38982335E+04</rscale>
<asrwt>0</asrwt>
<pdfrwt beam="1">  1        2 0.52367417E+00 0.38982335E+04</pdfrwt>
<pdfrwt beam="2">  1       -2 0.17170694E+00 0.38982335E+04</pdfrwt>
<totfact> 0.15597903E-01</totfact>
</mgrwt>
</event>
<event>
 6    1  0.1637818E-005  0.8606788E+04  0.7818608E-02  0.7431181E-01
         -2   -1    0    0    0  501 -0.00000000000E+00  0.00000000000E+00  0.37394974292E+04  0.37394974292E+04  0.00000000000E+00 0. -1.
          2   -1    0    0  501    0  0.00000000000E+00 -0.00000000000E+00 -0.49523235252E+04  0.49523235252E+04  0.00000000000E+00 0.  1.
         23    2    1    2    0    0  0.35062765047E+04  0.22721364793E+04 -0.16455864610E+04  0.44913613794E+04  0.88278711146E+02 0.  0.
         13    1    3    3    0    0  0.73319949503E+03  0.51520255165E+03 -0.36738353952E+03  0.96849668758E+03  0.00000000000E+00 0. -1.
        -13    1    3    3    0    0  0.27730770097E+04  0.17569339277E+04 -0.12782029215E+04  0.35228646918E+04  0.00000000000E+00 0.  1.
         22    1    1    2    0    0 -0.35062765047E+04 -0.22721364793E+04  0.43276036506E+03  0.42004595751E+04  0.00000000000E+00 0. -1.
<mgrwt>
<rscale>  0 0.86067883E+04</rscale>
<asrwt>0</asrwt>
<pdfrwt beam="1">  1        2 0.76189592E+00 0.86067883E+04</pdfrwt>
<pdfrwt beam="2">  1       -2 0.57530730E+00 0.86067883E+04</pdfrwt>
<totfact> 0.14209276E-05</totfact>
</mgrwt>
</event>
<event>
 6    1  0.3449762E-005  0.3868005E+04  0.7818608E-02  0.8031717E-01
         -2   -1    0    0    0  501 -0.00000000000E+00  0.00000000000E+00  0.22324527700E+04  0.22324527700E+04  0.00000000000E+00 0.  1.
          2   -1    0    0  501    0  0.00000000000E+00 -0.00000000000E+00 -0.16754507668E+04  0.16754507668E+04  0.00000000000E+00 0. -1.
         23    2    1    2    0    0 -0.34718974103E+03  0.88388658309E+03 -0.14222877628E+04  0.17125939492E+04  0.90990914797E+02 0.  0.
         13    1    3    3    0    0 -0.97306674302E+02  0.15199692419E+03 -0.28033705238E+03  0.33340743358E+03  0.00000000000E+00 0.  1.
        -13    1    3    3    0    0 -0.24988306672E+03  0.73188965890E+03 -0.11419507104E+04  0.13791865156E+04  0.00000000000E+00 0. -1.
         22    1    1    2    0    0  0.34718974103E+03 -0.88388658309E+03  0.19792897659E+04  0.21953095876E+04  0.00000000000E+00 0.  1.
<mgrwt>
<rscale>  0 0.38680045E+04</rscale>
<asrwt>0</asrwt>
<pdfrwt beam="1">  1        2 0.25776166E+00 0.38680045E+04</pdfrwt>
<pdfrwt beam="2">  1       -2 0.34345427E+00 0.38680045E+04</pdfrwt>
<totfact> 0.13800511E-01</totfact>
</mgrwt>
</event>
<event>
 6    1  0.1637818E-005  0.4482229E+04  0.7818608E-02  0.7913755E-01
         -2   -1    0    0    0  501 -0.00000000000E+00  0.00000000000E+00  0.15509625573E+04  0.15509625573E+04  0.00000000000E+00 0. -1.
          2   -1    0    0  501    0  0.00000000000E+00 -0.00000000000E+00 -0.32383722594E+04  0.32383722594E+04  0.00000000000E+00 0.  1.
         23    2    1    2    0    0 -0.71591956639E+03  0.74005855884E+03  0.12817945263E+04  0.16466605977E+04  0.90919857548E+02 0.  0.
         13    1    3    3    0    0 -0.36918212055E+03  0.41691107059E+03  0.63146472647E+03  0.84193704022E+03  0.00000000000E+00 0.  1.
        -13    1    3    3    0    0 -0.34673744584E+03  0.32314748824E+03  0.65032979982E+03  0.80472355753E+03  0.00000000000E+00 0. -1.
         22    1    1    2    0    0  0.71591956639E+03 -0.74005855884E+03 -0.29692042284E+04  0.31426742189E+04  0.00000000000E+00 0.  1.
<mgrwt>
<rscale>  0 0.44822290E+04</rscale>
<asrwt>0</asrwt>
<pdfrwt beam="1">  1        2 0.49821111E+00 0.44822290E+04</pdfrwt>
<pdfrwt beam="2">  1       -2 0.23860963E+00 0.44822290E+04</pdfrwt>
<totfact> 0.70088093E-02</totfact>
</mgrwt>
</event>
<event>
 6    1  0.1637818E-005  0.3646044E+04  0.7818608E-02  0.8080025E-01
         -1   -1    0    0    0  501 -0.00000000000E+00  0.00000000000E+00  0.14088592196E+04  0.14088592196E+04  0.00000000000E+00 0.  1.
          1   -1    0    0  501    0  0.00000000000E+00 -0.00000000000E+00 -0.23589366329E+04  0.23589366329E+04  0.00000000000E+00 0. -1.
         23    2    1    2    0    0  0.84248061905E+02 -0.16509255373E+04  0.31645554202E+03  0.16853072948E+04  0.86392720647E+02 0.  0.
         11    1    3    3    0    0  0.35776532373E+02 -0.90905507269E+03  0.13169967062E+03  0.91924201856E+03  0.00000000000E+00 0.  1.
        -11    1    3    3    0    0  0.48471529533E+02 -0.74187046464E+03  0.18475587140E+03  0.76606527626E+03  0.00000000000E+00 0. -1.
         22    1    1    2    0    0 -0.84248061905E+02  0.16509255373E+04 -0.12665329553E+04  0.20824885576E+04  0.00000000000E+00 0. -1.
<mgrwt>
<rscale>  0 0.36460442E+04</rscale>
<asrwt>0</asrwt>
<pdfrwt beam="1">  1        1 0.36291332E+00 0.36460442E+04</pdfrwt>
<pdfrwt beam="2">  1       -1 0.21674757E+00 0.36460442E+04</pdfrwt>
<totfact> 0.15815156E-01</totfact>
</mgrwt>
</event>
<event>
 6    1  0.1637818E-005  0.2964502E+04  0.7818608E-02  0.8253941E-01
          2   -1    0    0  501    0  0.00000000000E+00  0.00000000000E+00  0.23231686353E+04  0.23231686353E+04  0.00000000000E+00 0. -1.
         -2   -1    0    0    0  501 -0.00000000000E+00 -0.00000000000E+00 -0.94572072711E+03  0.94572072711E+03  0.00000000000E+00 0.  1.
         23    2    1    2    0    0 -0.13610581903E+04  0.13634828345E+03  0.13149642064E+04  0.18995922929E+04  0.90828207570E+02 0.  0.
         11    1    3    3    0    0 -0.68766355934E+03  0.43963564257E+02  0.71468139349E+03  0.99276556146E+03  0.00000000000E+00 0. -1.
        -11    1    3    3    0    0 -0.67339463093E+03  0.92384719192E+02  0.60028281290E+03  0.90682673140E+03  0.00000000000E+00 0.  1.
         22    1    1    2    0    0  0.13610581903E+04 -0.13634828345E+03  0.62483701798E+02  0.13692970696E+04  0.00000000000E+00 0.  1.
<mgrwt>
<rscale>  0 0.29645025E+04</rscale>
<asrwt>0</asrwt>
<pdfrwt beam="1">  1        2 0.35741056E+00 0.29645025E+04</pdfrwt>
<pdfrwt beam="2">  1       -2 0.14549550E+00 0.29645025E+04</pdfrwt>
<totfact> 0.12261129E+00</totfact>
</mgrwt>
</event>
<event>
 6    1  0.1637818E-005  0.3258868E+04  0.7818608E-02  0.8173441E-01
         -2   -1    0    0    0  501 -0.00000000000E+00  0.00000000000E+00  0.15018289295E+04  0.15018289295E+04  0.00000000000E+00 0. -1.
          2   -1    0    0  501    0  0.00000000000E+00 -0.00000000000E+00 -0.17678807601E+04  0.17678807601E+04  0.00000000000E+00 0.  1.
         23    2    1    2    0    0  0.10431793215E+04 -0.76384248549E+03 -0.11259706104E+04  0.17169254976E+04  0.91350475427E+02 0.  0.
         13    1    3    3    0    0  0.88354301480E+03 -0.68141622364E+03 -0.94969338187E+03  0.14652282581E+04  0.00000000000E+00 0. -1.
        -13    1    3    3    0    0  0.15963630671E+03 -0.82426261856E+02 -0.17627722848E+03  0.25169723945E+03  0.00000000000E+00 0.  1.
         22    1    1    2    0    0 -0.10431793215E+04  0.76384248549E+03  0.85991877973E+03  0.15527841921E+04  0.00000000000E+00 0. -1.
<mgrwt>
<rscale>  0 0.32588676E+04</rscale>
<asrwt>0</asrwt>
<pdfrwt beam="1">  1        2 0.27198166E+00 0.32588676E+04</pdfrwt>
<pdfrwt beam="2">  1       -2 0.23105060E+00 0.32588676E+04</pdfrwt>
<totfact> 0.63452728E-01</totfact>
</mgrwt>
</event>
<event>
 6    1  0.2969194E-005  0.2816225E+04  0.7818608E-02  0.8298249E-01
         -2   -1    0    0    0  501 -0.00000000000E+00  0.00000000000E+00  0.98522180658E+03  0.98522180658E+03  0.00000000000E+00 0.  1.
          2   -1    0    0  501    0  0.00000000000E+00 -0.00000000000E+00 -0.20125220790E+04  0.20125220790E+04  0.00000000000E+00 0. -1.
         23    2    1    2    0    0 -0.19167436273E+03  0.72888676670E+03 -0.17781337090E+04  0.19338990521E+04  0.10095086293E+03 0.  0.
         13    1    3    3    0    0 -0.24428467158E+02  0.14138326973E+03 -0.25075582828E+03  0.28890217096E+03  0.00000000000E+00 0.  1.
        -13    1    3    3    0    0 -0.16724589557E+03  0.58750349697E+03 -0.15273778807E+04  0.16449968812E+04  0.00000000000E+00 0. -1.
         22    1    1    2    0    0  0.19167436273E+03 -0.72888676670E+03  0.75083343663E+03  0.10638448334E+04  0.00000000000E+00 0.  1.
<mgrwt>
<rscale>  0 0.28162249E+04</rscale>
<asrwt>0</asrwt>
<pdfrwt beam="1">  1        2 0.30961878E+00 0.28162249E+04</pdfrwt>
<pdfrwt beam="2">  1       -2 0.15157259E+00 0.28162249E+04</pdfrwt>
<totfact> 0.16651844E+00</totfact>
</mgrwt>
</event>
<event>
 6    1  0.2250737E-005  0.3723777E+04  0.7818608E-02  0.8062713E-01
         -2   -1    0    0    0  501 -0.00000000000E+00  0.00000000000E+00  0.20953708640E+04  0.20953708640E+04  0.00000000000E+00 0.  1.
          2   -1    0    0  501    0  0.00000000000E+00 -0.00000000000E+00 -0.16544226019E+04  0.16544226019E+04  0.00000000000E+00 0. -1.
         23    2    1    2    0    0 -0.42008785926E+03 -0.11185577247E+03  0.20425486358E+04  0.20902425385E+04  0.90130000879E+02 0.  0.
         13    1    3    3    0    0 -0.14788112610E+03 -0.75003159845E+02  0.64643172998E+03  0.66735918587E+03  0.00000000000E+00 0. -1.
        -13    1    3    3    0    0 -0.27220673316E+03 -0.36852612621E+02  0.13961169058E+04  0.14228833527E+04  0.00000000000E+00 0.  1.
         22    1    1    2    0    0  0.42008785926E+03  0.11185577247E+03 -0.16016003737E+04  0.16595509273E+04  0.00000000000E+00 0. -1.
<mgrwt>
<rscale>  0 0.37237771E+04</rscale>
<asrwt>0</asrwt>
<pdfrwt beam="1">  1        2 0.25452656E+00 0.37237771E+04</pdfrwt>
<pdfrwt beam="2">  1       -2 0.32236475E+00 0.37237771E+04</pdfrwt>
<totfact> 0.19418317E-01</totfact>
</mgrwt>
</event>
<event>
 6    1  0.1637818E-005  0.6343367E+03  0.7818608E-02  0.9836622E-01
          2   -1    0    0  501    0  0.00000000000E+00  0.00000000000E+00  0.43387442180E+03  0.43387442180E+03  0.00000000000E+00 0. -1.
         -2   -1    0    0    0  501 -0.00000000000E+00 -0.00000000000E+00 -0.23185452674E+03  0.23185452674E+03  0.00000000000E+00 0.  1.
         23    2    1    2    0    0  0.23368073127E+03 -0.88696789913E+02  0.29654316035E+03  0.39850534856E+03  0.91623480457E+02 0.  0.
         11    1    3    3    0    0  0.16892272322E+03 -0.28344403974E+02  0.15196300307E+03  0.22897826525E+03  0.00000000000E+00 0.  1.
        -11    1    3    3    0    0  0.64758008056E+02 -0.60352385939E+02  0.14458015728E+03  0.16952708331E+03  0.00000000000E+00 0. -1.
         22    1    1    2    0    0 -0.23368073127E+03  0.88696789913E+02 -0.94523265286E+02  0.26722359999E+03  0.00000000000E+00 0.  1.
<mgrwt>
<rscale>  0 0.63433666E+03</rscale>
<asrwt>0</asrwt>
<pdfrwt beam="1">  1        2 0.66749911E-01 0.63433666E+03</pdfrwt>
<pdfrwt beam="2">  1       -2 0.35669927E-01 0.63433666E+03</pdfrwt>
<totfact> 0.53950028E+02</totfact>
</mgrwt>
</event>
<event>
 6    1  0.1637818E-005  0.1789794E+04  0.7818608E-02  0.8711746E-01
          1   -1    0    0  501    0  0.00000000000E+00  0.00000000000E+00  0.15176412195E+04  0.15176412195E+04  0.00000000000E+00 0. -1.
         -1   -1    0    0    0  501 -0.00000000000E+00 -0.00000000000E+00 -0.52768800021E+03  0.52768800021E+03  0.00000000000E+00 0.  1.
         23    2    1    2    0    0  0.60062173952E+03 -0.42542401898E+03  0.10733053520E+04  0.13046000870E+04  0.90911707281E+02 0.  0.
         13    1    3    3    0    0  0.57264547574E+03 -0.41376216340E+03  0.99226405167E+03  0.12180763182E+04  0.00000000000E+00 0.  1.
        -13    1    3    3    0    0  0.27976263778E+02 -0.11661855583E+02  0.81041300328E+02  0.86523768812E+02  0.00000000000E+00 0. -1.
         22    1    1    2    0    0 -0.60062173952E+03  0.42542401898E+03 -0.83352132751E+02  0.74072913264E+03  0.00000000000E+00 0.  1.
<mgrwt>
<rscale>  0 0.17897945E+04</rscale>
<asrwt>0</asrwt>
<pdfrwt beam="1">  1        1 0.23348326E+00 0.17897945E+04</pdfrwt>
<pdfrwt beam="2">  1       -1 0.81182770E-01 0.17897945E+04</pdfrwt>
<totfact> 0.90798263E+00</totfact>
</mgrwt>
</event>
<event>
 6    1  0.1637818E-005  0.2744671E+04  0.7818608E-02  0.8320655E-01
         -2   -1    0    0    0  501 -0.00000000000E+00  0.00000000000E+00  0.79765934507E+03  0.79765934507E+03  0.00000000000E+00 0.  1.
          2   -1    0    0  501    0  0.00000000000E+00 -0.00000000000E+00 -0.23610393419E+04  0.23610393419E+04  0.00000000000E+00 0. -1.
         23    2    1    2    0    0  0.44699686030E+03  0.47676549438E+03 -0.21693117764E+04  0.22674833083E+04  0.91953467986E+02 0.  0.
         11    1    3    3    0    0  0.26942269879E+03  0.34884017330E+03 -0.14839549545E+04  0.15480311250E+04  0.00000000000E+00 0.  1.
        -11    1    3    3    0    0  0.17757416150E+03  0.12792532108E+03 -0.68535682196E+03  0.71945218327E+03  0.00000000000E+00 0. -1.
         22    1    1    2    0    0 -0.44699686030E+03 -0.47676549438E+03  0.60593177957E+03  0.89121537870E+03  0.00000000000E+00 0.  1.
<mgrwt>
<rscale>  0 0.27446713E+04</rscale>
<asrwt>0</asrwt>
<pdfrwt beam="1">  1        2 0.36323682E+00 0.27446713E+04</pdfrwt>
<pdfrwt beam="2">  1       -2 0.12271682E+00 0.27446713E+04</pdfrwt>
<totfact> 0.18366266E+00</totfact>
</mgrwt>
</event>
<event>
 6    1  0.1637818E-005  0.1702147E+04  0.7818608E-02  0.8760141E-01
          2   -1    0    0  501    0  0.00000000000E+00  0.00000000000E+00  0.73787202352E+03  0.73787202352E+03  0.00000000000E+00 0. -1.
         -2   -1    0    0    0  501 -0.00000000000E+00 -0.00000000000E+00 -0.98164228078E+03  0.98164228078E+03  0.00000000000E+00 0.  1.
         23    2    1    2    0    0  0.13624014163E+03  0.42992817458E+03 -0.84836260406E+03  0.96523881266E+03  0.92559418881E+02 0.  0.
         11    1    3    3    0    0  0.72654363408E+02  0.33826730132E+03 -0.68505191238E+03  0.76746305861E+03  0.00000000000E+00 0. -1.
        -11    1    3    3    0    0  0.63585778219E+02  0.91660873258E+02 -0.16331069167E+03  0.19777575406E+03  0.00000000000E+00 0.  1.
         22    1    1    2    0    0 -0.13624014163E+03 -0.42992817458E+03  0.60459234680E+03  0.75427549164E+03  0.00000000000E+00 0. -1.
<mgrwt>
<rscale>  0 0.17021473E+04</rscale>
<asrwt>0</asrwt>
<pdfrwt beam="1">  1        2 0.11351877E+00 0.17021473E+04</pdfrwt>
<pdfrwt beam="2">  1       -2 0.15102189E+00 0.17021473E+04</pdfrwt>
<totfact> 0.10717165E+01</totfact>
</mgrwt>
</event>
<event>
 6    1  0.1637818E-005  0.5768018E+04  0.7818608E-02  0.7719849E-01
         -2   -1    0    0    0  501 -0.00000000000E+00  0.00000000000E+00  0.16550885307E+04  0.16550885307E+04  0.00000000000E+00 0.  1.
          2   -1    0    0  501    0  0.00000000000E+00 -0.00000000000E+00 -0.50254148971E+04  0.50254148971E+04  0.00000000000E+00 0. -1.
         23    2    1    2    0    0  0.19719377304E+03  0.28761206203E+04 -0.17433860188E+04  0.33702330308E+04  0.90114732891E+02 0.  0.
         11    1    3    3    0    0  0.15692334794E+03  0.19799909325E+04 -0.11587020953E+04  0.22994737605E+04  0.00000000000E+00 0.  1.
        -11    1    3    3    0    0  0.40270425105E+02  0.89612968782E+03 -0.58468392356E+03  0.10707592703E+04  0.00000000000E+00 0. -1.
         22    1    1    2    0    0 -0.19719377304E+03 -0.28761206203E+04 -0.16269403476E+04  0.33102703970E+04  0.00000000000E+00 0.  1.
<mgrwt>
<rscale>  0 0.57680175E+04</rscale>
<asrwt>0</asrwt>
<pdfrwt beam="1">  1        2 0.77314075E+00 0.57680175E+04</pdfrwt>
<pdfrwt beam="2">  1       -2 0.25462901E+00 0.57680175E+04</pdfrwt>
<totfact> 0.12865845E-03</totfact>
</mgrwt>
</event>
<event>
 6    1  0.1637818E-005  0.9284912E+03  0.7818608E-02  0.9390650E-01
          1   -1    0    0  501    0  0.00000000000E+00  0.00000000000E+00  0.30004215188E+03  0.30004215188E+03  0.00000000000E+00 0. -1.
         -1   -1    0    0    0  501 -0.00000000000E+00 -0.00000000000E+00 -0.71831234728E+03  0.71831234728E+03  0.00000000000E+00 0.  1.
         23    2    1    2    0    0 -0.17555116392E+03  0.12270526048E+03  0.23709945877E+03  0.32887340754E+03  0.77889490519E+02 0.  0.
         13    1    3    3    0    0 -0.92631614414E+02  0.55338545429E+02  0.17415708595E+03  0.20487474511E+03  0.00000000000E+00 0.  1.
        -13    1    3    3    0    0 -0.82919549507E+02  0.67366715047E+02  0.62942372824E+02  0.12399866243E+03  0.00000000000E+00 0. -1.
         22    1    1    2    0    0  0.17555116392E+03 -0.12270526048E+03 -0.65536965417E+03  0.68948109163E+03  0.00000000000E+00 0.  1.
<mgrwt>
<rscale>  0 0.92849121E+03</rscale>
<asrwt>0</asrwt>
<pdfrwt beam="1">  1        1 0.46160331E-01 0.92849121E+03</pdfrwt>
<pdfrwt beam="2">  1       -1 0.11050959E+00 0.92849121E+03</pdfrwt>
<totfact> 0.66636200E+01</totfact>
</mgrwt>
</event>
<event>
 6    1  0.1637818E-005  0.8892368E+03  0.7818608E-02  0.9439137E-01
         -2   -1    0    0    0  501 -0.00000000000E+00  0.00000000000E+00  0.82109882781E+02  0.82109882781E+02  0.00000000000E+00 0.  1.
          2   -1    0    0  501    0  0.00000000000E+00 -0.00000000000E+00 -0.24075727366E+04  0.24075727366E+04  0.00000000000E+00 0. -1.
         23    2    1    2    0    0  0.43896199475E+03  0.71762056181E+01 -0.10948647460E+04  0.11831181037E+04  0.91107104139E+02 0.  0.
         11    1    3    3    0    0  0.36246473649E+03  0.38860017102E+02 -0.92185288594E+03  0.99131404179E+03  0.00000000000E+00 0. -1.
        -11    1    3    3    0    0  0.76497258261E+02 -0.31683811484E+02 -0.17301186005E+03  0.19180406187E+03  0.00000000000E+00 0.  1.
         22    1    1    2    0    0 -0.43896199475E+03 -0.71762056181E+01 -0.12305981078E+04  0.13065645157E+04  0.00000000000E+00 0.  1.
<mgrwt>
<rscale>  0 0.88923679E+03</rscale>
<asrwt>0</asrwt>
<pdfrwt beam="1">  1        2 0.37039587E+00 0.88923679E+03</pdfrwt>
<pdfrwt beam="2">  1       -2 0.12632288E-01 0.88923679E+03</pdfrwt>
<totfact> 0.18796306E+02</totfact>
</mgrwt>
</event>
<event>
 6    1  0.1637818E-005  0.4298001E+04  0.7818608E-02  0.7946988E-01
         -1   -1    0    0    0  501 -0.00000000000E+00  0.00000000000E+00  0.17767453334E+04  0.17767453334E+04  0.00000000000E+00 0.  1.
          1   -1    0    0  501    0  0.00000000000E+00 -0.00000000000E+00 -0.25992484429E+04  0.25992484429E+04  0.00000000000E+00 0. -1.
         23    2    1    2    0    0 -0.17468127126E+04  0.22424042537E+03  0.84076222786E+03  0.19535796904E+04  0.89185548109E+02 0.  0.
         11    1    3    3    0    0 -0.20724142788E+03  0.71370197388E+01  0.75800080503E+02  0.22078405442E+03  0.00000000000E+00 0.  1.
        -11    1    3    3    0    0 -0.15395712847E+04  0.21710340563E+03  0.76496214736E+03  0.17327956360E+04  0.00000000000E+00 0. -1.
         22    1    1    2    0    0  0.17468127126E+04 -0.22424042537E+03 -0.16632653373E+04  0.24224140859E+04  0.00000000000E+00 0. -1.
<mgrwt>
<rscale>  0 0.42980007E+04</rscale>
<asrwt>0</asrwt>
<pdfrwt beam="1">  1        1 0.39988438E+00 0.42980007E+04</pdfrwt>
<pdfrwt beam="2">  1       -1 0.27334544E+00 0.42980007E+04</pdfrwt>
<totfact> 0.43374791E-02</totfact>
</mgrwt>
</event>
<event>
 6    1  0.1637818E-005  0.8014563E+03  0.7818608E-02  0.9557912E-01
         -2   -1    0    0    0  501 -0.00000000000E+00  0.00000000000E+00  0.45579726064E+03  0.45579726064E+03  0.00000000000E+00 0.  1.
          2   -1    0    0  501    0  0.00000000000E+00 -0.00000000000E+00 -0.35231248170E+03  0.35231248170E+03  0.00000000000E+00 0. -1.
         23    2    1    2    0    0  0.25282213568E+03  0.20826337232E+03 -0.17014825017E+03  0.38129866099E+03  0.95632511716E+02 0.  0.
         13    1    3    3    0    0  0.72408595044E+02  0.28954862283E+02 -0.79243517311E+02  0.11117969114E+03  0.00000000000E+00 0.  1.
        -13    1    3    3    0    0  0.18041354064E+03  0.17930851004E+03 -0.90904732855E+02  0.27011896985E+03  0.00000000000E+00 0. -1.
         22    1    1    2    0    0 -0.25282213568E+03 -0.20826337232E+03  0.27363302911E+03  0.42681108135E+03  0.00000000000E+00 0.  1.
<mgrwt>
<rscale>  0 0.80145633E+03</rscale>
<asrwt>0</asrwt>
<pdfrwt beam="1">  1        2 0.54201920E-01 0.80145633E+03</pdfrwt>
<pdfrwt beam="2">  1       -2 0.70122655E-01 0.80145633E+03</pdfrwt>
<totfact> 0.17117410E+02</totfact>
</mgrwt>
</event>
<event>
 6    1  0.1637818E-005  0.2696059E+04  0.7818608E-02  0.8336285E-01
         -2   -1    0    0    0  501 -0.00000000000E+00  0.00000000000E+00  0.57883998830E+03  0.57883998830E+03  0.00000000000E+00 0. -1.
          2   -1    0    0  501    0  0.00000000000E+00 -0.00000000000E+00 -0.31393527252E+04  0.31393527252E+04  0.00000000000E+00 0.  1.
         23    2    1    2    0    0  0.13295621969E+04  0.20300139719E+03 -0.11916084636E+04  0.17991189494E+04  0.89179935002E+02 0.  0.
         13    1    3    3    0    0  0.96004232752E+03  0.10799310107E+03 -0.83737421559E+03  0.12784910471E+04  0.00000000000E+00 0. -1.
        -13    1    3    3    0    0  0.36951986938E+03  0.95008296119E+02 -0.35423424799E+03  0.52062790229E+03  0.00000000000E+00 0.  1.
         22    1    1    2    0    0 -0.13295621969E+04 -0.20300139719E+03 -0.13689042734E+04  0.19190737642E+04  0.00000000000E+00 0. -1.
<mgrwt>
<rscale>  0 0.26960585E+04</rscale>
<asrwt>0</asrwt>
<pdfrwt beam="1">  1        2 0.48297734E+00 0.26960585E+04</pdfrwt>
<pdfrwt beam="2">  1       -2 0.89052307E-01 0.26960585E+04</pdfrwt>
<totfact> 0.13490196E+00</totfact>
</mgrwt>
</event>
<event>
 6    1  0.1637818E-005  0.9866348E+03  0.7818608E-02  0.9323326E-01
          2   -1    0    0  501    0  0.00000000000E+00  0.00000000000E+00  0.94292942627E+03  0.94292942627E+03  0.00000000000E+00 0.  1.
         -2   -1    0    0    0  501 -0.00000000000E+00 -0.00000000000E+00 -0.25809149359E+03  0.25809149359E+03  0.00000000000E+00 0. -1.
         23    2    1    2    0    0 -0.47885456656E+03 -0.92204434707E+02  0.30149204748E+03  0.58073274377E+03  0.92464648883E+02 0.  0.
         13    1    3    3    0    0 -0.37924186828E+02 -0.22643800991E+02  0.41089254932E+01  0.44360668825E+02  0.00000000000E+00 0.  1.
        -13    1    3    3    0    0 -0.44093037973E+03 -0.69560633715E+02  0.29738312199E+03  0.53637207494E+03  0.00000000000E+00 0. -1.
         22    1    1    2    0    0  0.47885456656E+03  0.92204434707E+02  0.38334588520E+03  0.62028817609E+03  0.00000000000E+00 0. -1.
<mgrwt>
<rscale>  0 0.98663481E+03</rscale>
<asrwt>0</asrwt>
<pdfrwt beam="1">  1        2 0.14506606E+00 0.98663481E+03</pdfrwt>
<pdfrwt beam="2">  1       -2 0.39706384E-01 0.98663481E+03</pdfrwt>
<totfact> 0.16436856E+02</totfact>
</mgrwt>
</event>
<event>
 6    1  0.1637818E-005  0.8690770E+03  0.7818608E-02  0.9465084E-01
         -2   -1    0    0    0  501 -0.00000000000E+00  0.00000000000E+00  0.35256647196E+03  0.35256647196E+03  0.00000000000E+00 0.  1.
          2   -1    0    0  501    0  0.00000000000E+00 -0.00000000000E+00 -0.53556911703E+03  0.53556911703E+03  0.00000000000E+00 0. -1.
         23    2    1    2    0    0  0.97518201962E+02  0.12594625098E+03 -0.50042630243E+03  0.53298768164E+03  0.90978715995E+02 0.  0.
         11    1    3    3    0    0  0.43940519836E+02  0.10452356494E+03 -0.22945075076E+03  0.25593669517E+03  0.00000000000E+00 0.  1.
        -11    1    3    3    0    0  0.53577682126E+02  0.21422686042E+02 -0.27097555167E+03  0.27705098647E+03  0.00000000000E+00 0. -1.
         22    1    1    2    0    0 -0.97518201962E+02 -0.12594625098E+03  0.31742365736E+03  0.35514790736E+03  0.00000000000E+00 0.  1.
<mgrwt>
<rscale>  0 0.86907701E+03</rscale>
<asrwt>0</asrwt>
<pdfrwt beam="1">  1        2 0.82395249E-01 0.86907701E+03</pdfrwt>
<pdfrwt beam="2">  1       -2 0.54240996E-01 0.86907701E+03</pdfrwt>
<totfact> 0.18269943E+02</totfact>
</mgrwt>
</event>
<event>
 6    1  0.1637818E-005  0.1484059E+04  0.7818608E-02  0.8895123E-01
          2   -1    0    0  501    0  0.00000000000E+00  0.00000000000E+00  0.19356946744E+04  0.19356946744E+04  0.00000000000E+00 0. -1.
         -2   -1    0    0    0  501 -0.00000000000E+00 -0.00000000000E+00 -0.28444980295E+03  0.28444980295E+03  0.00000000000E+00 0.  1.
         23    2    1    2    0    0  0.30745484178E+03 -0.33573033667E+03 -0.42460627394E+02  0.46632531464E+03  0.91722709814E+02 0.  0.
         13    1    3    3    0    0  0.20958814297E+03 -0.28274741493E+03 -0.18220382743E+02  0.35242768431E+03  0.00000000000E+00 0. -1.
        -13    1    3    3    0    0  0.97866698814E+02 -0.52982921744E+02 -0.24240244651E+02  0.11389763033E+03  0.00000000000E+00 0.  1.
         22    1    1    2    0    0 -0.30745484178E+03  0.33573033667E+03  0.16937054989E+04  0.17538191628E+04  0.00000000000E+00 0. -1.
<mgrwt>
<rscale>  0 0.14840593E+04</rscale>
<asrwt>0</asrwt>
<pdfrwt beam="1">  1        2 0.29779917E+00 0.14840593E+04</pdfrwt>
<pdfrwt beam="2">  1       -2 0.43761509E-01 0.14840593E+04</pdfrwt>
<totfact> 0.34757885E+01</totfact>
</mgrwt>
</event>
<event>
 6    1  0.1637818E-005  0.3622018E+03  0.7818608E-02  0.1057715E+00
         -1   -1    0    0    0  501 -0.00000000000E+00  0.00000000000E+00  0.30542737808E+02  0.30542737808E+02  0.00000000000E+00 0.  1.
          1   -1    0    0  501    0  0.00000000000E+00 -0.00000000000E+00 -0.10738244380E+04  0.10738244380E+04  0.00000000000E+00 0. -1.
         23    2    1    2    0    0  0.16913903212E+03  0.64370692310E+01 -0.64055756244E+03  0.66751917115E+03  0.81353580141E+02 0.  0.
         13    1    3    3    0    0  0.11025926882E+02 -0.17556870832E+02 -0.15312560940E+03  0.15452270717E+03  0.00000000000E+00 0.  1.
        -13    1    3    3    0    0  0.15811310524E+03  0.23993940063E+02 -0.48743195305E+03  0.51299646398E+03  0.00000000000E+00 0. -1.
         22    1    1    2    0    0 -0.16913903212E+03 -0.64370692310E+01 -0.40272413772E+03  0.43684800463E+03  0.00000000000E+00 0.  1.
<mgrwt>
<rscale>  0 0.36220181E+03</rscale>
<asrwt>0</asrwt>
<pdfrwt beam="1">  1        1 0.16520376E+00 0.36220181E+03</pdfrwt>
<pdfrwt beam="2">  1       -1 0.46988828E-02 0.36220181E+03</pdfrwt>
<totfact> 0.27298692E+03</totfact>
</mgrwt>
</event>
<event>
 6    1  0.1637818E-005  0.2989747E+04  0.7818608E-02  0.8246665E-01
          1   -1    0    0  501    0  0.00000000000E+00  0.00000000000E+00  0.39698148311E+04  0.39698148311E+04  0.00000000000E+00 0. -1.
         -1   -1    0    0    0  501 -0.00000000000E+00 -0.00000000000E+00 -0.56290952207E+03  0.56290952207E+03  0.00000000000E+00 0.  1.
         23    2    1    2    0    0 -0.11105336726E+04  0.63862365746E+03  0.28689390402E+04  0.31432881653E+04  0.91236287825E+02 0.  0.
         11    1    3    3    0    0 -0.29736281047E+03  0.15849542968E+03  0.66295147460E+03  0.74367338258E+03  0.00000000000E+00 0. -1.
        -11    1    3    3    0    0 -0.81317086209E+03  0.48012822778E+03  0.22059875656E+04  0.23996147827E+04  0.00000000000E+00 0.  1.
         22    1    1    2    0    0  0.11105336726E+04 -0.63862365746E+03  0.53796626889E+03  0.13894361879E+04  0.00000000000E+00 0.  1.
<mgrwt>
<rscale>  0 0.29897469E+04</rscale>
<asrwt>0</asrwt>
<pdfrwt beam="1">  1        1 0.61074073E+00 0.29897469E+04</pdfrwt>
<pdfrwt beam="2">  1       -1 0.86601467E-01 0.29897469E+04</pdfrwt>
<totfact> 0.11411713E-01</totfact>
</mgrwt>
</event>
<event>
 6    1  0.1637818E-005  0.2498969E+04  0.7818608E-02  0.8403353E-01
         -1   -1    0    0    0  501 -0.00000000000E+00  0.00000000000E+00  0.93114369798E+03  0.93114369798E+03  0.00000000000E+00 0.  1.
          1   -1    0    0  501    0  0.00000000000E+00 -0.00000000000E+00 -0.16766606869E+04  0.16766606869E+04  0.00000000000E+00 0. -1.
         23    2    1    2    0    0 -0.87422887230E+03  0.71249967212E+03 -0.93090935943E+03  0.14648685883E+04  0.85532693173E+02 0.  0.
         11    1    3    3    0    0 -0.51164195714E+03  0.46990921261E+03 -0.58097620542E+03  0.90560781339E+03  0.00000000000E+00 0.  1.
        -11    1    3    3    0    0 -0.36258691516E+03  0.24259045951E+03 -0.34993315402E+03  0.55926077493E+03  0.00000000000E+00 0. -1.
         22    1    1    2    0    0  0.87422887230E+03 -0.71249967212E+03  0.18539237055E+03  0.11429357965E+04  0.00000000000E+00 0.  1.
<mgrwt>
<rscale>  0 0.24989694E+04</rscale>
<asrwt>0</asrwt>
<pdfrwt beam="1">  1        1 0.25794780E+00 0.24989694E+04</pdfrwt>
<pdfrwt beam="2">  1       -1 0.14325288E+00 0.24989694E+04</pdfrwt>
<totfact> 0.17332592E+00</totfact>
</mgrwt>
</event>
<event>
 6    1  0.1637818E-005  0.8689816E+03  0.7818608E-02  0.9465209E-01
          1   -1    0    0  501    0  0.00000000000E+00  0.00000000000E+00  0.83240383726E+03  0.83240383726E+03  0.00000000000E+00 0. -1.
         -1   -1    0    0    0  501 -0.00000000000E+00 -0.00000000000E+00 -0.22679169182E+03  0.22679169182E+03  0.00000000000E+00 0.  1.
         23    2    1    2    0    0  0.32002050249E+03  0.24530985815E+03  0.49222839969E+03  0.64033287579E+03  0.71745005659E+02 0.  0.
         11    1    3    3    0    0  0.24245302092E+03  0.16819661289E+03  0.40120953248E+03  0.49803881063E+03  0.00000000000E+00 0. -1.
        -11    1    3    3    0    0  0.77567481569E+02  0.77113245258E+02  0.91018867207E+02  0.14229406516E+03  0.00000000000E+00 0.  1.
         22    1    1    2    0    0 -0.32002050249E+03 -0.24530985815E+03  0.11338374576E+03  0.41886265329E+03  0.00000000000E+00 0. -1.
<mgrwt>
<rscale>  0 0.86898164E+03</rscale>
<asrwt>0</asrwt>
<pdfrwt beam="1">  1        1 0.12806213E+00 0.86898164E+03</pdfrwt>
<pdfrwt beam="2">  1       -1 0.34891030E-01 0.86898164E+03</pdfrwt>
<totfact> 0.16299927E+02</totfact>
</mgrwt>
</event>
<event>
 6    1  0.1637818E-005  0.2520607E+04  0.7818608E-02  0.8395681E-01
         -1   -1    0    0    0  501 -0.00000000000E+00  0.00000000000E+00  0.81490953398E+03  0.81490953398E+03  0.00000000000E+00 0.  1.
          1   -1    0    0  501    0  0.00000000000E+00 -0.00000000000E+00 -0.19491305098E+04  0.19491305098E+04  0.00000000000E+00 0. -1.
         23    2    1    2    0    0  0.87450707383E+03 -0.73157460439E+03  0.16846082785E+02  0.11438797439E+04  0.90625901190E+02 0.  0.
         13    1    3    3    0    0  0.77545124708E+03 -0.63673031602E+03  0.42901357827E+02  0.10042861437E+04  0.00000000000E+00 0.  1.
        -13    1    3    3    0    0  0.99055826749E+02 -0.94844288368E+02 -0.26055275042E+02  0.13959360016E+03  0.00000000000E+00 0. -1.
         22    1    1    2    0    0 -0.87450707383E+03  0.73157460439E+03 -0.11510670586E+04  0.16201602999E+04  0.00000000000E+00 0.  1.
<mgrwt>
<rscale>  0 0.25206071E+04</rscale>
<asrwt>0</asrwt>
<pdfrwt beam="1">  1        1 0.29986623E+00 0.25206071E+04</pdfrwt>
<pdfrwt beam="2">  1       -1 0.12537070E+00 0.25206071E+04</pdfrwt>
<totfact> 0.15893128E+00</totfact>
</mgrwt>
</event>
<event>
 6    1  0.1637818E-005  0.1755311E+04  0.7818608E-02  0.8730432E-01
          2   -1    0    0  501    0  0.00000000000E+00  0.00000000000E+00  0.20144669113E+04  0.20144669113E+04  0.00000000000E+00 0. -1.
         -2   -1    0    0    0  501 -0.00000000000E+00 -0.00000000000E+00 -0.38237374300E+03  0.38237374300E+03  0.00000000000E+00 0.  1.
         23    2    1    2    0    0  0.60319972766E+02 -0.64473198062E+03  0.16223754832E+04  0.17492201950E+04  0.91385205961E+02 0.  0.
         13    1    3    3    0    0  0.68960582467E+02 -0.45873409734E+03  0.12396942534E+04  0.13236443540E+04  0.00000000000E+00 0. -1.
        -13    1    3    3    0    0 -0.86406097013E+01 -0.18599788328E+03  0.38268122983E+03  0.42557584094E+03  0.00000000000E+00 0.  1.
         22    1    1    2    0    0 -0.60319972766E+02  0.64473198062E+03  0.97176850530E+01  0.64762045934E+03  0.00000000000E+00 0.  1.
<mgrwt>
<rscale>  0 0.17553111E+04</rscale>
<asrwt>0</asrwt>
<pdfrwt beam="1">  1        2 0.30991798E+00 0.17553111E+04</pdfrwt>
<pdfrwt beam="2">  1       -2 0.58826731E-01 0.17553111E+04</pdfrwt>
<totfact> 0.16779630E+01</totfact>
</mgrwt>
</event>
<event>
 6    1  0.1637818E-005  0.4510310E+03  0.7818608E-02  0.1027415E+00
         -1   -1    0    0    0  501 -0.00000000000E+00  0.00000000000E+00  0.11729568780E+03  0.11729568780E+03  0.00000000000E+00 0.  1.
          1   -1    0    0  501    0  0.00000000000E+00 -0.00000000000E+00 -0.43358151481E+03  0.43358151481E+03  0.00000000000E+00 0. -1.
         23    2    1    2    0    0  0.16346222378E+03 -0.11576281337E+03 -0.26419664980E+03  0.34391293046E+03  0.91407365200E+02 0.  0.
         11    1    3    3    0    0  0.77811975314E+02 -0.51549396622E+02 -0.19571856231E+03  0.21683588132E+03  0.00000000000E+00 0. -1.
        -11    1    3    3    0    0  0.85650248470E+02 -0.64213416746E+02 -0.68478087482E+02  0.12707704914E+03  0.00000000000E+00 0.  1.
         22    1    1    2    0    0 -0.16346222378E+03  0.11576281337E+03 -0.52089177209E+02  0.20696427215E+03  0.00000000000E+00 0. -1.
<mgrwt>
<rscale>  0 0.45103101E+03</rscale>
<asrwt>0</asrwt>
<pdfrwt beam="1">  1        1 0.66704849E-01 0.45103101E+03</pdfrwt>
<pdfrwt beam="2">  1       -1 0.18045490E-01 0.45103101E+03</pdfrwt>
<totfact> 0.13058991E+03</totfact>
</mgrwt>
</event>
<event>
 6    1  0.1958660E-005  0.5562552E+04  0.7818608E-02  0.7747140E-01
          1   -1    0    0  501    0  0.00000000000E+00  0.00000000000E+00  0.21073017088E+04  0.21073017088E+04  0.00000000000E+00 0. -1.
         -1   -1    0    0    0  501 -0.00000000000E+00 -0.00000000000E+00 -0.36708065956E+04  0.36708065956E+04  0.00000000000E+00 0.  1.
         23    2    1    2    0    0 -0.49437802150E+03 -0.96115400783E+02 -0.36224452177E+04  0.36584660977E+04  0.92827984956E+02 0.  0.
         11    1    3    3    0    0 -0.19460397475E+03 -0.80826423044E+02 -0.16205428428E+04  0.16341856452E+04  0.00000000000E+00 0. -1.
        -11    1    3    3    0    0 -0.29977404676E+03 -0.15288977739E+02 -0.20019023748E+04  0.20242804525E+04  0.00000000000E+00 0.  1.
         22    1    1    2    0    0  0.49437802150E+03  0.96115400783E+02  0.20589403308E+04  0.21196422067E+04  0.00000000000E+00 0. -1.
<mgrwt>
<rscale>  0 0.55625523E+04</rscale>
<asrwt>0</asrwt>
<pdfrwt beam="1">  1        1 0.32420026E+00 0.55625523E+04</pdfrwt>
<pdfrwt beam="2">  1       -1 0.56473948E+00 0.55625523E+04</pdfrwt>
<totfact> 0.11154240E-03</totfact>
</mgrwt>
</event>
<event>
 6    1  0.1637818E-005  0.1096283E+04  0.7818608E-02  0.9208822E-01
          2   -1    0    0  501    0  0.00000000000E+00  0.00000000000E+00  0.73665804385E+03  0.73665804385E+03  0.00000000000E+00 0. -1.
         -2   -1    0    0    0  501 -0.00000000000E+00 -0.00000000000E+00 -0.40786767177E+03  0.40786767177E+03  0.00000000000E+00 0.  1.
         23    2    1    2    0    0 -0.35789529740E+03 -0.25480356736E+03 -0.17122297145E+03  0.47892279680E+03  0.83879899227E+02 0.  0.
         11    1    3    3    0    0 -0.18508424606E+03 -0.12894980522E+03 -0.43003901162E+02  0.22963790175E+03  0.00000000000E+00 0.  1.
        -11    1    3    3    0    0 -0.17281105135E+03 -0.12585376214E+03 -0.12821907028E+03  0.24928489504E+03  0.00000000000E+00 0. -1.
         22    1    1    2    0    0  0.35789529740E+03  0.25480356736E+03  0.50001334353E+03  0.66560291883E+03  0.00000000000E+00 0. -1.
<mgrwt>
<rscale>  0 0.10962828E+04</rscale>
<asrwt>0</asrwt>
<pdfrwt beam="1">  1        2 0.11333201E+00 0.10962828E+04</pdfrwt>
<pdfrwt beam="2">  1       -2 0.62748872E-01 0.10962828E+04</pdfrwt>
<totfact> 0.89790751E+01</totfact>
</mgrwt>
</event>
<event>
 6    1  0.1637818E-005  0.3291708E+04  0.7818608E-02  0.8165008E-01
          2   -1    0    0  501    0  0.00000000000E+00  0.00000000000E+00  0.32111522325E+04  0.32111522325E+04  0.00000000000E+00 0.  1.
         -2   -1    0    0    0  501 -0.00000000000E+00 -0.00000000000E+00 -0.84357137793E+03  0.84357137793E+03  0.00000000000E+00 0. -1.
         23    2    1    2    0    0 -0.86518559512E+03  0.61946394965E+03  0.27291340615E+04  0.29308898058E+04  0.98288498450E+02 0.  0.
         13    1    3    3    0    0 -0.72095976686E+02  0.88661558760E+02  0.29653634521E+03  0.31779318100E+03  0.00000000000E+00 0.  1.
        -13    1    3    3    0    0 -0.79308961844E+03  0.53080239089E+03  0.24325977163E+04  0.26130966248E+04  0.00000000000E+00 0. -1.
         22    1    1    2    0    0  0.86518559512E+03 -0.61946394965E+03 -0.36155320698E+03  0.11238338046E+04  0.00000000000E+00 0. -1.
<mgrwt>
<rscale>  0 0.32917084E+04</rscale>
<asrwt>0</asrwt>
<pdfrwt beam="1">  1        2 0.49402341E+00 0.32917084E+04</pdfrwt>
<pdfrwt beam="2">  1       -2 0.12978021E+00 0.32917084E+04</pdfrwt>
<totfact> 0.46437480E-01</totfact>
</mgrwt>
</event>
<event>
 6    1  0.1637818E-005  0.1512381E+04  0.7818608E-02  0.8876261E-01
          2   -1    0    0  501    0  0.00000000000E+00  0.00000000000E+00  0.91423152292E+03  0.91423152292E+03  0.00000000000E+00 0. -1.
         -2   -1    0    0    0  501 -0.00000000000E+00 -0.00000000000E+00 -0.62546928650E+03  0.62546928650E+03  0.00000000000E+00 0.  1.
         23    2    1    2    0    0 -0.41556553627E+03  0.48717792719E+03 -0.25948061820E+03  0.69672555751E+03  0.89773401387E+02 0.  0.
         11    1    3    3    0    0 -0.43421693763E+02  0.47179706621E+02  0.14406445169E+01  0.64136133831E+02  0.00000000000E+00 0. -1.
        -11    1    3    3    0    0 -0.37214384251E+03  0.43999822057E+03 -0.26092126272E+03  0.63258942368E+03  0.00000000000E+00 0.  1.
         22    1    1    2    0    0  0.41556553627E+03 -0.48717792719E+03  0.54824285462E+03  0.84297525190E+03  0.00000000000E+00 0.  1.
<mgrwt>
<rscale>  0 0.15123806E+04</rscale>
<asrwt>0</asrwt>
<pdfrwt beam="1">  1        2 0.14065100E+00 0.15123806E+04</pdfrwt>
<pdfrwt beam="2">  1       -2 0.96226044E-01 0.15123806E+04</pdfrwt>
<totfact> 0.25044785E+01</totfact>
</mgrwt>
</event>
<event>
 6    1  0.1637818E-005  0.1613897E+04  0.7818608E-02  0.8812056E-01
         -2   -1    0    0    0  501 -0.00000000000E+00  0.00000000000E+00  0.24452177819E+03  0.24452177819E+03  0.00000000000E+00 0.  1.
          2   -1    0    0  501    0  0.00000000000E+00 -0.00000000000E+00 -0.26630176537E+04  0.26630176537E+04  0.00000000000E+00 0. -1.
         23    2    1    2    0    0  0.47698909262E+03  0.28750275287E+03 -0.22586860512E+04  0.23281297259E+04  0.91372399632E+02 0.  0.
         11    1    3    3    0    0  0.15302820621E+03  0.10530869813E+03 -0.59006795826E+03  0.61861761142E+03  0.00000000000E+00 0.  1.
        -11    1    3    3    0    0  0.32396088642E+03  0.18219405474E+03 -0.16686180930E+04  0.17095121145E+04  0.00000000000E+00 0. -1.
         22    1    1    2    0    0 -0.47698909262E+03 -0.28750275287E+03 -0.15980982425E+03  0.57940970592E+03  0.00000000000E+00 0.  1.
<mgrwt>
<rscale>  0 0.16138969E+04</rscale>
<asrwt>0</asrwt>
<pdfrwt beam="1">  1        2 0.40969499E+00 0.16138969E+04</pdfrwt>
<pdfrwt beam="2">  1       -2 0.37618738E-01 0.16138969E+04</pdfrwt>
<totfact> 0.17892728E+01</totfact>
</mgrwt>
</event>
<event>
 6    1  0.1637818E-005  0.2180569E+04  0.7818608E-02  0.8526559E-01
          1   -1    0    0  501    0  0.00000000000E+00  0.00000000000E+00  0.22118725650E+04  0.22118725650E+04  0.00000000000E+00 0. -1.
         -1   -1    0    0    0  501 -0.00000000000E+00 -0.00000000000E+00 -0.53742721239E+03  0.53742721239E+03  0.00000000000E+00 0.  1.
         23    2    1    2    0    0  0.11772126433E+03 -0.10376133547E+04  0.12253758530E+04  0.16125662179E+04  0.91236264957E+02 0.  0.
         13    1    3    3    0    0  0.12694344483E+03 -0.89606482329E+03  0.10865849016E+04  0.14141122849E+04  0.00000000000E+00 0. -1.
        -13    1    3    3    0    0 -0.92221805011E+01 -0.14154853137E+03  0.13879095138E+03  0.19845393302E+03  0.00000000000E+00 0.  1.
         22    1    1    2    0    0 -0.11772126433E+03  0.10376133547E+04  0.44906949960E+03  0.11367335595E+04  0.00000000000E+00 0.  1.
<mgrwt>
<rscale>  0 0.21805692E+04</rscale>
<asrwt>0</asrwt>
<pdfrwt beam="1">  1        1 0.34028808E+00 0.21805692E+04</pdfrwt>
<pdfrwt beam="2">  1       -1 0.82681111E-01 0.21805692E+04</pdfrwt>
<totfact> 0.28380208E+00</totfact>
</mgrwt>
</event>
<event>
 6    1  0.1637818E-005  0.1353656E+04  0.7818608E-02  0.8988065E-01
          1   -1    0    0  501    0  0.00000000000E+00  0.00000000000E+00  0.14837772998E+04  0.14837772998E+04  0.00000000000E+00 0. -1.
         -1   -1    0    0    0  501 -0.00000000000E+00 -0.00000000000E+00 -0.30873652199E+03  0.30873652199E+03  0.00000000000E+00 0.  1.
         23    2    1    2    0    0 -0.26535217827E+03  0.59897781104E+03  0.79884125550E+03  0.10370588084E+04  0.90318458771E+02 0.  0.
         13    1    3    3    0    0 -0.11353183532E+03  0.35229304339E+03  0.41298246570E+03  0.55457585867E+03  0.00000000000E+00 0. -1.
        -13    1    3    3    0    0 -0.15182034294E+03  0.24668476765E+03  0.38585878981E+03  0.48248294975E+03  0.00000000000E+00 0.  1.
         22    1    1    2    0    0  0.26535217827E+03 -0.59897781104E+03  0.37619952230E+03  0.75545501336E+03  0.00000000000E+00 0. -1.
<mgrwt>
<rscale>  0 0.13536561E+04</rscale>
<asrwt>0</asrwt>
<pdfrwt beam="1">  1        1 0.22827343E+00 0.13536561E+04</pdfrwt>
<pdfrwt beam="2">  1       -1 0.47497927E-01 0.13536561E+04</pdfrwt>
<totfact> 0.29064656E+01</totfact>
</mgrwt>
</event>
<event>
 6    1  0.1637818E-005  0.1828115E+04  0.7818608E-02  0.8691490E-01
          2   -1    0    0  501    0  0.00000000000E+00  0.00000000000E+00  0.13706686745E+04  0.13706686745E+04  0.00000000000E+00 0.  1.
         -2   -1    0    0    0  501 -0.00000000000E+00 -0.00000000000E+00 -0.60955724612E+03  0.60955724612E+03  0.00000000000E+00 0. -1.
         23    2    1    2    0    0 -0.23591519647E+03  0.22513779329E+03  0.13038740749E+04  0.13470321932E+04  0.89806016644E+02 0.  0.
         11    1    3    3    0    0 -0.16073933358E+03  0.19893629359E+03  0.91379257315E+03  0.94890971594E+03  0.00000000000E+00 0. -1.
        -11    1    3    3    0    0 -0.75175862888E+02  0.26201499694E+02  0.39008150172E+03  0.39812247730E+03  0.00000000000E+00 0.  1.
         22    1    1    2    0    0  0.23591519647E+03 -0.22513779329E+03 -0.54276264651E+03  0.63319372734E+03  0.00000000000E+00 0. -1.
<mgrwt>
<rscale>  0 0.18281149E+04</rscale>
<asrwt>0</asrwt>
<pdfrwt beam="1">  1        2 0.21087210E+00 0.18281149E+04</pdfrwt>
<pdfrwt beam="2">  1       -2 0.93778038E-01 0.18281149E+04</pdfrwt>
<totfact> 0.13613419E+01</totfact>
</mgrwt>
</event>
<event>
 6    1  0.1637818E-005  0.9118919E+03  0.7818608E-02  0.9410837E-01
          1   -1    0    0  501    0  0.00000000000E+00  0.00000000000E+00  0.39657695319E+03  0.39657695319E+03  0.00000000000E+00 0. -1.
         -1   -1    0    0    0  501 -0.00000000000E+00 -0.00000000000E+00 -0.52420266603E+03  0.52420266603E+03  0.00000000000E+00 0.  1.
         23    2    1    2    0    0 -0.36801040732E+03 -0.46702068355E+02 -0.32327896054E+03  0.50138370076E+03  0.96247524544E+02 0.  0.
         13    1    3    3    0    0 -0.19240351107E+03 -0.68932333202E+02 -0.14854103553E+03  0.25265632165E+03  0.00000000000E+00 0. -1.
        -13    1    3    3    0    0 -0.17560689625E+03  0.22230264847E+02 -0.17473792500E+03  0.24872737911E+03  0.00000000000E+00 0.  1.
         22    1    1    2    0    0  0.36801040732E+03  0.46702068355E+02  0.19565324769E+03  0.41939591846E+03  0.00000000000E+00 0. -1.
<mgrwt>
<rscale>  0 0.91189187E+03</rscale>
<asrwt>0</asrwt>
<pdfrwt beam="1">  1        1 0.61011839E-01 0.91189187E+03</pdfrwt>
<pdfrwt beam="2">  1       -1 0.80646563E-01 0.91189187E+03</pdfrwt>
<totfact> 0.93794073E+01</totfact>
</mgrwt>
</event>
<event>
 6    1  0.1637818E-005  0.3796613E+04  0.7818608E-02  0.8046882E-01
         -2   -1    0    0    0  501 -0.00000000000E+00  0.00000000000E+00  0.14525305684E+04  0.14525305684E+04  0.00000000000E+00 0.  1.
          2   -1    0    0  501    0  0.00000000000E+00 -0.00000000000E+00 -0.24808897461E+04  0.24808897461E+04  0.00000000000E+00 0. -1.
         23    2    1    2    0    0  0.51610268501E+03  0.77525031126E+03  0.11979778465E+04  0.15201338476E+04  0.90999820350E+02 0.  0.
         11    1    3    3    0    0  0.32310542255E+03  0.53001924462E+03  0.73894269660E+03  0.96506674516E+03  0.00000000000E+00 0.  1.
        -11    1    3    3    0    0  0.19299726246E+03  0.24523106664E+03  0.45903514987E+03  0.55506710241E+03  0.00000000000E+00 0. -1.
         22    1    1    2    0    0 -0.51610268501E+03 -0.77525031126E+03 -0.22263370242E+04  0.24132864670E+04  0.00000000000E+00 0. -1.
<mgrwt>
<rscale>  0 0.37966133E+04</rscale>
<asrwt>0</asrwt>
<pdfrwt beam="1">  1        2 0.38167534E+00 0.37966133E+04</pdfrwt>
<pdfrwt beam="2">  1       -2 0.22346624E+00 0.37966133E+04</pdfrwt>
<totfact> 0.26913531E-01</totfact>
</mgrwt>
</event>
<event>
 6    1  0.1637818E-005  0.1810354E+04  0.7818608E-02  0.8700813E-01
          2   -1    0    0  501    0  0.00000000000E+00  0.00000000000E+00  0.13290389014E+04  0.13290389014E+04  0.00000000000E+00 0. -1.
         -2   -1    0    0    0  501 -0.00000000000E+00 -0.00000000000E+00 -0.61649451575E+03  0.61649451575E+03  0.00000000000E+00 0.  1.
         23    2    1    2    0    0 -0.24476444510E+03 -0.69914421156E+03 -0.19758757258E+03  0.77205463866E+03  0.91188015107E+02 0.  0.
         11    1    3    3    0    0 -0.26936546403E+02 -0.17855991740E+03 -0.68671914898E+02  0.19319692940E+03  0.00000000000E+00 0.  1.
        -11    1    3    3    0    0 -0.21782789870E+03 -0.52058429416E+03 -0.12891565769E+03  0.57885770927E+03  0.00000000000E+00 0. -1.
         22    1    1    2    0    0  0.24476444510E+03  0.69914421156E+03  0.91013195820E+03  0.11734787785E+04  0.00000000000E+00 0. -1.
<mgrwt>
<rscale>  0 0.18103538E+04</rscale>
<asrwt>0</asrwt>
<pdfrwt beam="1">  1        2 0.20446752E+00 0.18103538E+04</pdfrwt>
<pdfrwt beam="2">  1       -2 0.94845310E-01 0.18103538E+04</pdfrwt>
<totfact> 0.14034037E+01</totfact>
</mgrwt>
</event>
<event>
 6    1  0.1637818E-005  0.8671425E+03  0.7818608E-02  0.9467613E-01
         -2   -1    0    0    0  501 -0.00000000000E+00  0.00000000000E+00  0.23032245992E+03  0.23032245992E+03  0.00000000000E+00 0.  1.
          2   -1    0    0  501    0  0.00000000000E+00 -0.00000000000E+00 -0.81617765531E+03  0.81617765531E+03  0.00000000000E+00 0. -1.
         23    2    1    2    0    0 -0.23060029385E+03 -0.24554266717E+03 -0.61634570237E+03  0.70827331568E+03  0.91111843109E+02 0.  0.
         11    1    3    3    0    0 -0.14111842427E+03 -0.20925778780E+03 -0.44527300661E+03  0.51183130212E+03  0.00000000000E+00 0. -1.
        -11    1    3    3    0    0 -0.89481869587E+02 -0.36284879369E+02 -0.17107269576E+03  0.19644201356E+03  0.00000000000E+00 0.  1.
         22    1    1    2    0    0  0.23060029385E+03  0.24554266717E+03  0.30490506975E+02  0.33822679956E+03  0.00000000000E+00 0.  1.
<mgrwt>
<rscale>  0 0.86714254E+03</rscale>
<asrwt>0</asrwt>
<pdfrwt beam="1">  1        2 0.12556579E+00 0.86714254E+03</pdfrwt>
<pdfrwt beam="2">  1       -2 0.35434225E-01 0.86714254E+03</pdfrwt>
<totfact> 0.25165195E+02</totfact>
</mgrwt>
</event>
<event>
 6    1  0.1637818E-005  0.2340439E+04  0.7818608E-02  0.8462145E-01
          2   -1    0    0  501    0  0.00000000000E+00  0.00000000000E+00  0.10392631984E+04  0.10392631984E+04  0.00000000000E+00 0. -1.
         -2   -1    0    0    0  501 -0.00000000000E+00 -0.00000000000E+00 -0.13176772789E+04  0.13176772789E+04  0.00000000000E+00 0.  1.
         23    2    1    2    0    0 -0.35662903266E+03 -0.43664087436E+03 -0.11695680218E+04  0.13024288049E+04  0.10291702590E+03 0.  0.
         13    1    3    3    0    0 -0.18455207319E+03 -0.19321005983E+03 -0.44679593177E+03  0.52059216243E+03  0.00000000000E+00 0.  1.
        -13    1    3    3    0    0 -0.17207695947E+03 -0.24343081453E+03 -0.72277209000E+03  0.78183664248E+03  0.00000000000E+00 0. -1.
         22    1    1    2    0    0  0.35662903266E+03  0.43664087436E+03  0.89115394132E+03  0.10545116724E+04  0.00000000000E+00 0. -1.
<mgrwt>
<rscale>  0 0.23404389E+04</rscale>
<asrwt>0</asrwt>
<pdfrwt beam="1">  1        2 0.15988665E+00 0.23404389E+04</pdfrwt>
<pdfrwt beam="2">  1       -2 0.20271958E+00 0.23404389E+04</pdfrwt>
<totfact> 0.27421475E+00</totfact>
</mgrwt>
</event>
<event>
 6    1  0.1637818E-005  0.8777827E+03  0.7818608E-02  0.9453788E-01
          1   -1    0    0  501    0  0.00000000000E+00  0.00000000000E+00  0.17524757408E+04  0.17524757408E+04  0.00000000000E+00 0. -1.
         -1   -1    0    0    0  501 -0.00000000000E+00 -0.00000000000E+00 -0.10991628437E+03  0.10991628437E+03  0.00000000000E+00 0.  1.
         23    2    1    2    0    0  0.86660893508E+02 -0.42376556428E+03  0.73895875916E+03  0.86060283376E+03  0.86543779703E+02 0.  0.
         11    1    3    3    0    0  0.52759492547E+02 -0.19182335961E+03  0.26022405098E+03  0.32756117300E+03  0.00000000000E+00 0. -1.
        -11    1    3    3    0    0  0.33901400961E+02 -0.23194220466E+03  0.47873470818E+03  0.53304166076E+03  0.00000000000E+00 0.  1.
         22    1    1    2    0    0 -0.86660893508E+02  0.42376556428E+03  0.90360069727E+03  0.10017891914E+04  0.00000000000E+00 0. -1.
<mgrwt>
<rscale>  0 0.87778271E+03</rscale>
<asrwt>0</asrwt>
<pdfrwt beam="1">  1        1 0.26961163E+00 0.87778271E+03</pdfrwt>
<pdfrwt beam="2">  1       -1 0.16910199E-01 0.87778271E+03</pdfrwt>
<totfact> 0.12026338E+02</totfact>
</mgrwt>
</event>
<event>
 6    1  0.1637818E-005  0.3010000E+04  0.7818608E-02  0.8240881E-01
         -2   -1    0    0    0  501 -0.00000000000E+00  0.00000000000E+00  0.94638139550E+03  0.94638139550E+03  0.00000000000E+00 0.  1.
          2   -1    0    0  501    0  0.00000000000E+00 -0.00000000000E+00 -0.23933524867E+04  0.23933524867E+04  0.00000000000E+00 0. -1.
         23    2    1    2    0    0 -0.29983157121E+03  0.13766968276E+04 -0.13068833808E+04  0.19238180327E+04  0.89098403562E+02 0.  0.
         11    1    3    3    0    0 -0.12267957294E+03  0.76669679870E+03 -0.70580573679E+03  0.10493026241E+04  0.00000000000E+00 0. -1.
        -11    1    3    3    0    0 -0.17715199827E+03  0.61000002892E+03 -0.60107764404E+03  0.87451540863E+03  0.00000000000E+00 0.  1.
         22    1    1    2    0    0  0.29983157121E+03 -0.13766968276E+04 -0.14008771035E+03  0.14159158495E+04  0.00000000000E+00 0. -1.
<mgrwt>
<rscale>  0 0.30099995E+04</rscale>
<asrwt>0</asrwt>
<pdfrwt beam="1">  1        2 0.36820808E+00 0.30099995E+04</pdfrwt>
<pdfrwt beam="2">  1       -2 0.14559714E+00 0.30099995E+04</pdfrwt>
<totfact> 0.11117870E+00</totfact>
</mgrwt>
</event>
<event>
 6    1  0.1637818E-005  0.5908448E+03  0.7818608E-02  0.9924584E-01
          2   -1    0    0  501    0  0.00000000000E+00  0.00000000000E+00  0.97698753569E+03  0.97698753569E+03  0.00000000000E+00 0. -1.
         -2   -1    0    0    0  501 -0.00000000000E+00 -0.00000000000E+00 -0.89330096354E+02  0.89330096354E+02  0.00000000000E+00 0.  1.
         23    2    1    2    0    0  0.30855557535E+02 -0.18224884174E+03  0.85389182757E+03  0.87841653497E+03  0.91201151202E+02 0.  0.
         13    1    3    3    0    0 -0.91375731988E+01 -0.11160091344E+03  0.63828332525E+03  0.64803075731E+03  0.00000000000E+00 0.  1.
        -13    1    3    3    0    0  0.39993130734E+02 -0.70647928292E+02  0.21560850231E+03  0.23038577766E+03  0.00000000000E+00 0. -1.
         22    1    1    2    0    0 -0.30855557535E+02  0.18224884174E+03  0.33765611774E+02  0.18790109708E+03  0.00000000000E+00 0.  1.
<mgrwt>
<rscale>  0 0.59084479E+03</rscale>
<asrwt>0</asrwt>
<pdfrwt beam="1">  1        2 0.15030577E+00 0.59084479E+03</pdfrwt>
<pdfrwt beam="2">  1       -2 0.13743092E-01 0.59084479E+03</pdfrwt>
<totfact> 0.10664748E+03</totfact>
</mgrwt>
</event>
<event>
 6    1  0.1637818E-005  0.1084963E+04  0.7818608E-02  0.9219973E-01
          1   -1    0    0  501    0  0.00000000000E+00  0.00000000000E+00  0.55911832548E+03  0.55911832548E+03  0.00000000000E+00 0. -1.
         -1   -1    0    0    0  501 -0.00000000000E+00 -0.00000000000E+00 -0.52634015478E+03  0.52634015478E+03  0.00000000000E+00 0.  1.
         23    2    1    2    0    0  0.33103727078E+03  0.22606779896E+03 -0.34331237167E+03  0.53578910652E+03  0.92272735694E+02 0.  0.
         13    1    3    3    0    0  0.17974379619E+03  0.17679142404E+03 -0.21660479821E+03  0.33238633921E+03  0.00000000000E+00 0. -1.
        -13    1    3    3    0    0  0.15129347459E+03  0.49276374920E+02 -0.12670757345E+03  0.20340276731E+03  0.00000000000E+00 0.  1.
         22    1    1    2    0    0 -0.33103727078E+03 -0.22606779896E+03  0.37609054237E+03  0.54966937375E+03  0.00000000000E+00 0. -1.
<mgrwt>
<rscale>  0 0.10849635E+04</rscale>
<asrwt>0</asrwt>
<pdfrwt beam="1">  1        1 0.86018204E-01 0.10849635E+04</pdfrwt>
<pdfrwt beam="2">  1       -1 0.80975408E-01 0.10849635E+04</pdfrwt>
<totfact> 0.57489768E+01</totfact>
</mgrwt>
</event>
<event>
 6    1  0.1637818E-005  0.1304228E+04  0.7818608E-02  0.9026219E-01
         -2   -1    0    0    0  501 -0.00000000000E+00  0.00000000000E+00  0.15886907377E+03  0.15886907377E+03  0.00000000000E+00 0.  1.
          2   -1    0    0  501    0  0.00000000000E+00 -0.00000000000E+00 -0.26767503462E+04  0.26767503462E+04  0.00000000000E+00 0. -1.
         23    2    1    2    0    0 -0.35896284361E+03  0.11826117624E+03 -0.24117897738E+04  0.24430695059E+04  0.94966673677E+02 0.  0.
         13    1    3    3    0    0 -0.11383349501E+03  0.91084086492E+01 -0.52360972538E+03  0.53591806483E+03  0.00000000000E+00 0. -1.
        -13    1    3    3    0    0 -0.24512934860E+03  0.10915276760E+03 -0.18881800484E+04  0.19071514411E+04  0.00000000000E+00 0.  1.
         22    1    1    2    0    0  0.35896284361E+03 -0.11826117624E+03 -0.10609149863E+03  0.39254991400E+03  0.00000000000E+00 0.  1.
<mgrwt>
<rscale>  0 0.13042283E+04</rscale>
<asrwt>0</asrwt>
<pdfrwt beam="1">  1        2 0.41180772E+00 0.13042283E+04</pdfrwt>
<pdfrwt beam="2">  1       -2 0.24441397E-01 0.13042283E+04</pdfrwt>
<totfact> 0.40421880E+01</totfact>
</mgrwt>
</event>
<event>
 6    1  0.1637818E-005  0.1202697E+04  0.7818608E-02  0.9110499E-01
         -1   -1    0    0    0  501 -0.00000000000E+00  0.00000000000E+00  0.29469601954E+03  0.29469601954E+03  0.00000000000E+00 0.  1.
          1   -1    0    0  501    0  0.00000000000E+00 -0.00000000000E+00 -0.12270951986E+04  0.12270951986E+04  0.00000000000E+00 0. -1.
         23    2    1    2    0    0  0.11249859538E+03 -0.24503271795E+03  0.20544602848E+03  0.35243725841E+03  0.96472709476E+02 0.  0.
         13    1    3    3    0    0 -0.41591233212E+01 -0.50962838975E+02  0.74983005129E+01  0.51679142541E+02  0.00000000000E+00 0. -1.
        -13    1    3    3    0    0  0.11665771870E+03 -0.19406987897E+03  0.19794772796E+03  0.30075811587E+03  0.00000000000E+00 0.  1.
         22    1    1    2    0    0 -0.11249859538E+03  0.24503271795E+03 -0.11378452075E+04  0.11693539597E+04  0.00000000000E+00 0. -1.
<mgrwt>
<rscale>  0 0.12026971E+04</rscale>
<asrwt>0</asrwt>
<pdfrwt beam="1">  1        1 0.18878388E+00 0.12026971E+04</pdfrwt>
<pdfrwt beam="2">  1       -1 0.45337849E-01 0.12026971E+04</pdfrwt>
<totfact> 0.48772486E+01</totfact>
</mgrwt>
</event>
<event>
 6    1  0.1637818E-005  0.3323755E+04  0.7818608E-02  0.8156877E-01
          1   -1    0    0  501    0  0.00000000000E+00  0.00000000000E+00  0.12868957665E+04  0.12868957665E+04  0.00000000000E+00 0. -1.
         -1   -1    0    0    0  501 -0.00000000000E+00 -0.00000000000E+00 -0.21461226912E+04  0.21461226912E+04  0.00000000000E+00 0.  1.
         23    2    1    2    0    0  0.13411688359E+04 -0.29259802922E+03 -0.13953113521E+04  0.19593380424E+04  0.88115503566E+02 0.  0.
         11    1    3    3    0    0  0.40303178079E+03 -0.11115573545E+03 -0.37758724821E+03  0.56334922017E+03  0.00000000000E+00 0. -1.
        -11    1    3    3    0    0  0.93813705510E+03 -0.18144229377E+03 -0.10177241039E+04  0.13959888222E+04  0.00000000000E+00 0.  1.
         22    1    1    2    0    0 -0.13411688359E+04  0.29259802922E+03  0.53608442742E+03  0.14736804153E+04  0.00000000000E+00 0. -1.
<mgrwt>
<rscale>  0 0.33237546E+04</rscale>
<asrwt>0</asrwt>
<pdfrwt beam="1">  1        1 0.19798397E+00 0.33237546E+04</pdfrwt>
<pdfrwt beam="2">  1       -1 0.33017272E+00 0.33237546E+04</pdfrwt>
<totfact> 0.16064210E-01</totfact>
</mgrwt>
</event>
<event>
 6    1  0.1637818E-005  0.3387920E+04  0.7818608E-02  0.8140877E-01
         -1   -1    0    0    0  501 -0.00000000000E+00  0.00000000000E+00  0.93339058843E+03  0.93339058843E+03  0.00000000000E+00 0.  1.
          1   -1    0    0  501    0  0.00000000000E+00 -0.00000000000E+00 -0.30742764017E+04  0.30742764017E+04  0.00000000000E+00 0. -1.
         23    2    1    2    0    0 -0.15387025133E+03  0.71627674217E+03 -0.28763519425E+04  0.29695731347E+04  0.90750646516E+02 0.  0.
         13    1    3    3    0    0 -0.88603924480E+02  0.57830051276E+03 -0.22342214566E+04  0.23095513971E+04  0.00000000000E+00 0.  1.
        -13    1    3    3    0    0 -0.65266326846E+02  0.13797622941E+03 -0.64213048587E+03  0.66002173766E+03  0.00000000000E+00 0. -1.
         22    1    1    2    0    0  0.15387025133E+03 -0.71627674217E+03  0.73546612915E+03  0.10380938555E+04  0.00000000000E+00 0.  1.
<mgrwt>
<rscale>  0 0.33879201E+04</rscale>
<asrwt>0</asrwt>
<pdfrwt beam="1">  1        1 0.47296560E+00 0.33879201E+04</pdfrwt>
<pdfrwt beam="2">  1       -1 0.14359855E+00 0.33879201E+04</pdfrwt>
<totfact> 0.17007563E-01</totfact>
</mgrwt>
</event>
<event>
 6    1  0.1637818E-005  0.9633939E+03  0.7818608E-02  0.9349631E-01
         -1   -1    0    0    0  501 -0.00000000000E+00  0.00000000000E+00  0.61183918999E+03  0.61183918999E+03  0.00000000000E+00 0.  1.
          1   -1    0    0  501    0  0.00000000000E+00 -0.00000000000E+00 -0.37923679729E+03  0.37923679729E+03  0.00000000000E+00 0. -1.
         23    2    1    2    0    0 -0.18335804309E+01 -0.86701307776E+02  0.60039109664E+03  0.61320165692E+03  0.89589755750E+02 0.  0.
         13    1    3    3    0    0  0.29367132585E+01 -0.73101184647E+02  0.20702747109E+03  0.21957409061E+03  0.00000000000E+00 0. -1.
        -13    1    3    3    0    0 -0.47702936894E+01 -0.13600123129E+02  0.39336362556E+03  0.39362756632E+03  0.00000000000E+00 0.  1.
         22    1    1    2    0    0  0.18335804309E+01  0.86701307776E+02 -0.36778870395E+03  0.37787433035E+03  0.00000000000E+00 0. -1.
<mgrwt>
<rscale>  0 0.96339387E+03</rscale>
<asrwt>0</asrwt>
<pdfrwt beam="1">  1        1 0.58344123E-01 0.96339387E+03</pdfrwt>
<pdfrwt beam="2">  1       -1 0.94129106E-01 0.96339387E+03</pdfrwt>
<totfact> 0.70778858E+01</totfact>
</mgrwt>
</event>
<event>
 6    1  0.1637818E-005  0.2170249E+04  0.7818608E-02  0.8530914E-01
          2   -1    0    0  501    0  0.00000000000E+00  0.00000000000E+00  0.18004707639E+04  0.18004707639E+04  0.00000000000E+00 0. -1.
         -2   -1    0    0    0  501 -0.00000000000E+00 -0.00000000000E+00 -0.65399293873E+03  0.65399293873E+03  0.00000000000E+00 0.  1.
         23    2    1    2    0    0 -0.22659494929E+03 -0.18894407139E+03 -0.60450824228E+03  0.67879556315E+03  0.91038829136E+02 0.  0.
         11    1    3    3    0    0 -0.16100613833E+03 -0.17147271763E+03 -0.40864544327E+03  0.47150500292E+03  0.00000000000E+00 0. -1.
        -11    1    3    3    0    0 -0.65588810956E+02 -0.17471353759E+02 -0.19586279901E+03  0.20729056023E+03  0.00000000000E+00 0.  1.
         22    1    1    2    0    0  0.22659494929E+03  0.18894407139E+03  0.17509860675E+04  0.17756681395E+04  0.00000000000E+00 0. -1.
<mgrwt>
<rscale>  0 0.21702490E+04</rscale>
<asrwt>0</asrwt>
<pdfrwt beam="1">  1        2 0.27699550E+00 0.21702490E+04</pdfrwt>
<pdfrwt beam="2">  1       -2 0.10061430E+00 0.21702490E+04</pdfrwt>
<totfact> 0.64324920E+00</totfact>
</mgrwt>
</event>
<event>
 6    1  0.1637818E-005  0.2574556E+04  0.7818608E-02  0.8376896E-01
          2   -1    0    0  501    0  0.00000000000E+00  0.00000000000E+00  0.33823011270E+04  0.33823011270E+04  0.00000000000E+00 0. -1.
         -2   -1    0    0    0  501 -0.00000000000E+00 -0.00000000000E+00 -0.48992819803E+03  0.48992819803E+03  0.00000000000E+00 0.  1.
         23    2    1    2    0    0 -0.90763523982E+03 -0.60148875027E+03  0.41966442943E+03  0.11704007278E+04  0.90161992951E+02 0.  0.
         13    1    3    3    0    0 -0.43177654640E+03 -0.25301643148E+03  0.23067728999E+03  0.55105382018E+03  0.00000000000E+00 0. -1.
        -13    1    3    3    0    0 -0.47585869342E+03 -0.34847231879E+03  0.18898713944E+03  0.61934690758E+03  0.00000000000E+00 0.  1.
         22    1    1    2    0    0  0.90763523982E+03  0.60148875027E+03  0.24727084995E+04  0.27018285972E+04  0.00000000000E+00 0. -1.
<mgrwt>
<rscale>  0 0.25745560E+04</rscale>
<asrwt>0</asrwt>
<pdfrwt beam="1">  1        2 0.52035400E+00 0.25745560E+04</pdfrwt>
<pdfrwt beam="2">  1       -2 0.75373571E-01 0.25745560E+04</pdfrwt>
<totfact> 0.13730887E+00</totfact>
</mgrwt>
</event>
<event>
 6    1  0.1637818E-005  0.1954992E+04  0.7818608E-02  0.8627957E-01
          2   -1    0    0  501    0  0.00000000000E+00  0.00000000000E+00  0.19229155722E+04  0.19229155722E+04  0.00000000000E+00 0. -1.
         -2   -1    0    0    0  501 -0.00000000000E+00 -0.00000000000E+00 -0.49690111389E+03  0.49690111389E+03  0.00000000000E+00 0.  1.
         23    2    1    2    0    0  0.27689270278E+02 -0.79296110714E+03  0.14166437125E+04  0.16263169546E+04  0.92051156047E+02 0.  0.
         13    1    3    3    0    0 -0.63747553675E+01 -0.67733678714E+03  0.12286413959E+04  0.14029916039E+04  0.00000000000E+00 0. -1.
        -13    1    3    3    0    0  0.34064025646E+02 -0.11562432000E+03  0.18800231658E+03  0.22332535069E+03  0.00000000000E+00 0.  1.
         22    1    1    2    0    0 -0.27689270278E+02  0.79296110714E+03  0.93707458308E+01  0.79349973157E+03  0.00000000000E+00 0.  1.
<mgrwt>
<rscale>  0 0.19549925E+04</rscale>
<asrwt>0</asrwt>
<pdfrwt beam="1">  1        2 0.29583316E+00 0.19549925E+04</pdfrwt>
<pdfrwt beam="2">  1       -2 0.76446326E-01 0.19549925E+04</pdfrwt>
<totfact> 0.10521990E+01</totfact>
</mgrwt>
</event>
<event>
 6    1  0.2677188E-005  0.3977947E+04  0.7818608E-02  0.8009010E-01
          1   -1    0    0  501    0  0.00000000000E+00  0.00000000000E+00  0.21478579659E+04  0.21478579659E+04  0.00000000000E+00 0. -1.
         -1   -1    0    0    0  501 -0.00000000000E+00 -0.00000000000E+00 -0.18418419650E+04  0.18418419650E+04  0.00000000000E+00 0.  1.
         23    2    1    2    0    0  0.11806888287E+04  0.11845575862E+04 -0.92525381615E+03  0.19128686553E+04  0.75954478698E+02 0.  0.
         13    1    3    3    0    0  0.71788728370E+03  0.74415754000E+03 -0.60921572471E+03  0.12001151593E+04  0.00000000000E+00 0.  1.
        -13    1    3    3    0    0  0.46280154497E+03  0.44040004622E+03 -0.31603809144E+03  0.71275349594E+03  0.00000000000E+00 0. -1.
         22    1    1    2    0    0 -0.11806888287E+04 -0.11845575862E+04  0.12312698170E+04  0.20768312756E+04  0.00000000000E+00 0.  1.
<mgrwt>
<rscale>  0 0.39779467E+04</rscale>
<asrwt>0</asrwt>
<pdfrwt beam="1">  1        1 0.33043969E+00 0.39779467E+04</pdfrwt>
<pdfrwt beam="2">  1       -1 0.28336030E+00 0.39779467E+04</pdfrwt>
<totfact> 0.78478483E-02</totfact>
</mgrwt>
</event>
<event>
 6    1  0.1637818E-005  0.5556882E+04  0.7818608E-02  0.7747910E-01
         -2   -1    0    0    0  501 -0.00000000000E+00  0.00000000000E+00  0.18984105271E+04  0.18984105271E+04  0.00000000000E+00 0.  1.
          2   -1    0    0  501    0  0.00000000000E+00 -0.00000000000E+00 -0.40664199830E+04  0.40664199830E+04  0.00000000000E+00 0. -1.
         23    2    1    2    0    0  0.19260605643E+02  0.18251248695E+04  0.11632188334E+04  0.21663395366E+04  0.92180113961E+02 0.  0.
         13    1    3    3    0    0  0.31441860862E+02  0.72715781506E+03  0.41842220082E+03  0.83953809726E+03  0.00000000000E+00 0. -1.
        -13    1    3    3    0    0 -0.12181255220E+02  0.10979670544E+04  0.74479663255E+03  0.13268014393E+04  0.00000000000E+00 0.  1.
         22    1    1    2    0    0 -0.19260605643E+02 -0.18251248695E+04 -0.33312282893E+04  0.37984909735E+04  0.00000000000E+00 0. -1.
<mgrwt>
<rscale>  0 0.55568820E+04</rscale>
<asrwt>0</asrwt>
<pdfrwt beam="1">  1        2 0.62560307E+00 0.55568820E+04</pdfrwt>
<pdfrwt beam="2">  1       -2 0.29206316E+00 0.55568820E+04</pdfrwt>
<totfact> 0.74311911E-03</totfact>
</mgrwt>
</event>
<event>
 6    1  0.1637818E-005  0.2512442E+04  0.7818608E-02  0.8398567E-01
         -2   -1    0    0    0  501 -0.00000000000E+00  0.00000000000E+00  0.13184413316E+04  0.13184413316E+04  0.00000000000E+00 0.  1.
          2   -1    0    0  501    0  0.00000000000E+00 -0.00000000000E+00 -0.11969366430E+04  0.11969366430E+04  0.00000000000E+00 0. -1.
         23    2    1    2    0    0 -0.75571423703E+03  0.21439534289E+01 -0.94178194597E+03  0.12108906915E+04  0.90523081887E+02 0.  0.
         11    1    3    3    0    0 -0.38136158702E+03  0.44121204820E+01 -0.54701797516E+03  0.66684690297E+03  0.00000000000E+00 0.  1.
        -11    1    3    3    0    0 -0.37435265001E+03 -0.22681670530E+01 -0.39476397081E+03  0.54404378850E+03  0.00000000000E+00 0. -1.
         22    1    1    2    0    0  0.75571423703E+03 -0.21439534289E+01  0.10632866346E+04  0.13044872831E+04  0.00000000000E+00 0.  1.
<mgrwt>
<rscale>  0 0.25124416E+04</rscale>
<asrwt>0</asrwt>
<pdfrwt beam="1">  1        2 0.18414410E+00 0.25124416E+04</pdfrwt>
<pdfrwt beam="2">  1       -2 0.20283713E+00 0.25124416E+04</pdfrwt>
<totfact> 0.21594613E+00</totfact>
</mgrwt>
</event>
<event>
 6    1  0.1637818E-005  0.3955307E+04  0.7818608E-02  0.8013624E-01
          2   -1    0    0  501    0  0.00000000000E+00  0.00000000000E+00  0.37214877377E+04  0.37214877377E+04  0.00000000000E+00 0. -1.
         -2   -1    0    0    0  501 -0.00000000000E+00 -0.00000000000E+00 -0.10509542232E+04  0.10509542232E+04  0.00000000000E+00 0.  1.
         23    2    1    2    0    0  0.14381616484E+04  0.12108800741E+04  0.59974900203E+03  0.19755351019E+04  0.92198657640E+02 0.  0.
         11    1    3    3    0    0  0.39082375736E+03  0.32552439007E+03  0.11967990391E+03  0.52252523121E+03  0.00000000000E+00 0.  1.
        -11    1    3    3    0    0  0.10473378911E+04  0.88535568406E+03  0.48006909812E+03  0.14530098707E+04  0.00000000000E+00 0. -1.
         22    1    1    2    0    0 -0.14381616484E+04 -0.12108800741E+04  0.20707845124E+04  0.27969068590E+04  0.00000000000E+00 0. -1.
<mgrwt>
<rscale>  0 0.39553069E+04</rscale>
<asrwt>0</asrwt>
<pdfrwt beam="1">  1        2 0.57253657E+00 0.39553069E+04</pdfrwt>
<pdfrwt beam="2">  1       -2 0.16168527E+00 0.39553069E+04</pdfrwt>
<totfact> 0.10877254E-01</totfact>
</mgrwt>
</event>
<event>
 6    1  0.1637818E-005  0.3285750E+04  0.7818608E-02  0.8166531E-01
         -2   -1    0    0    0  501 -0.00000000000E+00  0.00000000000E+00  0.12198602759E+04  0.12198602759E+04  0.00000000000E+00 0.  1.
          2   -1    0    0  501    0  0.00000000000E+00 -0.00000000000E+00 -0.22125795881E+04  0.22125795881E+04  0.00000000000E+00 0. -1.
         23    2    1    2    0    0  0.78367762291E+03 -0.93831253867E+03  0.64755472598E+03  0.13866930670E+04  0.94918397047E+02 0.  0.
         11    1    3    3    0    0  0.45194553792E+03 -0.59931380364E+03  0.42755149085E+03  0.86384725606E+03  0.00000000000E+00 0.  1.
        -11    1    3    3    0    0  0.33173208499E+03 -0.33899873503E+03  0.22000323512E+03  0.52284581095E+03  0.00000000000E+00 0. -1.
         22    1    1    2    0    0 -0.78367762291E+03  0.93831253867E+03 -0.16402740382E+04  0.20457467970E+04  0.00000000000E+00 0. -1.
<mgrwt>
<rscale>  0 0.32857498E+04</rscale>
<asrwt>0</asrwt>
<pdfrwt beam="1">  1        2 0.34039686E+00 0.32857498E+04</pdfrwt>
<pdfrwt beam="2">  1       -2 0.18767081E+00 0.32857498E+04</pdfrwt>
<totfact> 0.68267376E-01</totfact>
</mgrwt>
</event>
<event>
 6    1  0.1637818E-005  0.1512451E+04  0.7818608E-02  0.8876215E-01
         -2   -1    0    0    0  501 -0.00000000000E+00  0.00000000000E+00  0.29901436629E+03  0.29901436629E+03  0.00000000000E+00 0. -1.
          2   -1    0    0  501    0  0.00000000000E+00 -0.00000000000E+00 -0.19125407511E+04  0.19125407511E+04  0.00000000000E+00 0.  1.
         23    2    1    2    0    0  0.46988231154E+03  0.58590495582E+03 -0.71849819226E+03  0.10431590076E+04  0.88696442145E+02 0.  0.
         13    1    3    3    0    0  0.15529080159E+03  0.16770624184E+03 -0.16835827727E+03  0.28387519464E+03  0.00000000000E+00 0. -1.
        -13    1    3    3    0    0  0.31459150995E+03  0.41819871398E+03 -0.55013991500E+03  0.75928381293E+03  0.00000000000E+00 0.  1.
         22    1    1    2    0    0 -0.46988231154E+03 -0.58590495582E+03 -0.89502819252E+03  0.11683961098E+04  0.00000000000E+00 0.  1.
<mgrwt>
<rscale>  0 0.15124512E+04</rscale>
<asrwt>0</asrwt>
<pdfrwt beam="1">  1        2 0.29423704E+00 0.15124512E+04</pdfrwt>
<pdfrwt beam="2">  1       -2 0.46002210E-01 0.15124512E+04</pdfrwt>
<totfact> 0.32325122E+01</totfact>
</mgrwt>
</event>
<event>
 6    1  0.1637818E-005  0.1120040E+04  0.7818608E-02  0.9185877E-01
         -2   -1    0    0    0  501 -0.00000000000E+00  0.00000000000E+00  0.37182019174E+03  0.37182019174E+03  0.00000000000E+00 0.  1.
          2   -1    0    0  501    0  0.00000000000E+00 -0.00000000000E+00 -0.84347809974E+03  0.84347809974E+03  0.00000000000E+00 0. -1.
         23    2    1    2    0    0  0.45106624323E+03 -0.29307889511E+03 -0.85719603225E+02  0.55325269665E+03  0.96874668685E+02 0.  0.
         11    1    3    3    0    0  0.22817484978E+03 -0.11447729880E+03 -0.80183773516E+02  0.26757849605E+03  0.00000000000E+00 0.  1.
        -11    1    3    3    0    0  0.22289139345E+03 -0.17860159631E+03 -0.55358297088E+01  0.28567420060E+03  0.00000000000E+00 0. -1.
         22    1    1    2    0    0 -0.45106624323E+03  0.29307889511E+03 -0.38593830478E+03  0.66204559483E+03  0.00000000000E+00 0. -1.
<mgrwt>
<rscale>  0 0.11200396E+04</rscale>
<asrwt>0</asrwt>
<pdfrwt beam="1">  1        2 0.12976586E+00 0.11200396E+04</pdfrwt>
<pdfrwt beam="2">  1       -2 0.57203107E-01 0.11200396E+04</pdfrwt>
<totfact> 0.91116186E+01</totfact>
</mgrwt>
</event>
<event>
 6    1  0.1637818E-005  0.7640665E+03  0.7818608E-02  0.9613537E-01
          2   -1    0    0  501    0  0.00000000000E+00  0.00000000000E+00  0.14743925790E+04  0.14743925790E+04  0.00000000000E+00 0.  1.
         -2   -1    0    0    0  501 -0.00000000000E+00 -0.00000000000E+00 -0.98989509892E+02  0.98989509892E+02  0.00000000000E+00 0. -1.
         23    2    1    2    0    0 -0.26923256419E+03  0.92808782210E+02  0.18978525849E+03  0.35404241655E+03  0.90708018976E+02 0.  0.
         11    1    3    3    0    0 -0.85730791640E+02  0.67408813178E+02  0.41260144415E+02  0.11660238525E+03  0.00000000000E+00 0. -1.
        -11    1    3    3    0    0 -0.18350177255E+03  0.25399969032E+02  0.14852511407E+03  0.23744003130E+03  0.00000000000E+00 0.  1.
         22    1    1    2    0    0  0.26923256419E+03 -0.92808782210E+02  0.11856178106E+04  0.12193396723E+04  0.00000000000E+00 0.  1.
<mgrwt>
<rscale>  0 0.76406649E+03</rscale>
<asrwt>0</asrwt>
<pdfrwt beam="1">  1        2 0.22682961E+00 0.76406649E+03</pdfrwt>
<pdfrwt beam="2">  1       -2 0.15229156E-01 0.76406649E+03</pdfrwt>
<totfact> 0.45319763E+02</totfact>
</mgrwt>
</event>
<event>
 6    1  0.1637818E-005  0.1907643E+04  0.7818608E-02  0.8651062E-01
         -1   -1    0    0    0  501 -0.00000000000E+00  0.00000000000E+00  0.92077460852E+03  0.92077460852E+03  0.00000000000E+00 0.  1.
          1   -1    0    0  501    0  0.00000000000E+00 -0.00000000000E+00 -0.98805398387E+03  0.98805398387E+03  0.00000000000E+00 0. -1.
         23    2    1    2    0    0 -0.17323293347E+03  0.46432865847E+03 -0.84748289431E+03  0.98452978610E+03  0.73897843365E+02 0.  0.
         11    1    3    3    0    0 -0.83689620842E+02  0.12731585738E+03 -0.25987639826E+03  0.30124578428E+03  0.00000000000E+00 0. -1.
        -11    1    3    3    0    0 -0.89543312625E+02  0.33701280109E+03 -0.58760649605E+03  0.68328400181E+03  0.00000000000E+00 0.  1.
         22    1    1    2    0    0  0.17323293347E+03 -0.46432865847E+03  0.78020351896E+03  0.92429880629E+03  0.00000000000E+00 0.  1.
<mgrwt>
<rscale>  0 0.19076425E+04</rscale>
<asrwt>0</asrwt>
<pdfrwt beam="1">  1        1 0.15200831E+00 0.19076425E+04</pdfrwt>
<pdfrwt beam="2">  1       -1 0.14165763E+00 0.19076425E+04</pdfrwt>
<totfact> 0.58757393E+00</totfact>
</mgrwt>
</event>
<event>
 6    1  0.1637818E-005  0.1448607E+04  0.7818608E-02  0.8919367E-01
          2   -1    0    0  501    0  0.00000000000E+00  0.00000000000E+00  0.39335664065E+03  0.39335664065E+03  0.00000000000E+00 0.  1.
         -2   -1    0    0    0  501 -0.00000000000E+00 -0.00000000000E+00 -0.13336897731E+04  0.13336897731E+04  0.00000000000E+00 0. -1.
         23    2    1    2    0    0 -0.37130096629E+03 -0.23144736135E+03  0.21172790402E+03  0.49470030960E+03  0.92018489088E+02 0.  0.
         11    1    3    3    0    0 -0.80089811630E+02 -0.79633519314E+02  0.90156574752E+02  0.14451326339E+03  0.00000000000E+00 0.  1.
        -11    1    3    3    0    0 -0.29121115466E+03 -0.15181384204E+03  0.12157132927E+03  0.35018704621E+03  0.00000000000E+00 0. -1.
         22    1    1    2    0    0  0.37130096629E+03  0.23144736135E+03 -0.11520610365E+04  0.12323461041E+04  0.00000000000E+00 0. -1.
<mgrwt>
<rscale>  0 0.14486072E+04</rscale>
<asrwt>0</asrwt>
<pdfrwt beam="1">  1        2 0.60516405E-01 0.14486072E+04</pdfrwt>
<pdfrwt beam="2">  1       -2 0.20518305E+00 0.14486072E+04</pdfrwt>
<totfact> 0.96604195E+00</totfact>
</mgrwt>
</event>
<event>
 6    1  0.1637818E-005  0.1032556E+04  0.7818608E-02  0.9273541E-01
          2   -1    0    0  501    0  0.00000000000E+00  0.00000000000E+00  0.48462483465E+03  0.48462483465E+03  0.00000000000E+00 0. -1.
         -2   -1    0    0    0  501 -0.00000000000E+00 -0.00000000000E+00 -0.54999861633E+03  0.54999861633E+03  0.00000000000E+00 0.  1.
         23    2    1    2    0    0  0.55798861440E+02 -0.10126558915E+03  0.46746278690E+03  0.48938676724E+03  0.87233699470E+02 0.  0.
         11    1    3    3    0    0  0.65448661894E+02 -0.86722544820E+02  0.26834296493E+03  0.28950349558E+03  0.00000000000E+00 0. -1.
        -11    1    3    3    0    0 -0.96498004532E+01 -0.14543044334E+02  0.19911982197E+03  0.19988327166E+03  0.00000000000E+00 0.  1.
         22    1    1    2    0    0 -0.55798861440E+02  0.10126558915E+03 -0.53283656858E+03  0.54523668374E+03  0.00000000000E+00 0.  1.
<mgrwt>
<rscale>  0 0.10325560E+04</rscale>
<asrwt>0</asrwt>
<pdfrwt beam="1">  1        2 0.74557667E-01 0.10325560E+04</pdfrwt>
<pdfrwt beam="2">  1       -2 0.84615172E-01 0.10325560E+04</pdfrwt>
<totfact> 0.77530003E+01</totfact>
</mgrwt>
</event>
<event>
 6    1  0.1637818E-005  0.1855128E+04  0.7818608E-02  0.8677520E-01
         -2   -1    0    0    0  501 -0.00000000000E+00  0.00000000000E+00  0.15335058569E+04  0.15335058569E+04  0.00000000000E+00 0.  1.
          2   -1    0    0  501    0  0.00000000000E+00 -0.00000000000E+00 -0.56105093335E+03  0.56105093335E+03  0.00000000000E+00 0. -1.
         23    2    1    2    0    0  0.12498542527E+03  0.22975298419E+03 -0.51491116604E+03  0.58436949235E+03  0.89142607085E+02 0.  0.
         13    1    3    3    0    0  0.48250818240E+02  0.16833877020E+03 -0.36898288484E+03  0.40842925007E+03  0.00000000000E+00 0.  1.
        -13    1    3    3    0    0  0.76734607028E+02  0.61414213986E+02 -0.14592828121E+03  0.17594024227E+03  0.00000000000E+00 0. -1.
         22    1    1    2    0    0 -0.12498542527E+03 -0.22975298419E+03  0.14873660896E+04  0.15101872979E+04  0.00000000000E+00 0.  1.
<mgrwt>
<rscale>  0 0.18551279E+04</rscale>
<asrwt>0</asrwt>
<pdfrwt beam="1">  1        2 0.86315529E-01 0.18551279E+04</pdfrwt>
<pdfrwt beam="2">  1       -2 0.23592398E+00 0.18551279E+04</pdfrwt>
<totfact> 0.39662461E+00</totfact>
</mgrwt>
</event>
<event>
 6    1  0.1637818E-005  0.2218729E+04  0.7818608E-02  0.8510673E-01
         -2   -1    0    0    0  501 -0.00000000000E+00  0.00000000000E+00  0.10343961610E+04  0.10343961610E+04  0.00000000000E+00 0.  1.
          2   -1    0    0  501    0  0.00000000000E+00 -0.00000000000E+00 -0.11897662172E+04  0.11897662172E+04  0.00000000000E+00 0. -1.
         23    2    1    2    0    0  0.26142654354E+03 -0.63476668843E+03  0.79318608245E+03  0.10532519058E+04  0.94460728352E+02 0.  0.
         13    1    3    3    0    0  0.23811173942E+03 -0.57763255105E+03  0.67400218087E+03  0.91904053464E+03  0.00000000000E+00 0.  1.
        -13    1    3    3    0    0  0.23314804115E+02 -0.57134137374E+02  0.11918390158E+03  0.13421137113E+03  0.00000000000E+00 0. -1.
         22    1    1    2    0    0 -0.26142654354E+03  0.63476668843E+03 -0.94855613860E+03  0.11709104724E+04  0.00000000000E+00 0. -1.
<mgrwt>
<rscale>  0 0.22187290E+04</rscale>
<asrwt>0</asrwt>
<pdfrwt beam="1">  1        2 0.18304096E+00 0.22187290E+04</pdfrwt>
<pdfrwt beam="2">  1       -2 0.15913787E+00 0.22187290E+04</pdfrwt>
<totfact> 0.44818483E+00</totfact>
</mgrwt>
</event>
<event>
 6    1  0.1637818E-005  0.3650041E+04  0.7818608E-02  0.8079124E-01
         -2   -1    0    0    0  501 -0.00000000000E+00  0.00000000000E+00  0.16344227289E+04  0.16344227289E+04  0.00000000000E+00 0.  1.
          2   -1    0    0  501    0  0.00000000000E+00 -0.00000000000E+00 -0.20378449969E+04  0.20378449969E+04  0.00000000000E+00 0. -1.
         23    2    1    2    0    0  0.17214598129E+04 -0.58096934988E+03 -0.41207247834E+02  0.18196617251E+04  0.92311881851E+02 0.  0.
         11    1    3    3    0    0  0.89455165042E+03 -0.33944073012E+03  0.76376874801E+01  0.95681816392E+03  0.00000000000E+00 0. -1.
        -11    1    3    3    0    0  0.82690816247E+03 -0.24152861976E+03 -0.48844935315E+02  0.86284356115E+03  0.00000000000E+00 0.  1.
         22    1    1    2    0    0 -0.17214598129E+04  0.58096934988E+03 -0.36221502020E+03  0.18526060007E+04  0.00000000000E+00 0.  1.
<mgrwt>
<rscale>  0 0.36500412E+04</rscale>
<asrwt>0</asrwt>
<pdfrwt beam="1">  1        2 0.31351462E+00 0.36500412E+04</pdfrwt>
<pdfrwt beam="2">  1       -2 0.25144965E+00 0.36500412E+04</pdfrwt>
<totfact> 0.32526428E-01</totfact>
</mgrwt>
</event>
<event>
 6    1  0.1637818E-005  0.4230528E+04  0.7818608E-02  0.7959590E-01
         -2   -1    0    0    0  501 -0.00000000000E+00  0.00000000000E+00  0.10614757284E+04  0.10614757284E+04  0.00000000000E+00 0.  1.
          2   -1    0    0  501    0  0.00000000000E+00 -0.00000000000E+00 -0.42152091334E+04  0.42152091334E+04  0.00000000000E+00 0. -1.
         23    2    1    2    0    0 -0.23345043835E+03  0.12263484855E+04 -0.37059547562E+04  0.39116287693E+04  0.91155134310E+02 0.  0.
         11    1    3    3    0    0 -0.17105008817E+03  0.78786923170E+03 -0.25096971173E+04  0.26360151137E+04  0.00000000000E+00 0. -1.
        -11    1    3    3    0    0 -0.62400350184E+02  0.43847925382E+03 -0.11962576389E+04  0.12756136556E+04  0.00000000000E+00 0.  1.
         22    1    1    2    0    0  0.23345043835E+03 -0.12263484855E+04  0.55222135120E+03  0.13650560926E+04  0.00000000000E+00 0.  1.
<mgrwt>
<rscale>  0 0.42305282E+04</rscale>
<asrwt>0</asrwt>
<pdfrwt beam="1">  1        2 0.64849371E+00 0.42305282E+04</pdfrwt>
<pdfrwt beam="2">  1       -2 0.16330396E+00 0.42305282E+04</pdfrwt>
<totfact> 0.41379201E-02</totfact>
</mgrwt>
</event>
<event>
 6    1  0.1637818E-005  0.2759324E+04  0.7818608E-02  0.8316009E-01
          2   -1    0    0  501    0  0.00000000000E+00  0.00000000000E+00  0.24560178220E+04  0.24560178220E+04  0.00000000000E+00 0. -1.
         -2   -1    0    0    0  501 -0.00000000000E+00 -0.00000000000E+00 -0.77502158530E+03  0.77502158530E+03  0.00000000000E+00 0.  1.
         23    2    1    2    0    0  0.70922457779E+03 -0.10953074390E+04  0.32177635465E+03  0.13468481815E+04  0.88102860016E+02 0.  0.
         11    1    3    3    0    0  0.15059109665E+03 -0.29044576609E+03  0.58429972113E+02  0.33234091393E+03  0.00000000000E+00 0.  1.
        -11    1    3    3    0    0  0.55863348114E+03 -0.80486167289E+03  0.26334638254E+03  0.10145072676E+04  0.00000000000E+00 0. -1.
         22    1    1    2    0    0 -0.70922457779E+03  0.10953074390E+04  0.13592198821E+04  0.18841912258E+04  0.00000000000E+00 0. -1.
<mgrwt>
<rscale>  0 0.27593237E+04</rscale>
<asrwt>0</asrwt>
<pdfrwt beam="1">  1        2 0.37784889E+00 0.27593237E+04</pdfrwt>
<pdfrwt beam="2">  1       -2 0.11923409E+00 0.27593237E+04</pdfrwt>
<totfact> 0.17383127E+00</totfact>
</mgrwt>
</event>
<event>
 6    1  0.1637818E-005  0.2495307E+04  0.7818608E-02  0.8404659E-01
         -1   -1    0    0    0  501 -0.00000000000E+00  0.00000000000E+00  0.13993858122E+04  0.13993858122E+04  0.00000000000E+00 0.  1.
          1   -1    0    0  501    0  0.00000000000E+00 -0.00000000000E+00 -0.11123732506E+04  0.11123732506E+04  0.00000000000E+00 0. -1.
         23    2    1    2    0    0  0.86236973772E+02  0.26716050385E+03 -0.10783458924E+04  0.11178382407E+04  0.88999540711E+02 0.  0.
         13    1    3    3    0    0  0.16525524615E+02  0.18131383130E+03 -0.60850011428E+03  0.63515367232E+03  0.00000000000E+00 0.  1.
        -13    1    3    3    0    0  0.69711449156E+02  0.85846672547E+02 -0.46984577807E+03  0.48268456833E+03  0.00000000000E+00 0. -1.
         22    1    1    2    0    0 -0.86236973772E+02 -0.26716050385E+03  0.13653584540E+04  0.13939208221E+04  0.00000000000E+00 0.  1.
<mgrwt>
<rscale>  0 0.24953071E+04</rscale>
<asrwt>0</asrwt>
<pdfrwt beam="1">  1        1 0.17113435E+00 0.24953071E+04</pdfrwt>
<pdfrwt beam="2">  1       -1 0.21529012E+00 0.24953071E+04</pdfrwt>
<totfact> 0.13056227E+00</totfact>
</mgrwt>
</event>
<event>
 6    1  0.1637818E-005  0.1755024E+04  0.7818608E-02  0.8730590E-01
         -2   -1    0    0    0  501 -0.00000000000E+00  0.00000000000E+00  0.48191177947E+03  0.48191177947E+03  0.00000000000E+00 0.  1.
          2   -1    0    0  501    0  0.00000000000E+00 -0.00000000000E+00 -0.15978599043E+04  0.15978599043E+04  0.00000000000E+00 0. -1.
         23    2    1    2    0    0  0.16098929537E+03 -0.72118570550E+03 -0.31225106726E+01  0.74395462198E+03  0.86211103972E+02 0.  0.
         13    1    3    3    0    0  0.69770260804E+02 -0.47385596743E+03 -0.23595545728E+02  0.47954574019E+03  0.00000000000E+00 0.  1.
        -13    1    3    3    0    0  0.91219034566E+02 -0.24732973807E+03  0.20473035056E+02  0.26440888178E+03  0.00000000000E+00 0. -1.
         22    1    1    2    0    0 -0.16098929537E+03  0.72118570550E+03 -0.11128256142E+04  0.13358170618E+04  0.00000000000E+00 0. -1.
<mgrwt>
<rscale>  0 0.17550242E+04</rscale>
<asrwt>0</asrwt>
<pdfrwt beam="1">  1        2 0.24582460E+00 0.17550242E+04</pdfrwt>
<pdfrwt beam="2">  1       -2 0.74140273E-01 0.17550242E+04</pdfrwt>
<totfact> 0.17354872E+01</totfact>
</mgrwt>
</event>
<event>
 6    1  0.1637818E-005  0.1425545E+04  0.7818608E-02  0.8935532E-01
         -1   -1    0    0    0  501 -0.00000000000E+00  0.00000000000E+00  0.98022491598E+03  0.98022491598E+03  0.00000000000E+00 0.  1.
          1   -1    0    0  501    0  0.00000000000E+00 -0.00000000000E+00 -0.51829410609E+03  0.51829410609E+03  0.00000000000E+00 0. -1.
         23    2    1    2    0    0  0.24122232123E+03 -0.53786465953E+03 -0.18400119604E+03  0.62403931589E+03  0.89900096753E+02 0.  0.
         13    1    3    3    0    0  0.19790189318E+03 -0.37526590317E+03 -0.99593112563E+02  0.43578486146E+03  0.00000000000E+00 0. -1.
        -13    1    3    3    0    0  0.43320428059E+02 -0.16259875636E+03 -0.84408083475E+02  0.18825445443E+03  0.00000000000E+00 0.  1.
         22    1    1    2    0    0 -0.24122232123E+03  0.53786465953E+03  0.64593200592E+03  0.87447970618E+03  0.00000000000E+00 0.  1.
<mgrwt>
<rscale>  0 0.14255452E+04</rscale>
<asrwt>0</asrwt>
<pdfrwt beam="1">  1        1 0.79737555E-01 0.14255452E+04</pdfrwt>
<pdfrwt beam="2">  1       -1 0.15080383E+00 0.14255452E+04</pdfrwt>
<totfact> 0.14111190E+01</totfact>
</mgrwt>
</event>
<event>
 6    1  0.1637818E-005  0.5091226E+03  0.7818608E-02  0.1011425E+00
          1   -1    0    0  501    0  0.00000000000E+00  0.00000000000E+00  0.85817313886E+02  0.85817313886E+02  0.00000000000E+00 0. -1.
         -1   -1    0    0    0  501 -0.00000000000E+00 -0.00000000000E+00 -0.75510927682E+03  0.75510927682E+03  0.00000000000E+00 0.  1.
         23    2    1    2    0    0  0.38444404304E+02 -0.23902668335E+03 -0.27798917106E+03  0.38078573998E+03  0.95436224612E+02 0.  0.
         11    1    3    3    0    0  0.48779206566E+02 -0.64135078953E+02 -0.12200389063E+03  0.14621104156E+03  0.00000000000E+00 0. -1.
        -11    1    3    3    0    0 -0.10334802262E+02 -0.17489160440E+03 -0.15598528043E+03  0.23457469842E+03  0.00000000000E+00 0.  1.
         22    1    1    2    0    0 -0.38444404304E+02  0.23902668335E+03 -0.39130279188E+03  0.46014085073E+03  0.00000000000E+00 0. -1.
<mgrwt>
<rscale>  0 0.50912258E+03</rscale>
<asrwt>0</asrwt>
<pdfrwt beam="1">  1        1 0.13202664E-01 0.50912258E+03</pdfrwt>
<pdfrwt beam="2">  1       -1 0.11617066E+00 0.50912258E+03</pdfrwt>
<totfact> 0.31322687E+02</totfact>
</mgrwt>
</event>
<event>
 6    1  0.1637818E-005  0.1796014E+04  0.7818608E-02  0.8708422E-01
         -2   -1    0    0    0  501 -0.00000000000E+00  0.00000000000E+00  0.68318506403E+03  0.68318506403E+03  0.00000000000E+00 0. -1.
          2   -1    0    0  501    0  0.00000000000E+00 -0.00000000000E+00 -0.11803776255E+04  0.11803776255E+04  0.00000000000E+00 0.  1.
         23    2    1    2    0    0 -0.12049741600E+03  0.68334087659E+03 -0.83709571952E+03  0.10908994138E+04  0.88644833539E+02 0.  0.
         13    1    3    3    0    0 -0.68313069094E+02  0.20154700013E+03 -0.29533832268E+03  0.36402279257E+03  0.00000000000E+00 0. -1.
        -13    1    3    3    0    0 -0.52184346903E+02  0.48179387646E+03 -0.54175739684E+03  0.72687662123E+03  0.00000000000E+00 0.  1.
         22    1    1    2    0    0  0.12049741600E+03 -0.68334087659E+03  0.33990315803E+03  0.77266327576E+03  0.00000000000E+00 0. -1.
<mgrwt>
<rscale>  0 0.17960138E+04</rscale>
<asrwt>0</asrwt>
<pdfrwt beam="1">  1        2 0.18159656E+00 0.17960138E+04</pdfrwt>
<pdfrwt beam="2">  1       -2 0.10510540E+00 0.17960138E+04</pdfrwt>
<totfact> 0.13479861E+01</totfact>
</mgrwt>
</event>
<event>
 6    1  0.1637818E-005  0.6581568E+03  0.7818608E-02  0.9791593E-01
          2   -1    0    0  501    0  0.00000000000E+00  0.00000000000E+00  0.38063676755E+03  0.38063676755E+03  0.00000000000E+00 0. -1.
         -2   -1    0    0    0  501 -0.00000000000E+00 -0.00000000000E+00 -0.28450376238E+03  0.28450376238E+03  0.00000000000E+00 0.  1.
         23    2    1    2    0    0 -0.21206709522E+03 -0.10088596101E+03  0.27276640281E+03  0.37128718697E+03  0.91116599482E+02 0.  0.
         11    1    3    3    0    0 -0.14090426088E+03 -0.10022541095E+03  0.14777904065E+03  0.22745942185E+03  0.00000000000E+00 0.  1.
        -11    1    3    3    0    0 -0.71162834342E+02 -0.66055005502E+00  0.12498736217E+03  0.14382776512E+03  0.00000000000E+00 0. -1.
         22    1    1    2    0    0  0.21206709522E+03  0.10088596101E+03 -0.17663339765E+03  0.29385334296E+03  0.00000000000E+00 0.  1.
<mgrwt>
<rscale>  0 0.65815680E+03</rscale>
<asrwt>0</asrwt>
<pdfrwt beam="1">  1        2 0.58559503E-01 0.65815680E+03</pdfrwt>
<pdfrwt beam="2">  1       -2 0.43769810E-01 0.65815680E+03</pdfrwt>
<totfact> 0.41988385E+02</totfact>
</mgrwt>
</event>
<event>
 6    1  0.1637818E-005  0.5896224E+04  0.7818608E-02  0.7703404E-01
         -2   -1    0    0    0  501 -0.00000000000E+00  0.00000000000E+00  0.17785047200E+04  0.17785047200E+04  0.00000000000E+00 0.  1.
          2   -1    0    0  501    0  0.00000000000E+00 -0.00000000000E+00 -0.48868938836E+04  0.48868938836E+04  0.00000000000E+00 0. -1.
         23    2    1    2    0    0 -0.98104181509E+03 -0.56899784570E+03 -0.46298965125E+04  0.47677194411E+04  0.94896579901E+02 0.  0.
         13    1    3    3    0    0 -0.28716023993E+03 -0.20675283707E+03 -0.15561311017E+04  0.15958545500E+04  0.00000000000E+00 0.  1.
        -13    1    3    3    0    0 -0.69388157516E+03 -0.36224500862E+03 -0.30737654108E+04  0.31718648910E+04  0.00000000000E+00 0. -1.
         22    1    1    2    0    0  0.98104181509E+03  0.56899784570E+03  0.15215073488E+04  0.18976791625E+04  0.00000000000E+00 0.  1.
<mgrwt>
<rscale>  0 0.58962238E+04</rscale>
<asrwt>0</asrwt>
<pdfrwt beam="1">  1        2 0.75182981E+00 0.58962238E+04</pdfrwt>
<pdfrwt beam="2">  1       -2 0.27361612E+00 0.58962238E+04</pdfrwt>
<totfact> 0.14486237E-03</totfact>
</mgrwt>
</event>
<event>
 6    1  0.1637818E-005  0.2691712E+04  0.7818608E-02  0.8337699E-01
         -1   -1    0    0    0  501 -0.00000000000E+00  0.00000000000E+00  0.20195902465E+04  0.20195902465E+04  0.00000000000E+00 0.  1.
          1   -1    0    0  501    0  0.00000000000E+00 -0.00000000000E+00 -0.89687889556E+03  0.89687889556E+03  0.00000000000E+00 0. -1.
         23    2    1    2    0    0 -0.38503673996E+03  0.76845823100E+03 -0.55807725518E+03  0.10286577949E+04  0.88911711274E+02 0.  0.
         11    1    3    3    0    0 -0.14355511586E+03  0.38173397149E+03 -0.24891377459E+03  0.47779385038E+03  0.00000000000E+00 0.  1.
        -11    1    3    3    0    0 -0.24148162410E+03  0.38672425951E+03 -0.30916348060E+03  0.55086394455E+03  0.00000000000E+00 0. -1.
         22    1    1    2    0    0  0.38503673996E+03 -0.76845823100E+03  0.16807886061E+04  0.18878113471E+04  0.00000000000E+00 0.  1.
<mgrwt>
<rscale>  0 0.26917116E+04</rscale>
<asrwt>0</asrwt>
<pdfrwt beam="1">  1        1 0.13798137E+00 0.26917116E+04</pdfrwt>
<pdfrwt beam="2">  1       -1 0.31070619E+00 0.26917116E+04</pdfrwt>
<totfact> 0.45002075E-01</totfact>
</mgrwt>
</event>
<event>
 6    1  0.1637818E-005  0.4848381E+04  0.7818608E-02  0.7852331E-01
         -2   -1    0    0    0  501 -0.00000000000E+00  0.00000000000E+00  0.16663357164E+04  0.16663357164E+04  0.00000000000E+00 0.  1.
          2   -1    0    0  501    0  0.00000000000E+00 -0.00000000000E+00 -0.35267194554E+04  0.35267194554E+04  0.00000000000E+00 0. -1.
         23    2    1    2    0    0  0.15204222303E+04 -0.18544776757E+04 -0.13041468132E+04  0.27313137707E+04  0.92221448797E+02 0.  0.
         13    1    3    3    0    0  0.76229799260E+03 -0.86142211044E+03 -0.60737622966E+03  0.13007890552E+04  0.00000000000E+00 0. -1.
        -13    1    3    3    0    0  0.75812423774E+03 -0.99305556523E+03 -0.69677058351E+03  0.14305247155E+04  0.00000000000E+00 0.  1.
         22    1    1    2    0    0 -0.15204222303E+04  0.18544776757E+04 -0.55623692591E+03  0.24617414011E+04  0.00000000000E+00 0.  1.
<mgrwt>
<rscale>  0 0.48483806E+04</rscale>
<asrwt>0</asrwt>
<pdfrwt beam="1">  1        2 0.54257223E+00 0.48483806E+04</pdfrwt>
<pdfrwt beam="2">  1       -2 0.25635934E+00 0.48483806E+04</pdfrwt>
<totfact> 0.33623599E-02</totfact>
</mgrwt>
</event>
<event>
 6    1  0.1637818E-005  0.2441520E+04  0.7818608E-02  0.8424121E-01
          2   -1    0    0  501    0  0.00000000000E+00  0.00000000000E+00  0.14307975108E+04  0.14307975108E+04  0.00000000000E+00 0. -1.
         -2   -1    0    0    0  501 -0.00000000000E+00 -0.00000000000E+00 -0.10415554215E+04  0.10415554215E+04  0.00000000000E+00 0.  1.
         23    2    1    2    0    0 -0.17871056001E+03 -0.19240033257E+02  0.14158380952E+04  0.14301403809E+04  0.91631621739E+02 0.  0.
         13    1    3    3    0    0 -0.48206293099E+02 -0.40190940211E+02  0.29956125989E+03  0.30606552697E+03  0.00000000000E+00 0. -1.
        -13    1    3    3    0    0 -0.13050426691E+03  0.20950906954E+02  0.11162768353E+04  0.11240748539E+04  0.00000000000E+00 0.  1.
         22    1    1    2    0    0  0.17871056001E+03  0.19240033257E+02 -0.10265960059E+04  0.10422125515E+04  0.00000000000E+00 0.  1.
<mgrwt>
<rscale>  0 0.24415199E+04</rscale>
<asrwt>0</asrwt>
<pdfrwt beam="1">  1        2 0.22012269E+00 0.24415199E+04</pdfrwt>
<pdfrwt beam="2">  1       -2 0.16023930E+00 0.24415199E+04</pdfrwt>
<totfact> 0.31245143E+00</totfact>
</mgrwt>
</event>
<event>
 6    1  0.1637818E-005  0.4496853E+04  0.7818608E-02  0.7911188E-01
         -2   -1    0    0    0  501 -0.00000000000E+00  0.00000000000E+00  0.29245748257E+04  0.29245748257E+04  0.00000000000E+00 0.  1.
          2   -1    0    0  501    0  0.00000000000E+00 -0.00000000000E+00 -0.17286007397E+04  0.17286007397E+04  0.00000000000E+00 0. -1.
         23    2    1    2    0    0  0.75815489932E+03  0.38021905744E+03 -0.15552984960E+04  0.17741364543E+04  0.96132011926E+02 0.  0.
         13    1    3    3    0    0  0.64113818667E+03  0.35382276576E+03 -0.13000496074E+04  0.14921051256E+04  0.00000000000E+00 0.  1.
        -13    1    3    3    0    0  0.11701671265E+03  0.26396291684E+02 -0.25524888854E+03  0.28203132868E+03  0.00000000000E+00 0. -1.
         22    1    1    2    0    0 -0.75815489932E+03 -0.38021905744E+03  0.27512725820E+04  0.28790391111E+04  0.00000000000E+00 0.  1.
<mgrwt>
<rscale>  0 0.44968532E+04</rscale>
<asrwt>0</asrwt>
<pdfrwt beam="1">  1        2 0.26593858E+00 0.44968532E+04</pdfrwt>
<pdfrwt beam="2">  1       -2 0.44993459E+00 0.44968532E+04</pdfrwt>
<totfact> 0.24927250E-02</totfact>
</mgrwt>
</event>
<event>
 6    1  0.1637818E-005  0.2052623E+04  0.7818608E-02  0.8582405E-01
         -2   -1    0    0    0  501 -0.00000000000E+00  0.00000000000E+00  0.26189091889E+04  0.26189091889E+04  0.00000000000E+00 0.  1.
          2   -1    0    0  501    0  0.00000000000E+00 -0.00000000000E+00 -0.40219625189E+03  0.40219625189E+03  0.00000000000E+00 0. -1.
         23    2    1    2    0    0  0.56761574356E+03 -0.77443706488E+03  0.58547543372E+03  0.11282567432E+04  0.90782131129E+02 0.  0.
         13    1    3    3    0    0  0.39071892941E+03 -0.53154748523E+03  0.35201845634E+03  0.74774394311E+03  0.00000000000E+00 0. -1.
        -13    1    3    3    0    0  0.17689681415E+03 -0.24288957964E+03  0.23345697738E+03  0.38051280010E+03  0.00000000000E+00 0.  1.
         22    1    1    2    0    0 -0.56761574356E+03  0.77443706488E+03  0.16312375032E+04  0.18928486975E+04  0.00000000000E+00 0.  1.
<mgrwt>
<rscale>  0 0.20526232E+04</rscale>
<asrwt>0</asrwt>
<pdfrwt beam="1">  1        2 0.61876348E-01 0.20526232E+04</pdfrwt>
<pdfrwt beam="2">  1       -2 0.40290909E+00 0.20526232E+04</pdfrwt>
<totfact> 0.52067852E-01</totfact>
</mgrwt>
</event>
<event>
 6    1  0.1637818E-005  0.3643667E+04  0.7818608E-02  0.8080562E-01
         -1   -1    0    0    0  501 -0.00000000000E+00  0.00000000000E+00  0.12544557173E+04  0.12544557173E+04  0.00000000000E+00 0.  1.
          1   -1    0    0  501    0  0.00000000000E+00 -0.00000000000E+00 -0.26458306579E+04  0.26458306579E+04  0.00000000000E+00 0. -1.
         23    2    1    2    0    0  0.12257543825E+04  0.11914849039E+04 -0.25758431729E+02  0.17123607523E+04  0.96983332668E+02 0.  0.
         13    1    3    3    0    0  0.36717856559E+03  0.29767447541E+03 -0.15723794102E+02  0.47294548316E+03  0.00000000000E+00 0.  1.
        -13    1    3    3    0    0  0.85857581691E+03  0.89381042847E+03 -0.10034637627E+02  0.12394152691E+04  0.00000000000E+00 0. -1.
         22    1    1    2    0    0 -0.12257543825E+04 -0.11914849039E+04 -0.13656165089E+04  0.21879256230E+04  0.00000000000E+00 0.  1.
<mgrwt>
<rscale>  0 0.36436671E+04</rscale>
<asrwt>0</asrwt>
<pdfrwt beam="1">  1        1 0.40705087E+00 0.36436671E+04</pdfrwt>
<pdfrwt beam="2">  1       -1 0.19299319E+00 0.36436671E+04</pdfrwt>
<totfact> 0.14539445E-01</totfact>
</mgrwt>
</event>
<event>
 6    1  0.1637818E-005  0.2736616E+04  0.7818608E-02  0.8323221E-01
          2   -1    0    0  501    0  0.00000000000E+00  0.00000000000E+00  0.28214097385E+04  0.28214097385E+04  0.00000000000E+00 0. -1.
         -2   -1    0    0    0  501 -0.00000000000E+00 -0.00000000000E+00 -0.66359247136E+03  0.66359247136E+03  0.00000000000E+00 0.  1.
         23    2    1    2    0    0 -0.11708802300E+03 -0.10579226148E+04 -0.11550177866E+02  0.10685864808E+04  0.93988277574E+02 0.  0.
         13    1    3    3    0    0 -0.58815694476E+02 -0.68063747780E+03  0.34592785650E+02  0.68404921089E+03  0.00000000000E+00 0. -1.
        -13    1    3    3    0    0 -0.58272328522E+02 -0.37728513702E+03 -0.46142963516E+02  0.38453726994E+03  0.00000000000E+00 0.  1.
         22    1    1    2    0    0  0.11708802300E+03  0.10579226148E+04  0.21693674450E+04  0.24164157290E+04  0.00000000000E+00 0. -1.
<mgrwt>
<rscale>  0 0.27366156E+04</rscale>
<asrwt>0</asrwt>
<pdfrwt beam="1">  1        2 0.43406303E+00 0.27366156E+04</pdfrwt>
<pdfrwt beam="2">  1       -2 0.10209115E+00 0.27366156E+04</pdfrwt>
<totfact> 0.15429232E+00</totfact>
</mgrwt>
</event>
<event>
 6    1  0.1637818E-005  0.4151309E+04  0.7818608E-02  0.7974699E-01
         -2   -1    0    0    0  501 -0.00000000000E+00  0.00000000000E+00  0.20888055586E+04  0.20888055586E+04  0.00000000000E+00 0.  1.
          2   -1    0    0  501    0  0.00000000000E+00 -0.00000000000E+00 -0.20625862995E+04  0.20625862995E+04  0.00000000000E+00 0. -1.
         23    2    1    2    0    0  0.50480805058E+01  0.19219283485E+04 -0.76810404152E+03  0.20717804603E+04  0.91958671084E+02 0.  0.
         11    1    3    3    0    0  0.40979750284E+02  0.96480678751E+03 -0.35847010523E+03  0.10300642181E+04  0.00000000000E+00 0. -1.
        -11    1    3    3    0    0 -0.35931669778E+02  0.95712156098E+03 -0.40963393628E+03  0.10417162421E+04  0.00000000000E+00 0.  1.
         22    1    1    2    0    0 -0.50480805058E+01 -0.19219283485E+04  0.79432330064E+03  0.20796113978E+04  0.00000000000E+00 0.  1.
<mgrwt>
<rscale>  0 0.41513091E+04</rscale>
<asrwt>0</asrwt>
<pdfrwt beam="1">  1        2 0.31732097E+00 0.41513091E+04</pdfrwt>
<pdfrwt beam="2">  1       -2 0.32135470E+00 0.41513091E+04</pdfrwt>
<totfact> 0.11284906E-01</totfact>
</mgrwt>
</event>
<event>
 6    1  0.1637818E-005  0.1763326E+04  0.7818608E-02  0.8726049E-01
         -2   -1    0    0    0  501 -0.00000000000E+00  0.00000000000E+00  0.59829134487E+03  0.59829134487E+03  0.00000000000E+00 0.  1.
          2   -1    0    0  501    0  0.00000000000E+00 -0.00000000000E+00 -0.12992488036E+04  0.12992488036E+04  0.00000000000E+00 0. -1.
         23    2    1    2    0    0  0.58608256734E+03 -0.58253971895E+02 -0.10538831028E+04  0.12109232166E+04  0.93697070729E+02 0.  0.
         13    1    3    3    0    0  0.29861976454E+03 -0.66089806608E+02 -0.48277311729E+03  0.57149935179E+03  0.00000000000E+00 0.  1.
        -13    1    3    3    0    0  0.28746280280E+03  0.78358347128E+01 -0.57110998554E+03  0.63942386480E+03  0.00000000000E+00 0. -1.
         22    1    1    2    0    0 -0.58608256734E+03  0.58253971895E+02  0.35292564405E+03  0.68661693193E+03  0.00000000000E+00 0.  1.
<mgrwt>
<rscale>  0 0.17633256E+04</rscale>
<asrwt>0</asrwt>
<pdfrwt beam="1">  1        2 0.19988443E+00 0.17633256E+04</pdfrwt>
<pdfrwt beam="2">  1       -2 0.92044824E-01 0.17633256E+04</pdfrwt>
<totfact> 0.15720893E+01</totfact>
</mgrwt>
</event>
<event>
 6    1  0.1637818E-005  0.3327666E+04  0.7818608E-02  0.8155891E-01
         -1   -1    0    0    0  501 -0.00000000000E+00  0.00000000000E+00  0.23405378951E+04  0.23405378951E+04  0.00000000000E+00 0.  1.
          1   -1    0    0  501    0  0.00000000000E+00 -0.00000000000E+00 -0.11827795166E+04  0.11827795166E+04  0.00000000000E+00 0. -1.
         23    2    1    2    0    0  0.62509249735E+03 -0.36338714823E+03 -0.10056796892E+04  0.12422529403E+04  0.94920391932E+02 0.  0.
         13    1    3    3    0    0  0.91573469509E+02 -0.21693978372E+02 -0.15917254129E+03  0.18491140288E+03  0.00000000000E+00 0. -1.
        -13    1    3    3    0    0  0.53351902784E+03 -0.34169316986E+03 -0.84650714787E+03  0.10573415374E+04  0.00000000000E+00 0.  1.
         22    1    1    2    0    0 -0.62509249735E+03  0.36338714823E+03  0.21634380677E+04  0.22810644714E+04  0.00000000000E+00 0.  1.
<mgrwt>
<rscale>  0 0.33276660E+04</rscale>
<asrwt>0</asrwt>
<pdfrwt beam="1">  1        1 0.18196608E+00 0.33276660E+04</pdfrwt>
<pdfrwt beam="2">  1       -1 0.36008275E+00 0.33276660E+04</pdfrwt>
<totfact> 0.12116978E-01</totfact>
</mgrwt>
</event>
<event>
 6    1  0.1637818E-005  0.4481982E+04  0.7818608E-02  0.7913799E-01
          2   -1    0    0  501    0  0.00000000000E+00  0.00000000000E+00  0.36534912910E+04  0.36534912910E+04  0.00000000000E+00 0. -1.
         -2   -1    0    0    0  501 -0.00000000000E+00 -0.00000000000E+00 -0.13745870301E+04  0.13745870301E+04  0.00000000000E+00 0.  1.
         23    2    1    2    0    0 -0.58903971047E+03  0.14116711619E+04 -0.69594080404E+03  0.16830093516E+04  0.91671287710E+02 0.  0.
         13    1    3    3    0    0 -0.22091230769E+03  0.51350716829E+03 -0.30267404425E+03  0.63569130609E+03  0.00000000000E+00 0. -1.
        -13    1    3    3    0    0 -0.36812740277E+03  0.89816399363E+03 -0.39326675979E+03  0.10473180455E+04  0.00000000000E+00 0.  1.
         22    1    1    2    0    0  0.58903971047E+03 -0.14116711619E+04  0.29748450650E+04  0.33450689694E+04  0.00000000000E+00 0. -1.
<mgrwt>
<rscale>  0 0.44819825E+04</rscale>
<asrwt>0</asrwt>
<pdfrwt beam="1">  1        2 0.56207558E+00 0.44819825E+04</pdfrwt>
<pdfrwt beam="2">  1       -2 0.21147493E+00 0.44819825E+04</pdfrwt>
<totfact> 0.53547909E-02</totfact>
</mgrwt>
</event>
<event>
 6    1  0.1637818E-005  0.3226954E+04  0.7818608E-02  0.8181735E-01
         -2   -1    0    0    0  501 -0.00000000000E+00  0.00000000000E+00  0.66027728905E+03  0.66027728905E+03  0.00000000000E+00 0.  1.
          2   -1    0    0  501    0  0.00000000000E+00 -0.00000000000E+00 -0.39427501019E+04  0.39427501019E+04  0.00000000000E+00 0. -1.
         23    2    1    2    0    0  0.66494074944E+03 -0.59447108681E+03 -0.35582491098E+04  0.36694350606E+04  0.89860245074E+02 0.  0.
         11    1    3    3    0    0  0.54197084409E+03 -0.49817815341E+03 -0.27909931725E+04  0.28864436175E+04  0.00000000000E+00 0. -1.
        -11    1    3    3    0    0  0.12296990534E+03 -0.96292933400E+02 -0.76725593730E+03  0.78299144310E+03  0.00000000000E+00 0.  1.
         22    1    1    2    0    0 -0.66494074944E+03  0.59447108681E+03  0.27577629692E+03  0.93359233033E+03  0.00000000000E+00 0.  1.
<mgrwt>
<rscale>  0 0.32269542E+04</rscale>
<asrwt>0</asrwt>
<pdfrwt beam="1">  1        2 0.60657695E+00 0.32269542E+04</pdfrwt>
<pdfrwt beam="2">  1       -2 0.10158112E+00 0.32269542E+04</pdfrwt>
<totfact> 0.25381852E-01</totfact>
</mgrwt>
</event>
<event>
 6    1  0.1637818E-005  0.3428872E+04  0.7818608E-02  0.8130856E-01
         -1   -1    0    0    0  501 -0.00000000000E+00  0.00000000000E+00  0.81527404268E+03  0.81527404268E+03  0.00000000000E+00 0.  1.
          1   -1    0    0  501    0  0.00000000000E+00 -0.00000000000E+00 -0.36052788799E+04  0.36052788799E+04  0.00000000000E+00 0. -1.
         23    2    1    2    0    0  0.84754768635E+01 -0.73599136404E+03  0.59846631892E+03  0.95306220195E+03  0.91708801332E+02 0.  0.
         11    1    3    3    0    0  0.33945159351E+02 -0.45785592214E+03  0.41514154278E+03  0.61897239020E+03  0.00000000000E+00 0. -1.
        -11    1    3    3    0    0 -0.25469682488E+02 -0.27813544190E+03  0.18332477614E+03  0.33408981175E+03  0.00000000000E+00 0.  1.
         22    1    1    2    0    0 -0.84754768635E+01  0.73599136404E+03 -0.33884711562E+04  0.34674907207E+04  0.00000000000E+00 0. -1.
<mgrwt>
<rscale>  0 0.34288717E+04</rscale>
<asrwt>0</asrwt>
<pdfrwt beam="1">  1        1 0.55465830E+00 0.34288717E+04</pdfrwt>
<pdfrwt beam="2">  1       -1 0.12542677E+00 0.34288717E+04</pdfrwt>
<totfact> 0.93656580E-02</totfact>
</mgrwt>
</event>
<event>
 6    1  0.1637818E-005  0.1198901E+04  0.7818608E-02  0.9113819E-01
          2   -1    0    0  501    0  0.00000000000E+00  0.00000000000E+00  0.86690722151E+03  0.86690722151E+03  0.00000000000E+00 0. -1.
         -2   -1    0    0    0  501 -0.00000000000E+00 -0.00000000000E+00 -0.41450903132E+03  0.41450903132E+03  0.00000000000E+00 0.  1.
         23    2    1    2    0    0  0.26805841261E+03  0.44967530852E+03 -0.76477495180E+02  0.53725720650E+03  0.93452142875E+02 0.  0.
         13    1    3    3    0    0  0.25037410539E+02  0.11764209220E+03 -0.20127862513E+02  0.12194943474E+03  0.00000000000E+00 0.  1.
        -13    1    3    3    0    0  0.24302100207E+03  0.33203321632E+03 -0.56349632667E+02  0.41530777177E+03  0.00000000000E+00 0. -1.
         22    1    1    2    0    0 -0.26805841261E+03 -0.44967530852E+03  0.52887568537E+03  0.74415904633E+03  0.00000000000E+00 0. -1.
<mgrwt>
<rscale>  0 0.11989010E+04</rscale>
<asrwt>0</asrwt>
<pdfrwt beam="1">  1        2 0.13337034E+00 0.11989010E+04</pdfrwt>
<pdfrwt beam="2">  1       -2 0.63770620E-01 0.11989010E+04</pdfrwt>
<totfact> 0.69359578E+01</totfact>
</mgrwt>
</event>
<event>
 6    1  0.1637818E-005  0.2887584E+04  0.7818608E-02  0.8276581E-01
          2   -1    0    0  501    0  0.00000000000E+00  0.00000000000E+00  0.15629620758E+04  0.15629620758E+04  0.00000000000E+00 0. -1.
         -2   -1    0    0    0  501 -0.00000000000E+00 -0.00000000000E+00 -0.13337084871E+04  0.13337084871E+04  0.00000000000E+00 0.  1.
         23    2    1    2    0    0 -0.42854376870E+03  0.93922948830E+03 -0.89563848255E+03  0.13698490392E+04  0.92283831164E+02 0.  0.
         11    1    3    3    0    0 -0.35682163753E+03  0.69174803785E+03 -0.69057304457E+03  0.10405422427E+04  0.00000000000E+00 0.  1.
        -11    1    3    3    0    0 -0.71722131163E+02  0.24748145045E+03 -0.20506543798E+03  0.32930679658E+03  0.00000000000E+00 0. -1.
         22    1    1    2    0    0  0.42854376870E+03 -0.93922948830E+03  0.11248920712E+04  0.15268215237E+04  0.00000000000E+00 0. -1.
<mgrwt>
<rscale>  0 0.28875843E+04</rscale>
<asrwt>0</asrwt>
<pdfrwt beam="1">  1        2 0.24045570E+00 0.28875843E+04</pdfrwt>
<pdfrwt beam="2">  1       -2 0.20518592E+00 0.28875843E+04</pdfrwt>
<totfact> 0.12434124E+00</totfact>
</mgrwt>
</event>
<event>
 6    1  0.1637818E-005  0.1709509E+04  0.7818608E-02  0.8755960E-01
          2   -1    0    0  501    0  0.00000000000E+00  0.00000000000E+00  0.20519895159E+04  0.20519895159E+04  0.00000000000E+00 0. -1.
         -2   -1    0    0    0  501 -0.00000000000E+00 -0.00000000000E+00 -0.35604726564E+03  0.35604726564E+03  0.00000000000E+00 0.  1.
         23    2    1    2    0    0  0.82638812826E+03  0.20388342841E+03  0.89819485201E+03  0.12414662940E+04  0.99993880666E+02 0.  0.
         11    1    3    3    0    0  0.31793078029E+03  0.91588471058E+02  0.41840379142E+03  0.53341368727E+03  0.00000000000E+00 0.  1.
        -11    1    3    3    0    0  0.50845734796E+03  0.11229495736E+03  0.47979106059E+03  0.70805260678E+03  0.00000000000E+00 0. -1.
         22    1    1    2    0    0 -0.82638812826E+03 -0.20388342841E+03  0.79774739826E+03  0.11665704875E+04  0.00000000000E+00 0.  1.
<mgrwt>
<rscale>  0 0.17095090E+04</rscale>
<asrwt>0</asrwt>
<pdfrwt beam="1">  1        2 0.31569069E+00 0.17095090E+04</pdfrwt>
<pdfrwt beam="2">  1       -2 0.54776504E-01 0.17095090E+04</pdfrwt>
<totfact> 0.18636661E+01</totfact>
</mgrwt>
</event>
<event>
 6    1  0.1637818E-005  0.2232508E+04  0.7818608E-02  0.8505018E-01
          2   -1    0    0  501    0  0.00000000000E+00  0.00000000000E+00  0.13507283633E+04  0.13507283633E+04  0.00000000000E+00 0. -1.
         -2   -1    0    0    0  501 -0.00000000000E+00 -0.00000000000E+00 -0.92248204282E+03  0.92248204282E+03  0.00000000000E+00 0.  1.
         23    2    1    2    0    0  0.11409405784E+03  0.81067328741E+03 -0.55509682820E+03  0.99369003463E+03  0.95282544508E+02 0.  0.
         11    1    3    3    0    0  0.58641566758E+02  0.43152721630E+03 -0.35231618889E+03  0.56016182369E+03  0.00000000000E+00 0. -1.
        -11    1    3    3    0    0  0.55452491084E+02  0.37914607111E+03 -0.20278063931E+03  0.43352821094E+03  0.00000000000E+00 0.  1.
         22    1    1    2    0    0 -0.11409405784E+03 -0.81067328741E+03  0.98334314863E+03  0.12795203714E+04  0.00000000000E+00 0. -1.
<mgrwt>
<rscale>  0 0.22325077E+04</rscale>
<asrwt>0</asrwt>
<pdfrwt beam="1">  1        2 0.20780436E+00 0.22325077E+04</pdfrwt>
<pdfrwt beam="2">  1       -2 0.14192031E+00 0.22325077E+04</pdfrwt>
<totfact> 0.48819387E+00</totfact>
</mgrwt>
</event>
<event>
 6    1  0.1637818E-005  0.2783064E+04  0.7818608E-02  0.8308546E-01
         -1   -1    0    0    0  501 -0.00000000000E+00  0.00000000000E+00  0.10724186620E+04  0.10724186620E+04  0.00000000000E+00 0.  1.
          1   -1    0    0  501    0  0.00000000000E+00 -0.00000000000E+00 -0.18056024277E+04  0.18056024277E+04  0.00000000000E+00 0. -1.
         23    2    1    2    0    0  0.11860159124E+04  0.47353851459E+03 -0.93282953885E+03  0.15854535270E+04  0.11233640856E+03 0.  0.
         13    1    3    3    0    0  0.52383449936E+03  0.17103134755E+03 -0.34911270956E+03  0.65232966247E+03  0.00000000000E+00 0.  1.
        -13    1    3    3    0    0  0.66218141299E+03  0.30250716704E+03 -0.58371682930E+03  0.93312386457E+03  0.00000000000E+00 0. -1.
         22    1    1    2    0    0 -0.11860159124E+04 -0.47353851459E+03  0.19964577315E+03  0.12925675626E+04  0.00000000000E+00 0.  1.
<mgrwt>
<rscale>  0 0.27830643E+04</rscale>
<asrwt>0</asrwt>
<pdfrwt beam="1">  1        1 0.27778499E+00 0.27830643E+04</pdfrwt>
<pdfrwt beam="2">  1       -1 0.16498749E+00 0.27830643E+04</pdfrwt>
<totfact> 0.93848621E-01</totfact>
</mgrwt>
</event>
<event>
 6    1  0.1637818E-005  0.4456190E+04  0.7818608E-02  0.7918352E-01
          2   -1    0    0  501    0  0.00000000000E+00  0.00000000000E+00  0.29826141565E+04  0.29826141565E+04  0.00000000000E+00 0. -1.
         -2   -1    0    0    0  501 -0.00000000000E+00 -0.00000000000E+00 -0.16644483554E+04  0.16644483554E+04  0.00000000000E+00 0.  1.
         23    2    1    2    0    0  0.33904140234E+03  0.18720016538E+04 -0.54827059777E+03  0.19819313527E+04  0.90066499784E+02 0.  0.
         11    1    3    3    0    0  0.17371938490E+03  0.76296720720E+03 -0.25371766812E+03  0.82259956179E+03  0.00000000000E+00 0.  1.
        -11    1    3    3    0    0  0.16532201744E+03  0.11090344466E+04 -0.29455292965E+03  0.11593317910E+04  0.00000000000E+00 0. -1.
         22    1    1    2    0    0 -0.33904140234E+03 -0.18720016538E+04  0.18664363989E+04  0.26651311591E+04  0.00000000000E+00 0. -1.
<mgrwt>
<rscale>  0 0.44561900E+04</rscale>
<asrwt>0</asrwt>
<pdfrwt beam="1">  1        2 0.45886372E+00 0.44561900E+04</pdfrwt>
<pdfrwt beam="2">  1       -2 0.25606898E+00 0.44561900E+04</pdfrwt>
<totfact> 0.80021401E-02</totfact>
</mgrwt>
</event>
<event>
 6    1  0.1637818E-005  0.5052501E+04  0.7818608E-02  0.7820459E-01
         -2   -1    0    0    0  501 -0.00000000000E+00  0.00000000000E+00  0.13468901138E+04  0.13468901138E+04  0.00000000000E+00 0. -1.
          2   -1    0    0  501    0  0.00000000000E+00 -0.00000000000E+00 -0.47382790650E+04  0.47382790650E+04  0.00000000000E+00 0.  1.
         23    2    1    2    0    0 -0.86095647886E+03 -0.20865948922E+04 -0.33219794844E+03  0.22833572563E+04  0.90777640952E+02 0.  0.
         11    1    3    3    0    0 -0.58447092774E+03 -0.13017676335E+04 -0.21114083893E+03  0.14424928738E+04  0.00000000000E+00 0.  1.
        -11    1    3    3    0    0 -0.27648555112E+03 -0.78482725868E+03 -0.12105710951E+03  0.84086438247E+03  0.00000000000E+00 0. -1.
         22    1    1    2    0    0  0.86095647886E+03  0.20865948922E+04 -0.30591910028E+04  0.38018119225E+04  0.00000000000E+00 0.  1.
<mgrwt>
<rscale>  0 0.50525009E+04</rscale>
<asrwt>0</asrwt>
<pdfrwt beam="1">  1        2 0.72896601E+00 0.50525009E+04</pdfrwt>
<pdfrwt beam="2">  1       -2 0.20721386E+00 0.50525009E+04</pdfrwt>
<totfact> 0.59549877E-03</totfact>
</mgrwt>
</event>
<event>
 6    1  0.1637818E-005  0.1702166E+04  0.7818608E-02  0.8760130E-01
          2   -1    0    0  501    0  0.00000000000E+00  0.00000000000E+00  0.12578710475E+04  0.12578710475E+04  0.00000000000E+00 0. -1.
         -2   -1    0    0    0  501 -0.00000000000E+00 -0.00000000000E+00 -0.57584783315E+03  0.57584783315E+03  0.00000000000E+00 0.  1.
         23    2    1    2    0    0 -0.33287532997E+03 -0.34103734946E+03 -0.41470050845E+03  0.63792818693E+03  0.88675819422E+02 0.  0.
         11    1    3    3    0    0 -0.42633013828E+02 -0.93783666040E+02 -0.99597760604E+02  0.14329223217E+03  0.00000000000E+00 0.  1.
        -11    1    3    3    0    0 -0.29024231614E+03 -0.24725368342E+03 -0.31510274785E+03  0.49463595476E+03  0.00000000000E+00 0. -1.
         22    1    1    2    0    0  0.33287532997E+03  0.34103734946E+03  0.10967237228E+04  0.11957906937E+04  0.00000000000E+00 0. -1.
<mgrwt>
<rscale>  0 0.17021661E+04</rscale>
<asrwt>0</asrwt>
<pdfrwt beam="1">  1        2 0.19351862E+00 0.17021661E+04</pdfrwt>
<pdfrwt beam="2">  1       -2 0.88591975E-01 0.17021661E+04</pdfrwt>
<totfact> 0.18248498E+01</totfact>
</mgrwt>
</event>
<event>
 6    1  0.1637818E-005  0.1406755E+04  0.7818608E-02  0.8948943E-01
         -1   -1    0    0    0  501 -0.00000000000E+00  0.00000000000E+00  0.28887242179E+03  0.28887242179E+03  0.00000000000E+00 0.  1.
          1   -1    0    0  501    0  0.00000000000E+00 -0.00000000000E+00 -0.17126600281E+04  0.17126600281E+04  0.00000000000E+00 0. -1.
         23    2    1    2    0    0 -0.40125970361E+03 -0.26940334100E+03 -0.14361832262E+04  0.15180646006E+04  0.91161190050E+02 0.  0.
         11    1    3    3    0    0 -0.15855363783E+03 -0.15649556489E+03 -0.59634216420E+03  0.63659570741E+03  0.00000000000E+00 0. -1.
        -11    1    3    3    0    0 -0.24270606578E+03 -0.11290777611E+03 -0.83984106196E+03  0.88146889317E+03  0.00000000000E+00 0.  1.
         22    1    1    2    0    0  0.40125970361E+03  0.26940334100E+03  0.12395619882E+02  0.48346784927E+03  0.00000000000E+00 0.  1.
<mgrwt>
<rscale>  0 0.14067555E+04</rscale>
<asrwt>0</asrwt>
<pdfrwt beam="1">  1        1 0.26348615E+00 0.14067555E+04</pdfrwt>
<pdfrwt beam="2">  1       -1 0.44441912E-01 0.14067555E+04</pdfrwt>
<totfact> 0.22828346E+01</totfact>
</mgrwt>
</event>
<event>
 6    1  0.1637818E-005  0.7258703E+03  0.7818608E-02  0.9673986E-01
          1   -1    0    0  501    0  0.00000000000E+00  0.00000000000E+00  0.20686934743E+04  0.20686934743E+04  0.00000000000E+00 0. -1.
         -1   -1    0    0    0  501 -0.00000000000E+00 -0.00000000000E+00 -0.63673961966E+02  0.63673961966E+02  0.00000000000E+00 0.  1.
         23    2    1    2    0    0  0.18367574307E+03 -0.18660768559E+03  0.17326833312E+04  0.17545762208E+04  0.88243875172E+02 0.  0.
         13    1    3    3    0    0  0.11464239908E+03 -0.15618517919E+03  0.14065859337E+04  0.14198664299E+04  0.00000000000E+00 0. -1.
        -13    1    3    3    0    0  0.69033343992E+02 -0.30422506397E+02  0.32609739754E+03  0.33470979096E+03  0.00000000000E+00 0.  1.
         22    1    1    2    0    0 -0.18367574307E+03  0.18660768559E+03  0.27233618110E+03  0.37779121542E+03  0.00000000000E+00 0. -1.
<mgrwt>
<rscale>  0 0.72587026E+03</rscale>
<asrwt>0</asrwt>
<pdfrwt beam="1">  1        1 0.31826048E+00 0.72587026E+03</pdfrwt>
<pdfrwt beam="2">  1       -1 0.97959957E-02 0.72587026E+03</pdfrwt>
<totfact> 0.18027885E+02</totfact>
</mgrwt>
</event>
<event>
 6    1  0.1637818E-005  0.3317193E+04  0.7818608E-02  0.8158534E-01
         -2   -1    0    0    0  501 -0.00000000000E+00  0.00000000000E+00  0.11101105596E+04  0.11101105596E+04  0.00000000000E+00 0.  1.
          2   -1    0    0  501    0  0.00000000000E+00 -0.00000000000E+00 -0.24780796132E+04  0.24780796132E+04  0.00000000000E+00 0. -1.
         23    2    1    2    0    0  0.15596734614E+03  0.16092013219E+04 -0.10786505140E+04  0.19457651594E+04  0.93061359741E+02 0.  0.
         13    1    3    3    0    0  0.15185720210E+03  0.12405688896E+04 -0.80489888888E+03  0.14865846767E+04  0.00000000000E+00 0. -1.
        -13    1    3    3    0    0  0.41101440487E+01  0.36863243223E+03 -0.27375162514E+03  0.45918048265E+03  0.00000000000E+00 0.  1.
         22    1    1    2    0    0 -0.15596734614E+03 -0.16092013219E+04 -0.28931853957E+03  0.16424250134E+04  0.00000000000E+00 0. -1.
<mgrwt>
<rscale>  0 0.33171930E+04</rscale>
<asrwt>0</asrwt>
<pdfrwt beam="1">  1        2 0.38124302E+00 0.33171930E+04</pdfrwt>
<pdfrwt beam="2">  1       -2 0.17078624E+00 0.33171930E+04</pdfrwt>
<totfact> 0.62893028E-01</totfact>
</mgrwt>
</event>
<event>
 6    1  0.1637818E-005  0.1990436E+04  0.7818608E-02  0.8611105E-01
         -2   -1    0    0    0  501 -0.00000000000E+00  0.00000000000E+00  0.47199651686E+03  0.47199651686E+03  0.00000000000E+00 0.  1.
          2   -1    0    0  501    0  0.00000000000E+00 -0.00000000000E+00 -0.20984462044E+04  0.20984462044E+04  0.00000000000E+00 0. -1.
         23    2    1    2    0    0  0.98371560018E+03  0.11393428898E+03 -0.91181482252E+03  0.13492218590E+04  0.91191830059E+02 0.  0.
         11    1    3    3    0    0  0.72965394394E+03  0.11652485587E+03 -0.64542078895E+03  0.98109169539E+03  0.00000000000E+00 0. -1.
        -11    1    3    3    0    0  0.25406165624E+03 -0.25905668920E+01 -0.26639403357E+03  0.36813016357E+03  0.00000000000E+00 0.  1.
         22    1    1    2    0    0 -0.98371560018E+03 -0.11393428898E+03 -0.71463486503E+03  0.12212208623E+04  0.00000000000E+00 0. -1.
<mgrwt>
<rscale>  0 0.19904364E+04</rscale>
<asrwt>0</asrwt>
<pdfrwt beam="1">  1        2 0.32283788E+00 0.19904364E+04</pdfrwt>
<pdfrwt beam="2">  1       -2 0.72614848E-01 0.19904364E+04</pdfrwt>
<totfact> 0.93885158E+00</totfact>
</mgrwt>
</event>
<event>
 6    1  0.1637818E-005  0.1833923E+04  0.7818608E-02  0.8688465E-01
         -2   -1    0    0    0  501 -0.00000000000E+00  0.00000000000E+00  0.43970091004E+03  0.43970091004E+03  0.00000000000E+00 0.  1.
          2   -1    0    0  501    0  0.00000000000E+00 -0.00000000000E+00 -0.19122506789E+04  0.19122506789E+04  0.00000000000E+00 0. -1.
         23    2    1    2    0    0  0.31211730167E+03  0.19142620061E+03 -0.18134152049E+04  0.18517012059E+04  0.79129328090E+02 0.  0.
         11    1    3    3    0    0  0.28920941404E+03  0.18869160264E+03 -0.15882275050E+04  0.16253348005E+04  0.00000000000E+00 0. -1.
        -11    1    3    3    0    0  0.22907887626E+02  0.27345979689E+01 -0.22518769985E+03  0.22636640542E+03  0.00000000000E+00 0.  1.
         22    1    1    2    0    0 -0.31211730167E+03 -0.19142620061E+03  0.34086543598E+03  0.50025038303E+03  0.00000000000E+00 0.  1.
<mgrwt>
<rscale>  0 0.18339230E+04</rscale>
<asrwt>0</asrwt>
<pdfrwt beam="1">  1        2 0.29419241E+00 0.18339230E+04</pdfrwt>
<pdfrwt beam="2">  1       -2 0.67646294E-01 0.18339230E+04</pdfrwt>
<totfact> 0.14094427E+01</totfact>
</mgrwt>
</event>
<event>
 6    1  0.1637818E-005  0.1429510E+04  0.7818608E-02  0.8932730E-01
         -1   -1    0    0    0  501 -0.00000000000E+00  0.00000000000E+00  0.31959075151E+03  0.31959075151E+03  0.00000000000E+00 0.  1.
          1   -1    0    0  501    0  0.00000000000E+00 -0.00000000000E+00 -0.15985276162E+04  0.15985276162E+04  0.00000000000E+00 0. -1.
         23    2    1    2    0    0  0.18485743302E+03  0.61910362148E+03 -0.10428588938E+04  0.12302271168E+04  0.91883196931E+02 0.  0.
         13    1    3    3    0    0  0.13051250432E+03  0.28088185087E+03 -0.51475907919E+03  0.60075372454E+03  0.00000000000E+00 0. -1.
        -13    1    3    3    0    0  0.54344928694E+02  0.33822177061E+03 -0.52809981464E+03  0.62947339230E+03  0.00000000000E+00 0.  1.
         22    1    1    2    0    0 -0.18485743302E+03 -0.61910362148E+03 -0.23607797083E+03  0.68789125084E+03  0.00000000000E+00 0.  1.
<mgrwt>
<rscale>  0 0.14295099E+04</rscale>
<asrwt>0</asrwt>
<pdfrwt beam="1">  1        1 0.24592733E+00 0.14295099E+04</pdfrwt>
<pdfrwt beam="2">  1       -1 0.49167808E-01 0.14295099E+04</pdfrwt>
<totfact> 0.22548732E+01</totfact>
</mgrwt>
</event>
<event>
 6    1  0.1637818E-005  0.2396940E+04  0.7818608E-02  0.8440650E-01
          2   -1    0    0  501    0  0.00000000000E+00  0.00000000000E+00  0.12717290034E+04  0.12717290034E+04  0.00000000000E+00 0. -1.
         -2   -1    0    0    0  501 -0.00000000000E+00 -0.00000000000E+00 -0.11294311153E+04  0.11294311153E+04  0.00000000000E+00 0.  1.
         23    2    1    2    0    0  0.27042315311E+03  0.31770581532E+03 -0.10522196620E+04  0.11358783934E+04  0.94804223096E+02 0.  0.
         11    1    3    3    0    0  0.31784882044E+02  0.27704212535E+02 -0.20278400018E+03  0.20712110672E+03  0.00000000000E+00 0.  1.
        -11    1    3    3    0    0  0.23863827107E+03  0.29000160279E+03 -0.84943566181E+03  0.92875728670E+03  0.00000000000E+00 0. -1.
         22    1    1    2    0    0 -0.27042315311E+03 -0.31770581532E+03  0.11945175501E+04  0.12652817253E+04  0.00000000000E+00 0. -1.
<mgrwt>
<rscale>  0 0.23969400E+04</rscale>
<asrwt>0</asrwt>
<pdfrwt beam="1">  1        2 0.19565062E+00 0.23969400E+04</pdfrwt>
<pdfrwt beam="2">  1       -2 0.17375863E+00 0.23969400E+04</pdfrwt>
<totfact> 0.30969368E+00</totfact>
</mgrwt>
</event>
<event>
 6    1  0.1637818E-005  0.2541104E+04  0.7818608E-02  0.8388487E-01
         -1   -1    0    0    0  501 -0.00000000000E+00  0.00000000000E+00  0.12443027274E+04  0.12443027274E+04  0.00000000000E+00 0.  1.
          1   -1    0    0  501    0  0.00000000000E+00 -0.00000000000E+00 -0.12973549734E+04  0.12973549734E+04  0.00000000000E+00 0. -1.
         23    2    1    2    0    0 -0.10939725849E+04 -0.60829818516E+03  0.18033225251E+03  0.12683662877E+04  0.97111378297E+02 0.  0.
         13    1    3    3    0    0 -0.63072659909E+03 -0.36381480681E+03  0.57802416200E+02  0.73042342225E+03  0.00000000000E+00 0. -1.
        -13    1    3    3    0    0 -0.46324598581E+03 -0.24448337836E+03  0.12252983631E+03  0.53794286541E+03  0.00000000000E+00 0.  1.
         22    1    1    2    0    0  0.10939725849E+04  0.60829818516E+03 -0.23338449847E+03  0.12732914131E+04  0.00000000000E+00 0. -1.
<mgrwt>
<rscale>  0 0.25411040E+04</rscale>
<asrwt>0</asrwt>
<pdfrwt beam="1">  1        1 0.19959307E+00 0.25411040E+04</pdfrwt>
<pdfrwt beam="2">  1       -1 0.19143119E+00 0.25411040E+04</pdfrwt>
<totfact> 0.13887088E+00</totfact>
</mgrwt>
</event>
<event>
 6    1  0.1637818E-005  0.6105685E+04  0.7818608E-02  0.7677435E-01
          2   -1    0    0  501    0  0.00000000000E+00  0.00000000000E+00  0.32510367551E+04  0.32510367551E+04  0.00000000000E+00 0. -1.
         -2   -1    0    0    0  501 -0.00000000000E+00 -0.00000000000E+00 -0.28667312788E+04  0.28667312788E+04  0.00000000000E+00 0.  1.
         23    2    1    2    0    0  0.11570963403E+04  0.21976745331E+04  0.19696706276E+04  0.31712399147E+04  0.92276331646E+02 0.  0.
         11    1    3    3    0    0  0.18926312984E+03  0.41046163846E+03  0.39265285818E+03  0.59872828228E+03  0.00000000000E+00 0. -1.
        -11    1    3    3    0    0  0.96783321042E+03  0.17872128946E+04  0.15770177694E+04  0.25725116324E+04  0.00000000000E+00 0.  1.
         22    1    1    2    0    0 -0.11570963403E+04 -0.21976745331E+04 -0.15853651512E+04  0.29465281191E+04  0.00000000000E+00 0.  1.
<mgrwt>
<rscale>  0 0.61056855E+04</rscale>
<asrwt>0</asrwt>
<pdfrwt beam="1">  1        2 0.50015950E+00 0.61056855E+04</pdfrwt>
<pdfrwt beam="2">  1       -2 0.44103558E+00 0.61056855E+04</pdfrwt>
<totfact> 0.31984744E-03</totfact>
</mgrwt>
</event>
<event>
 6    1  0.1637818E-005  0.1501623E+04  0.7818608E-02  0.8883374E-01
          1   -1    0    0  501    0  0.00000000000E+00  0.00000000000E+00  0.90162337909E+03  0.90162337909E+03  0.00000000000E+00 0. -1.
         -1   -1    0    0    0  501 -0.00000000000E+00 -0.00000000000E+00 -0.62522540090E+03  0.62522540090E+03  0.00000000000E+00 0.  1.
         23    2    1    2    0    0  0.40816504995E+03  0.17107908784E+03 -0.47448314901E+03  0.65524724862E+03  0.91367039121E+02 0.  0.
         13    1    3    3    0    0  0.33026803006E+03  0.17521609967E+03 -0.39520755348E+03  0.54402818272E+03  0.00000000000E+00 0. -1.
        -13    1    3    3    0    0  0.77897019895E+02 -0.41370118259E+01 -0.79275595524E+02  0.11121906591E+03  0.00000000000E+00 0.  1.
         22    1    1    2    0    0 -0.40816504995E+03 -0.17107908784E+03  0.75088112720E+03  0.87160153137E+03  0.00000000000E+00 0. -1.
<mgrwt>
<rscale>  0 0.15016229E+04</rscale>
<asrwt>0</asrwt>
<pdfrwt beam="1">  1        1 0.13871129E+00 0.15016229E+04</pdfrwt>
<pdfrwt beam="2">  1       -1 0.96188523E-01 0.15016229E+04</pdfrwt>
<totfact> 0.18274462E+01</totfact>
</mgrwt>
</event>
<event>
 6    1  0.1637818E-005  0.2113781E+04  0.7818608E-02  0.8555197E-01
          2   -1    0    0  501    0  0.00000000000E+00  0.00000000000E+00  0.14963273961E+04  0.14963273961E+04  0.00000000000E+00 0. -1.
         -2   -1    0    0    0  501 -0.00000000000E+00 -0.00000000000E+00 -0.74650627125E+03  0.74650627125E+03  0.00000000000E+00 0.  1.
         23    2    1    2    0    0  0.20856625120E+03  0.10243997238E+04  0.22579941851E+03  0.10734349228E+04  0.91555888937E+02 0.  0.
         11    1    3    3    0    0  0.18537341785E+02  0.17978574857E+03  0.89400830094E+01  0.18095986713E+03  0.00000000000E+00 0.  1.
        -11    1    3    3    0    0  0.19002890941E+03  0.84461397520E+03  0.21685933550E+03  0.89247505562E+03  0.00000000000E+00 0. -1.
         22    1    1    2    0    0 -0.20856625120E+03 -0.10243997238E+04  0.52402170637E+03  0.11693987446E+04  0.00000000000E+00 0.  1.
<mgrwt>
<rscale>  0 0.21137812E+04</rscale>
<asrwt>0</asrwt>
<pdfrwt beam="1">  1        2 0.23020421E+00 0.21137812E+04</pdfrwt>
<pdfrwt beam="2">  1       -2 0.11484712E+00 0.21137812E+04</pdfrwt>
<totfact> 0.69465994E+00</totfact>
</mgrwt>
</event>
<event>
 6    1  0.1637818E-005  0.6327389E+03  0.7818608E-02  0.9839719E-01
         -1   -1    0    0    0  501 -0.00000000000E+00  0.00000000000E+00  0.24626591686E+03  0.24626591686E+03  0.00000000000E+00 0.  1.
          1   -1    0    0  501    0  0.00000000000E+00 -0.00000000000E+00 -0.40642905553E+03  0.40642905553E+03  0.00000000000E+00 0. -1.
         23    2    1    2    0    0 -0.79995592238E+02 -0.25501205102E+03  0.79904164531E+02  0.29344192646E+03  0.91066172367E+02 0.  0.
         13    1    3    3    0    0 -0.40313056860E+02 -0.22147195624E+03  0.86310961255E+02  0.24109033989E+03  0.00000000000E+00 0.  1.
        -13    1    3    3    0    0 -0.39682535378E+02 -0.33540094777E+02 -0.64067967233E+01  0.52351586566E+02  0.00000000000E+00 0. -1.
         22    1    1    2    0    0  0.79995592238E+02  0.25501205102E+03 -0.24006730320E+03  0.35925304593E+03  0.00000000000E+00 0. -1.
<mgrwt>
<rscale>  0 0.63273888E+03</rscale>
<asrwt>0</asrwt>
<pdfrwt beam="1">  1        1 0.62527547E-01 0.63273888E+03</pdfrwt>
<pdfrwt beam="2">  1       -1 0.37887064E-01 0.63273888E+03</pdfrwt>
<totfact> 0.39980726E+02</totfact>
</mgrwt>
</event>
<event>
 6    1  0.1637818E-005  0.2103711E+04  0.7818608E-02  0.8559611E-01
         -1   -1    0    0    0  501 -0.00000000000E+00  0.00000000000E+00  0.99562275401E+03  0.99562275401E+03  0.00000000000E+00 0.  1.
          1   -1    0    0  501    0  0.00000000000E+00 -0.00000000000E+00 -0.11112640430E+04  0.11112640430E+04  0.00000000000E+00 0. -1.
         23    2    1    2    0    0  0.25418677477E+03 -0.89099480995E+03  0.43665811095E+03  0.10282222082E+04  0.89932951938E+02 0.  0.
         11    1    3    3    0    0  0.57413457785E+02 -0.10482212901E+03  0.40825388923E+02  0.12629606584E+03  0.00000000000E+00 0. -1.
        -11    1    3    3    0    0  0.19677331699E+03 -0.78617268093E+03  0.39583272202E+03  0.90192614240E+03  0.00000000000E+00 0.  1.
         22    1    1    2    0    0 -0.25418677477E+03  0.89099480995E+03 -0.55229939990E+03  0.10786645887E+04  0.00000000000E+00 0. -1.
<mgrwt>
<rscale>  0 0.21037108E+04</rscale>
<asrwt>0</asrwt>
<pdfrwt beam="1">  1        1 0.17096370E+00 0.21037108E+04</pdfrwt>
<pdfrwt beam="2">  1       -1 0.15317273E+00 0.21037108E+04</pdfrwt>
<totfact> 0.37685041E+00</totfact>
</mgrwt>
</event>
<event>
 6    1  0.1637818E-005  0.1414429E+04  0.7818608E-02  0.8943440E-01
         -2   -1    0    0    0  501 -0.00000000000E+00  0.00000000000E+00  0.20721736167E+03  0.20721736167E+03  0.00000000000E+00 0.  1.
          2   -1    0    0  501    0  0.00000000000E+00 -0.00000000000E+00 -0.24136588715E+04  0.24136588715E+04  0.00000000000E+00 0. -1.
         23    2    1    2    0    0 -0.52510810175E+03 -0.31374408407E+03 -0.46094154756E+03  0.77129682501E+03  0.90872510654E+02 0.  0.
         11    1    3    3    0    0 -0.63785052546E+02 -0.81338908021E+01 -0.59970629304E+02  0.87927069137E+02  0.00000000000E+00 0.  1.
        -11    1    3    3    0    0 -0.46132304921E+03 -0.30561019327E+03 -0.40097091825E+03  0.68336975588E+03  0.00000000000E+00 0. -1.
         22    1    1    2    0    0  0.52510810175E+03  0.31374408407E+03 -0.17454999623E+04  0.18495794082E+04  0.00000000000E+00 0. -1.
<mgrwt>
<rscale>  0 0.14144285E+04</rscale>
<asrwt>0</asrwt>
<pdfrwt beam="1">  1        2 0.37133211E+00 0.14144285E+04</pdfrwt>
<pdfrwt beam="2">  1       -2 0.31879596E-01 0.14144285E+04</pdfrwt>
<totfact> 0.34830448E+01</totfact>
</mgrwt>
</event>
<event>
 6    1  0.1637818E-005  0.1447844E+04  0.7818608E-02  0.8919897E-01
         -1   -1    0    0    0  501 -0.00000000000E+00  0.00000000000E+00  0.35811157615E+03  0.35811157615E+03  0.00000000000E+00 0.  1.
          1   -1    0    0  501    0  0.00000000000E+00 -0.00000000000E+00 -0.14634062707E+04  0.14634062707E+04  0.00000000000E+00 0. -1.
         23    2    1    2    0    0  0.24930808590E+03  0.57284768929E+03 -0.10184703479E+03  0.63947884466E+03  0.90837092881E+02 0.  0.
         11    1    3    3    0    0  0.88426804426E+02  0.26272671255E+03 -0.83998005778E+02  0.28965546810E+03  0.00000000000E+00 0. -1.
        -11    1    3    3    0    0  0.16088128148E+03  0.31012097674E+03 -0.17849029016E+02  0.34982337655E+03  0.00000000000E+00 0.  1.
         22    1    1    2    0    0 -0.24930808590E+03 -0.57284768929E+03 -0.10034476598E+04  0.11820390022E+04  0.00000000000E+00 0.  1.
<mgrwt>
<rscale>  0 0.14478435E+04</rscale>
<asrwt>0</asrwt>
<pdfrwt beam="1">  1        1 0.22513942E+00 0.14478435E+04</pdfrwt>
<pdfrwt beam="2">  1       -1 0.55094089E-01 0.14478435E+04</pdfrwt>
<totfact> 0.22436080E+01</totfact>
</mgrwt>
</event>
<event>
 6    1  0.1637818E-005  0.4204195E+04  0.7818608E-02  0.7964575E-01
         -2   -1    0    0    0  501 -0.00000000000E+00  0.00000000000E+00  0.13358907491E+04  0.13358907491E+04  0.00000000000E+00 0.  1.
          2   -1    0    0  501    0  0.00000000000E+00 -0.00000000000E+00 -0.33077662505E+04  0.33077662505E+04  0.00000000000E+00 0. -1.
         23    2    1    2    0    0  0.11355080930E+04 -0.10923029459E+04  0.54881539470E+03  0.16710509126E+04  0.93319130796E+02 0.  0.
         13    1    3    3    0    0  0.14886096824E+03 -0.18190564739E+03  0.62900446834E+02  0.24332225264E+03  0.00000000000E+00 0.  1.
        -13    1    3    3    0    0  0.98664712476E+03 -0.91039729856E+03  0.48591494787E+03  0.14277286600E+04  0.00000000000E+00 0. -1.
         22    1    1    2    0    0 -0.11355080930E+04  0.10923029459E+04 -0.25206908960E+04  0.29726060870E+04  0.00000000000E+00 0. -1.
<mgrwt>
<rscale>  0 0.42041952E+04</rscale>
<asrwt>0</asrwt>
<pdfrwt beam="1">  1        2 0.50888711E+00 0.42041952E+04</pdfrwt>
<pdfrwt beam="2">  1       -2 0.20552165E+00 0.42041952E+04</pdfrwt>
<totfact> 0.10440810E-01</totfact>
</mgrwt>
</event>
<event>
 6    1  0.1637818E-005  0.2991676E+04  0.7818608E-02  0.8246112E-01
         -2   -1    0    0    0  501 -0.00000000000E+00  0.00000000000E+00  0.86885834739E+03  0.86885834739E+03  0.00000000000E+00 0. -1.
          2   -1    0    0  501    0  0.00000000000E+00 -0.00000000000E+00 -0.25752552603E+04  0.25752552603E+04  0.00000000000E+00 0.  1.
         23    2    1    2    0    0  0.85639746458E+03 -0.97712146396E+03 -0.17039577798E+04  0.21448103629E+04  0.92500835900E+02 0.  0.
         11    1    3    3    0    0  0.10340157761E+03 -0.77115711503E+02 -0.15962851413E+03  0.20523153202E+03  0.00000000000E+00 0.  1.
        -11    1    3    3    0    0  0.75299588697E+03 -0.90000575245E+03 -0.15443292657E+04  0.19395788309E+04  0.00000000000E+00 0. -1.
         22    1    1    2    0    0 -0.85639746458E+03  0.97712146396E+03 -0.24391331133E+01  0.12993032448E+04  0.00000000000E+00 0. -1.
<mgrwt>
<rscale>  0 0.29916765E+04</rscale>
<asrwt>0</asrwt>
<pdfrwt beam="1">  1        2 0.39619311E+00 0.29916765E+04</pdfrwt>
<pdfrwt beam="2">  1       -2 0.13367052E+00 0.29916765E+04</pdfrwt>
<totfact> 0.10903271E+00</totfact>
</mgrwt>
</event>
<event>
 6    1  0.1637818E-005  0.8527760E+03  0.7818608E-02  0.9486619E-01
         -2   -1    0    0    0  501 -0.00000000000E+00  0.00000000000E+00  0.30645578297E+03  0.30645578297E+03  0.00000000000E+00 0.  1.
          2   -1    0    0  501    0  0.00000000000E+00 -0.00000000000E+00 -0.59325604081E+03  0.59325604081E+03  0.00000000000E+00 0. -1.
         23    2    1    2    0    0 -0.51949584728E+02 -0.26897545077E+03 -0.48306132447E+03  0.56271781976E+03  0.90865554583E+02 0.  0.
         11    1    3    3    0    0 -0.22934623831E+02 -0.16221252205E+03 -0.19829880354E+03  0.25721841840E+03  0.00000000000E+00 0. -1.
        -11    1    3    3    0    0 -0.29014960897E+02 -0.10676292872E+03 -0.28476252093E+03  0.30549940136E+03  0.00000000000E+00 0.  1.
         22    1    1    2    0    0  0.51949584728E+02  0.26897545077E+03  0.19626106663E+03  0.33699400402E+03  0.00000000000E+00 0.  1.
<mgrwt>
<rscale>  0 0.85277604E+03</rscale>
<asrwt>0</asrwt>
<pdfrwt beam="1">  1        2 0.91270161E-01 0.85277604E+03</pdfrwt>
<pdfrwt beam="2">  1       -2 0.47147043E-01 0.85277604E+03</pdfrwt>
<totfact> 0.21546861E+02</totfact>
</mgrwt>
</event>
<event>
 6    1  0.1637818E-005  0.3936956E+04  0.7818608E-02  0.8017387E-01
          2   -1    0    0  501    0  0.00000000000E+00  0.00000000000E+00  0.16082817227E+04  0.16082817227E+04  0.00000000000E+00 0. -1.
         -2   -1    0    0    0  501 -0.00000000000E+00 -0.00000000000E+00 -0.24093455726E+04  0.24093455726E+04  0.00000000000E+00 0.  1.
         23    2    1    2    0    0  0.57917068804E+03 -0.18799250906E+04 -0.44515117082E+03  0.20185698006E+04  0.83111027004E+02 0.  0.
         13    1    3    3    0    0  0.16966792854E+03 -0.43201498604E+03 -0.10012456373E+03  0.47481478747E+03  0.00000000000E+00 0.  1.
        -13    1    3    3    0    0  0.40950275950E+03 -0.14479101045E+04 -0.34502660708E+03  0.15437550131E+04  0.00000000000E+00 0. -1.
         22    1    1    2    0    0 -0.57917068804E+03  0.18799250906E+04 -0.35591267915E+03  0.19990574947E+04  0.00000000000E+00 0.  1.
<mgrwt>
<rscale>  0 0.39369564E+04</rscale>
<asrwt>0</asrwt>
<pdfrwt beam="1">  1        2 0.24742796E+00 0.39369564E+04</pdfrwt>
<pdfrwt beam="2">  1       -2 0.37066855E+00 0.39369564E+04</pdfrwt>
<totfact> 0.10052955E-01</totfact>
</mgrwt>
</event>
<event>
 6    1  0.1637818E-005  0.8186377E+03  0.7818608E-02  0.9533425E-01
          2   -1    0    0  501    0  0.00000000000E+00  0.00000000000E+00  0.19643577822E+04  0.19643577822E+04  0.00000000000E+00 0. -1.
         -2   -1    0    0    0  501 -0.00000000000E+00 -0.00000000000E+00 -0.85290941200E+02  0.85290941200E+02  0.00000000000E+00 0.  1.
         23    2    1    2    0    0  0.11033416786E+03 -0.38655120351E+03  0.10742918221E+04  0.11500608774E+04  0.83316512748E+02 0.  0.
         11    1    3    3    0    0  0.86338853252E+02 -0.16602683680E+03  0.44183098413E+03  0.47982697575E+03  0.00000000000E+00 0.  1.
        -11    1    3    3    0    0  0.23995314611E+02 -0.22052436671E+03  0.63246083793E+03  0.67023390168E+03  0.00000000000E+00 0. -1.
         22    1    1    2    0    0 -0.11033416786E+03  0.38655120351E+03  0.80477501896E+03  0.89958784600E+03  0.00000000000E+00 0.  1.
<mgrwt>
<rscale>  0 0.81863771E+03</rscale>
<asrwt>0</asrwt>
<pdfrwt beam="1">  1        2 0.30220886E+00 0.81863771E+03</pdfrwt>
<pdfrwt beam="2">  1       -2 0.13121685E-01 0.81863771E+03</pdfrwt>
<totfact> 0.31216656E+02</totfact>
</mgrwt>
</event>
<event>
 6    1  0.1637818E-005  0.2397059E+03  0.7818608E-02  0.1119989E+00
          1   -1    0    0  501    0  0.00000000000E+00  0.00000000000E+00  0.78775995103E+03  0.78775995103E+03  0.00000000000E+00 0. -1.
         -1   -1    0    0    0  501 -0.00000000000E+00 -0.00000000000E+00 -0.18234911340E+02  0.18234911340E+02  0.00000000000E+00 0.  1.
         23    2    1    2    0    0 -0.59441041701E+02 -0.22900907169E+01  0.71942427237E+03  0.72822231683E+03  0.95906084788E+02 0.  0.
         13    1    3    3    0    0 -0.12033090657E+02 -0.46496169744E+02  0.31033333223E+03  0.31402781113E+03  0.00000000000E+00 0.  1.
        -13    1    3    3    0    0 -0.47407951044E+02  0.44206079027E+02  0.40909094014E+03  0.41419450570E+03  0.00000000000E+00 0. -1.
         22    1    1    2    0    0  0.59441041701E+02  0.22900907169E+01  0.50100767324E+02  0.77772545544E+02  0.00000000000E+00 0.  1.
<mgrwt>
<rscale>  0 0.23970593E+03</rscale>
<asrwt>0</asrwt>
<pdfrwt beam="1">  1        1 0.12119381E+00 0.23970593E+03</pdfrwt>
<pdfrwt beam="2">  1       -1 0.28053716E-02 0.23970593E+03</pdfrwt>
<totfact> 0.97470869E+03</totfact>
</mgrwt>
</event>
<event>
 6    1  0.1637818E-005  0.1799323E+04  0.7818608E-02  0.8706659E-01
         -1   -1    0    0    0  501 -0.00000000000E+00  0.00000000000E+00  0.35648088314E+03  0.35648088314E+03  0.00000000000E+00 0.  1.
          1   -1    0    0  501    0  0.00000000000E+00 -0.00000000000E+00 -0.22705038858E+04  0.22705038858E+04  0.00000000000E+00 0. -1.
         23    2    1    2    0    0 -0.65468310691E+03  0.38291180465E+03 -0.26177905983E+03  0.80897996498E+03  0.10338707350E+03 0.  0.
         11    1    3    3    0    0 -0.11794779152E+03  0.41484584435E+02 -0.12124334687E+02  0.12561708387E+03  0.00000000000E+00 0.  1.
        -11    1    3    3    0    0 -0.53673531539E+03  0.34142722021E+03 -0.24965472514E+03  0.68336288111E+03  0.00000000000E+00 0. -1.
         22    1    1    2    0    0  0.65468310691E+03 -0.38291180465E+03 -0.16522439428E+04  0.18180048039E+04  0.00000000000E+00 0. -1.
<mgrwt>
<rscale>  0 0.17993235E+04</rscale>
<asrwt>0</asrwt>
<pdfrwt beam="1">  1        1 0.34930830E+00 0.17993235E+04</pdfrwt>
<pdfrwt beam="2">  1       -1 0.54843211E-01 0.17993235E+04</pdfrwt>
<totfact> 0.61848694E+00</totfact>
</mgrwt>
</event>
<event>
 6    1  0.1637818E-005  0.1715919E+04  0.7818608E-02  0.8752337E-01
         -1   -1    0    0    0  501 -0.00000000000E+00  0.00000000000E+00  0.75609669600E+03  0.75609669600E+03  0.00000000000E+00 0.  1.
          1   -1    0    0  501    0  0.00000000000E+00 -0.00000000000E+00 -0.97354538561E+03  0.97354538561E+03  0.00000000000E+00 0. -1.
         23    2    1    2    0    0  0.29961838297E+03  0.40994117161E+03 -0.80312377296E+03  0.95450451779E+03  0.90819272199E+02 0.  0.
         13    1    3    3    0    0  0.19132845633E+03  0.18684552788E+03 -0.43555400237E+03  0.51110186702E+03  0.00000000000E+00 0. -1.
        -13    1    3    3    0    0  0.10828992664E+03  0.22309564373E+03 -0.36756977059E+03  0.44340265077E+03  0.00000000000E+00 0.  1.
         22    1    1    2    0    0 -0.29961838297E+03 -0.40994117161E+03  0.58567508335E+03  0.77513756382E+03  0.00000000000E+00 0.  1.
<mgrwt>
<rscale>  0 0.17159189E+04</rscale>
<asrwt>0</asrwt>
<pdfrwt beam="1">  1        1 0.14977621E+00 0.17159189E+04</pdfrwt>
<pdfrwt beam="2">  1       -1 0.11632257E+00 0.17159189E+04</pdfrwt>
<totfact> 0.10076024E+01</totfact>
</mgrwt>
</event>
<event>
 6    1  0.1637818E-005  0.1544367E+04  0.7818608E-02  0.8855474E-01
         -2   -1    0    0    0  501 -0.00000000000E+00  0.00000000000E+00  0.60333166679E+03  0.60333166679E+03  0.00000000000E+00 0.  1.
          2   -1    0    0  501    0  0.00000000000E+00 -0.00000000000E+00 -0.98829138186E+03  0.98829138186E+03  0.00000000000E+00 0. -1.
         23    2    1    2    0    0 -0.65759271337E+03  0.78331919512E+02 -0.59679970918E+03  0.89632437225E+03  0.93077500606E+02 0.  0.
         13    1    3    3    0    0 -0.43803687038E+03  0.23994554620E+02 -0.43836635396E+03  0.62017505493E+03  0.00000000000E+00 0.  1.
        -13    1    3    3    0    0 -0.21955584298E+03  0.54337364891E+02 -0.15843335522E+03  0.27614931733E+03  0.00000000000E+00 0. -1.
         22    1    1    2    0    0  0.65759271337E+03 -0.78331919512E+02  0.21183999411E+03  0.69529867639E+03  0.00000000000E+00 0.  1.
<mgrwt>
<rscale>  0 0.15443672E+04</rscale>
<asrwt>0</asrwt>
<pdfrwt beam="1">  1        2 0.15204483E+00 0.15443672E+04</pdfrwt>
<pdfrwt beam="2">  1       -2 0.92820257E-01 0.15443672E+04</pdfrwt>
<totfact> 0.24289128E+01</totfact>
</mgrwt>
</event>
<event>
 6    1  0.1637818E-005  0.3213590E+04  0.7818608E-02  0.8185237E-01
         -2   -1    0    0    0  501 -0.00000000000E+00  0.00000000000E+00  0.89682201859E+03  0.89682201859E+03  0.00000000000E+00 0.  1.
          2   -1    0    0  501    0  0.00000000000E+00 -0.00000000000E+00 -0.28788218874E+04  0.28788218874E+04  0.00000000000E+00 0. -1.
         23    2    1    2    0    0 -0.10571181094E+02 -0.13111636402E+04  0.96739705112E+02  0.13179173025E+04  0.91025295888E+02 0.  0.
         13    1    3    3    0    0  0.62597216071E+01 -0.43360001755E+03  0.73887207430E+02  0.43989484966E+03  0.00000000000E+00 0.  1.
        -13    1    3    3    0    0 -0.16830902701E+02 -0.87756362264E+03  0.22852497682E+02  0.87802245285E+03  0.00000000000E+00 0. -1.
         22    1    1    2    0    0  0.10571181094E+02  0.13111636402E+04 -0.20787395739E+04  0.24577266035E+04  0.00000000000E+00 0. -1.
<mgrwt>
<rscale>  0 0.32135904E+04</rscale>
<asrwt>0</asrwt>
<pdfrwt beam="1">  1        2 0.44289568E+00 0.32135904E+04</pdfrwt>
<pdfrwt beam="2">  1       -2 0.13797262E+00 0.32135904E+04</pdfrwt>
<totfact> 0.64916678E-01</totfact>
</mgrwt>
</event>
<event>
 6    1  0.1637818E-005  0.4235463E+04  0.7818608E-02  0.7958660E-01
         -2   -1    0    0    0  501 -0.00000000000E+00  0.00000000000E+00  0.16240087232E+04  0.16240087232E+04  0.00000000000E+00 0.  1.
          2   -1    0    0  501    0  0.00000000000E+00 -0.00000000000E+00 -0.27615537897E+04  0.27615537897E+04  0.00000000000E+00 0. -1.
         23    2    1    2    0    0 -0.65652289288E+03 -0.32523487856E+03 -0.26253149469E+04  0.27271719522E+04  0.91587399171E+02 0.  0.
         11    1    3    3    0    0 -0.49742200151E+03 -0.20830324845E+03 -0.19995952127E+04  0.20710383641E+04  0.00000000000E+00 0. -1.
        -11    1    3    3    0    0 -0.15910089137E+03 -0.11693163011E+03 -0.62571973420E+03  0.65613358816E+03  0.00000000000E+00 0.  1.
         22    1    1    2    0    0  0.65652289288E+03  0.32523487856E+03  0.14877698803E+04  0.16583905607E+04  0.00000000000E+00 0.  1.
<mgrwt>
<rscale>  0 0.42354633E+04</rscale>
<asrwt>0</asrwt>
<pdfrwt beam="1">  1        2 0.42485442E+00 0.42354633E+04</pdfrwt>
<pdfrwt beam="2">  1       -2 0.24984750E+00 0.42354633E+04</pdfrwt>
<totfact> 0.12157673E-01</totfact>
</mgrwt>
</event>
<event>
 6    1  0.1637818E-005  0.2961989E+04  0.7818608E-02  0.8254669E-01
         -2   -1    0    0    0  501 -0.00000000000E+00  0.00000000000E+00  0.12139035935E+04  0.12139035935E+04  0.00000000000E+00 0.  1.
          2   -1    0    0  501    0  0.00000000000E+00 -0.00000000000E+00 -0.18068529394E+04  0.18068529394E+04  0.00000000000E+00 0. -1.
         23    2    1    2    0    0  0.13213784993E+03 -0.90441743377E+03  0.88978460597E+03  0.12789381503E+04  0.92384205534E+02 0.  0.
         13    1    3    3    0    0  0.76448339942E+02 -0.63896660947E+03  0.67838482313E+03  0.93505542347E+03  0.00000000000E+00 0.  1.
        -13    1    3    3    0    0  0.55689509988E+02 -0.26545082430E+03  0.21139978283E+03  0.34388272685E+03  0.00000000000E+00 0. -1.
         22    1    1    2    0    0 -0.13213784993E+03  0.90441743377E+03 -0.14827339518E+04  0.17418183826E+04  0.00000000000E+00 0. -1.
<mgrwt>
<rscale>  0 0.29619894E+04</rscale>
<asrwt>0</asrwt>
<pdfrwt beam="1">  1        2 0.27797738E+00 0.29619894E+04</pdfrwt>
<pdfrwt beam="2">  1       -2 0.18675440E+00 0.29619894E+04</pdfrwt>
<totfact> 0.11974732E+00</totfact>
</mgrwt>
</event>
<event>
 6    1  0.1637818E-005  0.5028545E+04  0.7818608E-02  0.7824119E-01
         -2   -1    0    0    0  501 -0.00000000000E+00  0.00000000000E+00  0.16300894998E+04  0.16300894998E+04  0.00000000000E+00 0.  1.
          2   -1    0    0  501    0  0.00000000000E+00 -0.00000000000E+00 -0.38780477963E+04  0.38780477963E+04  0.00000000000E+00 0. -1.
         23    2    1    2    0    0  0.48083301700E+03 -0.21822605914E+04  0.13612620450E+03  0.22405203377E+04  0.89103091690E+02 0.  0.
         13    1    3    3    0    0  0.11585881605E+03 -0.52080118078E+03 -0.54953395423E+01  0.53356099362E+03  0.00000000000E+00 0. -1.
        -13    1    3    3    0    0  0.36497420095E+03 -0.16614594106E+04  0.14162154405E+03  0.17069593441E+04  0.00000000000E+00 0.  1.
         22    1    1    2    0    0 -0.48083301700E+03  0.21822605914E+04 -0.23840845009E+04  0.32676169584E+04  0.00000000000E+00 0. -1.
<mgrwt>
<rscale>  0 0.50285445E+04</rscale>
<asrwt>0</asrwt>
<pdfrwt beam="1">  1        2 0.59662273E+00 0.50285445E+04</pdfrwt>
<pdfrwt beam="2">  1       -2 0.25078300E+00 0.50285445E+04</pdfrwt>
<totfact> 0.19665092E-02</totfact>
</mgrwt>
</event>
<event>
 6    1  0.1637818E-005  0.2310495E+04  0.7818608E-02  0.8473794E-01
          3   -1    0    0  501    0  0.00000000000E+00  0.00000000000E+00  0.97670793978E+03  0.97670793978E+03  0.00000000000E+00 0. -1.
         -3   -1    0    0    0  501 -0.00000000000E+00 -0.00000000000E+00 -0.13664238593E+04  0.13664238593E+04  0.00000000000E+00 0.  1.
         23    2    1    2    0    0  0.15555722727E+03  0.91064521577E+03  0.50527183925E+03  0.10568674995E+04  0.90534634664E+02 0.  0.
         11    1    3    3    0    0  0.62089775174E+02  0.57297996349E+03  0.34377765104E+03  0.67107693456E+03  0.00000000000E+00 0. -1.
        -11    1    3    3    0    0  0.93467452095E+02  0.33766525228E+03  0.16149418820E+03  0.38579056497E+03  0.00000000000E+00 0.  1.
         22    1    1    2    0    0 -0.15555722727E+03 -0.91064521577E+03 -0.89498775874E+03  0.12862642995E+04  0.00000000000E+00 0.  1.
<mgrwt>
<rscale>  0 0.23104952E+04</rscale>
<asrwt>0</asrwt>
<pdfrwt beam="1">  1        3 0.15026276E+00 0.23104952E+04</pdfrwt>
<pdfrwt beam="2">  1       -3 0.21021905E+00 0.23104952E+04</pdfrwt>
<totfact> 0.96144482E-02</totfact>
</mgrwt>
</event>
<event>
 6    1  0.1637818E-005  0.1680414E+04  0.7818608E-02  0.8772614E-01
          1   -1    0    0  501    0  0.00000000000E+00  0.00000000000E+00  0.11197550603E+04  0.11197550603E+04  0.00000000000E+00 0. -1.
         -1   -1    0    0    0  501 -0.00000000000E+00 -0.00000000000E+00 -0.63044876254E+03  0.63044876254E+03  0.00000000000E+00 0.  1.
         23    2    1    2    0    0 -0.60855388290E+03  0.56991533722E+03  0.16079879427E+03  0.85406850949E+03  0.91844687752E+02 0.  0.
         11    1    3    3    0    0 -0.20053515789E+03  0.22238635284E+03  0.21061633284E+02  0.30018932672E+03  0.00000000000E+00 0.  1.
        -11    1    3    3    0    0 -0.40801872501E+03  0.34752898438E+03  0.13973716099E+03  0.55387918277E+03  0.00000000000E+00 0. -1.
         22    1    1    2    0    0  0.60855388290E+03 -0.56991533722E+03  0.32850750348E+03  0.89613531335E+03  0.00000000000E+00 0. -1.
<mgrwt>
<rscale>  0 0.16804145E+04</rscale>
<asrwt>0</asrwt>
<pdfrwt beam="1">  1        1 0.17227001E+00 0.16804145E+04</pdfrwt>
<pdfrwt beam="2">  1       -1 0.96992117E-01 0.16804145E+04</pdfrwt>
<totfact> 0.11934767E+01</totfact>
</mgrwt>
</event>
<event>
 6    1  0.1637818E-005  0.1411614E+04  0.7818608E-02  0.8945454E-01
          2   -1    0    0  501    0  0.00000000000E+00  0.00000000000E+00  0.15221724397E+04  0.15221724397E+04  0.00000000000E+00 0. -1.
         -2   -1    0    0    0  501 -0.00000000000E+00 -0.00000000000E+00 -0.32727149309E+03  0.32727149309E+03  0.00000000000E+00 0.  1.
         23    2    1    2    0    0  0.17524936062E+03 -0.19458537607E+03  0.14544585667E+04  0.14807354231E+04  0.92476289083E+02 0.  0.
         11    1    3    3    0    0  0.14657364578E+03 -0.10613210404E+03  0.83917089001E+03  0.85846120459E+03  0.00000000000E+00 0. -1.
        -11    1    3    3    0    0  0.28675714835E+02 -0.88453272035E+02  0.61528767667E+03  0.62227421850E+03  0.00000000000E+00 0.  1.
         22    1    1    2    0    0 -0.17524936062E+03  0.19458537607E+03 -0.25955762008E+03  0.36870850969E+03  0.00000000000E+00 0.  1.
<mgrwt>
<rscale>  0 0.14116142E+04</rscale>
<asrwt>0</asrwt>
<pdfrwt beam="1">  1        2 0.23418037E+00 0.14116142E+04</pdfrwt>
<pdfrwt beam="2">  1       -2 0.50349461E-01 0.14116142E+04</pdfrwt>
<totfact> 0.44736492E+01</totfact>
</mgrwt>
</event>
<event>
 6    1  0.1987429E-005  0.2232822E+04  0.7818608E-02  0.8504890E-01
          2   -1    0    0  501    0  0.00000000000E+00  0.00000000000E+00  0.12119431480E+04  0.12119431480E+04  0.00000000000E+00 0. -1.
         -2   -1    0    0    0  501 -0.00000000000E+00 -0.00000000000E+00 -0.10284095807E+04  0.10284095807E+04  0.00000000000E+00 0.  1.
         23    2    1    2    0    0  0.78766731962E+03 -0.64189814497E+03  0.55157225367E+03  0.11596559583E+04  0.90094148671E+02 0.  0.
         13    1    3    3    0    0  0.39577799861E+03 -0.35303928713E+03  0.24398458483E+03  0.58378544010E+03  0.00000000000E+00 0. -1.
        -13    1    3    3    0    0  0.39188932102E+03 -0.28885885784E+03  0.30758766884E+03  0.57587051817E+03  0.00000000000E+00 0.  1.
         22    1    1    2    0    0 -0.78766731962E+03  0.64189814497E+03 -0.36803868636E+03  0.10806967704E+04  0.00000000000E+00 0.  1.
<mgrwt>
<rscale>  0 0.22328224E+04</rscale>
<asrwt>0</asrwt>
<pdfrwt beam="1">  1        2 0.18645279E+00 0.22328224E+04</pdfrwt>
<pdfrwt beam="2">  1       -2 0.15821686E+00 0.22328224E+04</pdfrwt>
<totfact> 0.44110798E+00</totfact>
</mgrwt>
</event>
<event>
 6    1  0.1637818E-005  0.2161476E+04  0.7818608E-02  0.8534636E-01
         -2   -1    0    0    0  501 -0.00000000000E+00  0.00000000000E+00  0.51592405281E+03  0.51592405281E+03  0.00000000000E+00 0.  1.
          2   -1    0    0  501    0  0.00000000000E+00 -0.00000000000E+00 -0.22638889250E+04  0.22638889250E+04  0.00000000000E+00 0. -1.
         23    2    1    2    0    0 -0.17592270539E+03 -0.10495988789E+04 -0.11067181043E+04  0.15373138744E+04  0.76826955840E+02 0.  0.
         13    1    3    3    0    0 -0.38023868075E+02 -0.97716698717E+02 -0.97573101521E+02  0.14323015706E+03  0.00000000000E+00 0. -1.
        -13    1    3    3    0    0 -0.13789883732E+03 -0.95188218015E+03 -0.10091450028E+04  0.13940837173E+04  0.00000000000E+00 0.  1.
         22    1    1    2    0    0  0.17592270539E+03  0.10495988789E+04 -0.64124676791E+03  0.12424991035E+04  0.00000000000E+00 0.  1.
<mgrwt>
<rscale>  0 0.21614761E+04</rscale>
<asrwt>0</asrwt>
<pdfrwt beam="1">  1        2 0.34829060E+00 0.21614761E+04</pdfrwt>
<pdfrwt beam="2">  1       -2 0.79372933E-01 0.21614761E+04</pdfrwt>
<totfact> 0.61306761E+00</totfact>
</mgrwt>
</event>
<event>
 6    1  0.1637818E-005  0.3540331E+04  0.7818608E-02  0.8104298E-01
          3   -1    0    0  501    0  0.00000000000E+00  0.00000000000E+00  0.14821011143E+04  0.14821011143E+04  0.00000000000E+00 0. -1.
         -3   -1    0    0    0  501 -0.00000000000E+00 -0.00000000000E+00 -0.21142183179E+04  0.21142183179E+04  0.00000000000E+00 0.  1.
         23    2    1    2    0    0  0.17840621563E+03  0.96486356033E+03  0.11789330606E+04  0.15365394615E+04  0.90993887794E+02 0.  0.
         11    1    3    3    0    0  0.13743719081E+03  0.72150566911E+03  0.94129758838E+03  0.11939432825E+04  0.00000000000E+00 0.  1.
        -11    1    3    3    0    0  0.40969024821E+02  0.24335789122E+03  0.23763547223E+03  0.34259617902E+03  0.00000000000E+00 0. -1.
         22    1    1    2    0    0 -0.17840621563E+03 -0.96486356033E+03 -0.18110502643E+04  0.20597799707E+04  0.00000000000E+00 0.  1.
<mgrwt>
<rscale>  0 0.35403307E+04</rscale>
<asrwt>0</asrwt>
<pdfrwt beam="1">  1        3 0.22801556E+00 0.35403307E+04</pdfrwt>
<pdfrwt beam="2">  1       -3 0.32526435E+00 0.35403307E+04</pdfrwt>
<totfact> 0.57669491E-03</totfact>
</mgrwt>
</event>
<event>
 6    1  0.1637818E-005  0.2267382E+04  0.7818608E-02  0.8490894E-01
         -1   -1    0    0    0  501 -0.00000000000E+00  0.00000000000E+00  0.98634578895E+03  0.98634578895E+03  0.00000000000E+00 0.  1.
          1   -1    0    0  501    0  0.00000000000E+00 -0.00000000000E+00 -0.13030478772E+04  0.13030478772E+04  0.00000000000E+00 0. -1.
         23    2    1    2    0    0  0.10892313910E+04  0.12775154476E+03  0.12394721150E+03  0.11074811120E+04  0.91684359130E+02 0.  0.
         13    1    3    3    0    0  0.37112115501E+03  0.75396069334E+00  0.50391181299E+02  0.37452737057E+03  0.00000000000E+00 0. -1.
        -13    1    3    3    0    0  0.71811023601E+03  0.12699758407E+03  0.73556030198E+02  0.73295374138E+03  0.00000000000E+00 0.  1.
         22    1    1    2    0    0 -0.10892313910E+04 -0.12775154476E+03 -0.44064929973E+03  0.11819125542E+04  0.00000000000E+00 0. -1.
<mgrwt>
<rscale>  0 0.22673824E+04</rscale>
<asrwt>0</asrwt>
<pdfrwt beam="1">  1        1 0.20046890E+00 0.22673824E+04</pdfrwt>
<pdfrwt beam="2">  1       -1 0.15174551E+00 0.22673824E+04</pdfrwt>
<totfact> 0.27588247E+00</totfact>
</mgrwt>
</event>
<event>
 6    1  0.1637818E-005  0.1487034E+04  0.7818608E-02  0.8893121E-01
          2   -1    0    0  501    0  0.00000000000E+00  0.00000000000E+00  0.47843833311E+03  0.47843833311E+03  0.00000000000E+00 0.  1.
         -2   -1    0    0    0  501 -0.00000000000E+00 -0.00000000000E+00 -0.11554621350E+04  0.11554621350E+04  0.00000000000E+00 0. -1.
         23    2    1    2    0    0 -0.16614434514E+03 -0.33416794107E+03 -0.10427615842E+04  0.11113717304E+04  0.92321424333E+02 0.  0.
         13    1    3    3    0    0 -0.72906885261E+02 -0.92732876806E+02 -0.43691842006E+03  0.45256215722E+03  0.00000000000E+00 0. -1.
        -13    1    3    3    0    0 -0.93237459884E+02 -0.24143506426E+03 -0.60584316413E+03  0.65880957317E+03  0.00000000000E+00 0.  1.
         22    1    1    2    0    0  0.16614434514E+03  0.33416794107E+03  0.36573778234E+03  0.52252873767E+03  0.00000000000E+00 0.  1.
<mgrwt>
<rscale>  0 0.14870338E+04</rscale>
<asrwt>0</asrwt>
<pdfrwt beam="1">  1        2 0.73605898E-01 0.14870338E+04</pdfrwt>
<pdfrwt beam="2">  1       -2 0.17776340E+00 0.14870338E+04</pdfrwt>
<totfact> 0.11766329E+01</totfact>
</mgrwt>
</event>
<event>
 6    1  0.1637818E-005  0.4364297E+04  0.7818608E-02  0.7934835E-01
         -1   -1    0    0    0  501 -0.00000000000E+00  0.00000000000E+00  0.21798111197E+04  0.21798111197E+04  0.00000000000E+00 0.  1.
          1   -1    0    0  501    0  0.00000000000E+00 -0.00000000000E+00 -0.21844884935E+04  0.21844884935E+04  0.00000000000E+00 0. -1.
         23    2    1    2    0    0 -0.82010789956E+03  0.12931267425E+04 -0.15556999648E+04  0.21847526839E+04  0.90488508840E+02 0.  0.
         11    1    3    3    0    0 -0.49210985609E+03  0.78895309621E+03 -0.88192376227E+03  0.12815649109E+04  0.00000000000E+00 0. -1.
        -11    1    3    3    0    0 -0.32799804348E+03  0.50417364628E+03 -0.67377620258E+03  0.90318777300E+03  0.00000000000E+00 0.  1.
         22    1    1    2    0    0  0.82010789956E+03 -0.12931267425E+04  0.15510225911E+04  0.21795469293E+04  0.00000000000E+00 0.  1.
<mgrwt>
<rscale>  0 0.43642971E+04</rscale>
<asrwt>0</asrwt>
<pdfrwt beam="1">  1        1 0.33607515E+00 0.43642971E+04</pdfrwt>
<pdfrwt beam="2">  1       -1 0.33535556E+00 0.43642971E+04</pdfrwt>
<totfact> 0.32923392E-02</totfact>
</mgrwt>
</event>
<event>
 6    1  0.1637818E-005  0.1611423E+04  0.7818608E-02  0.8813561E-01
         -1   -1    0    0    0  501 -0.00000000000E+00  0.00000000000E+00  0.11987050047E+04  0.11987050047E+04  0.00000000000E+00 0.  1.
          1   -1    0    0  501    0  0.00000000000E+00 -0.00000000000E+00 -0.54156019746E+03  0.54156019746E+03  0.00000000000E+00 0. -1.
         23    2    1    2    0    0  0.38429734287E+03  0.66894694230E+03  0.57045408355E+03  0.96393425409E+03  0.92611691599E+02 0.  0.
         11    1    3    3    0    0  0.21207311010E+03  0.45765394735E+03  0.36697405002E+03  0.62377246889E+03  0.00000000000E+00 0. -1.
        -11    1    3    3    0    0  0.17222423276E+03  0.21129299495E+03  0.20348003353E+03  0.34016178520E+03  0.00000000000E+00 0.  1.
         22    1    1    2    0    0 -0.38429734287E+03 -0.66894694230E+03  0.86690723688E+02  0.77633094806E+03  0.00000000000E+00 0.  1.
<mgrwt>
<rscale>  0 0.16114229E+04</rscale>
<asrwt>0</asrwt>
<pdfrwt beam="1">  1        1 0.83316954E-01 0.16114229E+04</pdfrwt>
<pdfrwt beam="2">  1       -1 0.18441615E+00 0.16114229E+04</pdfrwt>
<totfact> 0.73537630E+00</totfact>
</mgrwt>
</event>
<event>
 6    1  0.1637818E-005  0.1881421E+04  0.7818608E-02  0.8664160E-01
         -1   -1    0    0    0  501 -0.00000000000E+00  0.00000000000E+00  0.24871240678E+03  0.24871240678E+03  0.00000000000E+00 0. -1.
          1   -1    0    0  501    0  0.00000000000E+00 -0.00000000000E+00 -0.35580691090E+04  0.35580691090E+04  0.00000000000E+00 0.  1.
         23    2    1    2    0    0  0.34917343336E+03  0.84970320536E+03 -0.12698584842E+04  0.15699376220E+04  0.90807176861E+02 0.  0.
         13    1    3    3    0    0  0.18209724371E+03  0.52463720855E+03 -0.71102839001E+03  0.90220007657E+03  0.00000000000E+00 0.  1.
        -13    1    3    3    0    0  0.16707618965E+03  0.32506599680E+03 -0.55883009416E+03  0.66773754542E+03  0.00000000000E+00 0. -1.
         22    1    1    2    0    0 -0.34917343336E+03 -0.84970320536E+03 -0.20394982181E+04  0.22368438938E+04  0.00000000000E+00 0.  1.
<mgrwt>
<rscale>  0 0.18814207E+04</rscale>
<asrwt>0</asrwt>
<pdfrwt beam="1">  1        1 0.54739525E+00 0.18814207E+04</pdfrwt>
<pdfrwt beam="2">  1       -1 0.38263447E-01 0.18814207E+04</pdfrwt>
<totfact> 0.13995217E+00</totfact>
</mgrwt>
</event>
<event>
 6    1  0.1637818E-005  0.1401343E+04  0.7818608E-02  0.8952847E-01
          1   -1    0    0  501    0  0.00000000000E+00  0.00000000000E+00  0.14783302326E+04  0.14783302326E+04  0.00000000000E+00 0. -1.
         -1   -1    0    0    0  501 -0.00000000000E+00 -0.00000000000E+00 -0.33209102844E+03  0.33209102844E+03  0.00000000000E+00 0.  1.
         23    2    1    2    0    0  0.54582486399E+03  0.41908937240E+03  0.42719363994E+03  0.81513878474E+03  0.91630498047E+02 0.  0.
         13    1    3    3    0    0  0.42290754136E+03  0.28866772921E+03  0.34866142841E+03  0.61947125687E+03  0.00000000000E+00 0.  1.
        -13    1    3    3    0    0  0.12291732263E+03  0.13042164319E+03  0.78532211528E+02  0.19566752787E+03  0.00000000000E+00 0. -1.
         22    1    1    2    0    0 -0.54582486399E+03 -0.41908937240E+03  0.71904556424E+03  0.99528247632E+03  0.00000000000E+00 0. -1.
<mgrwt>
<rscale>  0 0.14013425E+04</rscale>
<asrwt>0</asrwt>
<pdfrwt beam="1">  1        1 0.22743542E+00 0.14013425E+04</pdfrwt>
<pdfrwt beam="2">  1       -1 0.51090928E-01 0.14013425E+04</pdfrwt>
<totfact> 0.25429920E+01</totfact>
</mgrwt>
</event>
<event>
 6    1  0.1637818E-005  0.4678828E+04  0.7818608E-02  0.7880056E-01
          2   -1    0    0  501    0  0.00000000000E+00  0.00000000000E+00  0.45532804611E+04  0.45532804611E+04  0.00000000000E+00 0. -1.
         -2   -1    0    0    0  501 -0.00000000000E+00 -0.00000000000E+00 -0.12019590807E+04  0.12019590807E+04  0.00000000000E+00 0.  1.
         23    2    1    2    0    0 -0.12755622998E+04 -0.13453556315E+04  0.34295825236E+04  0.38996626066E+04  0.91056046337E+02 0.  0.
         13    1    3    3    0    0 -0.73291815925E+03 -0.73365125175E+03  0.19932900608E+04  0.22469130944E+04  0.00000000000E+00 0.  1.
        -13    1    3    3    0    0 -0.54264414050E+03 -0.61170437978E+03  0.14362924628E+04  0.16527495122E+04  0.00000000000E+00 0. -1.
         22    1    1    2    0    0  0.12755622998E+04  0.13453556315E+04 -0.78261143256E+02  0.18555769352E+04  0.00000000000E+00 0.  1.
<mgrwt>
<rscale>  0 0.46788275E+04</rscale>
<asrwt>0</asrwt>
<pdfrwt beam="1">  1        2 0.70050467E+00 0.46788275E+04</pdfrwt>
<pdfrwt beam="2">  1       -2 0.18491678E+00 0.46788275E+04</pdfrwt>
<totfact> 0.13523577E-02</totfact>
</mgrwt>
</event>
<event>
 6    1  0.1637818E-005  0.1774664E+04  0.7818608E-02  0.8719890E-01
         -1   -1    0    0    0  501 -0.00000000000E+00  0.00000000000E+00  0.82920946227E+03  0.82920946227E+03  0.00000000000E+00 0.  1.
          1   -1    0    0  501    0  0.00000000000E+00 -0.00000000000E+00 -0.94952873214E+03  0.94952873214E+03  0.00000000000E+00 0. -1.
         23    2    1    2    0    0  0.36702420337E+03 -0.68151456786E+03  0.36980251532E+03  0.86255686062E+03  0.89897527253E+02 0.  0.
         11    1    3    3    0    0  0.92001614191E+02 -0.11682720299E+03  0.98500476939E+02  0.17836826043E+03  0.00000000000E+00 0.  1.
        -11    1    3    3    0    0  0.27502258918E+03 -0.56468736487E+03  0.27130203838E+03  0.68418860019E+03  0.00000000000E+00 0. -1.
         22    1    1    2    0    0 -0.36702420337E+03  0.68151456786E+03 -0.49012178518E+03  0.91618133379E+03  0.00000000000E+00 0. -1.
<mgrwt>
<rscale>  0 0.17746641E+04</rscale>
<asrwt>0</asrwt>
<pdfrwt beam="1">  1        1 0.14608134E+00 0.17746641E+04</pdfrwt>
<pdfrwt beam="2">  1       -1 0.12757069E+00 0.17746641E+04</pdfrwt>
<totfact> 0.83446296E+00</totfact>
</mgrwt>
</event>
<event>
 6    1  0.1637818E-005  0.2461536E+04  0.7818608E-02  0.8416818E-01
          2   -1    0    0  501    0  0.00000000000E+00  0.00000000000E+00  0.16276163008E+04  0.16276163008E+04  0.00000000000E+00 0. -1.
         -2   -1    0    0    0  501 -0.00000000000E+00 -0.00000000000E+00 -0.93067986980E+03  0.93067986980E+03  0.00000000000E+00 0.  1.
         23    2    1    2    0    0  0.12022797483E+04 -0.13888237152E+03  0.12623549484E+03  0.12202137872E+04  0.90671825293E+02 0.  0.
         11    1    3    3    0    0  0.69286275627E+03 -0.34883781462E+02  0.71142288818E+02  0.69737859338E+03  0.00000000000E+00 0. -1.
        -11    1    3    3    0    0  0.50941699204E+03 -0.10399859006E+03  0.55093206026E+02  0.52283519379E+03  0.00000000000E+00 0.  1.
         22    1    1    2    0    0 -0.12022797483E+04  0.13888237152E+03  0.57070093615E+03  0.13380823834E+04  0.00000000000E+00 0. -1.
<mgrwt>
<rscale>  0 0.24615359E+04</rscale>
<asrwt>0</asrwt>
<pdfrwt beam="1">  1        2 0.25040251E+00 0.24615359E+04</pdfrwt>
<pdfrwt beam="2">  1       -2 0.14318152E+00 0.24615359E+04</pdfrwt>
<totfact> 0.32619202E+00</totfact>
</mgrwt>
</event>
<event>
 6    1  0.1637818E-005  0.1175841E+04  0.7818608E-02  0.9134270E-01
         -1   -1    0    0    0  501 -0.00000000000E+00  0.00000000000E+00  0.23701881284E+03  0.23701881284E+03  0.00000000000E+00 0.  1.
          1   -1    0    0  501    0  0.00000000000E+00 -0.00000000000E+00 -0.14583246261E+04  0.14583246261E+04  0.00000000000E+00 0. -1.
         23    2    1    2    0    0  0.38773524781E+03  0.41544936922E+03 -0.42076717968E+03  0.71361083551E+03  0.96221641390E+02 0.  0.
         11    1    3    3    0    0  0.20237990915E+02  0.33005308656E+02 -0.37251268751E+01  0.38894771448E+02  0.00000000000E+00 0.  1.
        -11    1    3    3    0    0  0.36749725689E+03  0.38244406056E+03 -0.41704205281E+03  0.67471606406E+03  0.00000000000E+00 0. -1.
         22    1    1    2    0    0 -0.38773524781E+03 -0.41544936922E+03 -0.80053863357E+03  0.98173260342E+03  0.00000000000E+00 0. -1.
<mgrwt>
<rscale>  0 0.11758408E+04</rscale>
<asrwt>0</asrwt>
<pdfrwt beam="1">  1        1 0.22435763E+00 0.11758408E+04</pdfrwt>
<pdfrwt beam="2">  1       -1 0.36464433E-01 0.11758408E+04</pdfrwt>
<totfact> 0.49956034E+01</totfact>
</mgrwt>
</event>
<event>
 6    1  0.1637818E-005  0.4744585E+04  0.7818608E-02  0.7869162E-01
          2   -1    0    0  501    0  0.00000000000E+00  0.00000000000E+00  0.22776271731E+04  0.22776271731E+04  0.00000000000E+00 0. -1.
         -2   -1    0    0    0  501 -0.00000000000E+00 -0.00000000000E+00 -0.24708925806E+04  0.24708925806E+04  0.00000000000E+00 0.  1.
         23    2    1    2    0    0  0.86130488170E+03 -0.15279996087E+04 -0.16939487374E+04  0.24401265116E+04  0.90145239610E+02 0.  0.
         11    1    3    3    0    0  0.16227976309E+03 -0.26364859431E+03 -0.34503189927E+03  0.46356478975E+03  0.00000000000E+00 0. -1.
        -11    1    3    3    0    0  0.69902511861E+03 -0.12643510144E+04 -0.13489168381E+04  0.19765617218E+04  0.00000000000E+00 0.  1.
         22    1    1    2    0    0 -0.86130488170E+03  0.15279996087E+04  0.15006833299E+04  0.23083932421E+04  0.00000000000E+00 0. -1.
<mgrwt>
<rscale>  0 0.47445852E+04</rscale>
<asrwt>0</asrwt>
<pdfrwt beam="1">  1        2 0.35040418E+00 0.47445852E+04</pdfrwt>
<pdfrwt beam="2">  1       -2 0.38013732E+00 0.47445852E+04</pdfrwt>
<totfact> 0.34658563E-02</totfact>
</mgrwt>
</event>
<event>
 6    1  0.1637818E-005  0.1414996E+04  0.7818608E-02  0.8943034E-01
          2   -1    0    0  501    0  0.00000000000E+00  0.00000000000E+00  0.24712011630E+04  0.24712011630E+04  0.00000000000E+00 0. -1.
         -2   -1    0    0    0  501 -0.00000000000E+00 -0.00000000000E+00 -0.20255484256E+03  0.20255484256E+03  0.00000000000E+00 0.  1.
         23    2    1    2    0    0 -0.50646358186E+03 -0.18853595946E+03  0.28486580306E+03  0.61768297452E+03  0.91282876294E+02 0.  0.
         13    1    3    3    0    0 -0.20417775381E+03 -0.10508477303E+03  0.16130251345E+03  0.28062406440E+03  0.00000000000E+00 0.  1.
        -13    1    3    3    0    0 -0.30228582805E+03 -0.83451186428E+02  0.12356328960E+03  0.33705891012E+03  0.00000000000E+00 0. -1.
         22    1    1    2    0    0  0.50646358186E+03  0.18853595946E+03  0.19837805173E+04  0.20560730310E+04  0.00000000000E+00 0. -1.
<mgrwt>
<rscale>  0 0.14149965E+04</rscale>
<asrwt>0</asrwt>
<pdfrwt beam="1">  1        2 0.38018477E+00 0.14149965E+04</pdfrwt>
<pdfrwt beam="2">  1       -2 0.31162285E-01 0.14149965E+04</pdfrwt>
<totfact> 0.33696757E+01</totfact>
</mgrwt>
</event>
<event>
 6    1  0.1637818E-005  0.3678548E+04  0.7818608E-02  0.8072733E-01
         -2   -1    0    0    0  501 -0.00000000000E+00  0.00000000000E+00  0.13941953222E+04  0.13941953222E+04  0.00000000000E+00 0.  1.
          2   -1    0    0  501    0  0.00000000000E+00 -0.00000000000E+00 -0.24264378324E+04  0.24264378324E+04  0.00000000000E+00 0. -1.
         23    2    1    2    0    0 -0.35469719207E+03  0.89867760104E+02 -0.23874079688E+04  0.24169381262E+04  0.89368807786E+02 0.  0.
         11    1    3    3    0    0 -0.11709415191E+03 -0.16616004005E+01 -0.94505348218E+03  0.95228141088E+03  0.00000000000E+00 0.  1.
        -11    1    3    3    0    0 -0.23760304017E+03  0.91529360505E+02 -0.14423544866E+04  0.14646567153E+04  0.00000000000E+00 0. -1.
         22    1    1    2    0    0  0.35469719207E+03 -0.89867760104E+02  0.13551654587E+04  0.14036950284E+04  0.00000000000E+00 0.  1.
<mgrwt>
<rscale>  0 0.36785477E+04</rscale>
<asrwt>0</asrwt>
<pdfrwt beam="1">  1        2 0.37329813E+00 0.36785477E+04</pdfrwt>
<pdfrwt beam="2">  1       -2 0.21449159E+00 0.36785477E+04</pdfrwt>
<totfact> 0.33310228E-01</totfact>
</mgrwt>
</event>
<event>
 6    1  0.1637818E-005  0.1573570E+04  0.7818608E-02  0.8836951E-01
         -1   -1    0    0    0  501 -0.00000000000E+00  0.00000000000E+00  0.11893865659E+04  0.11893865659E+04  0.00000000000E+00 0.  1.
          1   -1    0    0  501    0  0.00000000000E+00 -0.00000000000E+00 -0.52046232145E+03  0.52046232145E+03  0.00000000000E+00 0. -1.
         23    2    1    2    0    0 -0.14673397521E+03 -0.75434189952E+03  0.50201008446E+03  0.92345019859E+03  0.10091374298E+03 0.  0.
         11    1    3    3    0    0 -0.84611603748E+02 -0.63124192706E+03  0.42243351979E+03  0.76424837102E+03  0.00000000000E+00 0.  1.
        -11    1    3    3    0    0 -0.62122371466E+02 -0.12309997246E+03  0.79576564665E+02  0.15920182756E+03  0.00000000000E+00 0. -1.
         22    1    1    2    0    0  0.14673397521E+03  0.75434189952E+03  0.16691415996E+03  0.78639868873E+03  0.00000000000E+00 0. -1.
<mgrwt>
<rscale>  0 0.15735703E+04</rscale>
<asrwt>0</asrwt>
<pdfrwt beam="1">  1        1 0.80071127E-01 0.15735703E+04</pdfrwt>
<pdfrwt beam="2">  1       -1 0.18298255E+00 0.15735703E+04</pdfrwt>
<totfact> 0.79849375E+00</totfact>
</mgrwt>
</event>
<event>
 6    1  0.1637818E-005  0.1501387E+04  0.7818608E-02  0.8883531E-01
         -1   -1    0    0    0  501 -0.00000000000E+00  0.00000000000E+00  0.30772702816E+03  0.30772702816E+03  0.00000000000E+00 0.  1.
          1   -1    0    0  501    0  0.00000000000E+00 -0.00000000000E+00 -0.18313007823E+04  0.18313007823E+04  0.00000000000E+00 0. -1.
         23    2    1    2    0    0 -0.48937743314E+03 -0.32588537300E+03 -0.10588538531E+03  0.60425360572E+03  0.90659565441E+02 0.  0.
         11    1    3    3    0    0 -0.29946132730E+03 -0.23885481053E+03 -0.39656843550E+02  0.38509917204E+03  0.00000000000E+00 0.  1.
        -11    1    3    3    0    0 -0.18991610584E+03 -0.87030562463E+02 -0.66228541760E+02  0.21915443368E+03  0.00000000000E+00 0. -1.
         22    1    1    2    0    0  0.48937743314E+03  0.32588537300E+03 -0.14176883688E+04  0.15347742047E+04  0.00000000000E+00 0. -1.
<mgrwt>
<rscale>  0 0.15013870E+04</rscale>
<asrwt>0</asrwt>
<pdfrwt beam="1">  1        1 0.28173858E+00 0.15013870E+04</pdfrwt>
<pdfrwt beam="2">  1       -1 0.47342620E-01 0.15013870E+04</pdfrwt>
<totfact> 0.16708990E+01</totfact>
</mgrwt>
</event>
<event>
 6    1  0.1637818E-005  0.4043852E+04  0.7818608E-02  0.7995758E-01
         -1   -1    0    0    0  501 -0.00000000000E+00  0.00000000000E+00  0.82697892149E+03  0.82697892149E+03  0.00000000000E+00 0. -1.
          1   -1    0    0  501    0  0.00000000000E+00 -0.00000000000E+00 -0.49435174065E+04  0.49435174065E+04  0.00000000000E+00 0.  1.
         23    2    1    2    0    0  0.26061018618E+03  0.18268737229E+04 -0.32350443932E+04  0.37254004617E+04  0.87812899214E+02 0.  0.
         13    1    3    3    0    0  0.83631363447E+02  0.34465698694E+03 -0.63223892219E+03  0.72491978752E+03  0.00000000000E+00 0. -1.
        -13    1    3    3    0    0  0.17697882273E+03  0.14822167359E+04 -0.26028054710E+04  0.30004806742E+04  0.00000000000E+00 0.  1.
         22    1    1    2    0    0 -0.26061018618E+03 -0.18268737229E+04 -0.88149409176E+03  0.20450958663E+04  0.00000000000E+00 0. -1.
<mgrwt>
<rscale>  0 0.40438520E+04</rscale>
<asrwt>0</asrwt>
<pdfrwt beam="1">  1        1 0.76054112E+00 0.40438520E+04</pdfrwt>
<pdfrwt beam="2">  1       -1 0.12722753E+00 0.40438520E+04</pdfrwt>
<totfact> 0.42138071E-03</totfact>
</mgrwt>
</event>
<event>
 6    1  0.1637818E-005  0.3535915E+04  0.7818608E-02  0.8105331E-01
          2   -1    0    0  501    0  0.00000000000E+00  0.00000000000E+00  0.30127068461E+04  0.30127068461E+04  0.00000000000E+00 0. -1.
         -2   -1    0    0    0  501 -0.00000000000E+00 -0.00000000000E+00 -0.10374965251E+04  0.10374965251E+04  0.00000000000E+00 0.  1.
         23    2    1    2    0    0  0.13653956491E+04  0.38882584616E+03 -0.21640445767E+03  0.14389457900E+04  0.90792509825E+02 0.  0.
         13    1    3    3    0    0  0.36695733980E+03  0.14267228474E+03 -0.77512585042E+02  0.40127455801E+03  0.00000000000E+00 0. -1.
        -13    1    3    3    0    0  0.99843830932E+03  0.24615356142E+03 -0.13889187263E+03  0.10376712319E+04  0.00000000000E+00 0.  1.
         22    1    1    2    0    0 -0.13653956491E+04 -0.38882584616E+03  0.21916147787E+04  0.26112575812E+04  0.00000000000E+00 0. -1.
<mgrwt>
<rscale>  0 0.35359145E+04</rscale>
<asrwt>0</asrwt>
<pdfrwt beam="1">  1        2 0.46349336E+00 0.35359145E+04</pdfrwt>
<pdfrwt beam="2">  1       -2 0.15961485E+00 0.35359145E+04</pdfrwt>
<totfact> 0.35485691E-01</totfact>
</mgrwt>
</event>
<event>
 6    1  0.1637818E-005  0.9230705E+03  0.7818608E-02  0.9397193E-01
          3   -1    0    0  501    0  0.00000000000E+00  0.00000000000E+00  0.11937060445E+04  0.11937060445E+04  0.00000000000E+00 0. -1.
         -3   -1    0    0    0  501 -0.00000000000E+00 -0.00000000000E+00 -0.17844828030E+03  0.17844828030E+03  0.00000000000E+00 0.  1.
         23    2    1    2    0    0  0.20936981932E+03 -0.11540940970E+03  0.10912535221E+04  0.11212949851E+04  0.96504616380E+02 0.  0.
         11    1    3    3    0    0  0.18411179881E+03 -0.66363543865E+02  0.72673353944E+03  0.75262401754E+03  0.00000000000E+00 0.  1.
        -11    1    3    3    0    0  0.25258020503E+02 -0.49045865840E+02  0.36451998270E+03  0.36867096759E+03  0.00000000000E+00 0. -1.
         22    1    1    2    0    0 -0.20936981932E+03  0.11540940970E+03 -0.75995757930E+02  0.25085933970E+03  0.00000000000E+00 0.  1.
<mgrwt>
<rscale>  0 0.92307051E+03</rscale>
<asrwt>0</asrwt>
<pdfrwt beam="1">  1        3 0.18364708E+00 0.92307051E+03</pdfrwt>
<pdfrwt beam="2">  1       -3 0.27453582E-01 0.92307051E+03</pdfrwt>
<totfact> 0.63417219E+00</totfact>
</mgrwt>
</event>
<event>
 6    1  0.1637818E-005  0.3789807E+04  0.7818608E-02  0.8048346E-01
         -2   -1    0    0    0  501 -0.00000000000E+00  0.00000000000E+00  0.11592231586E+04  0.11592231586E+04  0.00000000000E+00 0.  1.
          2   -1    0    0  501    0  0.00000000000E+00 -0.00000000000E+00 -0.30974698821E+04  0.30974698821E+04  0.00000000000E+00 0. -1.
         23    2    1    2    0    0 -0.18076125147E+04  0.28339042563E+03 -0.42105485579E+03  0.18797949991E+04  0.92568409800E+02 0.  0.
         13    1    3    3    0    0 -0.11764724444E+04  0.17941015233E+03 -0.22869116380E+03  0.12118477889E+04  0.00000000000E+00 0. -1.
        -13    1    3    3    0    0 -0.63114007032E+03  0.10398027331E+03 -0.19236369199E+03  0.66794721019E+03  0.00000000000E+00 0.  1.
         22    1    1    2    0    0  0.18076125147E+04 -0.28339042563E+03 -0.15171918677E+04  0.23768980416E+04  0.00000000000E+00 0. -1.
<mgrwt>
<rscale>  0 0.37898068E+04</rscale>
<asrwt>0</asrwt>
<pdfrwt beam="1">  1        2 0.47653383E+00 0.37898068E+04</pdfrwt>
<pdfrwt beam="2">  1       -2 0.17834202E+00 0.37898068E+04</pdfrwt>
<totfact> 0.22550008E-01</totfact>
</mgrwt>
</event>
<event>
 6    1  0.1637818E-005  0.2879764E+04  0.7818608E-02  0.8278924E-01
          1   -1    0    0  501    0  0.00000000000E+00  0.00000000000E+00  0.16991495498E+04  0.16991495498E+04  0.00000000000E+00 0. -1.
         -1   -1    0    0    0  501 -0.00000000000E+00 -0.00000000000E+00 -0.12201748196E+04  0.12201748196E+04  0.00000000000E+00 0.  1.
         23    2    1    2    0    0 -0.30046676013E+03  0.84968830851E+03  0.13762537749E+04  0.16475696055E+04  0.90336351572E+02 0.  0.
         11    1    3    3    0    0 -0.13211145478E+02  0.41482147399E+02  0.36724798876E+02  0.56956244347E+02  0.00000000000E+00 0. -1.
        -11    1    3    3    0    0 -0.28725561465E+03  0.80820616111E+03  0.13395289760E+04  0.15906133611E+04  0.00000000000E+00 0.  1.
         22    1    1    2    0    0  0.30046676013E+03 -0.84968830851E+03 -0.89727904469E+03  0.12717547639E+04  0.00000000000E+00 0.  1.
<mgrwt>
<rscale>  0 0.28797635E+04</rscale>
<asrwt>0</asrwt>
<pdfrwt beam="1">  1        1 0.26140762E+00 0.28797635E+04</pdfrwt>
<pdfrwt beam="2">  1       -1 0.18771920E+00 0.28797635E+04</pdfrwt>
<totfact> 0.75244407E-01</totfact>
</mgrwt>
</event>
<event>
 6    1  0.1637818E-005  0.3257546E+04  0.7818608E-02  0.8173783E-01
         -1   -1    0    0    0  501 -0.00000000000E+00  0.00000000000E+00  0.12625084157E+04  0.12625084157E+04  0.00000000000E+00 0.  1.
          1   -1    0    0  501    0  0.00000000000E+00 -0.00000000000E+00 -0.21012944607E+04  0.21012944607E+04  0.00000000000E+00 0. -1.
         23    2    1    2    0    0 -0.92658675850E+03 -0.71248266413E+03 -0.15891254089E+04  0.19748450913E+04  0.92190031938E+02 0.  0.
         13    1    3    3    0    0 -0.71007368136E+03 -0.51127620420E+03 -0.12355934460E+04  0.15140340662E+04  0.00000000000E+00 0. -1.
        -13    1    3    3    0    0 -0.21651307714E+03 -0.20120645993E+03 -0.35353196291E+03  0.46081102513E+03  0.00000000000E+00 0.  1.
         22    1    1    2    0    0  0.92658675850E+03  0.71248266413E+03  0.75033936388E+03  0.13889577851E+04  0.00000000000E+00 0.  1.
<mgrwt>
<rscale>  0 0.32575463E+04</rscale>
<asrwt>0</asrwt>
<pdfrwt beam="1">  1        1 0.32327607E+00 0.32575463E+04</pdfrwt>
<pdfrwt beam="2">  1       -1 0.19423207E+00 0.32575463E+04</pdfrwt>
<totfact> 0.34947763E-01</totfact>
</mgrwt>
</event>
<event>
 6    1  0.1637818E-005  0.3260357E+04  0.7818608E-02  0.8173056E-01
          2   -1    0    0  501    0  0.00000000000E+00  0.00000000000E+00  0.36779142944E+04  0.36779142944E+04  0.00000000000E+00 0.  1.
         -2   -1    0    0    0  501 -0.00000000000E+00 -0.00000000000E+00 -0.72255140695E+03  0.72255140695E+03  0.00000000000E+00 0. -1.
         23    2    1    2    0    0  0.14578800502E+04 -0.64012242349E+03  0.19424174828E+04  0.25133437258E+04  0.93488227906E+02 0.  0.
         11    1    3    3    0    0  0.10146006596E+04 -0.42238577335E+03  0.13986496127E+04  0.17787762588E+04  0.00000000000E+00 0.  1.
        -11    1    3    3    0    0  0.44327939063E+03 -0.21773665014E+03  0.54376787013E+03  0.73456746698E+03  0.00000000000E+00 0. -1.
         22    1    1    2    0    0 -0.14578800502E+04  0.64012242349E+03  0.10129454047E+04  0.18871219756E+04  0.00000000000E+00 0. -1.
<mgrwt>
<rscale>  0 0.32603571E+04</rscale>
<asrwt>0</asrwt>
<pdfrwt beam="1">  1        2 0.56583296E+00 0.32603571E+04</pdfrwt>
<pdfrwt beam="2">  1       -2 0.11116176E+00 0.32603571E+04</pdfrwt>
<totfact> 0.32469542E-01</totfact>
</mgrwt>
</event>
<event>
 6    1  0.2063368E-005  0.3299639E+04  0.7818608E-02  0.8162987E-01
          1   -1    0    0  501    0  0.00000000000E+00  0.00000000000E+00  0.14477368695E+04  0.14477368695E+04  0.00000000000E+00 0. -1.
         -1   -1    0    0    0  501 -0.00000000000E+00 -0.00000000000E+00 -0.18801093691E+04  0.18801093691E+04  0.00000000000E+00 0.  1.
         23    2    1    2    0    0  0.49453523485E+01 -0.14595126708E+04  0.55690992812E+03  0.15646442041E+04  0.88097245202E+02 0.  0.
         13    1    3    3    0    0 -0.22792484915E+02 -0.43255800080E+03  0.13107316444E+03  0.45255507495E+03  0.00000000000E+00 0.  1.
        -13    1    3    3    0    0  0.27737837263E+02 -0.10269546700E+04  0.42583676368E+03  0.11120891292E+04  0.00000000000E+00 0. -1.
         22    1    1    2    0    0 -0.49453523485E+01  0.14595126708E+04 -0.98928242768E+03  0.17632020345E+04  0.00000000000E+00 0.  1.
<mgrwt>
<rscale>  0 0.32996386E+04</rscale>
<asrwt>0</asrwt>
<pdfrwt beam="1">  1        1 0.22272875E+00 0.32996386E+04</pdfrwt>
<pdfrwt beam="2">  1       -1 0.28924759E+00 0.32996386E+04</pdfrwt>
<totfact> 0.22879634E-01</totfact>
</mgrwt>
</event>
<event>
 6    1  0.1637818E-005  0.1422017E+04  0.7818608E-02  0.8938034E-01
          1   -1    0    0  501    0  0.00000000000E+00  0.00000000000E+00  0.11035276399E+04  0.11035276399E+04  0.00000000000E+00 0. -1.
         -1   -1    0    0    0  501 -0.00000000000E+00 -0.00000000000E+00 -0.45810649452E+03  0.45810649452E+03  0.00000000000E+00 0.  1.
         23    2    1    2    0    0 -0.29359600912E+03 -0.60759475434E+03  0.55863731871E+03  0.88126553239E+03  0.95829445643E+02 0.  0.
         13    1    3    3    0    0 -0.20144569493E+03 -0.42894667403E+03  0.44641485802E+03  0.65104672845E+03  0.00000000000E+00 0.  1.
        -13    1    3    3    0    0 -0.92150314186E+02 -0.17864808031E+03  0.11222246069E+03  0.23021880394E+03  0.00000000000E+00 0. -1.
         22    1    1    2    0    0  0.29359600912E+03  0.60759475434E+03  0.86783826675E+02  0.68036860204E+03  0.00000000000E+00 0.  1.
<mgrwt>
<rscale>  0 0.14220171E+04</rscale>
<asrwt>0</asrwt>
<pdfrwt beam="1">  1        1 0.16977348E+00 0.14220171E+04</pdfrwt>
<pdfrwt beam="2">  1       -1 0.70477923E-01 0.14220171E+04</pdfrwt>
<totfact> 0.24958006E+01</totfact>
</mgrwt>
</event>
<event>
 6    1  0.1637818E-005  0.1010503E+04  0.7818608E-02  0.9297099E-01
          2   -1    0    0  501    0  0.00000000000E+00  0.00000000000E+00  0.53437784343E+03  0.53437784343E+03  0.00000000000E+00 0. -1.
         -2   -1    0    0    0  501 -0.00000000000E+00 -0.00000000000E+00 -0.47771302079E+03  0.47771302079E+03  0.00000000000E+00 0.  1.
         23    2    1    2    0    0 -0.20356497156E+03 -0.44456606506E+02  0.48501783827E+03  0.53574918695E+03  0.91486613088E+02 0.  0.
         13    1    3    3    0    0  0.74071638305E+01 -0.26542143420E+01  0.48382723991E+02  0.49018352793E+02  0.00000000000E+00 0.  1.
        -13    1    3    3    0    0 -0.21097213539E+03 -0.41802392164E+02  0.43663511427E+03  0.48673083416E+03  0.00000000000E+00 0. -1.
         22    1    1    2    0    0  0.20356497156E+03  0.44456606506E+02 -0.42835301563E+03  0.47634167727E+03  0.00000000000E+00 0.  1.
<mgrwt>
<rscale>  0 0.10105033E+04</rscale>
<asrwt>0</asrwt>
<pdfrwt beam="1">  1        2 0.82211976E-01 0.10105033E+04</pdfrwt>
<pdfrwt beam="2">  1       -2 0.73494311E-01 0.10105033E+04</pdfrwt>
<totfact> 0.95003134E+01</totfact>
</mgrwt>
</event>
<event>
 6    1  0.1637818E-005  0.4136882E+03  0.7818608E-02  0.1039140E+00
         -2   -1    0    0    0  501 -0.00000000000E+00  0.00000000000E+00  0.79965743486E+02  0.79965743486E+02  0.00000000000E+00 0.  1.
          2   -1    0    0  501    0  0.00000000000E+00 -0.00000000000E+00 -0.53503508882E+03  0.53503508882E+03  0.00000000000E+00 0. -1.
         23    2    1    2    0    0 -0.17385653973E+03 -0.92199557466E+02 -0.24472240782E+03  0.32695102945E+03  0.91000351469E+02 0.  0.
         13    1    3    3    0    0 -0.17000654167E+03 -0.69657970024E+02 -0.17560462209E+03  0.25414846114E+03  0.00000000000E+00 0.  1.
        -13    1    3    3    0    0 -0.38499980585E+01 -0.22541587441E+02 -0.69117785724E+02  0.72802568312E+02  0.00000000000E+00 0. -1.
         22    1    1    2    0    0  0.17385653973E+03  0.92199557466E+02 -0.21034693752E+03  0.28804980286E+03  0.00000000000E+00 0.  1.
<mgrwt>
<rscale>  0 0.41368819E+03</rscale>
<asrwt>0</asrwt>
<pdfrwt beam="1">  1        2 0.82313094E-01 0.41368819E+03</pdfrwt>
<pdfrwt beam="2">  1       -2 0.12302422E-01 0.41368819E+03</pdfrwt>
<totfact> 0.27523135E+03</totfact>
</mgrwt>
</event>
<event>
 6    1  0.1637818E-005  0.3807928E+04  0.7818608E-02  0.8044456E-01
          1   -1    0    0  501    0  0.00000000000E+00  0.00000000000E+00  0.26557901864E+04  0.26557901864E+04  0.00000000000E+00 0. -1.
         -1   -1    0    0    0  501 -0.00000000000E+00 -0.00000000000E+00 -0.13649718794E+04  0.13649718794E+04  0.00000000000E+00 0.  1.
         23    2    1    2    0    0 -0.16716962023E+00  0.15589846886E+04 -0.50630692541E+03  0.16416671984E+04  0.91056028869E+02 0.  0.
         11    1    3    3    0    0  0.97388146404E+00  0.89872345519E+03 -0.24445770810E+03  0.93137767227E+03  0.00000000000E+00 0. -1.
        -11    1    3    3    0    0 -0.11410510843E+01  0.66026123337E+03 -0.26184921731E+03  0.71028952610E+03  0.00000000000E+00 0.  1.
         22    1    1    2    0    0  0.16716962023E+00 -0.15589846886E+04  0.17971252324E+04  0.23790948674E+04  0.00000000000E+00 0. -1.
<mgrwt>
<rscale>  0 0.38079280E+04</rscale>
<asrwt>0</asrwt>
<pdfrwt beam="1">  1        1 0.40858310E+00 0.38079280E+04</pdfrwt>
<pdfrwt beam="2">  1       -1 0.20999567E+00 0.38079280E+04</pdfrwt>
<totfact> 0.10777322E-01</totfact>
</mgrwt>
</event>
<event>
 6    1  0.1637818E-005  0.3612908E+04  0.7818608E-02  0.8087541E-01
         -2   -1    0    0    0  501 -0.00000000000E+00  0.00000000000E+00  0.18372675716E+04  0.18372675716E+04  0.00000000000E+00 0.  1.
          2   -1    0    0  501    0  0.00000000000E+00 -0.00000000000E+00 -0.17761569376E+04  0.17761569376E+04  0.00000000000E+00 0. -1.
         23    2    1    2    0    0  0.88034549971E+03 -0.14941030349E+04  0.53244127574E+03  0.18163422485E+04  0.90848079821E+02 0.  0.
         11    1    3    3    0    0  0.68796578898E+03 -0.10920692285E+04  0.40638513471E+03  0.13531670275E+04  0.00000000000E+00 0. -1.
        -11    1    3    3    0    0  0.19237971072E+03 -0.40203380639E+03  0.12605614103E+03  0.46317522091E+03  0.00000000000E+00 0.  1.
         22    1    1    2    0    0 -0.88034549971E+03  0.14941030349E+04 -0.47133064180E+03  0.17970822607E+04  0.00000000000E+00 0. -1.
<mgrwt>
<rscale>  0 0.36129077E+04</rscale>
<asrwt>0</asrwt>
<pdfrwt beam="1">  1        2 0.27325491E+00 0.36129077E+04</pdfrwt>
<pdfrwt beam="2">  1       -2 0.28265655E+00 0.36129077E+04</pdfrwt>
<totfact> 0.29384198E-01</totfact>
</mgrwt>
</event>
<event>
 6    1  0.1637818E-005  0.2445600E+04  0.7818608E-02  0.8422626E-01
          1   -1    0    0  501    0  0.00000000000E+00  0.00000000000E+00  0.25001150201E+04  0.25001150201E+04  0.00000000000E+00 0. -1.
         -1   -1    0    0    0  501 -0.00000000000E+00 -0.00000000000E+00 -0.59806831742E+03  0.59806831742E+03  0.00000000000E+00 0.  1.
         23    2    1    2    0    0  0.72855945402E+03  0.74695073917E+03  0.17560604053E+04  0.20445959971E+04  0.88827696317E+02 0.  0.
         13    1    3    3    0    0  0.40064211562E+03  0.38788732307E+03  0.85699011907E+03  0.10224493848E+04  0.00000000000E+00 0.  1.
        -13    1    3    3    0    0  0.32791733839E+03  0.35906341610E+03  0.89907028623E+03  0.10221466124E+04  0.00000000000E+00 0. -1.
         22    1    1    2    0    0 -0.72855945402E+03 -0.74695073917E+03  0.14598629737E+03  0.10535873404E+04  0.00000000000E+00 0. -1.
<mgrwt>
<rscale>  0 0.24455998E+04</rscale>
<asrwt>0</asrwt>
<pdfrwt beam="1">  1        1 0.38463307E+00 0.24455998E+04</pdfrwt>
<pdfrwt beam="2">  1       -1 0.92010512E-01 0.24455998E+04</pdfrwt>
<totfact> 0.13902004E+00</totfact>
</mgrwt>
</event>
<event>
 6    1  0.1637818E-005  0.3981078E+04  0.7818608E-02  0.8008375E-01
         -2   -1    0    0    0  501 -0.00000000000E+00  0.00000000000E+00  0.12074110485E+04  0.12074110485E+04  0.00000000000E+00 0. -1.
          2   -1    0    0  501    0  0.00000000000E+00 -0.00000000000E+00 -0.32816048428E+04  0.32816048428E+04  0.00000000000E+00 0.  1.
         23    2    1    2    0    0  0.15560683499E+04 -0.82186512158E+03 -0.20840908785E+04  0.27292122262E+04  0.91398018598E+02 0.  0.
         11    1    3    3    0    0  0.13754240251E+04 -0.71331188569E+03 -0.17903968823E+04  0.23677259324E+04  0.00000000000E+00 0. -1.
        -11    1    3    3    0    0  0.18064432475E+03 -0.10855323589E+03 -0.29369399629E+03  0.36148629371E+03  0.00000000000E+00 0.  1.
         22    1    1    2    0    0 -0.15560683499E+04  0.82186512158E+03  0.98970841980E+01  0.17598036652E+04  0.00000000000E+00 0. -1.
<mgrwt>
<rscale>  0 0.39810782E+04</rscale>
<asrwt>0</asrwt>
<pdfrwt beam="1">  1        2 0.50486227E+00 0.39810782E+04</pdfrwt>
<pdfrwt beam="2">  1       -2 0.18575555E+00 0.39810782E+04</pdfrwt>
<totfact> 0.14970666E-01</totfact>
</mgrwt>
</event>
<event>
 6    1  0.1637818E-005  0.1368028E+04  0.7818608E-02  0.8977292E-01
          1   -1    0    0  501    0  0.00000000000E+00  0.00000000000E+00  0.23851199428E+04  0.23851199428E+04  0.00000000000E+00 0. -1.
         -1   -1    0    0    0  501 -0.00000000000E+00 -0.00000000000E+00 -0.19616412737E+03  0.19616412737E+03  0.00000000000E+00 0.  1.
         23    2    1    2    0    0  0.66597724154E+03 -0.92556250455E+02  0.13031179716E+04  0.14691685045E+04  0.90814652587E+02 0.  0.
         11    1    3    3    0    0  0.38485030438E+03 -0.95310914455E+02  0.72561396519E+03  0.82686731322E+03  0.00000000000E+00 0. -1.
        -11    1    3    3    0    0  0.28112693717E+03  0.27546640001E+01  0.57750400636E+03  0.64230119130E+03  0.00000000000E+00 0.  1.
         22    1    1    2    0    0 -0.66597724154E+03  0.92556250455E+02  0.88583784388E+03  0.11121155657E+04  0.00000000000E+00 0.  1.
<mgrwt>
<rscale>  0 0.13680277E+04</rscale>
<asrwt>0</asrwt>
<pdfrwt beam="1">  1        1 0.36694151E+00 0.13680277E+04</pdfrwt>
<pdfrwt beam="2">  1       -1 0.30179098E-01 0.13680277E+04</pdfrwt>
<totfact> 0.16104306E+01</totfact>
</mgrwt>
</event>
<event>
 6    1  0.1637818E-005  0.2484297E+04  0.7818608E-02  0.8408601E-01
          2   -1    0    0  501    0  0.00000000000E+00  0.00000000000E+00  0.17132720909E+04  0.17132720909E+04  0.00000000000E+00 0. -1.
         -2   -1    0    0    0  501 -0.00000000000E+00 -0.00000000000E+00 -0.90057673477E+03  0.90057673477E+03  0.00000000000E+00 0.  1.
         23    2    1    2    0    0  0.22586369174E+03  0.50723266517E+03 -0.76052557773E+03  0.94551927470E+03  0.85487780278E+02 0.  0.
         13    1    3    3    0    0  0.96027962993E+02  0.14043706853E+03 -0.27426959000E+03  0.32275028721E+03  0.00000000000E+00 0.  1.
        -13    1    3    3    0    0  0.12983572875E+03  0.36679559664E+03 -0.48625598774E+03  0.62276898749E+03  0.00000000000E+00 0. -1.
         22    1    1    2    0    0 -0.22586369174E+03 -0.50723266517E+03  0.15732209338E+04  0.16683295509E+04  0.00000000000E+00 0. -1.
<mgrwt>
<rscale>  0 0.24842971E+04</rscale>
<asrwt>0</asrwt>
<pdfrwt beam="1">  1        2 0.26358032E+00 0.24842971E+04</pdfrwt>
<pdfrwt beam="2">  1       -2 0.13855027E+00 0.24842971E+04</pdfrwt>
<totfact> 0.31776446E+00</totfact>
</mgrwt>
</event>
<event>
 6    1  0.1637818E-005  0.1332668E+04  0.7818608E-02  0.9004053E-01
         -2   -1    0    0    0  501 -0.00000000000E+00  0.00000000000E+00  0.26003423421E+03  0.26003423421E+03  0.00000000000E+00 0. -1.
          2   -1    0    0  501    0  0.00000000000E+00 -0.00000000000E+00 -0.17074712162E+04  0.17074712162E+04  0.00000000000E+00 0.  1.
         23    2    1    2    0    0  0.43409497476E+03 -0.33105284182E+03 -0.17148741557E+03  0.57967198518E+03  0.92613419716E+02 0.  0.
         13    1    3    3    0    0  0.25622840962E+03 -0.24886748336E+03 -0.97842211915E+02  0.37035269758E+03  0.00000000000E+00 0. -1.
        -13    1    3    3    0    0  0.17786656514E+03 -0.82185358458E+02 -0.73645203654E+02  0.20931928760E+03  0.00000000000E+00 0.  1.
         22    1    1    2    0    0 -0.43409497476E+03  0.33105284182E+03 -0.12759495664E+04  0.13878334652E+04  0.00000000000E+00 0.  1.
<mgrwt>
<rscale>  0 0.13326680E+04</rscale>
<asrwt>0</asrwt>
<pdfrwt beam="1">  1        2 0.26268788E+00 0.13326680E+04</pdfrwt>
<pdfrwt beam="2">  1       -2 0.40005267E-01 0.13326680E+04</pdfrwt>
<totfact> 0.56159996E+01</totfact>
</mgrwt>
</event>
<event>
 6    1  0.1637818E-005  0.1891113E+04  0.7818608E-02  0.8659292E-01
          1   -1    0    0  501    0  0.00000000000E+00  0.00000000000E+00  0.60666314264E+03  0.60666314264E+03  0.00000000000E+00 0.  1.
         -1   -1    0    0    0  501 -0.00000000000E+00 -0.00000000000E+00 -0.14737626755E+04  0.14737626755E+04  0.00000000000E+00 0. -1.
         23    2    1    2    0    0  0.57523742397E+03  0.18761492592E+03 -0.12307531142E+04  0.13744928315E+04  0.91541581604E+02 0.  0.
         11    1    3    3    0    0  0.11803438038E+03  0.64100815266E+02 -0.34202544789E+03  0.36745399232E+03  0.00000000000E+00 0. -1.
        -11    1    3    3    0    0  0.45720304359E+03  0.12351411066E+03 -0.88872766635E+03  0.10070388391E+04  0.00000000000E+00 0.  1.
         22    1    1    2    0    0 -0.57523742397E+03 -0.18761492592E+03  0.36365358142E+03  0.70593298665E+03  0.00000000000E+00 0.  1.
<mgrwt>
<rscale>  0 0.18911134E+04</rscale>
<asrwt>0</asrwt>
<pdfrwt beam="1">  1        1 0.93332793E-01 0.18911134E+04</pdfrwt>
<pdfrwt beam="2">  1       -1 0.22673272E+00 0.18911134E+04</pdfrwt>
<totfact> 0.31310585E+00</totfact>
</mgrwt>
</event>
<event>
 6    1  0.1637818E-005  0.1192075E+04  0.7818608E-02  0.9119821E-01
         -2   -1    0    0    0  501 -0.00000000000E+00  0.00000000000E+00  0.88043588539E+03  0.88043588539E+03  0.00000000000E+00 0.  1.
          2   -1    0    0  501    0  0.00000000000E+00 -0.00000000000E+00 -0.40350573007E+03  0.40350573007E+03  0.00000000000E+00 0. -1.
         23    2    1    2    0    0 -0.55546974867E+03 -0.18815623820E+03  0.33202613012E+03  0.67983352233E+03  0.89346826146E+02 0.  0.
         13    1    3    3    0    0 -0.54239073774E+03 -0.16628573836E+03  0.31214804773E+03  0.64751452715E+03  0.00000000000E+00 0. -1.
        -13    1    3    3    0    0 -0.13079010927E+02 -0.21870499833E+02  0.19878082393E+02  0.32318995180E+02  0.00000000000E+00 0.  1.
         22    1    1    2    0    0  0.55546974867E+03  0.18815623820E+03  0.14490402520E+03  0.60410809312E+03  0.00000000000E+00 0. -1.
<mgrwt>
<rscale>  0 0.11920754E+04</rscale>
<asrwt>0</asrwt>
<pdfrwt beam="1">  1        2 0.62077805E-01 0.11920754E+04</pdfrwt>
<pdfrwt beam="2">  1       -2 0.13545167E+00 0.11920754E+04</pdfrwt>
<totfact> 0.30382343E+01</totfact>
</mgrwt>
</event>
<event>
 6    1  0.1637818E-005  0.2257379E+04  0.7818608E-02  0.8494918E-01
          2   -1    0    0  501    0  0.00000000000E+00  0.00000000000E+00  0.37541178912E+04  0.37541178912E+04  0.00000000000E+00 0. -1.
         -2   -1    0    0    0  501 -0.00000000000E+00 -0.00000000000E+00 -0.33934480790E+03  0.33934480790E+03  0.00000000000E+00 0.  1.
         23    2    1    2    0    0 -0.96423200443E+03 -0.57805082006E+03  0.18475127056E+04  0.21646829811E+04  0.93075789073E+02 0.  0.
         11    1    3    3    0    0 -0.34984353664E+03 -0.18045166578E+03  0.71771971621E+03  0.81858102522E+03  0.00000000000E+00 0.  1.
        -11    1    3    3    0    0 -0.61438846779E+03 -0.39759915428E+03  0.11297929893E+04  0.13461019559E+04  0.00000000000E+00 0. -1.
         22    1    1    2    0    0  0.96423200443E+03  0.57805082006E+03  0.15672603778E+04  0.19287797180E+04  0.00000000000E+00 0. -1.
<mgrwt>
<rscale>  0 0.22573794E+04</rscale>
<asrwt>0</asrwt>
<pdfrwt beam="1">  1        2 0.57755657E+00 0.22573794E+04</pdfrwt>
<pdfrwt beam="2">  1       -2 0.52206896E-01 0.22573794E+04</pdfrwt>
<totfact> 0.16837325E+00</totfact>
</mgrwt>
</event>
<event>
 6    1  0.1637818E-005  0.4448310E+04  0.7818608E-02  0.7919749E-01
          1   -1    0    0  501    0  0.00000000000E+00  0.00000000000E+00  0.43219767206E+04  0.43219767206E+04  0.00000000000E+00 0. -1.
         -1   -1    0    0    0  501 -0.00000000000E+00 -0.00000000000E+00 -0.11445840656E+04  0.11445840656E+04  0.00000000000E+00 0.  1.
         23    2    1    2    0    0  0.41318132121E+03 -0.60663718370E+03 -0.98956106071E+03  0.12354580049E+04  0.91640122941E+02 0.  0.
         11    1    3    3    0    0  0.14797738931E+03 -0.18287746792E+03 -0.38254619337E+03  0.44909137832E+03  0.00000000000E+00 0. -1.
        -11    1    3    3    0    0  0.26520393191E+03 -0.42375971578E+03 -0.60701486734E+03  0.78636662657E+03  0.00000000000E+00 0.  1.
         22    1    1    2    0    0 -0.41318132121E+03  0.60663718370E+03  0.41669537157E+04  0.42311027813E+04  0.00000000000E+00 0. -1.
<mgrwt>
<rscale>  0 0.44483101E+04</rscale>
<asrwt>0</asrwt>
<pdfrwt beam="1">  1        1 0.66491949E+00 0.44483101E+04</pdfrwt>
<pdfrwt beam="2">  1       -1 0.17608986E+00 0.44483101E+04</pdfrwt>
<totfact> 0.80769909E-03</totfact>
</mgrwt>
</event>
<event>
 6    1  0.1637818E-005  0.2912254E+03  0.7818608E-02  0.1089711E+00
         -2   -1    0    0    0  501 -0.00000000000E+00  0.00000000000E+00  0.36176671942E+02  0.36176671942E+02  0.00000000000E+00 0.  1.
          2   -1    0    0  501    0  0.00000000000E+00 -0.00000000000E+00 -0.58609764490E+03  0.58609764490E+03  0.00000000000E+00 0. -1.
         23    2    1    2    0    0  0.45129603434E+02  0.96900605482E+02 -0.14271640504E+03  0.20127316650E+03  0.93362234545E+02 0.  0.
         13    1    3    3    0    0 -0.14908898736E+02  0.69312898820E+02 -0.47357408153E+02  0.85260056951E+02  0.00000000000E+00 0. -1.
        -13    1    3    3    0    0  0.60038502170E+02  0.27587706662E+02 -0.95358996883E+02  0.11601310955E+03  0.00000000000E+00 0.  1.
         22    1    1    2    0    0 -0.45129603434E+02 -0.96900605482E+02 -0.40720456792E+03  0.42100115034E+03  0.00000000000E+00 0. -1.
<mgrwt>
<rscale>  0 0.29122543E+03</rscale>
<asrwt>0</asrwt>
<pdfrwt beam="1">  1        2 0.90168859E-01 0.29122543E+03</pdfrwt>
<pdfrwt beam="2">  1       -2 0.55656424E-02 0.29122543E+03</pdfrwt>
<totfact> 0.85989448E+03</totfact>
</mgrwt>
</event>
<event>
 6    1  0.1637818E-005  0.3954519E+03  0.7818608E-02  0.1045366E+00
          4   -1    0    0  501    0  0.00000000000E+00  0.00000000000E+00  0.11155002020E+03  0.11155002020E+03  0.00000000000E+00 0. -1.
         -4   -1    0    0    0  501 -0.00000000000E+00 -0.00000000000E+00 -0.35047550844E+03  0.35047550844E+03  0.00000000000E+00 0.  1.
         23    2    1    2    0    0 -0.82235480368E+02  0.79426041333E+02 -0.29881945834E+03  0.33295787999E+03  0.92177605145E+02 0.  0.
         11    1    3    3    0    0 -0.86294785903E+00  0.63642583533E+02 -0.14081001935E+03  0.15452697067E+03  0.00000000000E+00 0. -1.
        -11    1    3    3    0    0 -0.81372532509E+02  0.15783457800E+02 -0.15800943899E+03  0.17843090931E+03  0.00000000000E+00 0.  1.
         22    1    1    2    0    0  0.82235480368E+02 -0.79426041333E+02  0.59893970102E+02  0.12906764865E+03  0.00000000000E+00 0. -1.
<mgrwt>
<rscale>  0 0.39545189E+03</rscale>
<asrwt>0</asrwt>
<pdfrwt beam="1">  1        4 0.17161542E-01 0.39545189E+03</pdfrwt>
<pdfrwt beam="2">  1       -4 0.53919309E-01 0.39545189E+03</pdfrwt>
<totfact> 0.19121435E+02</totfact>
</mgrwt>
</event>
<event>
 6    1  0.1637818E-005  0.2034160E+04  0.7818608E-02  0.8590814E-01
         -2   -1    0    0    0  501 -0.00000000000E+00  0.00000000000E+00  0.23877460136E+04  0.23877460136E+04  0.00000000000E+00 0.  1.
          2   -1    0    0  501    0  0.00000000000E+00 -0.00000000000E+00 -0.43323374010E+03  0.43323374010E+03  0.00000000000E+00 0. -1.
         23    2    1    2    0    0 -0.60795362676E+03  0.75771262941E+03  0.57061492624E+03  0.11301492155E+04  0.88880899227E+02 0.  0.
         13    1    3    3    0    0 -0.43521733463E+03  0.60166552294E+03  0.42564423548E+03  0.85591386544E+03  0.00000000000E+00 0.  1.
        -13    1    3    3    0    0 -0.17273629213E+03  0.15604710647E+03  0.14497069076E+03  0.27423535008E+03  0.00000000000E+00 0. -1.
         22    1    1    2    0    0  0.60795362676E+03 -0.75771262941E+03  0.13838973472E+04  0.16908305381E+04  0.00000000000E+00 0.  1.
<mgrwt>
<rscale>  0 0.20341604E+04</rscale>
<asrwt>0</asrwt>
<pdfrwt beam="1">  1        2 0.66651346E-01 0.20341604E+04</pdfrwt>
<pdfrwt beam="2">  1       -2 0.36734553E+00 0.20341604E+04</pdfrwt>
<totfact> 0.81447413E-01</totfact>
</mgrwt>
</event>
<event>
 6    1  0.1637818E-005  0.1595674E+04  0.7818608E-02  0.8823210E-01
          2   -1    0    0  501    0  0.00000000000E+00  0.00000000000E+00  0.51152469466E+03  0.51152469466E+03  0.00000000000E+00 0. -1.
         -2   -1    0    0    0  501 -0.00000000000E+00 -0.00000000000E+00 -0.12444045345E+04  0.12444045345E+04  0.00000000000E+00 0.  1.
         23    2    1    2    0    0  0.62893189918E+03  0.36247195140E+03 -0.11266652039E+02  0.73237325015E+03  0.96448902118E+02 0.  0.
         11    1    3    3    0    0  0.16238089019E+03  0.12624646212E+03 -0.36148135448E+02  0.20883584556E+03  0.00000000000E+00 0. -1.
        -11    1    3    3    0    0  0.46655100900E+03  0.23622548928E+03  0.24881483410E+02  0.52353740458E+03  0.00000000000E+00 0.  1.
         22    1    1    2    0    0 -0.62893189918E+03 -0.36247195140E+03 -0.72161318782E+03  0.10235559790E+04  0.00000000000E+00 0.  1.
<mgrwt>
<rscale>  0 0.15956737E+04</rscale>
<asrwt>0</asrwt>
<pdfrwt beam="1">  1        2 0.78696107E-01 0.15956737E+04</pdfrwt>
<pdfrwt beam="2">  1       -2 0.19144685E+00 0.15956737E+04</pdfrwt>
<totfact> 0.87096505E+00</totfact>
</mgrwt>
</event>
<event>
 6    1  0.1637818E-005  0.1512685E+04  0.7818608E-02  0.8876061E-01
          1   -1    0    0  501    0  0.00000000000E+00  0.00000000000E+00  0.12433751359E+04  0.12433751359E+04  0.00000000000E+00 0. -1.
         -1   -1    0    0    0  501 -0.00000000000E+00 -0.00000000000E+00 -0.46008170311E+03  0.46008170311E+03  0.00000000000E+00 0.  1.
         23    2    1    2    0    0 -0.91602635937E+01  0.74161021668E+03  0.24298165280E+03  0.78584774821E+03  0.91907430850E+02 0.  0.
         11    1    3    3    0    0  0.32207666713E+00  0.57286098778E+01  0.13960127870E+02  0.15093239369E+02  0.00000000000E+00 0. -1.
        -11    1    3    3    0    0 -0.94823402608E+01  0.73588160681E+03  0.22902152493E+03  0.77075450884E+03  0.00000000000E+00 0.  1.
         22    1    1    2    0    0  0.91602635937E+01 -0.74161021668E+03  0.54031177998E+03  0.91760909079E+03  0.00000000000E+00 0.  1.
<mgrwt>
<rscale>  0 0.15126852E+04</rscale>
<asrwt>0</asrwt>
<pdfrwt beam="1">  1        1 0.19128848E+00 0.15126852E+04</pdfrwt>
<pdfrwt beam="2">  1       -1 0.70781801E-01 0.15126852E+04</pdfrwt>
<totfact> 0.19362964E+01</totfact>
</mgrwt>
</event>
<event>
 6    1  0.1637818E-005  0.2574421E+04  0.7818608E-02  0.8376942E-01
          3   -1    0    0  501    0  0.00000000000E+00  0.00000000000E+00  0.74095262750E+03  0.74095262750E+03  0.00000000000E+00 0. -1.
         -3   -1    0    0    0  501 -0.00000000000E+00 -0.00000000000E+00 -0.22361907774E+04  0.22361907774E+04  0.00000000000E+00 0.  1.
         23    2    1    2    0    0 -0.19107409466E+03 -0.13238945109E+02 -0.22186826567E+04  0.22287741553E+04  0.90536869076E+02 0.  0.
         11    1    3    3    0    0 -0.11940910162E+03 -0.51762944002E+02 -0.14261037142E+04  0.14320299367E+04  0.00000000000E+00 0. -1.
        -11    1    3    3    0    0 -0.71664993037E+02  0.38523998893E+02 -0.79257894249E+03  0.79674421855E+03  0.00000000000E+00 0.  1.
         22    1    1    2    0    0  0.19107409466E+03  0.13238945109E+02  0.72344450683E+03  0.74836924962E+03  0.00000000000E+00 0. -1.
<mgrwt>
<rscale>  0 0.25744214E+04</rscale>
<asrwt>0</asrwt>
<pdfrwt beam="1">  1        3 0.11399271E+00 0.25744214E+04</pdfrwt>
<pdfrwt beam="2">  1       -3 0.34402935E+00 0.25744214E+04</pdfrwt>
<totfact> 0.31966363E-02</totfact>
</mgrwt>
</event>
<event>
 6    1  0.1637818E-005  0.3404911E+04  0.7818608E-02  0.8136702E-01
         -2   -1    0    0    0  501 -0.00000000000E+00  0.00000000000E+00  0.18561424552E+04  0.18561424552E+04  0.00000000000E+00 0.  1.
          2   -1    0    0  501    0  0.00000000000E+00 -0.00000000000E+00 -0.15614936311E+04  0.15614936311E+04  0.00000000000E+00 0. -1.
         23    2    1    2    0    0 -0.95869659956E+03 -0.97866667026E+03  0.11598607354E+04  0.17973030116E+04  0.90186298421E+02 0.  0.
         13    1    3    3    0    0 -0.75620465308E+03 -0.74096387371E+03  0.85418783550E+03  0.13603344434E+04  0.00000000000E+00 0. -1.
        -13    1    3    3    0    0 -0.20249194648E+03 -0.23770279655E+03  0.30567289988E+03  0.43696856820E+03  0.00000000000E+00 0.  1.
         22    1    1    2    0    0  0.95869659956E+03  0.97866667026E+03 -0.86521191126E+03  0.16203330747E+04  0.00000000000E+00 0. -1.
<mgrwt>
<rscale>  0 0.34049109E+04</rscale>
<asrwt>0</asrwt>
<pdfrwt beam="1">  1        2 0.24022979E+00 0.34049109E+04</pdfrwt>
<pdfrwt beam="2">  1       -2 0.28556038E+00 0.34049109E+04</pdfrwt>
<totfact> 0.37799797E-01</totfact>
</mgrwt>
</event>
<event>
 6    1  0.1637818E-005  0.4712576E+04  0.7818608E-02  0.7874442E-01
         -2   -1    0    0    0  501 -0.00000000000E+00  0.00000000000E+00  0.14356022113E+04  0.14356022113E+04  0.00000000000E+00 0.  1.
          2   -1    0    0  501    0  0.00000000000E+00 -0.00000000000E+00 -0.38674313265E+04  0.38674313265E+04  0.00000000000E+00 0. -1.
         23    2    1    2    0    0 -0.23950078573E+03  0.21467569837E+04 -0.15957744823E+03  0.21679013537E+04  0.91679572245E+02 0.  0.
         13    1    3    3    0    0 -0.14328153335E+03  0.96339485276E+03 -0.10054358008E+03  0.97916712139E+03  0.00000000000E+00 0. -1.
        -13    1    3    3    0    0 -0.96219252385E+02  0.11833621309E+04 -0.59033868147E+02  0.11887342323E+04  0.00000000000E+00 0.  1.
         22    1    1    2    0    0  0.23950078573E+03 -0.21467569837E+04 -0.22722516670E+04  0.31351321841E+04  0.00000000000E+00 0. -1.
<mgrwt>
<rscale>  0 0.47125759E+04</rscale>
<asrwt>0</asrwt>
<pdfrwt beam="1">  1        2 0.59498942E+00 0.47125759E+04</pdfrwt>
<pdfrwt beam="2">  1       -2 0.22086188E+00 0.47125759E+04</pdfrwt>
<totfact> 0.31569176E-02</totfact>
</mgrwt>
</event>
<event>
 6    1  0.1637818E-005  0.1819764E+04  0.7818608E-02  0.8695859E-01
         -2   -1    0    0    0  501 -0.00000000000E+00  0.00000000000E+00  0.54609067609E+03  0.54609067609E+03  0.00000000000E+00 0.  1.
          2   -1    0    0  501    0  0.00000000000E+00 -0.00000000000E+00 -0.15160222095E+04  0.15160222095E+04  0.00000000000E+00 0. -1.
         23    2    1    2    0    0 -0.68509835368E+03 -0.91558281015E+02 -0.11525677061E+04  0.13472012515E+04  0.93788175380E+02 0.  0.
         11    1    3    3    0    0 -0.46680119265E+03 -0.78603771782E+02 -0.70668135592E+03  0.85057653695E+03  0.00000000000E+00 0.  1.
        -11    1    3    3    0    0 -0.21829716102E+03 -0.12954509233E+02 -0.44588635013E+03  0.49662471450E+03  0.00000000000E+00 0. -1.
         22    1    1    2    0    0  0.68509835368E+03  0.91558281015E+02  0.18263617266E+03  0.71491163412E+03  0.00000000000E+00 0.  1.
<mgrwt>
<rscale>  0 0.18197644E+04</rscale>
<asrwt>0</asrwt>
<pdfrwt beam="1">  1        2 0.23323418E+00 0.18197644E+04</pdfrwt>
<pdfrwt beam="2">  1       -2 0.84013951E-01 0.18197644E+04</pdfrwt>
<totfact> 0.14499599E+01</totfact>
</mgrwt>
</event>
<event>
 6    1  0.1637818E-005  0.5944764E+03  0.7818608E-02  0.9916932E-01
          1   -1    0    0  501    0  0.00000000000E+00  0.00000000000E+00  0.74847984610E+03  0.74847984610E+03  0.00000000000E+00 0. -1.
         -1   -1    0    0    0  501 -0.00000000000E+00 -0.00000000000E+00 -0.11803999852E+03  0.11803999852E+03  0.00000000000E+00 0.  1.
         23    2    1    2    0    0  0.23587148017E+03  0.13405048486E+03  0.17245273990E+03  0.33420689301E+03  0.91375117988E+02 0.  0.
         11    1    3    3    0    0  0.32198501949E+02 -0.11044658889E+02  0.35112737912E+02  0.48904318638E+02  0.00000000000E+00 0.  1.
        -11    1    3    3    0    0  0.20367297822E+03  0.14509514375E+03  0.13734000199E+03  0.28530257437E+03  0.00000000000E+00 0. -1.
         22    1    1    2    0    0 -0.23587148017E+03 -0.13405048486E+03  0.45798710768E+03  0.53231295161E+03  0.00000000000E+00 0. -1.
<mgrwt>
<rscale>  0 0.59447644E+03</rscale>
<asrwt>0</asrwt>
<pdfrwt beam="1">  1        1 0.11515074E+00 0.59447644E+03</pdfrwt>
<pdfrwt beam="2">  1       -1 0.18160000E-01 0.59447644E+03</pdfrwt>
<totfact> 0.59643880E+02</totfact>
</mgrwt>
</event>
<event>
 6    1  0.1637818E-005  0.5813671E+04  0.7818608E-02  0.7713943E-01
         -2   -1    0    0    0  501 -0.00000000000E+00  0.00000000000E+00  0.47619289192E+04  0.47619289192E+04  0.00000000000E+00 0.  1.
          2   -1    0    0  501    0  0.00000000000E+00 -0.00000000000E+00 -0.17744262151E+04  0.17744262151E+04  0.00000000000E+00 0. -1.
         23    2    1    2    0    0  0.19575237552E+04  0.53286507653E+03 -0.84524950383E+03  0.21997857610E+04  0.93628141588E+02 0.  0.
         13    1    3    3    0    0  0.13860639823E+04  0.33384980379E+03 -0.58400236489E+03  0.15406777134E+04  0.00000000000E+00 0. -1.
        -13    1    3    3    0    0  0.57145977287E+03  0.19901527273E+03 -0.26124713894E+03  0.65910804758E+03  0.00000000000E+00 0.  1.
         22    1    1    2    0    0 -0.19575237552E+04 -0.53286507653E+03  0.38327522080E+04  0.43365693733E+04  0.00000000000E+00 0.  1.
<mgrwt>
<rscale>  0 0.58136706E+04</rscale>
<asrwt>0</asrwt>
<pdfrwt beam="1">  1        2 0.27298865E+00 0.58136706E+04</pdfrwt>
<pdfrwt beam="2">  1       -2 0.73260444E+00 0.58136706E+04</pdfrwt>
<totfact> 0.10520380E-03</totfact>
</mgrwt>
</event>
<event>
 6    1  0.1637818E-005  0.8476892E+03  0.7818608E-02  0.9493444E-01
         -2   -1    0    0    0  501 -0.00000000000E+00  0.00000000000E+00  0.11375277454E+03  0.11375277454E+03  0.00000000000E+00 0.  1.
          2   -1    0    0  501    0  0.00000000000E+00 -0.00000000000E+00 -0.15792513669E+04  0.15792513669E+04  0.00000000000E+00 0. -1.
         23    2    1    2    0    0  0.39322365693E+03 -0.86334391715E+02 -0.97235377135E+03  0.10563957170E+04  0.91769181737E+02 0.  0.
         13    1    3    3    0    0  0.24200848863E+03 -0.88614703727E+02 -0.53983063194E+03  0.59819544086E+03  0.00000000000E+00 0. -1.
        -13    1    3    3    0    0  0.15121516830E+03  0.22803120126E+01 -0.43252313942E+03  0.45820027616E+03  0.00000000000E+00 0.  1.
         22    1    1    2    0    0 -0.39322365693E+03  0.86334391715E+02 -0.49314482103E+03  0.63660842444E+03  0.00000000000E+00 0.  1.
<mgrwt>
<rscale>  0 0.84768915E+03</rscale>
<asrwt>0</asrwt>
<pdfrwt beam="1">  1        2 0.24296174E+00 0.84768915E+03</pdfrwt>
<pdfrwt beam="2">  1       -2 0.17500428E-01 0.84768915E+03</pdfrwt>
<totfact> 0.31089645E+02</totfact>
</mgrwt>
</event>
<event>
 6    1  0.1637818E-005  0.3651229E+04  0.7818608E-02  0.8078857E-01
          1   -1    0    0  501    0  0.00000000000E+00  0.00000000000E+00  0.39844499481E+04  0.39844499481E+04  0.00000000000E+00 0. -1.
         -1   -1    0    0    0  501 -0.00000000000E+00 -0.00000000000E+00 -0.83646907004E+03  0.83646907004E+03  0.00000000000E+00 0.  1.
         23    2    1    2    0    0  0.11201137830E+04  0.13954449405E+04  0.11091548136E+04  0.21082205111E+04  0.11156995071E+03 0.  0.
         11    1    3    3    0    0  0.69375871033E+03  0.77739655118E+03  0.63470558791E+03  0.12200400523E+04  0.00000000000E+00 0.  1.
        -11    1    3    3    0    0  0.42635507270E+03  0.61804838936E+03  0.47444922566E+03  0.88818045876E+03  0.00000000000E+00 0. -1.
         22    1    1    2    0    0 -0.11201137830E+04 -0.13954449405E+04  0.20388260645E+04  0.27126985071E+04  0.00000000000E+00 0. -1.
<mgrwt>
<rscale>  0 0.36512295E+04</rscale>
<asrwt>0</asrwt>
<pdfrwt beam="1">  1        1 0.61299229E+00 0.36512295E+04</pdfrwt>
<pdfrwt beam="2">  1       -1 0.12868755E+00 0.36512295E+04</pdfrwt>
<totfact> 0.41389892E-02</totfact>
</mgrwt>
</event>
<event>
 6    1  0.1637818E-005  0.3013149E+04  0.7818608E-02  0.8239986E-01
         -1   -1    0    0    0  501 -0.00000000000E+00  0.00000000000E+00  0.19057202048E+04  0.19057202048E+04  0.00000000000E+00 0.  1.
          1   -1    0    0  501    0  0.00000000000E+00 -0.00000000000E+00 -0.11910279314E+04  0.11910279314E+04  0.00000000000E+00 0. -1.
         23    2    1    2    0    0  0.88027635089E+03  0.89544350375E+03  0.12107325420E+04  0.17466512987E+04  0.90619803651E+02 0.  0.
         13    1    3    3    0    0  0.64343305771E+03  0.59876845023E+03  0.82572313325E+03  0.12059637016E+04  0.00000000000E+00 0. -1.
        -13    1    3    3    0    0  0.23684329318E+03  0.29667505352E+03  0.38500940871E+03  0.54068759714E+03  0.00000000000E+00 0.  1.
         22    1    1    2    0    0 -0.88027635089E+03 -0.89544350375E+03 -0.49604026858E+03  0.13500968374E+04  0.00000000000E+00 0. -1.
<mgrwt>
<rscale>  0 0.30131485E+04</rscale>
<asrwt>0</asrwt>
<pdfrwt beam="1">  1        1 0.18323507E+00 0.30131485E+04</pdfrwt>
<pdfrwt beam="2">  1       -1 0.29318772E+00 0.30131485E+04</pdfrwt>
<totfact> 0.33713638E-01</totfact>
</mgrwt>
</event>
<event>
 6    1  0.1637818E-005  0.6012476E+04  0.7818608E-02  0.7688857E-01
         -1   -1    0    0    0  501 -0.00000000000E+00  0.00000000000E+00  0.25557407481E+04  0.25557407481E+04  0.00000000000E+00 0.  1.
          1   -1    0    0  501    0  0.00000000000E+00 -0.00000000000E+00 -0.35361437613E+04  0.35361437613E+04  0.00000000000E+00 0. -1.
         23    2    1    2    0    0 -0.14120971283E+04 -0.17546913788E+04  0.15261137870E+04  0.27220793810E+04  0.87935947613E+02 0.  0.
         11    1    3    3    0    0 -0.12090618872E+04 -0.14557089863E+04  0.12976081676E+04  0.22944947715E+04  0.00000000000E+00 0.  1.
        -11    1    3    3    0    0 -0.20303524107E+03 -0.29898239248E+03  0.22850561936E+03  0.42758460942E+03  0.00000000000E+00 0. -1.
         22    1    1    2    0    0  0.14120971283E+04  0.17546913788E+04 -0.25065168002E+04  0.33698051285E+04  0.00000000000E+00 0. -1.
<mgrwt>
<rscale>  0 0.60124759E+04</rscale>
<asrwt>0</asrwt>
<pdfrwt beam="1">  1        1 0.54402211E+00 0.60124759E+04</pdfrwt>
<pdfrwt beam="2">  1       -1 0.39319089E+00 0.60124759E+04</pdfrwt>
<totfact> 0.12425382E-03</totfact>
</mgrwt>
</event>
<event>
 6    1  0.1637818E-005  0.1160200E+04  0.7818608E-02  0.9148425E-01
          1   -1    0    0  501    0  0.00000000000E+00  0.00000000000E+00  0.77588807117E+03  0.77588807117E+03  0.00000000000E+00 0.  1.
         -1   -1    0    0    0  501 -0.00000000000E+00 -0.00000000000E+00 -0.43371700822E+03  0.43371700822E+03  0.00000000000E+00 0. -1.
         23    2    1    2    0    0  0.19863602616E+03 -0.21680638947E+03  0.68929483048E+03  0.75468069952E+03  0.89186958117E+02 0.  0.
         13    1    3    3    0    0 -0.58149653132E+01 -0.11143745529E+02  0.66525210649E+02  0.67702293446E+02  0.00000000000E+00 0.  1.
        -13    1    3    3    0    0  0.20445099147E+03 -0.20566264394E+03  0.62276961984E+03  0.68697840608E+03  0.00000000000E+00 0. -1.
         22    1    1    2    0    0 -0.19863602616E+03  0.21680638947E+03 -0.34712376754E+03  0.45492437987E+03  0.00000000000E+00 0. -1.
<mgrwt>
<rscale>  0 0.11601997E+04</rscale>
<asrwt>0</asrwt>
<pdfrwt beam="1">  1        1 0.11936739E+00 0.11601997E+04</pdfrwt>
<pdfrwt beam="2">  1       -1 0.66725694E-01 0.11601997E+04</pdfrwt>
<totfact> 0.52450320E+01</totfact>
</mgrwt>
</event>
<event>
 6    1  0.1637818E-005  0.9026310E+03  0.7818608E-02  0.9422299E-01
          1   -1    0    0  501    0  0.00000000000E+00  0.00000000000E+00  0.27562252203E+03  0.27562252203E+03  0.00000000000E+00 0. -1.
         -1   -1    0    0    0  501 -0.00000000000E+00 -0.00000000000E+00 -0.73900223629E+03  0.73900223629E+03  0.00000000000E+00 0.  1.
         23    2    1    2    0    0 -0.49744146558E+02 -0.41897921551E+03 -0.39901082301E+03  0.58782103608E+03  0.91136548307E+02 0.  0.
         11    1    3    3    0    0 -0.37926348162E+01 -0.32665631021E+03 -0.32562547583E+03  0.46124904291E+03  0.00000000000E+00 0. -1.
        -11    1    3    3    0    0 -0.45951511742E+02 -0.92322905305E+02 -0.73385347178E+02  0.12657199317E+03  0.00000000000E+00 0.  1.
         22    1    1    2    0    0  0.49744146558E+02  0.41897921551E+03 -0.64368891256E+02  0.42680372223E+03  0.00000000000E+00 0.  1.
<mgrwt>
<rscale>  0 0.90263095E+03</rscale>
<asrwt>0</asrwt>
<pdfrwt beam="1">  1        1 0.42403466E-01 0.90263095E+03</pdfrwt>
<pdfrwt beam="2">  1       -1 0.11369265E+00 0.90263095E+03</pdfrwt>
<totfact> 0.69663265E+01</totfact>
</mgrwt>
</event>
<event>
 6    1  0.1637818E-005  0.3585083E+04  0.7818608E-02  0.8093917E-01
          1   -1    0    0  501    0  0.00000000000E+00  0.00000000000E+00  0.26689684428E+04  0.26689684428E+04  0.00000000000E+00 0. -1.
         -1   -1    0    0    0  501 -0.00000000000E+00 -0.00000000000E+00 -0.12039126391E+04  0.12039126391E+04  0.00000000000E+00 0.  1.
         23    2    1    2    0    0  0.66079192140E+03  0.15681340267E+04  0.13375280323E+04  0.21664363504E+04  0.93674618979E+02 0.  0.
         13    1    3    3    0    0  0.33211905956E+02  0.71917667102E+02  0.39036496187E+02  0.88312114532E+02  0.00000000000E+00 0. -1.
        -13    1    3    3    0    0  0.62758001544E+03  0.14962163596E+04  0.12984915361E+04  0.20781242359E+04  0.00000000000E+00 0.  1.
         22    1    1    2    0    0 -0.66079192140E+03 -0.15681340267E+04  0.12752777143E+03  0.17064447315E+04  0.00000000000E+00 0.  1.
<mgrwt>
<rscale>  0 0.35850829E+04</rscale>
<asrwt>0</asrwt>
<pdfrwt beam="1">  1        1 0.41061053E+00 0.35850829E+04</pdfrwt>
<pdfrwt beam="2">  1       -1 0.18521733E+00 0.35850829E+04</pdfrwt>
<totfact> 0.15963641E-01</totfact>
</mgrwt>
</event>
<event>
 6    1  0.1637818E-005  0.1762837E+04  0.7818608E-02  0.8726316E-01
          2   -1    0    0  501    0  0.00000000000E+00  0.00000000000E+00  0.19659122314E+04  0.19659122314E+04  0.00000000000E+00 0.  1.
         -2   -1    0    0    0  501 -0.00000000000E+00 -0.00000000000E+00 -0.39518465124E+03  0.39518465124E+03  0.00000000000E+00 0. -1.
         23    2    1    2    0    0 -0.75631347661E+03  0.24358322853E+03  0.28364613325E+03  0.84850919425E+03  0.90387276155E+02 0.  0.
         11    1    3    3    0    0 -0.51303244923E+03  0.18331139379E+03  0.15304243209E+03  0.56588633759E+03  0.00000000000E+00 0. -1.
        -11    1    3    3    0    0 -0.24328102738E+03  0.60271834741E+02  0.13060370116E+03  0.28262285665E+03  0.00000000000E+00 0.  1.
         22    1    1    2    0    0  0.75631347661E+03 -0.24358322853E+03  0.12870814469E+04  0.15125876884E+04  0.00000000000E+00 0.  1.
<mgrwt>
<rscale>  0 0.17628367E+04</rscale>
<asrwt>0</asrwt>
<pdfrwt beam="1">  1        2 0.30244803E+00 0.17628367E+04</pdfrwt>
<pdfrwt beam="2">  1       -2 0.60797640E-01 0.17628367E+04</pdfrwt>
<totfact> 0.16643074E+01</totfact>
</mgrwt>
</event>
<event>
 6    1  0.1637818E-005  0.1654221E+04  0.7818608E-02  0.8787913E-01
          1   -1    0    0  501    0  0.00000000000E+00  0.00000000000E+00  0.13022513210E+04  0.13022513210E+04  0.00000000000E+00 0. -1.
         -1   -1    0    0    0  501 -0.00000000000E+00 -0.00000000000E+00 -0.52532998283E+03  0.52532998283E+03  0.00000000000E+00 0.  1.
         23    2    1    2    0    0 -0.55584613943E+03  0.60051739092E+03  0.50153641627E+03  0.96420252096E+03  0.92529222785E+02 0.  0.
         13    1    3    3    0    0 -0.12853634348E+03  0.19909497624E+03  0.15468735550E+03  0.28299925638E+03  0.00000000000E+00 0. -1.
        -13    1    3    3    0    0 -0.42730979595E+03  0.40142241468E+03  0.34684906077E+03  0.68120326458E+03  0.00000000000E+00 0.  1.
         22    1    1    2    0    0  0.55584613943E+03 -0.60051739092E+03  0.27538492193E+03  0.86337878289E+03  0.00000000000E+00 0. -1.
<mgrwt>
<rscale>  0 0.16542209E+04</rscale>
<asrwt>0</asrwt>
<pdfrwt beam="1">  1        1 0.20034636E+00 0.16542209E+04</pdfrwt>
<pdfrwt beam="2">  1       -1 0.80819998E-01 0.16542209E+04</pdfrwt>
<totfact> 0.13140053E+01</totfact>
</mgrwt>
</event>
<event>
 6    1  0.1637818E-005  0.2992172E+04  0.7818608E-02  0.8245970E-01
         -2   -1    0    0    0  501 -0.00000000000E+00  0.00000000000E+00  0.55008403678E+03  0.55008403678E+03  0.00000000000E+00 0.  1.
          2   -1    0    0  501    0  0.00000000000E+00 -0.00000000000E+00 -0.40689651372E+04  0.40689651372E+04  0.00000000000E+00 0. -1.
         23    2    1    2    0    0 -0.95882518184E+03 -0.84631426746E+03 -0.29553313571E+04  0.32214863375E+04  0.91636367985E+02 0.  0.
         11    1    3    3    0    0 -0.43567025605E+03 -0.42808080818E+03 -0.13291401438E+04  0.14627628899E+04  0.00000000000E+00 0. -1.
        -11    1    3    3    0    0 -0.52315492578E+03 -0.41823345928E+03 -0.16261912133E+04  0.17587234476E+04  0.00000000000E+00 0.  1.
         22    1    1    2    0    0  0.95882518184E+03  0.84631426746E+03 -0.56354974330E+03  0.13975628364E+04  0.00000000000E+00 0.  1.
<mgrwt>
<rscale>  0 0.29921716E+04</rscale>
<asrwt>0</asrwt>
<pdfrwt beam="1">  1        2 0.62599463E+00 0.29921716E+04</pdfrwt>
<pdfrwt beam="2">  1       -2 0.84628314E-01 0.29921716E+04</pdfrwt>
<totfact> 0.31295156E-01</totfact>
</mgrwt>
</event>
<event>
 6    1  0.1637818E-005  0.7931978E+03  0.7818608E-02  0.9569915E-01
         -2   -1    0    0    0  501 -0.00000000000E+00  0.00000000000E+00  0.42973145073E+03  0.42973145073E+03  0.00000000000E+00 0.  1.
          2   -1    0    0  501    0  0.00000000000E+00 -0.00000000000E+00 -0.36602092086E+03  0.36602092086E+03  0.00000000000E+00 0. -1.
         23    2    1    2    0    0 -0.38670076655E+03 -0.53613999773E+01  0.92424952118E+02  0.40794991478E+03  0.91184065134E+02 0.  0.
         13    1    3    3    0    0 -0.49401727274E+01  0.10429710064E+02 -0.65259283839E+01  0.13257899527E+02  0.00000000000E+00 0.  1.
        -13    1    3    3    0    0 -0.38176059382E+03 -0.15791110041E+02  0.98950880502E+02  0.39469201525E+03  0.00000000000E+00 0. -1.
         22    1    1    2    0    0  0.38670076655E+03  0.53613999773E+01 -0.28714422251E+02  0.38780245681E+03  0.00000000000E+00 0.  1.
<mgrwt>
<rscale>  0 0.79319783E+03</rscale>
<asrwt>0</asrwt>
<pdfrwt beam="1">  1        2 0.56310911E-01 0.79319783E+03</pdfrwt>
<pdfrwt beam="2">  1       -2 0.66112531E-01 0.79319783E+03</pdfrwt>
<totfact> 0.18643219E+02</totfact>
</mgrwt>
</event>
<event>
 6    1  0.1637818E-005  0.2478756E+04  0.7818608E-02  0.8410593E-01
         -2   -1    0    0    0  501 -0.00000000000E+00  0.00000000000E+00  0.60688148972E+03  0.60688148972E+03  0.00000000000E+00 0.  1.
          2   -1    0    0  501    0  0.00000000000E+00 -0.00000000000E+00 -0.25310681485E+04  0.25310681485E+04  0.00000000000E+00 0. -1.
         23    2    1    2    0    0 -0.11576327632E+04  0.30557009119E+03 -0.56568841330E+03  0.13271475568E+04  0.88490459943E+02 0.  0.
         13    1    3    3    0    0 -0.79622421098E+03  0.18862902897E+03 -0.34664567961E+03  0.88866030175E+03  0.00000000000E+00 0. -1.
        -13    1    3    3    0    0 -0.36140855222E+03  0.11694106223E+03 -0.21904273369E+03  0.43848725505E+03  0.00000000000E+00 0.  1.
         22    1    1    2    0    0  0.11576327632E+04 -0.30557009119E+03 -0.13584982455E+04  0.18108020814E+04  0.00000000000E+00 0. -1.
<mgrwt>
<rscale>  0 0.24787565E+04</rscale>
<asrwt>0</asrwt>
<pdfrwt beam="1">  1        2 0.38939511E+00 0.24787565E+04</pdfrwt>
<pdfrwt beam="2">  1       -2 0.93366382E-01 0.24787565E+04</pdfrwt>
<totfact> 0.28950882E+00</totfact>
</mgrwt>
</event>
<event>
 6    1  0.1637818E-005  0.2995118E+04  0.7818608E-02  0.8245126E-01
         -2   -1    0    0    0  501 -0.00000000000E+00  0.00000000000E+00  0.16619277083E+04  0.16619277083E+04  0.00000000000E+00 0.  1.
          2   -1    0    0  501    0  0.00000000000E+00 -0.00000000000E+00 -0.13494465846E+04  0.13494465846E+04  0.00000000000E+00 0. -1.
         23    2    1    2    0    0  0.28049606842E+03  0.79203611025E+03  0.14011710531E+04  0.16361488544E+04  0.87769637699E+02 0.  0.
         13    1    3    3    0    0  0.99255203154E+02  0.38699790851E+03  0.71340257443E+03  0.81765653532E+03  0.00000000000E+00 0. -1.
        -13    1    3    3    0    0  0.18124086527E+03  0.40503820174E+03  0.68776847870E+03  0.81849231909E+03  0.00000000000E+00 0.  1.
         22    1    1    2    0    0 -0.28049606842E+03 -0.79203611025E+03 -0.10886899294E+04  0.13752254385E+04  0.00000000000E+00 0. -1.
<mgrwt>
<rscale>  0 0.29951178E+04</rscale>
<asrwt>0</asrwt>
<pdfrwt beam="1">  1        2 0.20760717E+00 0.29951178E+04</pdfrwt>
<pdfrwt beam="2">  1       -2 0.25568119E+00 0.29951178E+04</pdfrwt>
<totfact> 0.78574794E-01</totfact>
</mgrwt>
</event>
<event>
 6    1  0.1637818E-005  0.2590912E+04  0.7818608E-02  0.8371295E-01
         -2   -1    0    0    0  501 -0.00000000000E+00  0.00000000000E+00  0.44205408689E+03  0.44205408689E+03  0.00000000000E+00 0.  1.
          2   -1    0    0  501    0  0.00000000000E+00 -0.00000000000E+00 -0.37963816912E+04  0.37963816912E+04  0.00000000000E+00 0. -1.
         23    2    1    2    0    0  0.11658110941E+04  0.49632123701E+03 -0.12509972304E+04  0.17829421537E+04  0.91860631750E+02 0.  0.
         13    1    3    3    0    0  0.38054775728E+03  0.13678470165E+03 -0.45028478689E+03  0.60521321820E+03  0.00000000000E+00 0. -1.
        -13    1    3    3    0    0  0.78526333682E+03  0.35953653536E+03 -0.80071244351E+03  0.11777289355E+04  0.00000000000E+00 0.  1.
         22    1    1    2    0    0 -0.11658110941E+04 -0.49632123701E+03 -0.21033303739E+04  0.24554936244E+04  0.00000000000E+00 0.  1.
<mgrwt>
<rscale>  0 0.25909118E+04</rscale>
<asrwt>0</asrwt>
<pdfrwt beam="1">  1        2 0.58405870E+00 0.25909118E+04</pdfrwt>
<pdfrwt beam="2">  1       -2 0.68008324E-01 0.25909118E+04</pdfrwt>
<totfact> 0.86758806E-01</totfact>
</mgrwt>
</event>
<event>
 6    1  0.1637818E-005  0.4400267E+04  0.7818608E-02  0.7928333E-01
         -2   -1    0    0    0  501 -0.00000000000E+00  0.00000000000E+00  0.19576412541E+04  0.19576412541E+04  0.00000000000E+00 0.  1.
          2   -1    0    0  501    0  0.00000000000E+00 -0.00000000000E+00 -0.24726633850E+04  0.24726633850E+04  0.00000000000E+00 0. -1.
         23    2    1    2    0    0  0.17030287720E+04  0.13252819057E+03 -0.16521615442E+04  0.23782430502E+04  0.92366217230E+02 0.  0.
         11    1    3    3    0    0  0.49696527853E+03  0.25371021352E+02 -0.42676065979E+03  0.65554773856E+03  0.00000000000E+00 0. -1.
        -11    1    3    3    0    0  0.12060634935E+04  0.10715716922E+03 -0.12254008844E+04  0.17226953116E+04  0.00000000000E+00 0.  1.
         22    1    1    2    0    0 -0.17030287720E+04 -0.13252819057E+03  0.11371394132E+04  0.20520615890E+04  0.00000000000E+00 0.  1.
<mgrwt>
<rscale>  0 0.44002672E+04</rscale>
<asrwt>0</asrwt>
<pdfrwt beam="1">  1        2 0.38040975E+00 0.44002672E+04</pdfrwt>
<pdfrwt beam="2">  1       -2 0.30117558E+00 0.44002672E+04</pdfrwt>
<totfact> 0.86210311E-02</totfact>
</mgrwt>
</event>
<event>
 6    1  0.2438736E-005  0.2586189E+04  0.7818608E-02  0.8372908E-01
         -1   -1    0    0    0  501 -0.00000000000E+00  0.00000000000E+00  0.11719717644E+04  0.11719717644E+04  0.00000000000E+00 0.  1.
          1   -1    0    0  501    0  0.00000000000E+00 -0.00000000000E+00 -0.14267355606E+04  0.14267355606E+04  0.00000000000E+00 0. -1.
         23    2    1    2    0    0  0.63174552440E+03  0.68916746507E+03  0.76780663581E+03  0.12131733158E+04  0.90599456653E+02 0.  0.
         11    1    3    3    0    0  0.25870500081E+03  0.25608309986E+03  0.35169544957E+03  0.50615859247E+03  0.00000000000E+00 0.  1.
        -11    1    3    3    0    0  0.37304052358E+03  0.43308436521E+03  0.41611118624E+03  0.70701472328E+03  0.00000000000E+00 0. -1.
         22    1    1    2    0    0 -0.63174552440E+03 -0.68916746507E+03 -0.10225704319E+04  0.13855340092E+04  0.00000000000E+00 0. -1.
<mgrwt>
<rscale>  0 0.25861893E+04</rscale>
<asrwt>0</asrwt>
<pdfrwt beam="1">  1        1 0.21949778E+00 0.25861893E+04</pdfrwt>
<pdfrwt beam="2">  1       -1 0.18030335E+00 0.25861893E+04</pdfrwt>
<totfact> 0.13435897E+00</totfact>
</mgrwt>
</event>
<event>
 6    1  0.1880244E-005  0.2506151E+04  0.7818608E-02  0.8400797E-01
          2   -1    0    0  501    0  0.00000000000E+00  0.00000000000E+00  0.20473528738E+04  0.20473528738E+04  0.00000000000E+00 0. -1.
         -2   -1    0    0    0  501 -0.00000000000E+00 -0.00000000000E+00 -0.76694077855E+03  0.76694077855E+03  0.00000000000E+00 0.  1.
         23    2    1    2    0    0  0.24428846446E+03  0.84991445323E+01  0.20193147882E+04  0.20360094633E+04  0.89180892118E+02 0.  0.
         13    1    3    3    0    0  0.63035001553E+02  0.41734702264E+02  0.54244614029E+03  0.54768879111E+03  0.00000000000E+00 0. -1.
        -13    1    3    3    0    0  0.18125346291E+03 -0.33235557732E+02  0.14768686479E+04  0.14883206722E+04  0.00000000000E+00 0.  1.
         22    1    1    2    0    0 -0.24428846446E+03 -0.84991445323E+01 -0.73890269293E+03  0.77828418906E+03  0.00000000000E+00 0.  1.
<mgrwt>
<rscale>  0 0.25061512E+04</rscale>
<asrwt>0</asrwt>
<pdfrwt beam="1">  1        2 0.31497736E+00 0.25061512E+04</pdfrwt>
<pdfrwt beam="2">  1       -2 0.11799089E+00 0.25061512E+04</pdfrwt>
<totfact> 0.31032854E+00</totfact>
</mgrwt>
</event>
<event>
 6    1  0.1637818E-005  0.2574823E+04  0.7818608E-02  0.8376804E-01
          1   -1    0    0  501    0  0.00000000000E+00  0.00000000000E+00  0.14779450056E+04  0.14779450056E+04  0.00000000000E+00 0. -1.
         -1   -1    0    0    0  501 -0.00000000000E+00 -0.00000000000E+00 -0.11214412029E+04  0.11214412029E+04  0.00000000000E+00 0.  1.
         23    2    1    2    0    0 -0.10065242896E+04  0.68406391699E+03  0.59738222304E+03  0.13587988470E+04  0.91837891299E+02 0.  0.
         11    1    3    3    0    0 -0.35158448733E+03  0.18733545293E+03  0.18882536800E+03  0.44086420047E+03  0.00000000000E+00 0. -1.
        -11    1    3    3    0    0 -0.65493980226E+03  0.49672846406E+03  0.40855685504E+03  0.91793464658E+03  0.00000000000E+00 0.  1.
         22    1    1    2    0    0  0.10065242896E+04 -0.68406391699E+03 -0.24087842027E+03  0.12405873615E+04  0.00000000000E+00 0.  1.
<mgrwt>
<rscale>  0 0.25748230E+04</rscale>
<asrwt>0</asrwt>
<pdfrwt beam="1">  1        1 0.22737615E+00 0.25748230E+04</pdfrwt>
<pdfrwt beam="2">  1       -1 0.17252942E+00 0.25748230E+04</pdfrwt>
<totfact> 0.14103621E+00</totfact>
</mgrwt>
</event>
<event>
 6    1  0.1637818E-005  0.2961376E+04  0.7818608E-02  0.8254847E-01
          2   -1    0    0  501    0  0.00000000000E+00  0.00000000000E+00  0.10003998770E+04  0.10003998770E+04  0.00000000000E+00 0. -1.
         -2   -1    0    0    0  501 -0.00000000000E+00 -0.00000000000E+00 -0.21915609934E+04  0.21915609934E+04  0.00000000000E+00 0.  1.
         23    2    1    2    0    0  0.37178283207E+03 -0.11931393157E+04 -0.14492740715E+04  0.19158628340E+04  0.91275206539E+02 0.  0.
         11    1    3    3    0    0  0.38477218158E+02 -0.13752265250E+03 -0.12439968819E+03  0.18938917258E+03  0.00000000000E+00 0. -1.
        -11    1    3    3    0    0  0.33330561391E+03 -0.10556166632E+04 -0.13248743833E+04  0.17264736614E+04  0.00000000000E+00 0.  1.
         22    1    1    2    0    0 -0.37178283207E+03  0.11931393157E+04  0.25811295511E+03  0.12760980364E+04  0.00000000000E+00 0. -1.
<mgrwt>
<rscale>  0 0.29613763E+04</rscale>
<asrwt>0</asrwt>
<pdfrwt beam="1">  1        2 0.15390768E+00 0.29613763E+04</pdfrwt>
<pdfrwt beam="2">  1       -2 0.33716323E+00 0.29613763E+04</pdfrwt>
<totfact> 0.40484141E-01</totfact>
</mgrwt>
</event>
<event>
 6    1  0.1637818E-005  0.2010121E+04  0.7818608E-02  0.8601903E-01
          2   -1    0    0  501    0  0.00000000000E+00  0.00000000000E+00  0.17582141009E+04  0.17582141009E+04  0.00000000000E+00 0. -1.
         -2   -1    0    0    0  501 -0.00000000000E+00 -0.00000000000E+00 -0.57453015630E+03  0.57453015630E+03  0.00000000000E+00 0.  1.
         23    2    1    2    0    0  0.49078859601E+03  0.78776608796E+03  0.10343254101E+04  0.13926608422E+04  0.90699019215E+02 0.  0.
         13    1    3    3    0    0  0.24855537537E+03  0.46595839303E+03  0.54525908764E+03  0.75908133379E+03  0.00000000000E+00 0. -1.
        -13    1    3    3    0    0  0.24223322063E+03  0.32180769493E+03  0.48906632250E+03  0.63357950843E+03  0.00000000000E+00 0.  1.
         22    1    1    2    0    0 -0.49078859601E+03 -0.78776608796E+03  0.14935853447E+03  0.94008341498E+03  0.00000000000E+00 0.  1.
<mgrwt>
<rscale>  0 0.20101214E+04</rscale>
<asrwt>0</asrwt>
<pdfrwt beam="1">  1        2 0.27049448E+00 0.20101214E+04</pdfrwt>
<pdfrwt beam="2">  1       -2 0.88389255E-01 0.20101214E+04</pdfrwt>
<totfact> 0.93090737E+00</totfact>
</mgrwt>
</event>
<event>
 6    1  0.1637818E-005  0.3929123E+04  0.7818608E-02  0.8018999E-01
         -2   -1    0    0    0  501 -0.00000000000E+00  0.00000000000E+00  0.85981685735E+03  0.85981685735E+03  0.00000000000E+00 0.  1.
          2   -1    0    0  501    0  0.00000000000E+00 -0.00000000000E+00 -0.44887480149E+04  0.44887480149E+04  0.00000000000E+00 0. -1.
         23    2    1    2    0    0  0.94946856077E+03 -0.30986484354E+03 -0.41166976147E+04  0.42370690846E+04  0.89712920110E+02 0.  0.
         11    1    3    3    0    0  0.53846153037E+03 -0.22145989689E+03 -0.23552606278E+04  0.24261570292E+04  0.00000000000E+00 0. -1.
        -11    1    3    3    0    0  0.41100703040E+03 -0.88404946647E+02 -0.17614369869E+04  0.18109120554E+04  0.00000000000E+00 0.  1.
         22    1    1    2    0    0 -0.94946856077E+03  0.30986484354E+03  0.48776645715E+03  0.11114957876E+04  0.00000000000E+00 0.  1.
<mgrwt>
<rscale>  0 0.39291227E+04</rscale>
<asrwt>0</asrwt>
<pdfrwt beam="1">  1        2 0.69057663E+00 0.39291227E+04</pdfrwt>
<pdfrwt beam="2">  1       -2 0.13227951E+00 0.39291227E+04</pdfrwt>
<totfact> 0.41334970E-02</totfact>
</mgrwt>
</event>
<event>
 6    1  0.1637818E-005  0.2704569E+04  0.7818608E-02  0.8333524E-01
         -1   -1    0    0    0  501 -0.00000000000E+00  0.00000000000E+00  0.18665087736E+04  0.18665087736E+04  0.00000000000E+00 0.  1.
          1   -1    0    0  501    0  0.00000000000E+00 -0.00000000000E+00 -0.97972958774E+03  0.97972958774E+03  0.00000000000E+00 0. -1.
         23    2    1    2    0    0 -0.31188248549E+03  0.11727186592E+04  0.10681357074E+04  0.16192787343E+04  0.92790041238E+02 0.  0.
         11    1    3    3    0    0 -0.12858851316E+03  0.60464074851E+03  0.49762114282E+03  0.79356930526E+03  0.00000000000E+00 0. -1.
        -11    1    3    3    0    0 -0.18329397233E+03  0.56807791065E+03  0.57051456458E+03  0.82570942907E+03  0.00000000000E+00 0.  1.
         22    1    1    2    0    0  0.31188248549E+03 -0.11727186592E+04 -0.18135652159E+03  0.12269596270E+04  0.00000000000E+00 0. -1.
<mgrwt>
<rscale>  0 0.27045694E+04</rscale>
<asrwt>0</asrwt>
<pdfrwt beam="1">  1        1 0.15072763E+00 0.27045694E+04</pdfrwt>
<pdfrwt beam="2">  1       -1 0.28715520E+00 0.27045694E+04</pdfrwt>
<totfact> 0.54802027E-01</totfact>
</mgrwt>
</event>
<event>
 6    1  0.1637818E-005  0.3474004E+04  0.7818608E-02  0.8119978E-01
         -2   -1    0    0    0  501 -0.00000000000E+00  0.00000000000E+00  0.83848916095E+03  0.83848916095E+03  0.00000000000E+00 0. -1.
          2   -1    0    0  501    0  0.00000000000E+00 -0.00000000000E+00 -0.35983482845E+04  0.35983482845E+04  0.00000000000E+00 0.  1.
         23    2    1    2    0    0 -0.12952613263E+04  0.63165815164E+03 -0.26167656829E+04  0.29886766613E+04  0.89619320751E+02 0.  0.
         13    1    3    3    0    0 -0.74270484903E+03  0.31665606591E+03 -0.14997184303E+04  0.17032430616E+04  0.00000000000E+00 0.  1.
        -13    1    3    3    0    0 -0.55255647728E+03  0.31500208573E+03 -0.11170472526E+04  0.12854335996E+04  0.00000000000E+00 0. -1.
         22    1    1    2    0    0  0.12952613263E+04 -0.63165815164E+03 -0.14309344066E+03  0.14481607841E+04  0.00000000000E+00 0. -1.
<mgrwt>
<rscale>  0 0.34740040E+04</rscale>
<asrwt>0</asrwt>
<pdfrwt beam="1">  1        2 0.55359206E+00 0.34740040E+04</pdfrwt>
<pdfrwt beam="2">  1       -2 0.12899833E+00 0.34740040E+04</pdfrwt>
<totfact> 0.25202932E-01</totfact>
</mgrwt>
</event>
<event>
 6    1  0.1637818E-005  0.2487018E+04  0.7818608E-02  0.8407625E-01
          2   -1    0    0  501    0  0.00000000000E+00  0.00000000000E+00  0.13534435786E+04  0.13534435786E+04  0.00000000000E+00 0. -1.
         -2   -1    0    0    0  501 -0.00000000000E+00 -0.00000000000E+00 -0.11425043031E+04  0.11425043031E+04  0.00000000000E+00 0.  1.
         23    2    1    2    0    0 -0.22257500663E+02  0.51013996917E+03  0.12413377358E+04  0.13459656333E+04  0.99829491669E+02 0.  0.
         11    1    3    3    0    0  0.10014224876E+01  0.43414469782E+03  0.95973955926E+03  0.10533672878E+04  0.00000000000E+00 0. -1.
        -11    1    3    3    0    0 -0.23258923150E+02  0.75995271352E+02  0.28159817650E+03  0.29259834549E+03  0.00000000000E+00 0.  1.
         22    1    1    2    0    0  0.22257500663E+02 -0.51013996917E+03 -0.10303984603E+04  0.11499822483E+04  0.00000000000E+00 0.  1.
<mgrwt>
<rscale>  0 0.24870184E+04</rscale>
<asrwt>0</asrwt>
<pdfrwt beam="1">  1        2 0.20822209E+00 0.24870184E+04</pdfrwt>
<pdfrwt beam="2">  1       -2 0.17576989E+00 0.24870184E+04</pdfrwt>
<totfact> 0.26668518E+00</totfact>
</mgrwt>
</event>
<event>
 6    1  0.1637818E-005  0.2479833E+04  0.7818608E-02  0.8410206E-01
         -1   -1    0    0    0  501 -0.00000000000E+00  0.00000000000E+00  0.11797299780E+04  0.11797299780E+04  0.00000000000E+00 0.  1.
          1   -1    0    0  501    0  0.00000000000E+00 -0.00000000000E+00 -0.13031732293E+04  0.13031732293E+04  0.00000000000E+00 0. -1.
         23    2    1    2    0    0 -0.48196044246E+03  0.10698812541E+04  0.33469861463E+03  0.12232104927E+04  0.85375527106E+02 0.  0.
         13    1    3    3    0    0 -0.43369790282E+03  0.91637086965E+03  0.26524084466E+03  0.10479418626E+04  0.00000000000E+00 0.  1.
        -13    1    3    3    0    0 -0.48262539635E+02  0.15351038450E+03  0.69457769974E+02  0.17526863008E+03  0.00000000000E+00 0. -1.
         22    1    1    2    0    0  0.48196044246E+03 -0.10698812541E+04 -0.45814186597E+03  0.12596927147E+04  0.00000000000E+00 0. -1.
<mgrwt>
<rscale>  0 0.24798327E+04</rscale>
<asrwt>0</asrwt>
<pdfrwt beam="1">  1        1 0.20048819E+00 0.24798327E+04</pdfrwt>
<pdfrwt beam="2">  1       -1 0.18149692E+00 0.24798327E+04</pdfrwt>
<totfact> 0.16259673E+00</totfact>
</mgrwt>
</event>
<event>
 6    1  0.1637818E-005  0.1815721E+04  0.7818608E-02  0.8697983E-01
         -2   -1    0    0    0  501 -0.00000000000E+00  0.00000000000E+00  0.63510512881E+03  0.63510512881E+03  0.00000000000E+00 0.  1.
          2   -1    0    0  501    0  0.00000000000E+00 -0.00000000000E+00 -0.12977554393E+04  0.12977554393E+04  0.00000000000E+00 0. -1.
         23    2    1    2    0    0  0.48084676365E+03 -0.61603817072E+03  0.15444124497E+03  0.80221683648E+03  0.94779305159E+02 0.  0.
         11    1    3    3    0    0  0.17344351848E+03 -0.28688356557E+03  0.91191807771E+02  0.34742017803E+03  0.00000000000E+00 0.  1.
        -11    1    3    3    0    0  0.30740324516E+03 -0.32915460514E+03  0.63249437202E+02  0.45479665844E+03  0.00000000000E+00 0. -1.
         22    1    1    2    0    0 -0.48084676365E+03  0.61603817072E+03 -0.81709155551E+03  0.11306437317E+04  0.00000000000E+00 0. -1.
<mgrwt>
<rscale>  0 0.18157215E+04</rscale>
<asrwt>0</asrwt>
<pdfrwt beam="1">  1        2 0.19965468E+00 0.18157215E+04</pdfrwt>
<pdfrwt beam="2">  1       -2 0.97708483E-01 0.18157215E+04</pdfrwt>
<totfact> 0.13643046E+01</totfact>
</mgrwt>
</event>
<event>
 6    1  0.1637818E-005  0.1973373E+04  0.7818608E-02  0.8619172E-01
          2   -1    0    0  501    0  0.00000000000E+00  0.00000000000E+00  0.14915963428E+04  0.14915963428E+04  0.00000000000E+00 0. -1.
         -2   -1    0    0    0  501 -0.00000000000E+00 -0.00000000000E+00 -0.65268999858E+03  0.65268999858E+03  0.00000000000E+00 0.  1.
         23    2    1    2    0    0 -0.83122704709E+03 -0.42199455991E+03  0.76474663856E+03  0.12091299510E+04  0.90221975427E+02 0.  0.
         13    1    3    3    0    0 -0.56219956661E+03 -0.25301675962E+03  0.46339429465E+03  0.77124581403E+03  0.00000000000E+00 0.  1.
        -13    1    3    3    0    0 -0.26902748048E+03 -0.16897780029E+03  0.30135234391E+03  0.43788413698E+03  0.00000000000E+00 0. -1.
         22    1    1    2    0    0  0.83122704709E+03  0.42199455991E+03  0.74159705613E+02  0.93515639031E+03  0.00000000000E+00 0.  1.
<mgrwt>
<rscale>  0 0.19733728E+04</rscale>
<asrwt>0</asrwt>
<pdfrwt beam="1">  1        2 0.22947636E+00 0.19733728E+04</pdfrwt>
<pdfrwt beam="2">  1       -2 0.10041385E+00 0.19733728E+04</pdfrwt>
<totfact> 0.97744923E+00</totfact>
</mgrwt>
</event>
<event>
 6    1  0.1637818E-005  0.1163803E+04  0.7818608E-02  0.9145144E-01
          2   -1    0    0  501    0  0.00000000000E+00  0.00000000000E+00  0.25322235873E+04  0.25322235873E+04  0.00000000000E+00 0.  1.
         -2   -1    0    0    0  501 -0.00000000000E+00 -0.00000000000E+00 -0.13372007384E+03  0.13372007384E+03  0.00000000000E+00 0. -1.
         23    2    1    2    0    0  0.17163808816E+03 -0.12870287700E+03  0.24369033931E+04  0.24480018923E+04  0.90504438907E+02 0.  0.
         11    1    3    3    0    0  0.14000617568E+03 -0.59932410555E+02  0.13762383795E+04  0.13846391950E+04  0.00000000000E+00 0.  1.
        -11    1    3    3    0    0  0.31631912481E+02 -0.68770466445E+02  0.10606650136E+04  0.10633626973E+04  0.00000000000E+00 0. -1.
         22    1    1    2    0    0 -0.17163808816E+03  0.12870287700E+03 -0.38399879651E+02  0.21794176885E+03  0.00000000000E+00 0. -1.
<mgrwt>
<rscale>  0 0.11638026E+04</rscale>
<asrwt>0</asrwt>
<pdfrwt beam="1">  1        2 0.38957282E+00 0.11638026E+04</pdfrwt>
<pdfrwt beam="2">  1       -2 0.20572321E-01 0.11638026E+04</pdfrwt>
<totfact> 0.67580676E+01</totfact>
</mgrwt>
</event>
<event>
 6    1  0.1637818E-005  0.7381207E+03  0.7818608E-02  0.9654174E-01
         -1   -1    0    0    0  501 -0.00000000000E+00  0.00000000000E+00  0.58802117449E+03  0.58802117449E+03  0.00000000000E+00 0.  1.
          1   -1    0    0  501    0  0.00000000000E+00 -0.00000000000E+00 -0.23163375534E+03  0.23163375534E+03  0.00000000000E+00 0. -1.
         23    2    1    2    0    0 -0.20373358635E+03  0.76051543375E+02  0.50411917968E+03  0.55675592921E+03  0.92465160616E+02 0.  0.
         13    1    3    3    0    0 -0.87456708272E+02  0.46175617168E+01  0.28921175064E+03  0.30218112847E+03  0.00000000000E+00 0.  1.
        -13    1    3    3    0    0 -0.11627687808E+03  0.71433981658E+02  0.21490742905E+03  0.25457480074E+03  0.00000000000E+00 0. -1.
         22    1    1    2    0    0  0.20373358635E+03 -0.76051543375E+02 -0.14773176054E+03  0.26289900062E+03  0.00000000000E+00 0. -1.
<mgrwt>
<rscale>  0 0.73812073E+03</rscale>
<asrwt>0</asrwt>
<pdfrwt beam="1">  1        1 0.35635963E-01 0.73812073E+03</pdfrwt>
<pdfrwt beam="2">  1       -1 0.90464795E-01 0.73812073E+03</pdfrwt>
<totfact> 0.14882053E+02</totfact>
</mgrwt>
</event>
<event>
 6    1  0.1637818E-005  0.8664082E+03  0.7818608E-02  0.9468575E-01
         -2   -1    0    0    0  501 -0.00000000000E+00  0.00000000000E+00  0.94334634102E+02  0.94334634102E+02  0.00000000000E+00 0.  1.
          2   -1    0    0  501    0  0.00000000000E+00 -0.00000000000E+00 -0.19893623954E+04  0.19893623954E+04  0.00000000000E+00 0. -1.
         23    2    1    2    0    0 -0.40019885229E+03 -0.14634106984E+03 -0.85546143462E+03  0.96018780494E+03  0.92582528327E+02 0.  0.
         11    1    3    3    0    0 -0.20531229638E+03 -0.10502600518E+03 -0.53870725721E+03  0.58599412094E+03  0.00000000000E+00 0.  1.
        -11    1    3    3    0    0 -0.19488655591E+03 -0.41315064666E+02 -0.31675417740E+03  0.37419368400E+03  0.00000000000E+00 0. -1.
         22    1    1    2    0    0  0.40019885229E+03  0.14634106984E+03 -0.10395663267E+04  0.11235092245E+04  0.00000000000E+00 0.  1.
<mgrwt>
<rscale>  0 0.86640816E+03</rscale>
<asrwt>0</asrwt>
<pdfrwt beam="1">  1        2 0.30605578E+00 0.86640816E+03</pdfrwt>
<pdfrwt beam="2">  1       -2 0.14513020E-01 0.86640816E+03</pdfrwt>
<totfact> 0.25446847E+02</totfact>
</mgrwt>
</event>
<event>
 6    1  0.1637818E-005  0.1890117E+04  0.7818608E-02  0.8659792E-01
          1   -1    0    0  501    0  0.00000000000E+00  0.00000000000E+00  0.12692538309E+04  0.12692538309E+04  0.00000000000E+00 0. -1.
         -1   -1    0    0    0  501 -0.00000000000E+00 -0.00000000000E+00 -0.70366948268E+03  0.70366948268E+03  0.00000000000E+00 0.  1.
         23    2    1    2    0    0  0.85738476243E+03  0.37352901759E+03  0.40857591865E+03  0.10246173478E+04  0.90960817194E+02 0.  0.
         13    1    3    3    0    0  0.59741619964E+03  0.30018435714E+03  0.31137488697E+03  0.73754395401E+03  0.00000000000E+00 0.  1.
        -13    1    3    3    0    0  0.25996856280E+03  0.73344660449E+02  0.97201031676E+02  0.28707339378E+03  0.00000000000E+00 0. -1.
         22    1    1    2    0    0 -0.85738476243E+03 -0.37352901759E+03  0.15700842959E+03  0.94830596581E+03  0.00000000000E+00 0.  1.
<mgrwt>
<rscale>  0 0.18901166E+04</rscale>
<asrwt>0</asrwt>
<pdfrwt beam="1">  1        1 0.19526982E+00 0.18901166E+04</pdfrwt>
<pdfrwt beam="2">  1       -1 0.10825684E+00 0.18901166E+04</pdfrwt>
<totfact> 0.70635147E+00</totfact>
</mgrwt>
</event>
<event>
 6    1  0.1637818E-005  0.3290979E+04  0.7818608E-02  0.8165194E-01
          2   -1    0    0  501    0  0.00000000000E+00  0.00000000000E+00  0.35650195753E+04  0.35650195753E+04  0.00000000000E+00 0. -1.
         -2   -1    0    0    0  501 -0.00000000000E+00 -0.00000000000E+00 -0.75950109833E+03  0.75950109833E+03  0.00000000000E+00 0.  1.
         23    2    1    2    0    0 -0.61074900387E+03 -0.50514022873E+03 -0.48923332426E+03  0.93577895611E+03  0.90288497149E+02 0.  0.
         13    1    3    3    0    0 -0.51968565351E+03 -0.38418478743E+03 -0.39940649284E+03  0.75973460885E+03  0.00000000000E+00 0.  1.
        -13    1    3    3    0    0 -0.91063350356E+02 -0.12095544131E+03 -0.89826831415E+02  0.17604434726E+03  0.00000000000E+00 0. -1.
         22    1    1    2    0    0  0.61074900387E+03  0.50514022873E+03  0.32947518012E+04  0.33887417175E+04  0.00000000000E+00 0. -1.
<mgrwt>
<rscale>  0 0.32909794E+04</rscale>
<asrwt>0</asrwt>
<pdfrwt beam="1">  1        2 0.54846454E+00 0.32909794E+04</pdfrwt>
<pdfrwt beam="2">  1       -2 0.11684632E+00 0.32909794E+04</pdfrwt>
<totfact> 0.34615102E-01</totfact>
</mgrwt>
</event>
<event>
 6    1  0.1637818E-005  0.2948588E+04  0.7818608E-02  0.8258566E-01
          2   -1    0    0  501    0  0.00000000000E+00  0.00000000000E+00  0.90674932390E+03  0.90674932390E+03  0.00000000000E+00 0. -1.
         -2   -1    0    0    0  501 -0.00000000000E+00 -0.00000000000E+00 -0.23970715454E+04  0.23970715454E+04  0.00000000000E+00 0.  1.
         23    2    1    2    0    0 -0.91199328617E+03 -0.98474439858E+03 -0.14256106237E+04  0.19600794971E+04  0.89959435039E+02 0.  0.
         13    1    3    3    0    0 -0.40878489666E+03 -0.50441395354E+03 -0.66829384140E+03  0.93174845679E+03  0.00000000000E+00 0.  1.
        -13    1    3    3    0    0 -0.50320838951E+03 -0.48033044503E+03 -0.75731678234E+03  0.10283310403E+04  0.00000000000E+00 0. -1.
         22    1    1    2    0    0  0.91199328617E+03  0.98474439858E+03 -0.64711597809E+02  0.13437413722E+04  0.00000000000E+00 0. -1.
<mgrwt>
<rscale>  0 0.29485881E+04</rscale>
<asrwt>0</asrwt>
<pdfrwt beam="1">  1        2 0.13949990E+00 0.29485881E+04</pdfrwt>
<pdfrwt beam="2">  1       -2 0.36878024E+00 0.29485881E+04</pdfrwt>
<totfact> 0.29473238E-01</totfact>
</mgrwt>
</event>
<event>
 6    1  0.1637818E-005  0.2001277E+04  0.7818608E-02  0.8606024E-01
         -2   -1    0    0    0  501 -0.00000000000E+00  0.00000000000E+00  0.81115057844E+03  0.81115057844E+03  0.00000000000E+00 0.  1.
          2   -1    0    0  501    0  0.00000000000E+00 -0.00000000000E+00 -0.12343914479E+04  0.12343914479E+04  0.00000000000E+00 0. -1.
         23    2    1    2    0    0 -0.85355835553E+03  0.63273750029E+02  0.31383081456E+03  0.91601110552E+03  0.89560770071E+02 0.  0.
         13    1    3    3    0    0 -0.42405190237E+03 -0.12617292352E+02  0.16395566294E+03  0.45481938325E+03  0.00000000000E+00 0.  1.
        -13    1    3    3    0    0 -0.42950645316E+03  0.75891042381E+02  0.14987515162E+03  0.46119172227E+03  0.00000000000E+00 0. -1.
         22    1    1    2    0    0  0.85355835553E+03 -0.63273750029E+02 -0.73707168407E+03  0.11295309209E+04  0.00000000000E+00 0. -1.
<mgrwt>
<rscale>  0 0.20012769E+04</rscale>
<asrwt>0</asrwt>
<pdfrwt beam="1">  1        2 0.18990638E+00 0.20012769E+04</pdfrwt>
<pdfrwt beam="2">  1       -2 0.12479240E+00 0.20012769E+04</pdfrwt>
<totfact> 0.80828379E+00</totfact>
</mgrwt>
</event>
<event>
 6    1  0.1637818E-005  0.1330902E+04  0.7818608E-02  0.9005413E-01
          1   -1    0    0  501    0  0.00000000000E+00  0.00000000000E+00  0.19547279949E+04  0.19547279949E+04  0.00000000000E+00 0. -1.
         -1   -1    0    0    0  501 -0.00000000000E+00 -0.00000000000E+00 -0.22654036739E+03  0.22654036739E+03  0.00000000000E+00 0.  1.
         23    2    1    2    0    0  0.63989237419E+03 -0.35798785764E+02  0.59586027137E+03  0.88014997986E+03  0.94184502178E+02 0.  0.
         13    1    3    3    0    0  0.22447134712E+03 -0.55025075772E+02  0.23393760142E+03  0.32884942755E+03  0.00000000000E+00 0. -1.
        -13    1    3    3    0    0  0.41542102707E+03  0.19226290008E+02  0.36192266995E+03  0.55130055232E+03  0.00000000000E+00 0.  1.
         22    1    1    2    0    0 -0.63989237419E+03  0.35798785764E+02  0.11323273561E+04  0.13011183824E+04  0.00000000000E+00 0. -1.
<mgrwt>
<rscale>  0 0.13309016E+04</rscale>
<asrwt>0</asrwt>
<pdfrwt beam="1">  1        1 0.30072737E+00 0.13309016E+04</pdfrwt>
<pdfrwt beam="2">  1       -1 0.34852366E-01 0.13309016E+04</pdfrwt>
<totfact> 0.24538587E+01</totfact>
</mgrwt>
</event>
<event>
 6    1  0.1637818E-005  0.2389532E+04  0.7818608E-02  0.8443433E-01
         -2   -1    0    0    0  501 -0.00000000000E+00  0.00000000000E+00  0.61891779961E+03  0.61891779961E+03  0.00000000000E+00 0.  1.
          2   -1    0    0  501    0  0.00000000000E+00 -0.00000000000E+00 -0.23063901032E+04  0.23063901032E+04  0.00000000000E+00 0. -1.
         23    2    1    2    0    0 -0.36694068443E+03  0.62797901681E+03 -0.20026709980E+04  0.21326204938E+04  0.91520121561E+02 0.  0.
         11    1    3    3    0    0 -0.36198993250E+03  0.57275705585E+03 -0.18439541624E+04  0.19644984880E+04  0.00000000000E+00 0.  1.
        -11    1    3    3    0    0 -0.49507519271E+01  0.55221960959E+02 -0.15871683560E+03  0.16812200575E+03  0.00000000000E+00 0. -1.
         22    1    1    2    0    0  0.36694068443E+03 -0.62797901681E+03  0.31519869445E+03  0.79268740903E+03  0.00000000000E+00 0.  1.
<mgrwt>
<rscale>  0 0.23895321E+04</rscale>
<asrwt>0</asrwt>
<pdfrwt beam="1">  1        2 0.35482925E+00 0.23895321E+04</pdfrwt>
<pdfrwt beam="2">  1       -2 0.95218122E-01 0.23895321E+04</pdfrwt>
<totfact> 0.37504610E+00</totfact>
</mgrwt>
</event>
<event>
 6    1  0.1637818E-005  0.3451375E+04  0.7818608E-02  0.8125411E-01
         -1   -1    0    0    0  501 -0.00000000000E+00  0.00000000000E+00  0.13458128334E+04  0.13458128334E+04  0.00000000000E+00 0.  1.
          1   -1    0    0  501    0  0.00000000000E+00 -0.00000000000E+00 -0.22127869135E+04  0.22127869135E+04  0.00000000000E+00 0. -1.
         23    2    1    2    0    0 -0.51436138948E+03  0.11704207549E+04  0.75945666499E+03  0.14898490729E+04  0.91779362365E+02 0.  0.
         11    1    3    3    0    0 -0.31623109567E+03  0.61263806666E+03  0.42670728279E+03  0.81080614933E+03  0.00000000000E+00 0. -1.
        -11    1    3    3    0    0 -0.19813029381E+03  0.55778268829E+03  0.33274938220E+03  0.67904292356E+03  0.00000000000E+00 0.  1.
         22    1    1    2    0    0  0.51436138948E+03 -0.11704207549E+04 -0.16264307451E+04  0.20687506740E+04  0.00000000000E+00 0. -1.
<mgrwt>
<rscale>  0 0.34513748E+04</rscale>
<asrwt>0</asrwt>
<pdfrwt beam="1">  1        1 0.34042875E+00 0.34513748E+04</pdfrwt>
<pdfrwt beam="2">  1       -1 0.20704813E+00 0.34513748E+04</pdfrwt>
<totfact> 0.23550919E-01</totfact>
</mgrwt>
</event>
<event>
 6    1  0.1637818E-005  0.2153003E+04  0.7818608E-02  0.8538248E-01
          2   -1    0    0  501    0  0.00000000000E+00  0.00000000000E+00  0.18568069008E+04  0.18568069008E+04  0.00000000000E+00 0. -1.
         -2   -1    0    0    0  501 -0.00000000000E+00 -0.00000000000E+00 -0.62411180529E+03  0.62411180529E+03  0.00000000000E+00 0.  1.
         23    2    1    2    0    0 -0.75721636634E+03 -0.75146762068E+03  0.76592484515E+03  0.13164640367E+04  0.91413791059E+02 0.  0.
         13    1    3    3    0    0 -0.25694523664E+03 -0.29847835945E+03  0.32135396415E+03  0.50830950804E+03  0.00000000000E+00 0.  1.
        -13    1    3    3    0    0 -0.50027112969E+03 -0.45298926123E+03  0.44457088099E+03  0.80815452868E+03  0.00000000000E+00 0. -1.
         22    1    1    2    0    0  0.75721636634E+03  0.75146762068E+03  0.46677025033E+03  0.11644546693E+04  0.00000000000E+00 0. -1.
<mgrwt>
<rscale>  0 0.21530027E+04</rscale>
<asrwt>0</asrwt>
<pdfrwt beam="1">  1        2 0.28566260E+00 0.21530027E+04</pdfrwt>
<pdfrwt beam="2">  1       -2 0.96017202E-01 0.21530027E+04</pdfrwt>
<totfact> 0.66931191E+00</totfact>
</mgrwt>
</event>
<event>
 6    1  0.1637818E-005  0.2775556E+04  0.7818608E-02  0.8310898E-01
         -2   -1    0    0    0  501 -0.00000000000E+00  0.00000000000E+00  0.67557910668E+03  0.67557910668E+03  0.00000000000E+00 0.  1.
          2   -1    0    0  501    0  0.00000000000E+00 -0.00000000000E+00 -0.28507809131E+04  0.28507809131E+04  0.00000000000E+00 0. -1.
         23    2    1    2    0    0  0.11035629355E+04 -0.49045123106E+03 -0.22425141728E+03  0.12318881887E+04  0.94160760518E+02 0.  0.
         13    1    3    3    0    0  0.10089460822E+04 -0.42174533411E+03 -0.18898873088E+03  0.11097558578E+04  0.00000000000E+00 0.  1.
        -13    1    3    3    0    0  0.94616853284E+02 -0.68705896944E+02 -0.35262686394E+02  0.12213233090E+03  0.00000000000E+00 0. -1.
         22    1    1    2    0    0 -0.11035629355E+04  0.49045123106E+03 -0.19509503891E+04  0.22944718310E+04  0.00000000000E+00 0. -1.
<mgrwt>
<rscale>  0 0.27755562E+04</rscale>
<asrwt>0</asrwt>
<pdfrwt beam="1">  1        2 0.43858168E+00 0.27755562E+04</pdfrwt>
<pdfrwt beam="2">  1       -2 0.10393525E+00 0.27755562E+04</pdfrwt>
<totfact> 0.14139885E+00</totfact>
</mgrwt>
</event>
<event>
 6    1  0.1637818E-005  0.2313238E+04  0.7818608E-02  0.8472720E-01
         -2   -1    0    0    0  501 -0.00000000000E+00  0.00000000000E+00  0.60019086614E+03  0.60019086614E+03  0.00000000000E+00 0.  1.
          2   -1    0    0  501    0  0.00000000000E+00 -0.00000000000E+00 -0.22289038211E+04  0.22289038211E+04  0.00000000000E+00 0. -1.
         23    2    1    2    0    0 -0.11119156935E+04  0.16436501068E+03 -0.11389602773E+04  0.16030318620E+04  0.95437261354E+02 0.  0.
         11    1    3    3    0    0 -0.40349741314E+03  0.97881897306E+02 -0.38276898415E+03  0.56471508166E+03  0.00000000000E+00 0. -1.
        -11    1    3    3    0    0 -0.70841828039E+03  0.66483113372E+02 -0.75619129318E+03  0.10383167803E+04  0.00000000000E+00 0.  1.
         22    1    1    2    0    0  0.11119156935E+04 -0.16436501068E+03 -0.48975267761E+03  0.12260628253E+04  0.00000000000E+00 0. -1.
<mgrwt>
<rscale>  0 0.23132382E+04</rscale>
<asrwt>0</asrwt>
<pdfrwt beam="1">  1        2 0.34290828E+00 0.23132382E+04</pdfrwt>
<pdfrwt beam="2">  1       -2 0.92337057E-01 0.23132382E+04</pdfrwt>
<totfact> 0.44851966E+00</totfact>
</mgrwt>
</event>
<event>
 6    1  0.1637818E-005  0.1297460E+04  0.7818608E-02  0.9031581E-01
          2   -1    0    0  501    0  0.00000000000E+00  0.00000000000E+00  0.22299203575E+04  0.22299203575E+04  0.00000000000E+00 0. -1.
         -2   -1    0    0    0  501 -0.00000000000E+00 -0.00000000000E+00 -0.18872913032E+03  0.18872913032E+03  0.00000000000E+00 0.  1.
         23    2    1    2    0    0  0.31275317987E+03  0.25346477652E+03  0.84765676307E+02  0.42123619044E+03  0.90530457874E+02 0.  0.
         13    1    3    3    0    0  0.10845107118E+03  0.88261061516E+02  0.74177124828E+02  0.15828422432E+03  0.00000000000E+00 0. -1.
        -13    1    3    3    0    0  0.20430210869E+03  0.16520371500E+03  0.10588551479E+02  0.26295196612E+03  0.00000000000E+00 0.  1.
         22    1    1    2    0    0 -0.31275317987E+03 -0.25346477652E+03  0.19564255508E+04  0.19974132974E+04  0.00000000000E+00 0. -1.
<mgrwt>
<rscale>  0 0.12974605E+04</rscale>
<asrwt>0</asrwt>
<pdfrwt beam="1">  1        2 0.34306465E+00 0.12974605E+04</pdfrwt>
<pdfrwt beam="2">  1       -2 0.29035252E-01 0.12974605E+04</pdfrwt>
<totfact> 0.53195315E+01</totfact>
</mgrwt>
</event>
<event>
 6    1  0.1637818E-005  0.1442999E+04  0.7818608E-02  0.8923268E-01
          2   -1    0    0  501    0  0.00000000000E+00  0.00000000000E+00  0.69300598889E+03  0.69300598889E+03  0.00000000000E+00 0. -1.
         -2   -1    0    0    0  501 -0.00000000000E+00 -0.00000000000E+00 -0.75116505447E+03  0.75116505447E+03  0.00000000000E+00 0.  1.
         23    2    1    2    0    0  0.71053589159E+03  0.10369744459E+03 -0.12741224721E+01  0.72385839595E+03  0.91405365009E+02 0.  0.
         13    1    3    3    0    0  0.53732018587E+03  0.77613881542E+02  0.38399873983E+02  0.54425310938E+03  0.00000000000E+00 0. -1.
        -13    1    3    3    0    0  0.17321570572E+03  0.26083563052E+02 -0.39673996455E+02  0.17960528658E+03  0.00000000000E+00 0.  1.
         22    1    1    2    0    0 -0.71053589159E+03 -0.10369744459E+03 -0.56884943113E+02  0.72031264740E+03  0.00000000000E+00 0. -1.
<mgrwt>
<rscale>  0 0.14429995E+04</rscale>
<asrwt>0</asrwt>
<pdfrwt beam="1">  1        2 0.10661631E+00 0.14429995E+04</pdfrwt>
<pdfrwt beam="2">  1       -2 0.11556385E+00 0.14429995E+04</pdfrwt>
<totfact> 0.23458165E+01</totfact>
</mgrwt>
</event>
<event>
 6    1  0.1637818E-005  0.1853111E+04  0.7818608E-02  0.8678554E-01
          1   -1    0    0  501    0  0.00000000000E+00  0.00000000000E+00  0.19643285083E+04  0.19643285083E+04  0.00000000000E+00 0. -1.
         -1   -1    0    0    0  501 -0.00000000000E+00 -0.00000000000E+00 -0.43704776197E+03  0.43704776197E+03  0.00000000000E+00 0.  1.
         23    2    1    2    0    0  0.71536558306E+03 -0.26758944752E+03  0.14401045745E+04  0.16326424316E+04  0.90929060208E+02 0.  0.
         11    1    3    3    0    0  0.33119562432E+03 -0.15279784666E+03  0.60892174441E+03  0.70980519463E+03  0.00000000000E+00 0.  1.
        -11    1    3    3    0    0  0.38416995874E+03 -0.11479160086E+03  0.83118283011E+03  0.92283723694E+03  0.00000000000E+00 0. -1.
         22    1    1    2    0    0 -0.71536558306E+03  0.26758944752E+03  0.87176171825E+02  0.76873383871E+03  0.00000000000E+00 0.  1.
<mgrwt>
<rscale>  0 0.18531113E+04</rscale>
<asrwt>0</asrwt>
<pdfrwt beam="1">  1        1 0.30220438E+00 0.18531113E+04</pdfrwt>
<pdfrwt beam="2">  1       -1 0.67238118E-01 0.18531113E+04</pdfrwt>
<totfact> 0.66312588E+00</totfact>
</mgrwt>
</event>
<event>
 6    1  0.1637818E-005  0.1377260E+04  0.7818608E-02  0.8970446E-01
         -2   -1    0    0    0  501 -0.00000000000E+00  0.00000000000E+00  0.35921119712E+03  0.35921119712E+03  0.00000000000E+00 0.  1.
          2   -1    0    0  501    0  0.00000000000E+00 -0.00000000000E+00 -0.13201453276E+04  0.13201453276E+04  0.00000000000E+00 0. -1.
         23    2    1    2    0    0 -0.16046188626E+03  0.31786469365E+03 -0.11969898195E+04  0.12521466597E+04  0.91107896925E+02 0.  0.
         13    1    3    3    0    0 -0.39445369283E+02  0.24727370088E+02 -0.22368562578E+03  0.22847896877E+03  0.00000000000E+00 0.  1.
        -13    1    3    3    0    0 -0.12101651697E+03  0.29313732356E+03 -0.97330419374E+03  0.10236676909E+04  0.00000000000E+00 0. -1.
         22    1    1    2    0    0  0.16046188626E+03 -0.31786469365E+03  0.23605568909E+03  0.42720986501E+03  0.00000000000E+00 0.  1.
<mgrwt>
<rscale>  0 0.13772596E+04</rscale>
<asrwt>0</asrwt>
<pdfrwt beam="1">  1        2 0.20309928E+00 0.13772596E+04</pdfrwt>
<pdfrwt beam="2">  1       -2 0.55263261E-01 0.13772596E+04</pdfrwt>
<totfact> 0.48279647E+01</totfact>
</mgrwt>
</event>
<event>
 6    1  0.1637818E-005  0.3201626E+04  0.7818608E-02  0.8188388E-01
         -2   -1    0    0    0  501 -0.00000000000E+00  0.00000000000E+00  0.19505175499E+04  0.19505175499E+04  0.00000000000E+00 0.  1.
          2   -1    0    0  501    0  0.00000000000E+00 -0.00000000000E+00 -0.13138061599E+04  0.13138061599E+04  0.00000000000E+00 0. -1.
         23    2    1    2    0    0 -0.15281396541E+03  0.12560843416E+04 -0.67902478650E+03  0.14388753628E+04  0.90485731358E+02 0.  0.
         13    1    3    3    0    0 -0.69424538113E+02  0.48755434144E+03 -0.31333819146E+03  0.58370354168E+03  0.00000000000E+00 0. -1.
        -13    1    3    3    0    0 -0.83389427299E+02  0.76853000018E+03 -0.36568659504E+03  0.85517182107E+03  0.00000000000E+00 0.  1.
         22    1    1    2    0    0  0.15281396541E+03 -0.12560843416E+04  0.13157361765E+04  0.18254483470E+04  0.00000000000E+00 0.  1.
<mgrwt>
<rscale>  0 0.32016258E+04</rscale>
<asrwt>0</asrwt>
<pdfrwt beam="1">  1        2 0.20212402E+00 0.32016258E+04</pdfrwt>
<pdfrwt beam="2">  1       -2 0.30007962E+00 0.32016258E+04</pdfrwt>
<totfact> 0.43372486E-01</totfact>
</mgrwt>
</event>
<event>
 6    1  0.1637818E-005  0.1411990E+04  0.7818608E-02  0.8945185E-01
          1   -1    0    0  501    0  0.00000000000E+00  0.00000000000E+00  0.73379977316E+03  0.73379977316E+03  0.00000000000E+00 0. -1.
         -1   -1    0    0    0  501 -0.00000000000E+00 -0.00000000000E+00 -0.67924410448E+03  0.67924410448E+03  0.00000000000E+00 0.  1.
         23    2    1    2    0    0 -0.45884497882E+03  0.83421728041E+02  0.55384393218E+03  0.72982599923E+03  0.91678725126E+02 0.  0.
         13    1    3    3    0    0 -0.40454669844E+03  0.79805445973E+02  0.43643399991E+03  0.60041783510E+03  0.00000000000E+00 0. -1.
        -13    1    3    3    0    0 -0.54298280377E+02  0.36162820678E+01  0.11740993227E+03  0.12940816413E+03  0.00000000000E+00 0.  1.
         22    1    1    2    0    0  0.45884497882E+03 -0.83421728041E+02 -0.49928826350E+03  0.68321787840E+03  0.00000000000E+00 0.  1.
<mgrwt>
<rscale>  0 0.14119903E+04</rscale>
<asrwt>0</asrwt>
<pdfrwt beam="1">  1        1 0.11289227E+00 0.14119903E+04</pdfrwt>
<pdfrwt beam="2">  1       -1 0.10449909E+00 0.14119903E+04</pdfrwt>
<totfact> 0.21260058E+01</totfact>
</mgrwt>
</event>
<event>
 6    1  0.1637818E-005  0.4541063E+04  0.7818608E-02  0.7903487E-01
          2   -1    0    0  501    0  0.00000000000E+00  0.00000000000E+00  0.28159918029E+04  0.28159918029E+04  0.00000000000E+00 0.  1.
         -2   -1    0    0    0  501 -0.00000000000E+00 -0.00000000000E+00 -0.18307272782E+04  0.18307272782E+04  0.00000000000E+00 0. -1.
         23    2    1    2    0    0  0.56192604544E+03 -0.15227536169E+03  0.27375281196E+04  0.28002694142E+04  0.92195011626E+02 0.  0.
         13    1    3    3    0    0  0.25052184610E+03 -0.31460149890E+02  0.10420873750E+04  0.10722392613E+04  0.00000000000E+00 0. -1.
        -13    1    3    3    0    0  0.31140419934E+03 -0.12081521179E+03  0.16954407446E+04  0.17280301529E+04  0.00000000000E+00 0.  1.
         22    1    1    2    0    0 -0.56192604544E+03  0.15227536169E+03 -0.17522635949E+04  0.18464496669E+04  0.00000000000E+00 0. -1.
<mgrwt>
<rscale>  0 0.45410629E+04</rscale>
<asrwt>0</asrwt>
<pdfrwt beam="1">  1        2 0.43322951E+00 0.45410629E+04</pdfrwt>
<pdfrwt beam="2">  1       -2 0.28165035E+00 0.45410629E+04</pdfrwt>
<totfact> 0.70254143E-02</totfact>
</mgrwt>
</event>
<event>
 6    1  0.1637818E-005  0.3355023E+04  0.7818608E-02  0.8149034E-01
         -1   -1    0    0    0  501 -0.00000000000E+00  0.00000000000E+00  0.12716394772E+04  0.12716394772E+04  0.00000000000E+00 0.  1.
          1   -1    0    0  501    0  0.00000000000E+00 -0.00000000000E+00 -0.22129271328E+04  0.22129271328E+04  0.00000000000E+00 0. -1.
         23    2    1    2    0    0  0.72811141687E+03 -0.14296847139E+04 -0.97522920574E+03  0.18797935278E+04  0.91690167753E+02 0.  0.
         11    1    3    3    0    0  0.33333963606E+03 -0.74685174165E+03 -0.51819897234E+03  0.96821124343E+03  0.00000000000E+00 0. -1.
        -11    1    3    3    0    0  0.39477178081E+03 -0.68283297226E+03 -0.45703023339E+03  0.91158228436E+03  0.00000000000E+00 0.  1.
         22    1    1    2    0    0 -0.72811141687E+03  0.14296847139E+04  0.33941550159E+02  0.16047730822E+04  0.00000000000E+00 0. -1.
<mgrwt>
<rscale>  0 0.33550234E+04</rscale>
<asrwt>0</asrwt>
<pdfrwt beam="1">  1        1 0.34045033E+00 0.33550234E+04</pdfrwt>
<pdfrwt beam="2">  1       -1 0.19563684E+00 0.33550234E+04</pdfrwt>
<totfact> 0.28445356E-01</totfact>
</mgrwt>
</event>
<event>
 6    1  0.1637818E-005  0.2753351E+04  0.7818608E-02  0.8317899E-01
          1   -1    0    0  501    0  0.00000000000E+00  0.00000000000E+00  0.14126571199E+04  0.14126571199E+04  0.00000000000E+00 0. -1.
         -1   -1    0    0    0  501 -0.00000000000E+00 -0.00000000000E+00 -0.13416102937E+04  0.13416102937E+04  0.00000000000E+00 0.  1.
         23    2    1    2    0    0  0.13677097572E+04 -0.11189939228E+03  0.12443807767E+03  0.13809495044E+04  0.91570979987E+02 0.  0.
         13    1    3    3    0    0  0.48168445974E+03 -0.64599680939E+02  0.80673533508E+01  0.48606390497E+03  0.00000000000E+00 0. -1.
        -13    1    3    3    0    0  0.88602529751E+03 -0.47299711340E+02  0.11637072431E+03  0.89488559939E+03  0.00000000000E+00 0.  1.
         22    1    1    2    0    0 -0.13677097572E+04  0.11189939228E+03 -0.53391251425E+02  0.13733179092E+04  0.00000000000E+00 0.  1.
<mgrwt>
<rscale>  0 0.27533509E+04</rscale>
<asrwt>0</asrwt>
<pdfrwt beam="1">  1        1 0.21733186E+00 0.27533509E+04</pdfrwt>
<pdfrwt beam="2">  1       -1 0.20640158E+00 0.27533509E+04</pdfrwt>
<totfact> 0.88993915E-01</totfact>
</mgrwt>
</event>
<event>
 6    1  0.1637818E-005  0.2898526E+04  0.7818608E-02  0.8273316E-01
         -1   -1    0    0    0  501 -0.00000000000E+00  0.00000000000E+00  0.13023635031E+04  0.13023635031E+04  0.00000000000E+00 0.  1.
          1   -1    0    0  501    0  0.00000000000E+00 -0.00000000000E+00 -0.16127314800E+04  0.16127314800E+04  0.00000000000E+00 0. -1.
         23    2    1    2    0    0 -0.73731409333E+03 -0.12379505645E+04 -0.12322013279E+02  0.14437061601E+04  0.89341884570E+02 0.  0.
         13    1    3    3    0    0 -0.60343521553E+03 -0.10738673979E+04 -0.16066248891E+02  0.12319023386E+04  0.00000000000E+00 0. -1.
        -13    1    3    3    0    0 -0.13387887780E+03 -0.16408316659E+03  0.37442356115E+01  0.21180382145E+03  0.00000000000E+00 0.  1.
         22    1    1    2    0    0  0.73731409333E+03  0.12379505645E+04 -0.29804596360E+03  0.14713888231E+04  0.00000000000E+00 0. -1.
<mgrwt>
<rscale>  0 0.28985256E+04</rscale>
<asrwt>0</asrwt>
<pdfrwt beam="1">  1        1 0.24811254E+00 0.28985256E+04</pdfrwt>
<pdfrwt beam="2">  1       -1 0.20036362E+00 0.28985256E+04</pdfrwt>
<totfact> 0.70255954E-01</totfact>
</mgrwt>
</event>
<event>
 6    1  0.1637818E-005  0.1529346E+04  0.7818608E-02  0.8865170E-01
         -2   -1    0    0    0  501 -0.00000000000E+00  0.00000000000E+00  0.68902555029E+03  0.68902555029E+03  0.00000000000E+00 0.  1.
          2   -1    0    0  501    0  0.00000000000E+00 -0.00000000000E+00 -0.84862539420E+03  0.84862539420E+03  0.00000000000E+00 0. -1.
         23    2    1    2    0    0 -0.74551875333E+03 -0.15680224775E+03 -0.90577232234E+02  0.77270043799E+03  0.92068319270E+02 0.  0.
         13    1    3    3    0    0 -0.33154974788E+03 -0.95152979944E+02 -0.22187359136E+01  0.34494093364E+03  0.00000000000E+00 0.  1.
        -13    1    3    3    0    0 -0.41396900545E+03 -0.61649267805E+02 -0.88358496321E+02  0.42775950436E+03  0.00000000000E+00 0. -1.
         22    1    1    2    0    0  0.74551875333E+03  0.15680224775E+03 -0.69022611679E+02  0.76495050649E+03  0.00000000000E+00 0. -1.
<mgrwt>
<rscale>  0 0.15293457E+04</rscale>
<asrwt>0</asrwt>
<pdfrwt beam="1">  1        2 0.13055775E+00 0.15293457E+04</pdfrwt>
<pdfrwt beam="2">  1       -2 0.10600393E+00 0.15293457E+04</pdfrwt>
<totfact> 0.22035492E+01</totfact>
</mgrwt>
</event>
<event>
 6    1  0.1637818E-005  0.1723277E+04  0.7818608E-02  0.8748199E-01
         -2   -1    0    0    0  501 -0.00000000000E+00  0.00000000000E+00  0.43503581483E+03  0.43503581483E+03  0.00000000000E+00 0.  1.
          2   -1    0    0  501    0  0.00000000000E+00 -0.00000000000E+00 -0.17065737134E+04  0.17065737134E+04  0.00000000000E+00 0. -1.
         23    2    1    2    0    0 -0.62272914291E+03 -0.43014048307E+03 -0.11430262557E+04  0.13739327324E+04  0.91486125782E+02 0.  0.
         11    1    3    3    0    0 -0.56387497135E+03 -0.36251036718E+03 -0.97057808851E+03  0.11795722002E+04  0.00000000000E+00 0.  1.
        -11    1    3    3    0    0 -0.58854171558E+02 -0.67630115888E+02 -0.17244816721E+03  0.19436053215E+03  0.00000000000E+00 0. -1.
         22    1    1    2    0    0  0.62272914291E+03  0.43014048307E+03 -0.12851164288E+03  0.76767679590E+03  0.00000000000E+00 0.  1.
<mgrwt>
<rscale>  0 0.17232767E+04</rscale>
<asrwt>0</asrwt>
<pdfrwt beam="1">  1        2 0.26254980E+00 0.17232767E+04</pdfrwt>
<pdfrwt beam="2">  1       -2 0.66928587E-01 0.17232767E+04</pdfrwt>
<totfact> 0.18929178E+01</totfact>
</mgrwt>
</event>
<event>
 6    1  0.1637818E-005  0.2867019E+04  0.7818608E-02  0.8282759E-01
          2   -1    0    0  501    0  0.00000000000E+00  0.00000000000E+00  0.47195135421E+04  0.47195135421E+04  0.00000000000E+00 0. -1.
         -2   -1    0    0    0  501 -0.00000000000E+00 -0.00000000000E+00 -0.43541544330E+03  0.43541544330E+03  0.00000000000E+00 0.  1.
         23    2    1    2    0    0  0.11383104188E+04  0.32521965264E+03  0.35930157452E+04  0.37841214673E+04  0.91075257904E+02 0.  0.
         11    1    3    3    0    0  0.80040033669E+03  0.26109094896E+03  0.26354749622E+04  0.27666834765E+04  0.00000000000E+00 0. -1.
        -11    1    3    3    0    0  0.33791008212E+03  0.64128703680E+02  0.95754078291E+03  0.10174379908E+04  0.00000000000E+00 0.  1.
         22    1    1    2    0    0 -0.11383104188E+04 -0.32521965264E+03  0.69108235362E+03  0.13708075180E+04  0.00000000000E+00 0.  1.
<mgrwt>
<rscale>  0 0.28670187E+04</rscale>
<asrwt>0</asrwt>
<pdfrwt beam="1">  1        2 0.72607897E+00 0.28670187E+04</pdfrwt>
<pdfrwt beam="2">  1       -2 0.66986994E-01 0.28670187E+04</pdfrwt>
<totfact> 0.12955439E-01</totfact>
</mgrwt>
</event>
<event>
 6    1  0.1637818E-005  0.1787168E+04  0.7818608E-02  0.8713153E-01
          1   -1    0    0  501    0  0.00000000000E+00  0.00000000000E+00  0.10019444913E+04  0.10019444913E+04  0.00000000000E+00 0. -1.
         -1   -1    0    0    0  501 -0.00000000000E+00 -0.00000000000E+00 -0.79694240785E+03  0.79694240785E+03  0.00000000000E+00 0.  1.
         23    2    1    2    0    0 -0.29348448069E+03 -0.37324258659E+03  0.86196840326E+03  0.98830197810E+03  0.91148795197E+02 0.  0.
         11    1    3    3    0    0 -0.29198560923E+03 -0.37563723654E+03  0.83378444152E+03  0.95997678326E+03  0.00000000000E+00 0. -1.
        -11    1    3    3    0    0 -0.14988714591E+01  0.23946499510E+01  0.28183961733E+02  0.28325194845E+02  0.00000000000E+00 0.  1.
         22    1    1    2    0    0  0.29348448069E+03  0.37324258659E+03 -0.65696631981E+03  0.81058492104E+03  0.00000000000E+00 0.  1.
<mgrwt>
<rscale>  0 0.17871677E+04</rscale>
<asrwt>0</asrwt>
<pdfrwt beam="1">  1        1 0.15414531E+00 0.17871677E+04</pdfrwt>
<pdfrwt beam="2">  1       -1 0.12260652E+00 0.17871677E+04</pdfrwt>
<totfact> 0.83644484E+00</totfact>
</mgrwt>
</event>
<event>
 6    1  0.1637818E-005  0.1549391E+04  0.7818608E-02  0.8852257E-01
          1   -1    0    0  501    0  0.00000000000E+00  0.00000000000E+00  0.27233265990E+03  0.27233265990E+03  0.00000000000E+00 0. -1.
         -1   -1    0    0    0  501 -0.00000000000E+00 -0.00000000000E+00 -0.22037514138E+04  0.22037514138E+04  0.00000000000E+00 0.  1.
         23    2    1    2    0    0  0.62897905958E+03  0.42080870724E+03 -0.12126838683E+04  0.14324009507E+04  0.92063530687E+02 0.  0.
         13    1    3    3    0    0  0.14231853522E+03  0.51323613180E+02 -0.23604867954E+03  0.28037057237E+03  0.00000000000E+00 0. -1.
        -13    1    3    3    0    0  0.48666052437E+03  0.36948509406E+03 -0.97663518871E+03  0.11520303783E+04  0.00000000000E+00 0.  1.
         22    1    1    2    0    0 -0.62897905958E+03 -0.42080870724E+03 -0.71873488569E+03  0.10436831231E+04  0.00000000000E+00 0. -1.
<mgrwt>
<rscale>  0 0.15493915E+04</rscale>
<asrwt>0</asrwt>
<pdfrwt beam="1">  1        1 0.41897333E-01 0.15493915E+04</pdfrwt>
<pdfrwt beam="2">  1       -1 0.33903867E+00 0.15493915E+04</pdfrwt>
<totfact> 0.17667896E+00</totfact>
</mgrwt>
</event>
<event>
 6    1  0.1637818E-005  0.1351629E+04  0.7818608E-02  0.8989596E-01
          2   -1    0    0  501    0  0.00000000000E+00  0.00000000000E+00  0.70642168360E+03  0.70642168360E+03  0.00000000000E+00 0. -1.
         -2   -1    0    0    0  501 -0.00000000000E+00 -0.00000000000E+00 -0.64653361879E+03  0.64653361879E+03  0.00000000000E+00 0.  1.
         23    2    1    2    0    0  0.40416255747E+03  0.20171397944E+03  0.52926693490E+03  0.70153191776E+03  0.89373602912E+02 0.  0.
         11    1    3    3    0    0  0.25413352500E+02  0.16099866923E+02  0.82647912402E+01  0.31198573276E+02  0.00000000000E+00 0. -1.
        -11    1    3    3    0    0  0.37874920497E+03  0.18561411251E+03  0.52100214366E+03  0.67033334448E+03  0.00000000000E+00 0.  1.
         22    1    1    2    0    0 -0.40416255747E+03 -0.20171397944E+03 -0.46937887009E+03  0.65142338463E+03  0.00000000000E+00 0.  1.
<mgrwt>
<rscale>  0 0.13516292E+04</rscale>
<asrwt>0</asrwt>
<pdfrwt beam="1">  1        2 0.10868026E+00 0.13516292E+04</pdfrwt>
<pdfrwt beam="2">  1       -2 0.99466711E-01 0.13516292E+04</pdfrwt>
<totfact> 0.33097502E+01</totfact>
</mgrwt>
</event>
<event>
 6    1  0.1637818E-005  0.3148162E+04  0.7818608E-02  0.8202643E-01
         -2   -1    0    0    0  501 -0.00000000000E+00  0.00000000000E+00  0.91999746463E+03  0.91999746463E+03  0.00000000000E+00 0.  1.
          2   -1    0    0  501    0  0.00000000000E+00 -0.00000000000E+00 -0.26931925599E+04  0.26931925599E+04  0.00000000000E+00 0. -1.
         23    2    1    2    0    0 -0.67766909745E+03  0.59227052503E+02  0.74060338740E+03  0.10089768879E+04  0.82448368925E+02 0.  0.
         13    1    3    3    0    0 -0.33145170748E+03 -0.10296539018E+02  0.33961390723E+03  0.47466183656E+03  0.00000000000E+00 0. -1.
        -13    1    3    3    0    0 -0.34621738997E+03  0.69523591521E+02  0.40098948018E+03  0.53431505136E+03  0.00000000000E+00 0.  1.
         22    1    1    2    0    0  0.67766909745E+03 -0.59227052503E+02 -0.25137984827E+04  0.26042131366E+04  0.00000000000E+00 0. -1.
<mgrwt>
<rscale>  0 0.31481616E+04</rscale>
<asrwt>0</asrwt>
<pdfrwt beam="1">  1        2 0.41433731E+00 0.31481616E+04</pdfrwt>
<pdfrwt beam="2">  1       -2 0.14153807E+00 0.31481616E+04</pdfrwt>
<totfact> 0.79098069E-01</totfact>
</mgrwt>
</event>
<event>
 6    1  0.1637818E-005  0.2179585E+04  0.7818608E-02  0.8526973E-01
         -1   -1    0    0    0  501 -0.00000000000E+00  0.00000000000E+00  0.64278722991E+03  0.64278722991E+03  0.00000000000E+00 0.  1.
          1   -1    0    0  501    0  0.00000000000E+00 -0.00000000000E+00 -0.18476536214E+04  0.18476536214E+04  0.00000000000E+00 0. -1.
         23    2    1    2    0    0  0.77194684770E+03 -0.32303841868E+03  0.18872441691E+03  0.86490983134E+03  0.11043710969E+03 0.  0.
         13    1    3    3    0    0  0.35856124463E+03 -0.13059594682E+03  0.32832946830E+02  0.38301366800E+03  0.00000000000E+00 0. -1.
        -13    1    3    3    0    0  0.41338560308E+03 -0.19244247186E+03  0.15589147008E+03  0.48189616335E+03  0.00000000000E+00 0.  1.
         22    1    1    2    0    0 -0.77194684770E+03  0.32303841868E+03 -0.13935908084E+04  0.16255310199E+04  0.00000000000E+00 0. -1.
<mgrwt>
<rscale>  0 0.21795854E+04</rscale>
<asrwt>0</asrwt>
<pdfrwt beam="1">  1        1 0.28425440E+00 0.21795854E+04</pdfrwt>
<pdfrwt beam="2">  1       -1 0.98890344E-01 0.21795854E+04</pdfrwt>
<totfact> 0.33762121E+00</totfact>
</mgrwt>
</event>
<event>
 6    1  0.1637818E-005  0.1773020E+04  0.7818608E-02  0.8720780E-01
         -1   -1    0    0    0  501 -0.00000000000E+00  0.00000000000E+00  0.93511410254E+03  0.93511410254E+03  0.00000000000E+00 0. -1.
          1   -1    0    0  501    0  0.00000000000E+00 -0.00000000000E+00 -0.84043198405E+03  0.84043198405E+03  0.00000000000E+00 0.  1.
         23    2    1    2    0    0  0.44958565250E+03  0.69502567689E+03 -0.26399790247E+03  0.87341565927E+03  0.89286454110E+02 0.  0.
         11    1    3    3    0    0  0.24192579645E+03  0.44727316404E+03 -0.17979717451E+03  0.53935924783E+03  0.00000000000E+00 0.  1.
        -11    1    3    3    0    0  0.20765985605E+03  0.24775251284E+03 -0.84200727958E+02  0.33405641144E+03  0.00000000000E+00 0. -1.
         22    1    1    2    0    0 -0.44958565250E+03 -0.69502567689E+03  0.35868002095E+03  0.90213042732E+03  0.00000000000E+00 0. -1.
<mgrwt>
<rscale>  0 0.17730198E+04</rscale>
<asrwt>0</asrwt>
<pdfrwt beam="1">  1        1 0.12929723E+00 0.17730198E+04</pdfrwt>
<pdfrwt beam="2">  1       -1 0.14386371E+00 0.17730198E+04</pdfrwt>
<totfact> 0.75302254E+00</totfact>
</mgrwt>
</event>
<event>
 6    1  0.1637818E-005  0.3220461E+04  0.7818608E-02  0.8183434E-01
         -1   -1    0    0    0  501 -0.00000000000E+00  0.00000000000E+00  0.11469880035E+04  0.11469880035E+04  0.00000000000E+00 0.  1.
          1   -1    0    0  501    0  0.00000000000E+00 -0.00000000000E+00 -0.22605665338E+04  0.22605665338E+04  0.00000000000E+00 0. -1.
         23    2    1    2    0    0  0.12493431662E+04 -0.95863292376E+03 -0.20780523697E+03  0.15908925742E+04  0.88998521747E+02 0.  0.
         11    1    3    3    0    0  0.64033775411E+03 -0.44311455134E+03 -0.12555540163E+03  0.78876302134E+03  0.00000000000E+00 0. -1.
        -11    1    3    3    0    0  0.60900541205E+03 -0.51551837242E+03 -0.82249835335E+02  0.80212955289E+03  0.00000000000E+00 0.  1.
         22    1    1    2    0    0 -0.12493431662E+04  0.95863292376E+03 -0.90577329332E+03  0.18166619631E+04  0.00000000000E+00 0. -1.
<mgrwt>
<rscale>  0 0.32204613E+04</rscale>
<asrwt>0</asrwt>
<pdfrwt beam="1">  1        1 0.34777946E+00 0.32204613E+04</pdfrwt>
<pdfrwt beam="2">  1       -1 0.17645969E+00 0.32204613E+04</pdfrwt>
<totfact> 0.36508218E-01</totfact>
</mgrwt>
</event>
<event>
 6    1  0.1637818E-005  0.7924527E+03  0.7818608E-02  0.9571006E-01
         -1   -1    0    0    0  501 -0.00000000000E+00  0.00000000000E+00  0.23029519588E+03  0.23029519588E+03  0.00000000000E+00 0.  1.
          1   -1    0    0  501    0  0.00000000000E+00 -0.00000000000E+00 -0.68171338650E+03  0.68171338650E+03  0.00000000000E+00 0. -1.
         23    2    1    2    0    0 -0.83701313171E+02  0.37751310647E+03 -0.29409075357E+03  0.49454723346E+03  0.92550199394E+02 0.  0.
         11    1    3    3    0    0 -0.15819382185E+02  0.26679733354E+03 -0.20904782182E+03  0.33931115786E+03  0.00000000000E+00 0.  1.
        -11    1    3    3    0    0 -0.67881930986E+02  0.11071577293E+03 -0.85042931750E+02  0.15523607561E+03  0.00000000000E+00 0. -1.
         22    1    1    2    0    0  0.83701313171E+02 -0.37751310647E+03 -0.15732743706E+03  0.41746134892E+03  0.00000000000E+00 0. -1.
<mgrwt>
<rscale>  0 0.79245269E+03</rscale>
<asrwt>0</asrwt>
<pdfrwt beam="1">  1        1 0.10487898E+00 0.79245269E+03</pdfrwt>
<pdfrwt beam="2">  1       -1 0.35430031E-01 0.79245269E+03</pdfrwt>
<totfact> 0.21752080E+02</totfact>
</mgrwt>
</event>
<event>
 6    1  0.1637818E-005  0.3020551E+04  0.7818608E-02  0.8237887E-01
          2   -1    0    0  501    0  0.00000000000E+00  0.00000000000E+00  0.40827364960E+04  0.40827364960E+04  0.00000000000E+00 0. -1.
         -2   -1    0    0    0  501 -0.00000000000E+00 -0.00000000000E+00 -0.55867720463E+03  0.55867720463E+03  0.00000000000E+00 0.  1.
         23    2    1    2    0    0 -0.90645988078E+03 -0.83347986696E+03  0.42323147727E+03  0.13050247340E+04  0.87215072402E+02 0.  0.
         11    1    3    3    0    0 -0.37462076073E+03 -0.34843451287E+03  0.22134932428E+03  0.55744313387E+03  0.00000000000E+00 0. -1.
        -11    1    3    3    0    0 -0.53183912005E+03 -0.48504535409E+03  0.20188215299E+03  0.74758160011E+03  0.00000000000E+00 0.  1.
         22    1    1    2    0    0  0.90645988078E+03  0.83347986696E+03  0.31008278140E+04  0.33363889666E+04  0.00000000000E+00 0. -1.
<mgrwt>
<rscale>  0 0.30205508E+04</rscale>
<asrwt>0</asrwt>
<pdfrwt beam="1">  1        2 0.62811329E+00 0.30205508E+04</pdfrwt>
<pdfrwt beam="2">  1       -2 0.85950342E-01 0.30205508E+04</pdfrwt>
<totfact> 0.29348259E-01</totfact>
</mgrwt>
</event>
<event>
 6    1  0.1637818E-005  0.1749826E+04  0.7818608E-02  0.8733446E-01
          2   -1    0    0  501    0  0.00000000000E+00  0.00000000000E+00  0.17410041575E+04  0.17410041575E+04  0.00000000000E+00 0. -1.
         -2   -1    0    0    0  501 -0.00000000000E+00 -0.00000000000E+00 -0.43967306075E+03  0.43967306075E+03  0.00000000000E+00 0.  1.
         23    2    1    2    0    0  0.10637916453E+03  0.14606994454E+03  0.17162152912E+04  0.17281489317E+04  0.91928499039E+02 0.  0.
         13    1    3    3    0    0 -0.67931074099E+01  0.10454642250E+02  0.39284460201E+03  0.39304239870E+03  0.00000000000E+00 0. -1.
        -13    1    3    3    0    0  0.11317227194E+03  0.13561530229E+03  0.13233706892E+04  0.13351065330E+04  0.00000000000E+00 0.  1.
         22    1    1    2    0    0 -0.10637916453E+03 -0.14606994454E+03 -0.41488419445E+03  0.45252828658E+03  0.00000000000E+00 0.  1.
<mgrwt>
<rscale>  0 0.17498259E+04</rscale>
<asrwt>0</asrwt>
<pdfrwt beam="1">  1        2 0.26784679E+00 0.17498259E+04</pdfrwt>
<pdfrwt beam="2">  1       -2 0.67642010E-01 0.17498259E+04</pdfrwt>
<totfact> 0.17664018E+01</totfact>
</mgrwt>
</event>
<event>
 6    1  0.1637818E-005  0.2855840E+04  0.7818608E-02  0.8286139E-01
          2   -1    0    0  501    0  0.00000000000E+00  0.00000000000E+00  0.24361550697E+04  0.24361550697E+04  0.00000000000E+00 0.  1.
         -2   -1    0    0    0  501 -0.00000000000E+00 -0.00000000000E+00 -0.83695620213E+03  0.83695620213E+03  0.00000000000E+00 0. -1.
         23    2    1    2    0    0  0.11156056643E+04 -0.46892417485E+03 -0.64996675637E+02  0.12154396056E+04  0.92752288637E+02 0.  0.
         11    1    3    3    0    0  0.58076485893E+03 -0.22735716688E+03 -0.77249427906E+02  0.62844775186E+03  0.00000000000E+00 0. -1.
        -11    1    3    3    0    0  0.53484080537E+03 -0.24156700797E+03  0.12252752268E+02  0.58699185374E+03  0.00000000000E+00 0.  1.
         22    1    1    2    0    0 -0.11156056643E+04  0.46892417485E+03  0.16641955432E+04  0.20576716662E+04  0.00000000000E+00 0.  1.
<mgrwt>
<rscale>  0 0.28558397E+04</rscale>
<asrwt>0</asrwt>
<pdfrwt beam="1">  1        2 0.37479309E+00 0.28558397E+04</pdfrwt>
<pdfrwt beam="2">  1       -2 0.12876249E+00 0.28558397E+04</pdfrwt>
<totfact> 0.14603451E+00</totfact>
</mgrwt>
</event>
<event>
 6    1  0.1637818E-005  0.1677009E+04  0.7818608E-02  0.8774587E-01
         -1   -1    0    0    0  501 -0.00000000000E+00  0.00000000000E+00  0.36371943238E+03  0.36371943238E+03  0.00000000000E+00 0.  1.
          1   -1    0    0  501    0  0.00000000000E+00 -0.00000000000E+00 -0.19330555641E+04  0.19330555641E+04  0.00000000000E+00 0. -1.
         23    2    1    2    0    0  0.35795267778E+03 -0.36302189211E+03 -0.16944284739E+04  0.17718339448E+04  0.91611467562E+02 0.  0.
         13    1    3    3    0    0  0.52396169146E+02 -0.10114970806E+03 -0.31816936182E+03  0.33794728107E+03  0.00000000000E+00 0. -1.
        -13    1    3    3    0    0  0.30555650863E+03 -0.26187218405E+03 -0.13762591121E+04  0.14338866637E+04  0.00000000000E+00 0.  1.
         22    1    1    2    0    0 -0.35795267778E+03  0.36302189211E+03  0.12509234219E+03  0.52494105169E+03  0.00000000000E+00 0.  1.
<mgrwt>
<rscale>  0 0.16770091E+04</rscale>
<asrwt>0</asrwt>
<pdfrwt beam="1">  1        1 0.29739316E+00 0.16770091E+04</pdfrwt>
<pdfrwt beam="2">  1       -1 0.55956837E-01 0.16770091E+04</pdfrwt>
<totfact> 0.10193866E+01</totfact>
</mgrwt>
</event>
<event>
 6    1  0.1637818E-005  0.1223928E+04  0.7818608E-02  0.9092166E-01
         -2   -1    0    0    0  501 -0.00000000000E+00  0.00000000000E+00  0.39759427498E+03  0.39759427498E+03  0.00000000000E+00 0. -1.
          2   -1    0    0  501    0  0.00000000000E+00 -0.00000000000E+00 -0.94191537774E+03  0.94191537774E+03  0.00000000000E+00 0.  1.
         23    2    1    2    0    0  0.37841814318E+03  0.47564283253E+03 -0.24311122541E+03  0.66115592093E+03  0.92669782762E+02 0.  0.
         13    1    3    3    0    0  0.15901577458E+03  0.24348802869E+03 -0.15624535459E+03  0.33012883471E+03  0.00000000000E+00 0.  1.
        -13    1    3    3    0    0  0.21940236860E+03  0.23215480384E+03 -0.86865870814E+02  0.33102708621E+03  0.00000000000E+00 0. -1.
         22    1    1    2    0    0 -0.37841814318E+03 -0.47564283253E+03 -0.30120987736E+03  0.67835373180E+03  0.00000000000E+00 0. -1.
<mgrwt>
<rscale>  0 0.12239284E+04</rscale>
<asrwt>0</asrwt>
<pdfrwt beam="1">  1        2 0.14491006E+00 0.12239284E+04</pdfrwt>
<pdfrwt beam="2">  1       -2 0.61168351E-01 0.12239284E+04</pdfrwt>
<totfact> 0.67335647E+01</totfact>
</mgrwt>
</event>
<event>
 6    1  0.1637818E-005  0.3051999E+04  0.7818608E-02  0.8229036E-01
          1   -1    0    0  501    0  0.00000000000E+00  0.00000000000E+00  0.11004985965E+04  0.11004985965E+04  0.00000000000E+00 0. -1.
         -1   -1    0    0    0  501 -0.00000000000E+00 -0.00000000000E+00 -0.21160177043E+04  0.21160177043E+04  0.00000000000E+00 0.  1.
         23    2    1    2    0    0 -0.19865628965E+03  0.12207531929E+04 -0.14477969456E+04  0.19063381417E+04  0.91139648735E+02 0.  0.
         13    1    3    3    0    0 -0.58841063345E+02  0.57639477178E+03 -0.63174283697E+03  0.85720021916E+03  0.00000000000E+00 0. -1.
        -13    1    3    3    0    0 -0.13981522631E+03  0.64435842110E+03 -0.81605410864E+03  0.10491379226E+04  0.00000000000E+00 0.  1.
         22    1    1    2    0    0  0.19865628965E+03 -0.12207531929E+04  0.43227783786E+03  0.13101781590E+04  0.00000000000E+00 0. -1.
<mgrwt>
<rscale>  0 0.30519990E+04</rscale>
<asrwt>0</asrwt>
<pdfrwt beam="1">  1        1 0.16930748E+00 0.30519990E+04</pdfrwt>
<pdfrwt beam="2">  1       -1 0.32554118E+00 0.30519990E+04</pdfrwt>
<totfact> 0.24162283E-01</totfact>
</mgrwt>
</event>
<event>
 6    1  0.1637818E-005  0.3556551E+04  0.7818608E-02  0.8100517E-01
         -1   -1    0    0    0  501 -0.00000000000E+00  0.00000000000E+00  0.21313850581E+04  0.21313850581E+04  0.00000000000E+00 0.  1.
          1   -1    0    0  501    0  0.00000000000E+00 -0.00000000000E+00 -0.14836662930E+04  0.14836662930E+04  0.00000000000E+00 0. -1.
         23    2    1    2    0    0 -0.95821732638E+03  0.13115617516E+04  0.10568432366E+04  0.19400117976E+04  0.91397347666E+02 0.  0.
         11    1    3    3    0    0 -0.28683549197E+03  0.35399484313E+03  0.25606903098E+03  0.52264547931E+03  0.00000000000E+00 0. -1.
        -11    1    3    3    0    0 -0.67138183441E+03  0.95756690849E+03  0.80077420563E+03  0.14173663183E+04  0.00000000000E+00 0.  1.
         22    1    1    2    0    0  0.95821732638E+03 -0.13115617516E+04 -0.40912447151E+03  0.16750395536E+04  0.00000000000E+00 0. -1.
<mgrwt>
<rscale>  0 0.35565512E+04</rscale>
<asrwt>0</asrwt>
<pdfrwt beam="1">  1        1 0.22825635E+00 0.35565512E+04</pdfrwt>
<pdfrwt beam="2">  1       -1 0.32790539E+00 0.35565512E+04</pdfrwt>
<totfact> 0.11843312E-01</totfact>
</mgrwt>
</event>
<event>
 6    1  0.1637818E-005  0.1245059E+04  0.7818608E-02  0.9074306E-01
         -2   -1    0    0    0  501 -0.00000000000E+00  0.00000000000E+00  0.17814291059E+03  0.17814291059E+03  0.00000000000E+00 0. -1.
          2   -1    0    0  501    0  0.00000000000E+00 -0.00000000000E+00 -0.21754599094E+04  0.21754599094E+04  0.00000000000E+00 0.  1.
         23    2    1    2    0    0 -0.28587633426E+02  0.13175544690E+03 -0.21464040081E+04  0.21525961363E+04  0.91886938691E+02 0.  0.
         11    1    3    3    0    0 -0.53606756267E+02  0.72714114864E+02 -0.15785991887E+04  0.15811819710E+04  0.00000000000E+00 0. -1.
        -11    1    3    3    0    0  0.25019122841E+02  0.59041332039E+02 -0.56780481938E+03  0.57141416530E+03  0.00000000000E+00 0.  1.
         22    1    1    2    0    0  0.28587633426E+02 -0.13175544690E+03  0.14908700925E+03  0.20100668372E+03  0.00000000000E+00 0. -1.
<mgrwt>
<rscale>  0 0.12450586E+04</rscale>
<asrwt>0</asrwt>
<pdfrwt beam="1">  1        2 0.33468613E+00 0.12450586E+04</pdfrwt>
<pdfrwt beam="2">  1       -2 0.27406602E-01 0.12450586E+04</pdfrwt>
<totfact> 0.63746772E+01</totfact>
</mgrwt>
</event>
<event>
 6    1  0.1637818E-005  0.2311895E+04  0.7818608E-02  0.8473246E-01
          1   -1    0    0  501    0  0.00000000000E+00  0.00000000000E+00  0.16743328313E+04  0.16743328313E+04  0.00000000000E+00 0. -1.
         -1   -1    0    0    0  501 -0.00000000000E+00 -0.00000000000E+00 -0.79805762759E+03  0.79805762759E+03  0.00000000000E+00 0.  1.
         23    2    1    2    0    0 -0.20287905067E+03 -0.85704219275E+03 -0.35884173232E+03  0.95542141667E+03  0.91550342549E+02 0.  0.
         11    1    3    3    0    0 -0.20810817946E+03 -0.77577883382E+03 -0.31352295509E+03  0.86222877285E+03  0.00000000000E+00 0. -1.
        -11    1    3    3    0    0  0.52291287888E+01 -0.81263358932E+02 -0.45318777230E+02  0.93192643822E+02  0.00000000000E+00 0.  1.
         22    1    1    2    0    0  0.20287905067E+03  0.85704219275E+03  0.12351169360E+04  0.15169690422E+04  0.00000000000E+00 0. -1.
<mgrwt>
<rscale>  0 0.23118945E+04</rscale>
<asrwt>0</asrwt>
<pdfrwt beam="1">  1        1 0.25758967E+00 0.23118945E+04</pdfrwt>
<pdfrwt beam="2">  1       -1 0.12277810E+00 0.23118945E+04</pdfrwt>
<totfact> 0.26217057E+00</totfact>
</mgrwt>
</event>
<event>
 6    1  0.1637818E-005  0.2243233E+04  0.7818608E-02  0.8500646E-01
          2   -1    0    0  501    0  0.00000000000E+00  0.00000000000E+00  0.30926553144E+04  0.30926553144E+04  0.00000000000E+00 0. -1.
         -2   -1    0    0    0  501 -0.00000000000E+00 -0.00000000000E+00 -0.40677766295E+03  0.40677766295E+03  0.00000000000E+00 0.  1.
         23    2    1    2    0    0 -0.52583883158E+03 -0.48393807421E+03  0.79294974856E+00  0.72087536740E+03  0.94647398766E+02 0.  0.
         13    1    3    3    0    0 -0.18446112498E+03 -0.11708432272E+03 -0.19456763195E+02  0.21934723816E+03  0.00000000000E+00 0. -1.
        -13    1    3    3    0    0 -0.34137770660E+03 -0.36685375149E+03  0.20249712943E+02  0.50152812924E+03  0.00000000000E+00 0.  1.
         22    1    1    2    0    0  0.52583883158E+03  0.48393807421E+03  0.26850847017E+04  0.27785576100E+04  0.00000000000E+00 0. -1.
<mgrwt>
<rscale>  0 0.22432326E+04</rscale>
<asrwt>0</asrwt>
<pdfrwt beam="1">  1        2 0.47579311E+00 0.22432326E+04</pdfrwt>
<pdfrwt beam="2">  1       -2 0.62581181E-01 0.22432326E+04</pdfrwt>
<totfact> 0.32854297E+00</totfact>
</mgrwt>
</event>
<event>
 6    1  0.1637818E-005  0.1249303E+04  0.7818608E-02  0.9070764E-01
          1   -1    0    0  501    0  0.00000000000E+00  0.00000000000E+00  0.82227047528E+03  0.82227047528E+03  0.00000000000E+00 0. -1.
         -1   -1    0    0    0  501 -0.00000000000E+00 -0.00000000000E+00 -0.47452676142E+03  0.47452676142E+03  0.00000000000E+00 0.  1.
         23    2    1    2    0    0 -0.15653639262E+03  0.17698262179E+03 -0.42148703135E+03  0.49209702544E+03  0.93175502267E+02 0.  0.
         11    1    3    3    0    0 -0.10676252899E+03  0.11837555558E+03 -0.35975857954E+03  0.39349364075E+03  0.00000000000E+00 0.  1.
        -11    1    3    3    0    0 -0.49773863631E+02  0.58607066210E+02 -0.61728451808E+02  0.98603384694E+02  0.00000000000E+00 0. -1.
         22    1    1    2    0    0  0.15653639262E+03 -0.17698262179E+03  0.76923074521E+03  0.80470021126E+03  0.00000000000E+00 0. -1.
<mgrwt>
<rscale>  0 0.12493028E+04</rscale>
<asrwt>0</asrwt>
<pdfrwt beam="1">  1        1 0.12650315E+00 0.12493028E+04</pdfrwt>
<pdfrwt beam="2">  1       -1 0.73004117E-01 0.12493028E+04</pdfrwt>
<totfact> 0.39462547E+01</totfact>
</mgrwt>
</event>
<event>
 6    1  0.1637818E-005  0.4325404E+04  0.7818608E-02  0.7941937E-01
         -2   -1    0    0    0  501 -0.00000000000E+00  0.00000000000E+00  0.13041388143E+04  0.13041388143E+04  0.00000000000E+00 0.  1.
          2   -1    0    0  501    0  0.00000000000E+00 -0.00000000000E+00 -0.35864894617E+04  0.35864894617E+04  0.00000000000E+00 0. -1.
         23    2    1    2    0    0 -0.97503390912E+03 -0.44816946469E+03  0.97996872071E+03  0.14563489262E+04  0.95218213372E+02 0.  0.
         11    1    3    3    0    0 -0.71179264183E+03 -0.34584035034E+03  0.77257111818E+03  0.11059477590E+04  0.00000000000E+00 0.  1.
        -11    1    3    3    0    0 -0.26324126729E+03 -0.10232911435E+03  0.20739760253E+03  0.35040116721E+03  0.00000000000E+00 0. -1.
         22    1    1    2    0    0  0.97503390912E+03  0.44816946469E+03 -0.32623193681E+04  0.34342793498E+04  0.00000000000E+00 0. -1.
<mgrwt>
<rscale>  0 0.43254041E+04</rscale>
<asrwt>0</asrwt>
<pdfrwt beam="1">  1        2 0.55176761E+00 0.43254041E+04</pdfrwt>
<pdfrwt beam="2">  1       -2 0.20063674E+00 0.43254041E+04</pdfrwt>
<totfact> 0.71307847E-02</totfact>
</mgrwt>
</event>
<event>
 6    1  0.1637818E-005  0.1783844E+04  0.7818608E-02  0.8714939E-01
          2   -1    0    0  501    0  0.00000000000E+00  0.00000000000E+00  0.16526129439E+04  0.16526129439E+04  0.00000000000E+00 0. -1.
         -2   -1    0    0    0  501 -0.00000000000E+00 -0.00000000000E+00 -0.48137385822E+03  0.48137385822E+03  0.00000000000E+00 0.  1.
         23    2    1    2    0    0  0.13651138808E+03 -0.43818314703E+01  0.16388670998E+04  0.16468209995E+04  0.86483952478E+02 0.  0.
         11    1    3    3    0    0  0.85995165655E+01  0.17893324600E+02  0.53111731749E+03  0.53148821970E+03  0.00000000000E+00 0. -1.
        -11    1    3    3    0    0  0.12791187151E+03 -0.22275156070E+02  0.11077497823E+04  0.11153327798E+04  0.00000000000E+00 0.  1.
         22    1    1    2    0    0 -0.13651138808E+03  0.43818314703E+01 -0.46762801419E+03  0.48716580255E+03  0.00000000000E+00 0.  1.
<mgrwt>
<rscale>  0 0.17838438E+04</rscale>
<asrwt>0</asrwt>
<pdfrwt beam="1">  1        2 0.25424814E+00 0.17838438E+04</pdfrwt>
<pdfrwt beam="2">  1       -2 0.74057517E-01 0.17838438E+04</pdfrwt>
<totfact> 0.16176801E+01</totfact>
</mgrwt>
</event>
<event>
 6    1  0.1637818E-005  0.4435639E+04  0.7818608E-02  0.7922002E-01
          1   -1    0    0  501    0  0.00000000000E+00  0.00000000000E+00  0.23806541522E+04  0.23806541522E+04  0.00000000000E+00 0. -1.
         -1   -1    0    0    0  501 -0.00000000000E+00 -0.00000000000E+00 -0.20661225409E+04  0.20661225409E+04  0.00000000000E+00 0.  1.
         23    2    1    2    0    0  0.71894180142E+03  0.12210496029E+04  0.18665985457E+04  0.23451698755E+04  0.88273253492E+02 0.  0.
         11    1    3    3    0    0  0.91031000460E+02  0.10652774554E+03  0.16859738466E+03  0.21922564113E+03  0.00000000000E+00 0. -1.
        -11    1    3    3    0    0  0.62791080096E+03  0.11145218574E+04  0.16980011611E+04  0.21259442343E+04  0.00000000000E+00 0.  1.
         22    1    1    2    0    0 -0.71894180142E+03 -0.12210496029E+04 -0.15520669344E+04  0.21016068176E+04  0.00000000000E+00 0.  1.
<mgrwt>
<rscale>  0 0.44356389E+04</rscale>
<asrwt>0</asrwt>
<pdfrwt beam="1">  1        1 0.36625448E+00 0.44356389E+04</pdfrwt>
<pdfrwt beam="2">  1       -1 0.31786501E+00 0.44356389E+04</pdfrwt>
<totfact> 0.31275384E-02</totfact>
</mgrwt>
</event>
<event>
 6    1  0.1637818E-005  0.1486514E+04  0.7818608E-02  0.8893471E-01
         -1   -1    0    0    0  501 -0.00000000000E+00  0.00000000000E+00  0.25326514300E+03  0.25326514300E+03  0.00000000000E+00 0.  1.
          1   -1    0    0  501    0  0.00000000000E+00 -0.00000000000E+00 -0.21812343700E+04  0.21812343700E+04  0.00000000000E+00 0. -1.
         23    2    1    2    0    0 -0.93922421913E+02  0.61398189932E+03 -0.16278711985E+04  0.17446777819E+04  0.90225992636E+02 0.  0.
         13    1    3    3    0    0  0.53110592044E+01  0.25880238163E+03 -0.66802374035E+03  0.71642347655E+03  0.00000000000E+00 0.  1.
        -13    1    3    3    0    0 -0.99233481117E+02  0.35517951769E+03 -0.95984745811E+03  0.10282543053E+04  0.00000000000E+00 0. -1.
         22    1    1    2    0    0  0.93922421913E+02 -0.61398189932E+03 -0.30009802858E+03  0.68982173116E+03  0.00000000000E+00 0.  1.
<mgrwt>
<rscale>  0 0.14865136E+04</rscale>
<asrwt>0</asrwt>
<pdfrwt beam="1">  1        1 0.33557451E+00 0.14865136E+04</pdfrwt>
<pdfrwt beam="2">  1       -1 0.38963869E-01 0.14865136E+04</pdfrwt>
<totfact> 0.13902603E+01</totfact>
</mgrwt>
</event>
<event>
 6    1  0.1637818E-005  0.1664629E+04  0.7818608E-02  0.8781799E-01
          2   -1    0    0  501    0  0.00000000000E+00  0.00000000000E+00  0.56748401060E+03  0.56748401060E+03  0.00000000000E+00 0. -1.
         -2   -1    0    0    0  501 -0.00000000000E+00 -0.00000000000E+00 -0.12207352451E+04  0.12207352451E+04  0.00000000000E+00 0.  1.
         23    2    1    2    0    0  0.81736657372E+03 -0.12869269989E+03 -0.24983471955E+03  0.86767875611E+03  0.76151886779E+02 0.  0.
         11    1    3    3    0    0  0.72031545395E+03 -0.88045621136E+02 -0.21547270864E+03  0.75699066888E+03  0.00000000000E+00 0. -1.
        -11    1    3    3    0    0  0.97051119776E+02 -0.40647078752E+02 -0.34362010907E+02  0.11068808723E+03  0.00000000000E+00 0.  1.
         22    1    1    2    0    0 -0.81736657372E+03  0.12869269989E+03 -0.40341651494E+03  0.92054049958E+03  0.00000000000E+00 0. -1.
<mgrwt>
<rscale>  0 0.16646294E+04</rscale>
<asrwt>0</asrwt>
<pdfrwt beam="1">  1        2 0.87305232E-01 0.16646294E+04</pdfrwt>
<pdfrwt beam="2">  1       -2 0.18780542E+00 0.16646294E+04</pdfrwt>
<totfact> 0.81078210E+00</totfact>
</mgrwt>
</event>
<event>
 6    1  0.1637818E-005  0.2193006E+04  0.7818608E-02  0.8521345E-01
         -2   -1    0    0    0  501 -0.00000000000E+00  0.00000000000E+00  0.12109241533E+04  0.12109241533E+04  0.00000000000E+00 0.  1.
          2   -1    0    0  501    0  0.00000000000E+00 -0.00000000000E+00 -0.99289386534E+03  0.99289386534E+03  0.00000000000E+00 0. -1.
         23    2    1    2    0    0  0.96566214983E+02  0.10876163575E+04  0.29744667645E+02  0.10958081587E+04  0.87615068933E+02 0.  0.
         13    1    3    3    0    0 -0.76914136774E+01  0.35305735576E+03  0.22401816449E+02  0.35385095122E+03  0.00000000000E+00 0.  1.
        -13    1    3    3    0    0  0.10425762866E+03  0.73455900176E+03  0.73428511961E+01  0.74195720744E+03  0.00000000000E+00 0. -1.
         22    1    1    2    0    0 -0.96566214983E+02 -0.10876163575E+04  0.18828562033E+03  0.11080098600E+04  0.00000000000E+00 0. -1.
<mgrwt>
<rscale>  0 0.21930063E+04</rscale>
<asrwt>0</asrwt>
<pdfrwt beam="1">  1        2 0.15275290E+00 0.21930063E+04</pdfrwt>
<pdfrwt beam="2">  1       -2 0.18629602E+00 0.21930063E+04</pdfrwt>
<totfact> 0.38215305E+00</totfact>
</mgrwt>
</event>
<event>
 6    1  0.1637818E-005  0.2394392E+04  0.7818608E-02  0.8441606E-01
         -1   -1    0    0    0  501 -0.00000000000E+00  0.00000000000E+00  0.50991469747E+03  0.50991469747E+03  0.00000000000E+00 0.  1.
          1   -1    0    0  501    0  0.00000000000E+00 -0.00000000000E+00 -0.28108200595E+04  0.28108200595E+04  0.00000000000E+00 0. -1.
         23    2    1    2    0    0  0.52810920694E+03 -0.59044456893E+02  0.33295480671E+03  0.63380249679E+03  0.91984342565E+02 0.  0.
         13    1    3    3    0    0  0.50694160743E+03 -0.36345694652E+02  0.31511675504E+03  0.59800449176E+03  0.00000000000E+00 0.  1.
        -13    1    3    3    0    0  0.21167599517E+02 -0.22698762241E+02  0.17838051668E+02  0.35798005027E+02  0.00000000000E+00 0. -1.
         22    1    1    2    0    0 -0.52810920694E+03  0.59044456893E+02 -0.26338601687E+04  0.26869322601E+04  0.00000000000E+00 0. -1.
<mgrwt>
<rscale>  0 0.23943922E+04</rscale>
<asrwt>0</asrwt>
<pdfrwt beam="1">  1        1 0.43243385E+00 0.23943922E+04</pdfrwt>
<pdfrwt beam="2">  1       -1 0.78448417E-01 0.23943922E+04</pdfrwt>
<totfact> 0.11936990E+00</totfact>
</mgrwt>
</event>
<event>
 6    1  0.1637818E-005  0.2037632E+04  0.7818608E-02  0.8589226E-01
          1   -1    0    0  501    0  0.00000000000E+00  0.00000000000E+00  0.55186152718E+03  0.55186152718E+03  0.00000000000E+00 0. -1.
         -1   -1    0    0    0  501 -0.00000000000E+00 -0.00000000000E+00 -0.18808809971E+04  0.18808809971E+04  0.00000000000E+00 0.  1.
         23    2    1    2    0    0  0.59446864084E+03  0.56544706042E+03  0.51158103605E+02  0.82712318036E+03  0.91609283686E+02 0.  0.
         11    1    3    3    0    0  0.51053144554E+03  0.48582773445E+03  0.11565550996E+02  0.70484374610E+03  0.00000000000E+00 0.  1.
        -11    1    3    3    0    0  0.83937195294E+02  0.79619325968E+02  0.39592552609E+02  0.12227943426E+03  0.00000000000E+00 0. -1.
         22    1    1    2    0    0 -0.59446864084E+03 -0.56544706042E+03 -0.13801775735E+04  0.16056193439E+04  0.00000000000E+00 0.  1.
<mgrwt>
<rscale>  0 0.20376318E+04</rscale>
<asrwt>0</asrwt>
<pdfrwt beam="1">  1        1 0.84901772E-01 0.20376318E+04</pdfrwt>
<pdfrwt beam="2">  1       -1 0.28936631E+00 0.20376318E+04</pdfrwt>
<totfact> 0.13822539E+00</totfact>
</mgrwt>
</event>
<event>
 6    1  0.1637818E-005  0.4331779E+04  0.7818608E-02  0.7940768E-01
          2   -1    0    0  501    0  0.00000000000E+00  0.00000000000E+00  0.16328189506E+04  0.16328189506E+04  0.00000000000E+00 0.  1.
         -2   -1    0    0    0  501 -0.00000000000E+00 -0.00000000000E+00 -0.28729927240E+04  0.28729927240E+04  0.00000000000E+00 0. -1.
         23    2    1    2    0    0 -0.17280615097E+04 -0.95420831181E+02 -0.19724193460E+04  0.26265870220E+04  0.11497648057E+03 0.  0.
         11    1    3    3    0    0 -0.13822752528E+04 -0.10735222332E+03 -0.15256431147E+04  0.20615034047E+04  0.00000000000E+00 0. -1.
        -11    1    3    3    0    0 -0.34578625694E+03  0.11931392139E+02 -0.44677623133E+03  0.56508361726E+03  0.00000000000E+00 0.  1.
         22    1    1    2    0    0  0.17280615097E+04  0.95420831181E+02  0.73224557265E+03  0.18792246526E+04  0.00000000000E+00 0.  1.
<mgrwt>
<rscale>  0 0.43317788E+04</rscale>
<asrwt>0</asrwt>
<pdfrwt beam="1">  1        2 0.25120292E+00 0.43317788E+04</pdfrwt>
<pdfrwt beam="2">  1       -2 0.44199888E+00 0.43317788E+04</pdfrwt>
<totfact> 0.32213681E-02</totfact>
</mgrwt>
</event>
<event>
 6    1  0.1637818E-005  0.3816192E+04  0.7818608E-02  0.8042689E-01
         -2   -1    0    0    0  501 -0.00000000000E+00  0.00000000000E+00  0.13973280932E+04  0.13973280932E+04  0.00000000000E+00 0. -1.
          2   -1    0    0  501    0  0.00000000000E+00 -0.00000000000E+00 -0.26055658240E+04  0.26055658240E+04  0.00000000000E+00 0.  1.
         23    2    1    2    0    0 -0.14075603366E+04 -0.96398815722E+03  0.28933047261E+03  0.17328256820E+04  0.92051362274E+02 0.  0.
         11    1    3    3    0    0 -0.29588960569E+03 -0.16880120215E+03  0.82114703605E+02  0.35041022981E+03  0.00000000000E+00 0. -1.
        -11    1    3    3    0    0 -0.11116707309E+04 -0.79518695507E+03  0.20721576901E+03  0.13824154522E+04  0.00000000000E+00 0.  1.
         22    1    1    2    0    0  0.14075603366E+04  0.96398815722E+03 -0.14975682034E+04  0.22700682352E+04  0.00000000000E+00 0.  1.
<mgrwt>
<rscale>  0 0.38161920E+04</rscale>
<asrwt>0</asrwt>
<pdfrwt beam="1">  1        2 0.40085628E+00 0.38161920E+04</pdfrwt>
<pdfrwt beam="2">  1       -2 0.21497355E+00 0.38161920E+04</pdfrwt>
<totfact> 0.25728933E-01</totfact>
</mgrwt>
</event>
<event>
 6    1  0.1637818E-005  0.2174084E+04  0.7818608E-02  0.8529293E-01
          2   -1    0    0  501    0  0.00000000000E+00  0.00000000000E+00  0.10995610043E+04  0.10995610043E+04  0.00000000000E+00 0. -1.
         -2   -1    0    0    0  501 -0.00000000000E+00 -0.00000000000E+00 -0.10746659353E+04  0.10746659353E+04  0.00000000000E+00 0.  1.
         23    2    1    2    0    0  0.37187123949E+03 -0.10023385915E+04 -0.17339193583E+03  0.10868959839E+04  0.91144092427E+02 0.  0.
         13    1    3    3    0    0  0.29342250711E+03 -0.83691328883E+03 -0.17421879556E+03  0.90381016227E+03  0.00000000000E+00 0. -1.
        -13    1    3    3    0    0  0.78448732383E+02 -0.16542530272E+03  0.82685973244E+00  0.18308582165E+03  0.00000000000E+00 0.  1.
         22    1    1    2    0    0 -0.37187123949E+03  0.10023385915E+04  0.19828700482E+03  0.10873309557E+04  0.00000000000E+00 0. -1.
<mgrwt>
<rscale>  0 0.21740844E+04</rscale>
<asrwt>0</asrwt>
<pdfrwt beam="1">  1        2 0.16916323E+00 0.21740844E+04</pdfrwt>
<pdfrwt beam="2">  1       -2 0.16533322E+00 0.21740844E+04</pdfrwt>
<totfact> 0.45971423E+00</totfact>
</mgrwt>
</event>
<event>
 6    1  0.1637818E-005  0.3803230E+04  0.7818608E-02  0.8045462E-01
          2   -1    0    0  501    0  0.00000000000E+00  0.00000000000E+00  0.18697310304E+04  0.18697310304E+04  0.00000000000E+00 0. -1.
         -2   -1    0    0    0  501 -0.00000000000E+00 -0.00000000000E+00 -0.19340429749E+04  0.19340429749E+04  0.00000000000E+00 0.  1.
         23    2    1    2    0    0 -0.72222813575E+03 -0.11908568748E+04 -0.13255792185E+04  0.19247985630E+04  0.89082362072E+02 0.  0.
         13    1    3    3    0    0 -0.54249199167E+03 -0.93335583177E+03 -0.10690096311E+04  0.15192867607E+04  0.00000000000E+00 0. -1.
        -13    1    3    3    0    0 -0.17973614408E+03 -0.25750104305E+03 -0.25656958740E+03  0.40551180234E+03  0.00000000000E+00 0.  1.
         22    1    1    2    0    0  0.72222813575E+03  0.11908568748E+04  0.12612672740E+04  0.18789754423E+04  0.00000000000E+00 0. -1.
<mgrwt>
<rscale>  0 0.38032303E+04</rscale>
<asrwt>0</asrwt>
<pdfrwt beam="1">  1        2 0.28765093E+00 0.38032303E+04</pdfrwt>
<pdfrwt beam="2">  1       -2 0.29754507E+00 0.38032303E+04</pdfrwt>
<totfact> 0.20817438E-01</totfact>
</mgrwt>
</event>
<event>
 6    1  0.1637818E-005  0.2120481E+04  0.7818608E-02  0.8552275E-01
         -1   -1    0    0    0  501 -0.00000000000E+00  0.00000000000E+00  0.91851627173E+03  0.91851627173E+03  0.00000000000E+00 0.  1.
          1   -1    0    0  501    0  0.00000000000E+00 -0.00000000000E+00 -0.12238324863E+04  0.12238324863E+04  0.00000000000E+00 0. -1.
         23    2    1    2    0    0 -0.34715361615E+02 -0.10565667944E+04 -0.85604228072E+02  0.10626210588E+04  0.65550617264E+02 0.  0.
         13    1    3    3    0    0 -0.43529074457E+02 -0.79212233320E+03 -0.41706474433E+02  0.79441299152E+03  0.00000000000E+00 0.  1.
        -13    1    3    3    0    0  0.88137128419E+01 -0.26444446121E+03 -0.43897753639E+02  0.26820806732E+03  0.00000000000E+00 0. -1.
         22    1    1    2    0    0  0.34715361615E+02  0.10565667944E+04 -0.21971198649E+03  0.10797276992E+04  0.00000000000E+00 0. -1.
<mgrwt>
<rscale>  0 0.21204811E+04</rscale>
<asrwt>0</asrwt>
<pdfrwt beam="1">  1        1 0.18828192E+00 0.21204811E+04</pdfrwt>
<pdfrwt beam="2">  1       -1 0.14131020E+00 0.21204811E+04</pdfrwt>
<totfact> 0.38553642E+00</totfact>
</mgrwt>
</event>
<event>
 6    1  0.1637818E-005  0.4321953E+04  0.7818608E-02  0.7942571E-01
          1   -1    0    0  501    0  0.00000000000E+00  0.00000000000E+00  0.17911526910E+04  0.17911526910E+04  0.00000000000E+00 0. -1.
         -1   -1    0    0    0  501 -0.00000000000E+00 -0.00000000000E+00 -0.26071583063E+04  0.26071583063E+04  0.00000000000E+00 0.  1.
         23    2    1    2    0    0  0.88491899889E+03 -0.53933192140E+03  0.15203430740E+04  0.18424382003E+04  0.95785715262E+02 0.  0.
         13    1    3    3    0    0  0.62668269413E+03 -0.36366503884E+03  0.11329319962E+04  0.13448116476E+04  0.00000000000E+00 0. -1.
        -13    1    3    3    0    0  0.25823630476E+03 -0.17566688256E+03  0.38741107783E+03  0.49762655270E+03  0.00000000000E+00 0.  1.
         22    1    1    2    0    0 -0.88491899889E+03  0.53933192140E+03 -0.23363486893E+04  0.25558727969E+04  0.00000000000E+00 0.  1.
<mgrwt>
<rscale>  0 0.43219526E+04</rscale>
<asrwt>0</asrwt>
<pdfrwt beam="1">  1        1 0.27556195E+00 0.43219526E+04</pdfrwt>
<pdfrwt beam="2">  1       -1 0.40110128E+00 0.43219526E+04</pdfrwt>
<totfact> 0.22133585E-02</totfact>
</mgrwt>
</event>
<event>
 6    1  0.1637818E-005  0.2972014E+04  0.7818608E-02  0.8251768E-01
         -2   -1    0    0    0  501 -0.00000000000E+00  0.00000000000E+00  0.73892442433E+03  0.73892442433E+03  0.00000000000E+00 0.  1.
          2   -1    0    0  501    0  0.00000000000E+00 -0.00000000000E+00 -0.29884206748E+04  0.29884206748E+04  0.00000000000E+00 0. -1.
         23    2    1    2    0    0 -0.61601174152E+02  0.51118410664E+03  0.62055040326E+03  0.81147958610E+03  0.91172474661E+02 0.  0.
         13    1    3    3    0    0 -0.50516942145E+02  0.12250775517E+03  0.18577946819E+03  0.22819755109E+03  0.00000000000E+00 0. -1.
        -13    1    3    3    0    0 -0.11084232007E+02  0.38867635147E+03  0.43477093506E+03  0.58328203501E+03  0.00000000000E+00 0.  1.
         22    1    1    2    0    0  0.61601174152E+02 -0.51118410664E+03 -0.28700466537E+04  0.29158655130E+04  0.00000000000E+00 0. -1.
<mgrwt>
<rscale>  0 0.29720141E+04</rscale>
<asrwt>0</asrwt>
<pdfrwt beam="1">  1        2 0.45975703E+00 0.29720141E+04</pdfrwt>
<pdfrwt beam="2">  1       -2 0.11368068E+00 0.29720141E+04</pdfrwt>
<totfact> 0.92076638E-01</totfact>
</mgrwt>
</event>
<event>
 6    1  0.1637818E-005  0.2954229E+04  0.7818608E-02  0.8256923E-01
         -1   -1    0    0    0  501 -0.00000000000E+00  0.00000000000E+00  0.73098222362E+03  0.73098222362E+03  0.00000000000E+00 0.  1.
          1   -1    0    0  501    0  0.00000000000E+00 -0.00000000000E+00 -0.29848430583E+04  0.29848430583E+04  0.00000000000E+00 0. -1.
         23    2    1    2    0    0  0.72962427700E+03 -0.11788308293E+04 -0.17643631873E+04  0.22455866426E+04  0.87682397868E+02 0.  0.
         13    1    3    3    0    0  0.30459488385E+03 -0.57514877720E+03 -0.82295805749E+03  0.10492064256E+04  0.00000000000E+00 0. -1.
        -13    1    3    3    0    0  0.42502939315E+03 -0.60368205211E+03 -0.94140512985E+03  0.11963802170E+04  0.00000000000E+00 0.  1.
         22    1    1    2    0    0 -0.72962427700E+03  0.11788308293E+04 -0.48949764731E+03  0.14702386393E+04  0.00000000000E+00 0.  1.
<mgrwt>
<rscale>  0 0.29542290E+04</rscale>
<asrwt>0</asrwt>
<pdfrwt beam="1">  1        1 0.45920662E+00 0.29542290E+04</pdfrwt>
<pdfrwt beam="2">  1       -1 0.11245880E+00 0.29542290E+04</pdfrwt>
<totfact> 0.37907625E-01</totfact>
</mgrwt>
</event>
<event>
 6    1  0.1637818E-005  0.3794059E+04  0.7818608E-02  0.8047431E-01
          2   -1    0    0  501    0  0.00000000000E+00  0.00000000000E+00  0.17839077682E+04  0.17839077682E+04  0.00000000000E+00 0. -1.
         -2   -1    0    0    0  501 -0.00000000000E+00 -0.00000000000E+00 -0.20173245578E+04  0.20173245578E+04  0.00000000000E+00 0.  1.
         23    2    1    2    0    0 -0.50723681683E+03  0.18077548760E+04 -0.38057740038E+03  0.19179046526E+04  0.90841723830E+02 0.  0.
         11    1    3    3    0    0 -0.88497517424E+02  0.34318630360E+03 -0.10757457082E+03  0.37037945118E+03  0.00000000000E+00 0. -1.
        -11    1    3    3    0    0 -0.41873929941E+03  0.14645685724E+04 -0.27300282956E+03  0.15475252014E+04  0.00000000000E+00 0.  1.
         22    1    1    2    0    0  0.50723681683E+03 -0.18077548760E+04  0.14716061073E+03  0.18833276734E+04  0.00000000000E+00 0. -1.
<mgrwt>
<rscale>  0 0.37940590E+04</rscale>
<asrwt>0</asrwt>
<pdfrwt beam="1">  1        2 0.27444735E+00 0.37940590E+04</pdfrwt>
<pdfrwt beam="2">  1       -2 0.31035762E+00 0.37940590E+04</pdfrwt>
<totfact> 0.19398662E-01</totfact>
</mgrwt>
</event>
<event>
 6    1  0.1637818E-005  0.3909042E+04  0.7818608E-02  0.8023151E-01
          2   -1    0    0  501    0  0.00000000000E+00  0.00000000000E+00  0.32274945616E+04  0.32274945616E+04  0.00000000000E+00 0. -1.
         -2   -1    0    0    0  501 -0.00000000000E+00 -0.00000000000E+00 -0.11836276017E+04  0.11836276017E+04  0.00000000000E+00 0.  1.
         23    2    1    2    0    0  0.88152786717E+03 -0.30099942014E+03 -0.91550552569E+03  0.13086106742E+04  0.81360295273E+02 0.  0.
         11    1    3    3    0    0  0.41782294166E+03 -0.11291939785E+03 -0.46562354452E+03  0.63571383987E+03  0.00000000000E+00 0. -1.
        -11    1    3    3    0    0  0.46370492551E+03 -0.18808002230E+03 -0.44988198117E+03  0.67289683437E+03  0.00000000000E+00 0.  1.
         22    1    1    2    0    0 -0.88152786717E+03  0.30099942014E+03  0.29593724856E+04  0.31025114891E+04  0.00000000000E+00 0. -1.
<mgrwt>
<rscale>  0 0.39090416E+04</rscale>
<asrwt>0</asrwt>
<pdfrwt beam="1">  1        2 0.49653762E+00 0.39090416E+04</pdfrwt>
<pdfrwt beam="2">  1       -2 0.18209655E+00 0.39090416E+04</pdfrwt>
<totfact> 0.17321442E-01</totfact>
</mgrwt>
</event>
<event>
 6    1  0.1637818E-005  0.2116423E+04  0.7818608E-02  0.8554043E-01
         -1   -1    0    0    0  501 -0.00000000000E+00  0.00000000000E+00  0.12849470626E+04  0.12849470626E+04  0.00000000000E+00 0.  1.
          1   -1    0    0  501    0  0.00000000000E+00 -0.00000000000E+00 -0.87148432583E+03  0.87148432583E+03  0.00000000000E+00 0. -1.
         23    2    1    2    0    0 -0.39056212163E+03 -0.97847795210E+03  0.28241042406E+03  0.10947663837E+04  0.93807855456E+02 0.  0.
         13    1    3    3    0    0 -0.30914894077E+03 -0.65761285518E+03  0.19047390572E+03  0.75120439538E+03  0.00000000000E+00 0. -1.
        -13    1    3    3    0    0 -0.81413180855E+02 -0.32086509692E+03  0.91936518339E+02  0.34356198835E+03  0.00000000000E+00 0.  1.
         22    1    1    2    0    0  0.39056212163E+03  0.97847795210E+03  0.13105231273E+03  0.10616650047E+04  0.00000000000E+00 0. -1.
<mgrwt>
<rscale>  0 0.21164227E+04</rscale>
<asrwt>0</asrwt>
<pdfrwt beam="1">  1        1 0.13407451E+00 0.21164227E+04</pdfrwt>
<pdfrwt beam="2">  1       -1 0.19768416E+00 0.21164227E+04</pdfrwt>
<totfact> 0.27552082E+00</totfact>
</mgrwt>
</event>
<event>
 6    1  0.1637818E-005  0.2758130E+04  0.7818608E-02  0.8316386E-01
         -1   -1    0    0    0  501 -0.00000000000E+00  0.00000000000E+00  0.74842485040E+03  0.74842485040E+03  0.00000000000E+00 0.  1.
          1   -1    0    0  501    0  0.00000000000E+00 -0.00000000000E+00 -0.25410980166E+04  0.25410980166E+04  0.00000000000E+00 0. -1.
         23    2    1    2    0    0 -0.11769351424E+04 -0.66135264892E+03 -0.57075993788E+03  0.14686341847E+04  0.92497601489E+02 0.  0.
         13    1    3    3    0    0 -0.66146990011E+03 -0.42276619309E+03 -0.32020367991E+03  0.84782314158E+03  0.00000000000E+00 0. -1.
        -13    1    3    3    0    0 -0.51546524227E+03 -0.23858645582E+03 -0.25055625798E+03  0.62081104315E+03  0.00000000000E+00 0.  1.
         22    1    1    2    0    0  0.11769351424E+04  0.66135264892E+03 -0.12219132283E+04  0.18208886822E+04  0.00000000000E+00 0. -1.
<mgrwt>
<rscale>  0 0.27581305E+04</rscale>
<asrwt>0</asrwt>
<pdfrwt beam="1">  1        1 0.39093816E+00 0.27581305E+04</pdfrwt>
<pdfrwt beam="2">  1       -1 0.11514228E+00 0.27581305E+04</pdfrwt>
<totfact> 0.75387482E-01</totfact>
</mgrwt>
</event>
<event>
 6    1  0.1637818E-005  0.1305153E+04  0.7818608E-02  0.9025488E-01
          2   -1    0    0  501    0  0.00000000000E+00  0.00000000000E+00  0.23259844490E+04  0.23259844490E+04  0.00000000000E+00 0.  1.
         -2   -1    0    0    0  501 -0.00000000000E+00 -0.00000000000E+00 -0.18308647768E+03  0.18308647768E+03  0.00000000000E+00 0. -1.
         23    2    1    2    0    0 -0.32363271512E+03  0.30404854352E+03  0.19875087079E+04  0.20386142610E+04  0.92593682822E+02 0.  0.
         11    1    3    3    0    0 -0.23697101018E+03  0.21889530467E+03  0.16111915575E+04  0.16431703043E+04  0.00000000000E+00 0.  1.
        -11    1    3    3    0    0 -0.86661704941E+02  0.85153238848E+02  0.37631715043E+03  0.39544395671E+03  0.00000000000E+00 0. -1.
         22    1    1    2    0    0  0.32363271512E+03 -0.30404854352E+03  0.15538926345E+03  0.47045666571E+03  0.00000000000E+00 0. -1.
<mgrwt>
<rscale>  0 0.13051533E+04</rscale>
<asrwt>0</asrwt>
<pdfrwt beam="1">  1        2 0.35784374E+00 0.13051533E+04</pdfrwt>
<pdfrwt beam="2">  1       -2 0.28167152E-01 0.13051533E+04</pdfrwt>
<totfact> 0.49655073E+01</totfact>
</mgrwt>
</event>
<event>
 6    1  0.1637818E-005  0.2667211E+04  0.7818608E-02  0.8345723E-01
         -1   -1    0    0    0  501 -0.00000000000E+00  0.00000000000E+00  0.35790321917E+03  0.35790321917E+03  0.00000000000E+00 0.  1.
          1   -1    0    0  501    0  0.00000000000E+00 -0.00000000000E+00 -0.49692306921E+04  0.49692306921E+04  0.00000000000E+00 0. -1.
         23    2    1    2    0    0 -0.18325450301E+03 -0.10119249762E+04 -0.40000112995E+04  0.41307719952E+04  0.74916687270E+02 0.  0.
         11    1    3    3    0    0 -0.91440049084E+02 -0.53238998253E+03 -0.22490752703E+04  0.23130369533E+04  0.00000000000E+00 0.  1.
        -11    1    3    3    0    0 -0.91814453924E+02 -0.47953499363E+03 -0.17509360292E+04  0.18177350419E+04  0.00000000000E+00 0. -1.
         22    1    1    2    0    0  0.18325450301E+03  0.10119249762E+04 -0.61131617341E+03  0.11963619160E+04  0.00000000000E+00 0.  1.
<mgrwt>
<rscale>  0 0.26672110E+04</rscale>
<asrwt>0</asrwt>
<pdfrwt beam="1">  1        1 0.76449708E+00 0.26672110E+04</pdfrwt>
<pdfrwt beam="2">  1       -1 0.55062030E-01 0.26672110E+04</pdfrwt>
<totfact> 0.27756166E-02</totfact>
</mgrwt>
</event>
<event>
 6    1  0.1637818E-005  0.2139188E+04  0.7818608E-02  0.8544175E-01
         -1   -1    0    0    0  501 -0.00000000000E+00  0.00000000000E+00  0.60604326471E+03  0.60604326471E+03  0.00000000000E+00 0.  1.
          1   -1    0    0  501    0  0.00000000000E+00 -0.00000000000E+00 -0.18877048979E+04  0.18877048979E+04  0.00000000000E+00 0. -1.
         23    2    1    2    0    0  0.52696443995E+03 -0.79411001496E+03 -0.80840925767E+02  0.96068827851E+03  0.89913716169E+02 0.  0.
         13    1    3    3    0    0  0.11786594957E+03 -0.25031239914E+03 -0.29932802896E+02  0.27828879230E+03  0.00000000000E+00 0.  1.
        -13    1    3    3    0    0  0.40909849038E+03 -0.54379761582E+03 -0.50908122870E+02  0.68239948621E+03  0.00000000000E+00 0. -1.
         22    1    1    2    0    0 -0.52696443995E+03  0.79411001496E+03 -0.12008207074E+04  0.15330598841E+04  0.00000000000E+00 0. -1.
<mgrwt>
<rscale>  0 0.21391875E+04</rscale>
<asrwt>0</asrwt>
<pdfrwt beam="1">  1        1 0.29041614E+00 0.21391875E+04</pdfrwt>
<pdfrwt beam="2">  1       -1 0.93237425E-01 0.21391875E+04</pdfrwt>
<totfact> 0.36346702E+00</totfact>
</mgrwt>
</event>
<event>
 6    1  0.1637818E-005  0.8306056E+03  0.7818608E-02  0.9516744E-01
          2   -1    0    0  501    0  0.00000000000E+00  0.00000000000E+00  0.13750212081E+04  0.13750212081E+04  0.00000000000E+00 0. -1.
         -2   -1    0    0    0  501 -0.00000000000E+00 -0.00000000000E+00 -0.12543545147E+03  0.12543545147E+03  0.00000000000E+00 0.  1.
         23    2    1    2    0    0  0.31724885929E+03  0.25994345985E+03  0.65017143626E+03  0.77415440258E+03  0.91513395049E+02 0.  0.
         11    1    3    3    0    0  0.48495979228E+02  0.32838885702E+01  0.74808778153E+02  0.89213212106E+02  0.00000000000E+00 0. -1.
        -11    1    3    3    0    0  0.26875288006E+03  0.25665957128E+03  0.57536265810E+03  0.68494119047E+03  0.00000000000E+00 0.  1.
         22    1    1    2    0    0 -0.31724885929E+03 -0.25994345985E+03  0.59941432035E+03  0.72630225697E+03  0.00000000000E+00 0. -1.
<mgrwt>
<rscale>  0 0.83060558E+03</rscale>
<asrwt>0</asrwt>
<pdfrwt beam="1">  1        2 0.21154171E+00 0.83060558E+03</pdfrwt>
<pdfrwt beam="2">  1       -2 0.19297763E-01 0.83060558E+03</pdfrwt>
<totfact> 0.34198513E+02</totfact>
</mgrwt>
</event>
<event>
 6    1  0.1637818E-005  0.2439405E+04  0.7818608E-02  0.8424897E-01
          2   -1    0    0  501    0  0.00000000000E+00  0.00000000000E+00  0.18695085306E+04  0.18695085306E+04  0.00000000000E+00 0. -1.
         -2   -1    0    0    0  501 -0.00000000000E+00 -0.00000000000E+00 -0.79575688086E+03  0.79575688086E+03  0.00000000000E+00 0.  1.
         23    2    1    2    0    0 -0.61774647199E+03  0.59467974649E+03  0.14827629125E+04  0.17152417709E+04  0.90629871093E+02 0.  0.
         13    1    3    3    0    0 -0.19941676587E+03  0.14477695501E+03  0.47097990925E+03  0.53155384311E+03  0.00000000000E+00 0. -1.
        -13    1    3    3    0    0 -0.41832970612E+03  0.44990279148E+03  0.10117830032E+04  0.11836879278E+04  0.00000000000E+00 0.  1.
         22    1    1    2    0    0  0.61774647199E+03 -0.59467974649E+03 -0.40901126273E+03  0.95002364054E+03  0.00000000000E+00 0.  1.
<mgrwt>
<rscale>  0 0.24394051E+04</rscale>
<asrwt>0</asrwt>
<pdfrwt beam="1">  1        2 0.28761670E+00 0.24394051E+04</pdfrwt>
<pdfrwt beam="2">  1       -2 0.12242414E+00 0.24394051E+04</pdfrwt>
<totfact> 0.35751575E+00</totfact>
</mgrwt>
</event>
<event>
 6    1  0.1637818E-005  0.3944383E+04  0.7818608E-02  0.8015861E-01
          2   -1    0    0  501    0  0.00000000000E+00  0.00000000000E+00  0.41476930364E+04  0.41476930364E+04  0.00000000000E+00 0. -1.
         -2   -1    0    0    0  501 -0.00000000000E+00 -0.00000000000E+00 -0.93775957101E+03  0.93775957101E+03  0.00000000000E+00 0.  1.
         23    2    1    2    0    0 -0.15688732448E+03  0.18046417618E+04  0.26077677452E+04  0.31765395461E+04  0.92765046716E+02 0.  0.
         11    1    3    3    0    0 -0.54411777448E+02  0.28416589759E+03  0.44579223863E+03  0.53145236749E+03  0.00000000000E+00 0.  1.
        -11    1    3    3    0    0 -0.10247554703E+03  0.15204758642E+04  0.21619755066E+04  0.26450871786E+04  0.00000000000E+00 0. -1.
         22    1    1    2    0    0  0.15688732448E+03 -0.18046417618E+04  0.60216572012E+03  0.19089130613E+04  0.00000000000E+00 0.  1.
<mgrwt>
<rscale>  0 0.39443828E+04</rscale>
<asrwt>0</asrwt>
<pdfrwt beam="1">  1        2 0.63810661E+00 0.39443828E+04</pdfrwt>
<pdfrwt beam="2">  1       -2 0.14427071E+00 0.39443828E+04</pdfrwt>
<totfact> 0.67565289E-02</totfact>
</mgrwt>
</event>
<event>
 6    1  0.1637818E-005  0.5045167E+04  0.7818608E-02  0.7821577E-01
         -2   -1    0    0    0  501 -0.00000000000E+00  0.00000000000E+00  0.30327094250E+04  0.30327094250E+04  0.00000000000E+00 0.  1.
          2   -1    0    0  501    0  0.00000000000E+00 -0.00000000000E+00 -0.20982644652E+04  0.20982644652E+04  0.00000000000E+00 0. -1.
         23    2    1    2    0    0  0.14074419761E+04 -0.20355341927E+04 -0.25817256945E+02  0.24764690606E+04  0.89107305011E+02 0.  0.
         13    1    3    3    0    0  0.79022444427E+03 -0.11214946462E+04 -0.56900674952E+02  0.13731141979E+04  0.00000000000E+00 0.  1.
        -13    1    3    3    0    0  0.61721753183E+03 -0.91403954648E+03  0.31083418007E+02  0.11033548627E+04  0.00000000000E+00 0. -1.
         22    1    1    2    0    0 -0.14074419761E+04  0.20355341927E+04  0.96026221671E+03  0.26545048296E+04  0.00000000000E+00 0.  1.
<mgrwt>
<rscale>  0 0.50451666E+04</rscale>
<asrwt>0</asrwt>
<pdfrwt beam="1">  1        2 0.32280992E+00 0.50451666E+04</pdfrwt>
<pdfrwt beam="2">  1       -2 0.46657068E+00 0.50451666E+04</pdfrwt>
<totfact> 0.11580706E-02</totfact>
</mgrwt>
</event>
<event>
 6    1  0.1637818E-005  0.2312236E+04  0.7818608E-02  0.8473112E-01
          1   -1    0    0  501    0  0.00000000000E+00  0.00000000000E+00  0.14278460152E+04  0.14278460152E+04  0.00000000000E+00 0. -1.
         -1   -1    0    0    0  501 -0.00000000000E+00 -0.00000000000E+00 -0.93610136393E+03  0.93610136393E+03  0.00000000000E+00 0.  1.
         23    2    1    2    0    0 -0.25065085989E+03  0.83438641180E+03  0.10203752862E+04  0.13448905182E+04  0.92402615265E+02 0.  0.
         11    1    3    3    0    0 -0.14464923901E+03  0.48792699906E+03  0.66494993836E+03  0.83734973535E+03  0.00000000000E+00 0.  1.
        -11    1    3    3    0    0 -0.10600162089E+03  0.34645941273E+03  0.35542534789E+03  0.50754078282E+03  0.00000000000E+00 0. -1.
         22    1    1    2    0    0  0.25065085989E+03 -0.83438641180E+03 -0.52863063495E+03  0.10190568610E+04  0.00000000000E+00 0.  1.
<mgrwt>
<rscale>  0 0.23122358E+04</rscale>
<asrwt>0</asrwt>
<pdfrwt beam="1">  1        1 0.21966862E+00 0.23122358E+04</pdfrwt>
<pdfrwt beam="2">  1       -1 0.14401559E+00 0.23122358E+04</pdfrwt>
<totfact> 0.25803021E+00</totfact>
</mgrwt>
</event>
<event>
 6    1  0.1637818E-005  0.2461811E+04  0.7818608E-02  0.8416718E-01
          1   -1    0    0  501    0  0.00000000000E+00  0.00000000000E+00  0.10066661657E+04  0.10066661657E+04  0.00000000000E+00 0. -1.
         -1   -1    0    0    0  501 -0.00000000000E+00 -0.00000000000E+00 -0.15050954477E+04  0.15050954477E+04  0.00000000000E+00 0.  1.
         23    2    1    2    0    0  0.34956342511E+03  0.82106008894E+03 -0.11119884521E+04  0.14288077302E+04  0.92945974938E+02 0.  0.
         11    1    3    3    0    0  0.31473592628E+03  0.64920507046E+03 -0.91077139723E+03  0.11619081138E+04  0.00000000000E+00 0. -1.
        -11    1    3    3    0    0  0.34827498835E+02  0.17185501848E+03 -0.20121705491E+03  0.26689961641E+03  0.00000000000E+00 0.  1.
         22    1    1    2    0    0 -0.34956342511E+03 -0.82106008894E+03  0.61355917016E+03  0.10829538832E+04  0.00000000000E+00 0. -1.
<mgrwt>
<rscale>  0 0.24618113E+04</rscale>
<asrwt>0</asrwt>
<pdfrwt beam="1">  1        1 0.15487172E+00 0.24618113E+04</pdfrwt>
<pdfrwt beam="2">  1       -1 0.23155315E+00 0.24618113E+04</pdfrwt>
<totfact> 0.12283375E+00</totfact>
</mgrwt>
</event>
<event>
 6    1  0.1637818E-005  0.1541354E+04  0.7818608E-02  0.8857409E-01
          2   -1    0    0  501    0  0.00000000000E+00  0.00000000000E+00  0.14124841840E+04  0.14124841840E+04  0.00000000000E+00 0. -1.
         -2   -1    0    0    0  501 -0.00000000000E+00 -0.00000000000E+00 -0.42049531128E+03  0.42049531128E+03  0.00000000000E+00 0.  1.
         23    2    1    2    0    0 -0.69409134264E+03  0.30074460757E+03  0.33968550684E+03  0.83412525565E+03  0.90380239251E+02 0.  0.
         13    1    3    3    0    0 -0.34661962800E+03  0.15381270326E+03  0.21961967087E+03  0.43821948158E+03  0.00000000000E+00 0.  1.
        -13    1    3    3    0    0 -0.34747171464E+03  0.14693190431E+03  0.12006583597E+03  0.39590577407E+03  0.00000000000E+00 0. -1.
         22    1    1    2    0    0  0.69409134264E+03 -0.30074460757E+03  0.65230336590E+03  0.99885423966E+03  0.00000000000E+00 0.  1.
<mgrwt>
<rscale>  0 0.15413539E+04</rscale>
<asrwt>0</asrwt>
<pdfrwt beam="1">  1        2 0.21730526E+00 0.15413539E+04</pdfrwt>
<pdfrwt beam="2">  1       -2 0.64691587E-01 0.15413539E+04</pdfrwt>
<totfact> 0.30237990E+01</totfact>
</mgrwt>
</event>
<event>
 6    1  0.1637818E-005  0.2194054E+04  0.7818608E-02  0.8520907E-01
         -1   -1    0    0    0  501 -0.00000000000E+00  0.00000000000E+00  0.36408879221E+03  0.36408879221E+03  0.00000000000E+00 0.  1.
          1   -1    0    0  501    0  0.00000000000E+00 -0.00000000000E+00 -0.33054241881E+04  0.33054241881E+04  0.00000000000E+00 0. -1.
         23    2    1    2    0    0  0.98975876163E+03 -0.42139925701E+03 -0.18157900356E+04  0.21125762128E+04  0.93193676936E+02 0.  0.
         13    1    3    3    0    0  0.68430840102E+03 -0.24413031462E+03 -0.12126430428E+04  0.14136409543E+04  0.00000000000E+00 0. -1.
        -13    1    3    3    0    0  0.30545036061E+03 -0.17726894239E+03 -0.60314699275E+03  0.69893525852E+03  0.00000000000E+00 0.  1.
         22    1    1    2    0    0 -0.98975876163E+03  0.42139925701E+03 -0.11255453604E+04  0.15569367676E+04  0.00000000000E+00 0. -1.
<mgrwt>
<rscale>  0 0.21940537E+04</rscale>
<asrwt>0</asrwt>
<pdfrwt beam="1">  1        1 0.50852681E+00 0.21940537E+04</pdfrwt>
<pdfrwt beam="2">  1       -1 0.56013659E-01 0.21940537E+04</pdfrwt>
<totfact> 0.10424464E+00</totfact>
</mgrwt>
</event>
<event>
 6    1  0.1637818E-005  0.7848788E+03  0.7818608E-02  0.9582166E-01
         -2   -1    0    0    0  501 -0.00000000000E+00  0.00000000000E+00  0.16637273795E+03  0.16637273795E+03  0.00000000000E+00 0.  1.
          2   -1    0    0  501    0  0.00000000000E+00 -0.00000000000E+00 -0.92568457819E+03  0.92568457819E+03  0.00000000000E+00 0. -1.
         23    2    1    2    0    0 -0.16108579824E+03  0.16065080895E+03  0.50721028782E+02  0.25068310350E+03  0.92260927841E+02 0.  0.
         11    1    3    3    0    0 -0.10787127187E+03  0.13067559545E+03 -0.28066459137E+01  0.16947035080E+03  0.00000000000E+00 0. -1.
        -11    1    3    3    0    0 -0.53214526376E+02  0.29975213505E+02  0.53527674696E+02  0.81212752696E+02  0.00000000000E+00 0.  1.
         22    1    1    2    0    0  0.16108579824E+03 -0.16065080895E+03 -0.81003286902E+03  0.84137421265E+03  0.00000000000E+00 0. -1.
<mgrwt>
<rscale>  0 0.78487879E+03</rscale>
<asrwt>0</asrwt>
<pdfrwt beam="1">  1        2 0.14241301E+00 0.78487879E+03</pdfrwt>
<pdfrwt beam="2">  1       -2 0.25595806E-01 0.78487879E+03</pdfrwt>
<totfact> 0.38887417E+02</totfact>
</mgrwt>
</event>
<event>
 6    1  0.1637818E-005  0.3055887E+04  0.7818608E-02  0.8227950E-01
          2   -1    0    0  501    0  0.00000000000E+00  0.00000000000E+00  0.22332479241E+04  0.22332479241E+04  0.00000000000E+00 0.  1.
         -2   -1    0    0    0  501 -0.00000000000E+00 -0.00000000000E+00 -0.10453881371E+04  0.10453881371E+04  0.00000000000E+00 0. -1.
         23    2    1    2    0    0 -0.76133132249E+02 -0.80816343289E+03 -0.79262891854E+03  0.11382482691E+04  0.91783067262E+02 0.  0.
         11    1    3    3    0    0 -0.26113243787E+01 -0.25862783728E+03 -0.30487450419E+03  0.39980450290E+03  0.00000000000E+00 0.  1.
        -11    1    3    3    0    0 -0.73521807870E+02 -0.54953559561E+03 -0.48775441435E+03  0.73844376617E+03  0.00000000000E+00 0. -1.
         22    1    1    2    0    0  0.76133132249E+02  0.80816343289E+03  0.19804887056E+04  0.21403877922E+04  0.00000000000E+00 0.  1.
<mgrwt>
<rscale>  0 0.30558867E+04</rscale>
<asrwt>0</asrwt>
<pdfrwt beam="1">  1        2 0.34357660E+00 0.30558867E+04</pdfrwt>
<pdfrwt beam="2">  1       -2 0.16082894E+00 0.30558867E+04</pdfrwt>
<totfact> 0.10466400E+00</totfact>
</mgrwt>
</event>
<event>
 6    1  0.1637818E-005  0.2449035E+04  0.7818608E-02  0.8421370E-01
         -2   -1    0    0    0  501 -0.00000000000E+00  0.00000000000E+00  0.55355068589E+03  0.55355068589E+03  0.00000000000E+00 0.  1.
          2   -1    0    0  501    0  0.00000000000E+00 -0.00000000000E+00 -0.27087734275E+04  0.27087734275E+04  0.00000000000E+00 0. -1.
         23    2    1    2    0    0 -0.22292195571E+03 -0.85916745145E+03  0.41409152839E+02  0.89313552070E+03  0.90074593749E+02 0.  0.
         11    1    3    3    0    0 -0.13152464569E+03 -0.33189359896E+03  0.20398056501E+02  0.35758659673E+03  0.00000000000E+00 0.  1.
        -11    1    3    3    0    0 -0.91397310022E+02 -0.52727385249E+03  0.21011096338E+02  0.53554892397E+03  0.00000000000E+00 0. -1.
         22    1    1    2    0    0  0.22292195571E+03  0.85916745145E+03 -0.21966318945E+04  0.23691885927E+04  0.00000000000E+00 0. -1.
<mgrwt>
<rscale>  0 0.24490352E+04</rscale>
<asrwt>0</asrwt>
<pdfrwt beam="1">  1        2 0.41673437E+00 0.24490352E+04</pdfrwt>
<pdfrwt beam="2">  1       -2 0.85161644E-01 0.24490352E+04</pdfrwt>
<totfact> 0.28189957E+00</totfact>
</mgrwt>
</event>
<event>
 6    1  0.1637818E-005  0.4464996E+04  0.7818608E-02  0.7916794E-01
          2   -1    0    0  501    0  0.00000000000E+00  0.00000000000E+00  0.19885444549E+04  0.19885444549E+04  0.00000000000E+00 0. -1.
         -2   -1    0    0    0  501 -0.00000000000E+00 -0.00000000000E+00 -0.25063799344E+04  0.25063799344E+04  0.00000000000E+00 0.  1.
         23    2    1    2    0    0 -0.16873314775E+04  0.42374863417E+03  0.11479125068E+04  0.20863217293E+04  0.91568633778E+02 0.  0.
         13    1    3    3    0    0 -0.92400564808E+03  0.19004399281E+03  0.64632381819E+03  0.11435198445E+04  0.00000000000E+00 0.  1.
        -13    1    3    3    0    0 -0.76332582945E+03  0.23370464136E+03  0.50158868860E+03  0.94280188472E+03  0.00000000000E+00 0. -1.
         22    1    1    2    0    0  0.16873314775E+04 -0.42374863417E+03 -0.16657479863E+04  0.24086026600E+04  0.00000000000E+00 0.  1.
<mgrwt>
<rscale>  0 0.44649963E+04</rscale>
<asrwt>0</asrwt>
<pdfrwt beam="1">  1        2 0.30592992E+00 0.44649963E+04</pdfrwt>
<pdfrwt beam="2">  1       -2 0.38559691E+00 0.44649963E+04</pdfrwt>
<totfact> 0.47455405E-02</totfact>
</mgrwt>
</event>
<event>
 6    1  0.1637818E-005  0.1802656E+04  0.7818608E-02  0.8704888E-01
         -2   -1    0    0    0  501 -0.00000000000E+00  0.00000000000E+00  0.69316780447E+03  0.69316780447E+03  0.00000000000E+00 0.  1.
          2   -1    0    0  501    0  0.00000000000E+00 -0.00000000000E+00 -0.11719998178E+04  0.11719998178E+04  0.00000000000E+00 0. -1.
         23    2    1    2    0    0  0.24380567271E+03 -0.23770216688E+03  0.62055719154E+03  0.71425487581E+03  0.95526297179E+02 0.  0.
         11    1    3    3    0    0  0.10666020350E+03 -0.13114802804E+03  0.39444260222E+03  0.42914003626E+03  0.00000000000E+00 0. -1.
        -11    1    3    3    0    0  0.13714546921E+03 -0.10655413884E+03  0.22611458932E+03  0.28511483955E+03  0.00000000000E+00 0.  1.
         22    1    1    2    0    0 -0.24380567271E+03  0.23770216688E+03 -0.10993892049E+04  0.11509127465E+04  0.00000000000E+00 0. -1.
<mgrwt>
<rscale>  0 0.18026564E+04</rscale>
<asrwt>0</asrwt>
<pdfrwt beam="1">  1        2 0.18030766E+00 0.18026564E+04</pdfrwt>
<pdfrwt beam="2">  1       -2 0.10664120E+00 0.18026564E+04</pdfrwt>
<totfact> 0.13162643E+01</totfact>
</mgrwt>
</event>
<event>
 6    1  0.1637818E-005  0.2719383E+04  0.7818608E-02  0.8328743E-01
          2   -1    0    0  501    0  0.00000000000E+00  0.00000000000E+00  0.72849960684E+03  0.72849960684E+03  0.00000000000E+00 0. -1.
         -2   -1    0    0    0  501 -0.00000000000E+00 -0.00000000000E+00 -0.25377660868E+04  0.25377660868E+04  0.00000000000E+00 0.  1.
         23    2    1    2    0    0  0.80393081756E+03 -0.76376267483E+02 -0.22172422424E+04  0.23615103033E+04  0.91813164864E+02 0.  0.
         11    1    3    3    0    0  0.57688594618E+03 -0.93584421403E+02 -0.15530822781E+04  0.16594035077E+04  0.00000000000E+00 0.  1.
        -11    1    3    3    0    0  0.22704487138E+03  0.17208153920E+02 -0.66415996436E+03  0.70210679561E+03  0.00000000000E+00 0. -1.
         22    1    1    2    0    0 -0.80393081756E+03  0.76376267483E+02  0.40797576245E+03  0.90475539037E+03  0.00000000000E+00 0. -1.
<mgrwt>
<rscale>  0 0.27193835E+04</rscale>
<asrwt>0</asrwt>
<pdfrwt beam="1">  1        2 0.11207686E+00 0.27193835E+04</pdfrwt>
<pdfrwt beam="2">  1       -2 0.39042555E+00 0.27193835E+04</pdfrwt>
<totfact> 0.29223685E-01</totfact>
</mgrwt>
</event>
<event>
 6    1  0.1637818E-005  0.1566125E+04  0.7818608E-02  0.8841633E-01
          1   -1    0    0  501    0  0.00000000000E+00  0.00000000000E+00  0.61968662904E+03  0.61968662904E+03  0.00000000000E+00 0. -1.
         -1   -1    0    0    0  501 -0.00000000000E+00 -0.00000000000E+00 -0.98951161982E+03  0.98951161982E+03  0.00000000000E+00 0.  1.
         23    2    1    2    0    0  0.48114643836E+03 -0.11322214381E+03  0.43538690338E+03  0.66437691999E+03  0.86682104125E+02 0.  0.
         11    1    3    3    0    0  0.37087273810E+03 -0.11996139008E+03  0.31673238972E+03  0.50225165970E+03  0.00000000000E+00 0. -1.
        -11    1    3    3    0    0  0.11027370026E+03  0.67392462668E+01  0.11865451366E+03  0.16212526029E+03  0.00000000000E+00 0.  1.
         22    1    1    2    0    0 -0.48114643836E+03  0.11322214381E+03 -0.80521189416E+03  0.94482132888E+03  0.00000000000E+00 0.  1.
<mgrwt>
<rscale>  0 0.15661253E+04</rscale>
<asrwt>0</asrwt>
<pdfrwt beam="1">  1        1 0.95336405E-01 0.15661253E+04</pdfrwt>
<pdfrwt beam="2">  1       -1 0.15223256E+00 0.15661253E+04</pdfrwt>
<totfact> 0.10539972E+01</totfact>
</mgrwt>
</event>
<event>
 6    1  0.1637818E-005  0.1854510E+04  0.7818608E-02  0.8677837E-01
          1   -1    0    0  501    0  0.00000000000E+00  0.00000000000E+00  0.89882294253E+03  0.89882294253E+03  0.00000000000E+00 0. -1.
         -1   -1    0    0    0  501 -0.00000000000E+00 -0.00000000000E+00 -0.95658680764E+03  0.95658680764E+03  0.00000000000E+00 0.  1.
         23    2    1    2    0    0 -0.49100300977E+03 -0.19224197869E+03 -0.78929948593E+03  0.95364187622E+03  0.91641778786E+02 0.  0.
         11    1    3    3    0    0 -0.12335466866E+03 -0.30537823465E+02 -0.13113149008E+03  0.18260449236E+03  0.00000000000E+00 0.  1.
        -11    1    3    3    0    0 -0.36764834111E+03 -0.16170415522E+03 -0.65816799585E+03  0.77103738386E+03  0.00000000000E+00 0. -1.
         22    1    1    2    0    0  0.49100300977E+03  0.19224197869E+03  0.73153562081E+03  0.90176787395E+03  0.00000000000E+00 0. -1.
<mgrwt>
<rscale>  0 0.18545104E+04</rscale>
<asrwt>0</asrwt>
<pdfrwt beam="1">  1        1 0.13828045E+00 0.18545104E+04</pdfrwt>
<pdfrwt beam="2">  1       -1 0.14716720E+00 0.18545104E+04</pdfrwt>
<totfact> 0.62912489E+00</totfact>
</mgrwt>
</event>
<event>
 6    1  0.1637818E-005  0.3429996E+03  0.7818608E-02  0.1065526E+00
         -1   -1    0    0    0  501 -0.00000000000E+00  0.00000000000E+00  0.37314012648E+03  0.37314012648E+03  0.00000000000E+00 0.  1.
          1   -1    0    0  501    0  0.00000000000E+00 -0.00000000000E+00 -0.78823410251E+02  0.78823410251E+02  0.00000000000E+00 0. -1.
         23    2    1    2    0    0  0.14494097748E+03  0.72948829435E+01  0.72371100538E+02  0.18678254459E+03  0.92677076451E+02 0.  0.
         11    1    3    3    0    0  0.11473565441E+03 -0.34444737677E+02  0.41825838336E+02  0.12688621320E+03  0.00000000000E+00 0. -1.
        -11    1    3    3    0    0  0.30205323069E+02  0.41739620620E+02  0.30545262202E+02  0.59896331392E+02  0.00000000000E+00 0.  1.
         22    1    1    2    0    0 -0.14494097748E+03 -0.72948829435E+01  0.22194561570E+03  0.26518099215E+03  0.00000000000E+00 0. -1.
<mgrwt>
<rscale>  0 0.34299958E+03</rscale>
<asrwt>0</asrwt>
<pdfrwt beam="1">  1        1 0.12126679E-01 0.34299958E+03</pdfrwt>
<pdfrwt beam="2">  1       -1 0.57406172E-01 0.34299958E+03</pdfrwt>
<totfact> 0.15706997E+03</totfact>
</mgrwt>
</event>
<event>
 6    1  0.1637818E-005  0.3483919E+04  0.7818608E-02  0.8117612E-01
          2   -1    0    0  501    0  0.00000000000E+00  0.00000000000E+00  0.31963264088E+04  0.31963264088E+04  0.00000000000E+00 0. -1.
         -2   -1    0    0    0  501 -0.00000000000E+00 -0.00000000000E+00 -0.94934685318E+03  0.94934685318E+03  0.00000000000E+00 0.  1.
         23    2    1    2    0    0 -0.21976635730E+03  0.26917325185E+03  0.31539944177E+04  0.31743713258E+04  0.90559568344E+02 0.  0.
         11    1    3    3    0    0 -0.19277220531E+03  0.24134915673E+03  0.24634684384E+04  0.24827579998E+04  0.00000000000E+00 0.  1.
        -11    1    3    3    0    0 -0.26994151992E+02  0.27824095123E+02  0.69052597931E+03  0.69161332593E+03  0.00000000000E+00 0. -1.
         22    1    1    2    0    0  0.21976635730E+03 -0.26917325185E+03 -0.90701486208E+03  0.97130193624E+03  0.00000000000E+00 0.  1.
<mgrwt>
<rscale>  0 0.34839187E+04</rscale>
<asrwt>0</asrwt>
<pdfrwt beam="1">  1        2 0.49174252E+00 0.34839187E+04</pdfrwt>
<pdfrwt beam="2">  1       -2 0.14605336E+00 0.34839187E+04</pdfrwt>
<totfact> 0.34456890E-01</totfact>
</mgrwt>
</event>
<event>
 6    1  0.1637818E-005  0.3402188E+04  0.7818608E-02  0.8137369E-01
          2   -1    0    0  501    0  0.00000000000E+00  0.00000000000E+00  0.13668076074E+04  0.13668076074E+04  0.00000000000E+00 0. -1.
         -2   -1    0    0    0  501 -0.00000000000E+00 -0.00000000000E+00 -0.21171385869E+04  0.21171385869E+04  0.00000000000E+00 0.  1.
         23    2    1    2    0    0 -0.60151396378E+03 -0.13012278742E+04  0.56059953711E+03  0.15413829782E+04  0.81096333340E+02 0.  0.
         13    1    3    3    0    0 -0.14206125523E+03 -0.25809928342E+03  0.88144930897E+02  0.30751612833E+03  0.00000000000E+00 0. -1.
        -13    1    3    3    0    0 -0.45945270855E+03 -0.10431285908E+04  0.47245460621E+03  0.12338668499E+04  0.00000000000E+00 0.  1.
         22    1    1    2    0    0  0.60151396378E+03  0.13012278742E+04 -0.13109305166E+04  0.19425632161E+04  0.00000000000E+00 0.  1.
<mgrwt>
<rscale>  0 0.34021882E+04</rscale>
<asrwt>0</asrwt>
<pdfrwt beam="1">  1        2 0.21027809E+00 0.34021882E+04</pdfrwt>
<pdfrwt beam="2">  1       -2 0.32571363E+00 0.34021882E+04</pdfrwt>
<totfact> 0.27634613E-01</totfact>
</mgrwt>
</event>
<event>
 6    1  0.1637818E-005  0.3129483E+04  0.7818608E-02  0.8207693E-01
          2   -1    0    0  501    0  0.00000000000E+00  0.00000000000E+00  0.29783000945E+04  0.29783000945E+04  0.00000000000E+00 0. -1.
         -2   -1    0    0    0  501 -0.00000000000E+00 -0.00000000000E+00 -0.82208494648E+03  0.82208494648E+03  0.00000000000E+00 0.  1.
         23    2    1    2    0    0 -0.10711580253E+04  0.60313408086E+03  0.22521366301E+04  0.25673598323E+04  0.89815774561E+02 0.  0.
         11    1    3    3    0    0 -0.89911009996E+03  0.53991650324E+03  0.18902704519E+04  0.21617194970E+04  0.00000000000E+00 0. -1.
        -11    1    3    3    0    0 -0.17204792531E+03  0.63217577624E+02  0.36186617815E+03  0.40564033529E+03  0.00000000000E+00 0.  1.
         22    1    1    2    0    0  0.10711580253E+04 -0.60313408086E+03 -0.95921482026E+02  0.12330252087E+04  0.00000000000E+00 0.  1.
<mgrwt>
<rscale>  0 0.31294828E+04</rscale>
<asrwt>0</asrwt>
<pdfrwt beam="1">  1        2 0.45820001E+00 0.31294828E+04</pdfrwt>
<pdfrwt beam="2">  1       -2 0.12647461E+00 0.31294828E+04</pdfrwt>
<totfact> 0.70787889E-01</totfact>
</mgrwt>
</event>
<event>
 6    1  0.1637818E-005  0.2574472E+04  0.7818608E-02  0.8376925E-01
          2   -1    0    0  501    0  0.00000000000E+00  0.00000000000E+00  0.93946042852E+03  0.93946042852E+03  0.00000000000E+00 0.  1.
         -2   -1    0    0    0  501 -0.00000000000E+00 -0.00000000000E+00 -0.17637528049E+04  0.17637528049E+04  0.00000000000E+00 0. -1.
         23    2    1    2    0    0  0.49991609061E+03  0.42180270510E+03  0.74954135346E+03  0.99886989099E+03  0.89973323324E+02 0.  0.
         11    1    3    3    0    0  0.97383610107E+02  0.94976239088E+02  0.10610566392E+03  0.17251801478E+03  0.00000000000E+00 0. -1.
        -11    1    3    3    0    0  0.40253248051E+03  0.32682646601E+03  0.64343568954E+03  0.82635187621E+03  0.00000000000E+00 0.  1.
         22    1    1    2    0    0 -0.49991609061E+03 -0.42180270510E+03 -0.15738337298E+04  0.17043433424E+04  0.00000000000E+00 0. -1.
<mgrwt>
<rscale>  0 0.25744716E+04</rscale>
<asrwt>0</asrwt>
<pdfrwt beam="1">  1        2 0.14453237E+00 0.25744716E+04</pdfrwt>
<pdfrwt beam="2">  1       -2 0.27134658E+00 0.25744716E+04</pdfrwt>
<totfact> 0.11630141E+00</totfact>
</mgrwt>
</event>
<event>
 6    1  0.1637818E-005  0.2209312E+04  0.7818608E-02  0.8514562E-01
         -1   -1    0    0    0  501 -0.00000000000E+00  0.00000000000E+00  0.53401271158E+03  0.53401271158E+03  0.00000000000E+00 0.  1.
          1   -1    0    0  501    0  0.00000000000E+00 -0.00000000000E+00 -0.22850866810E+04  0.22850866810E+04  0.00000000000E+00 0. -1.
         23    2    1    2    0    0  0.56576228303E+03 -0.94499108927E+03 -0.80595218003E+03  0.13677723046E+04  0.90260960013E+02 0.  0.
         13    1    3    3    0    0  0.51385262845E+03 -0.80358484530E+03 -0.71160877710E+03  0.11900336882E+04  0.00000000000E+00 0. -1.
        -13    1    3    3    0    0  0.51909654576E+02 -0.14140624397E+03 -0.94343402937E+02  0.17773861638E+03  0.00000000000E+00 0.  1.
         22    1    1    2    0    0 -0.56576228303E+03  0.94499108927E+03 -0.94512178942E+03  0.14513270881E+04  0.00000000000E+00 0.  1.
<mgrwt>
<rscale>  0 0.22093124E+04</rscale>
<asrwt>0</asrwt>
<pdfrwt beam="1">  1        1 0.35155180E+00 0.22093124E+04</pdfrwt>
<pdfrwt beam="2">  1       -1 0.82155802E-01 0.22093124E+04</pdfrwt>
<totfact> 0.25575398E+00</totfact>
</mgrwt>
</event>
<event>
 6    1  0.1637818E-005  0.4731433E+04  0.7818608E-02  0.7871327E-01
         -2   -1    0    0    0  501 -0.00000000000E+00  0.00000000000E+00  0.45900881350E+04  0.45900881350E+04  0.00000000000E+00 0.  1.
          2   -1    0    0  501    0  0.00000000000E+00 -0.00000000000E+00 -0.12192827398E+04  0.12192827398E+04  0.00000000000E+00 0. -1.
         23    2    1    2    0    0 -0.23119764909E+04 -0.48061978967E+03  0.18414356358E+04  0.29959739001E+04  0.93507928606E+02 0.  0.
         11    1    3    3    0    0 -0.92195031240E+03 -0.23736168033E+03  0.72910851904E+03  0.11991380981E+04  0.00000000000E+00 0. -1.
        -11    1    3    3    0    0 -0.13900261785E+04 -0.24325810934E+03  0.11123271168E+04  0.17968358020E+04  0.00000000000E+00 0.  1.
         22    1    1    2    0    0  0.23119764909E+04  0.48061978967E+03  0.15293697593E+04  0.28133969747E+04  0.00000000000E+00 0. -1.
<mgrwt>
<rscale>  0 0.47314333E+04</rscale>
<asrwt>0</asrwt>
<pdfrwt beam="1">  1        2 0.18758196E+00 0.47314333E+04</pdfrwt>
<pdfrwt beam="2">  1       -2 0.70616740E+00 0.47314333E+04</pdfrwt>
<totfact> 0.29833562E-03</totfact>
</mgrwt>
</event>
<event>
 6    1  0.1637818E-005  0.8402565E+03  0.7818608E-02  0.9503509E-01
          2   -1    0    0  501    0  0.00000000000E+00  0.00000000000E+00  0.13691791905E+04  0.13691791905E+04  0.00000000000E+00 0. -1.
         -2   -1    0    0    0  501 -0.00000000000E+00 -0.00000000000E+00 -0.12891499364E+03  0.12891499364E+03  0.00000000000E+00 0.  1.
         23    2    1    2    0    0  0.12601858528E+03 -0.36616151708E+03  0.36074686150E+03  0.53710215315E+03  0.91572290619E+02 0.  0.
         11    1    3    3    0    0 -0.16291650977E+01 -0.61069124476E+02  0.94507148723E+02  0.11253307648E+03  0.00000000000E+00 0. -1.
        -11    1    3    3    0    0  0.12764775037E+03 -0.30509239260E+03  0.26623971278E+03  0.42456907667E+03  0.00000000000E+00 0.  1.
         22    1    1    2    0    0 -0.12601858528E+03  0.36616151708E+03  0.87951733531E+03  0.96099203094E+03  0.00000000000E+00 0. -1.
<mgrwt>
<rscale>  0 0.84025645E+03</rscale>
<asrwt>0</asrwt>
<pdfrwt beam="1">  1        2 0.21064294E+00 0.84025645E+03</pdfrwt>
<pdfrwt beam="2">  1       -2 0.19833077E-01 0.84025645E+03</pdfrwt>
<totfact> 0.32834670E+02</totfact>
</mgrwt>
</event>
<event>
 6    1  0.1637818E-005  0.1760615E+04  0.7818608E-02  0.8727529E-01
         -2   -1    0    0    0  501 -0.00000000000E+00  0.00000000000E+00  0.62493682459E+03  0.62493682459E+03  0.00000000000E+00 0.  1.
          2   -1    0    0  501    0  0.00000000000E+00 -0.00000000000E+00 -0.12400315915E+04  0.12400315915E+04  0.00000000000E+00 0. -1.
         23    2    1    2    0    0 -0.83886734789E+00 -0.65904172686E+03 -0.92260175840E+03  0.11377151924E+04  0.94154941750E+02 0.  0.
         13    1    3    3    0    0  0.44893465802E+02 -0.31837202655E+03 -0.46766511390E+03  0.56752694149E+03  0.00000000000E+00 0.  1.
        -13    1    3    3    0    0 -0.45732333150E+02 -0.34066970031E+03 -0.45493664450E+03  0.57018825094E+03  0.00000000000E+00 0. -1.
         22    1    1    2    0    0  0.83886734789E+00  0.65904172686E+03  0.30750699152E+03  0.72725322362E+03  0.00000000000E+00 0.  1.
<mgrwt>
<rscale>  0 0.17606151E+04</rscale>
<asrwt>0</asrwt>
<pdfrwt beam="1">  1        2 0.19077409E+00 0.17606151E+04</pdfrwt>
<pdfrwt beam="2">  1       -2 0.96144128E-01 0.17606151E+04</pdfrwt>
<totfact> 0.15390014E+01</totfact>
</mgrwt>
</event>
<event>
 6    1  0.1637818E-005  0.4662983E+04  0.7818608E-02  0.7882708E-01
          2   -1    0    0  501    0  0.00000000000E+00  0.00000000000E+00  0.22850968329E+04  0.22850968329E+04  0.00000000000E+00 0.  1.
         -2   -1    0    0    0  501 -0.00000000000E+00 -0.00000000000E+00 -0.23788278662E+04  0.23788278662E+04  0.00000000000E+00 0. -1.
         23    2    1    2    0    0  0.13853999171E+04  0.17530872713E+04 -0.70948170374E+03  0.23462109983E+04  0.93240813718E+02 0.  0.
         13    1    3    3    0    0  0.85230137549E+03  0.10050682432E+04 -0.41223539569E+03  0.13807671164E+04  0.00000000000E+00 0. -1.
        -13    1    3    3    0    0  0.53309854160E+03  0.74801902809E+03 -0.29724630805E+03  0.96544388190E+03  0.00000000000E+00 0.  1.
         22    1    1    2    0    0 -0.13853999171E+04 -0.17530872713E+04  0.61575067040E+03  0.23177137009E+04  0.00000000000E+00 0.  1.
<mgrwt>
<rscale>  0 0.46629827E+04</rscale>
<asrwt>0</asrwt>
<pdfrwt beam="1">  1        2 0.35155336E+00 0.46629827E+04</pdfrwt>
<pdfrwt beam="2">  1       -2 0.36597352E+00 0.46629827E+04</pdfrwt>
<totfact> 0.42589282E-02</totfact>
</mgrwt>
</event>
<event>
 6    1  0.1637818E-005  0.7721035E+03  0.7818608E-02  0.9601298E-01
          2   -1    0    0  501    0  0.00000000000E+00  0.00000000000E+00  0.68482140904E+03  0.68482140904E+03  0.00000000000E+00 0. -1.
         -2   -1    0    0    0  501 -0.00000000000E+00 -0.00000000000E+00 -0.21762749184E+03  0.21762749184E+03  0.00000000000E+00 0.  1.
         23    2    1    2    0    0  0.30684875941E+03  0.66439825905E+02 -0.15116017022E+02  0.32695495281E+03  0.90003530932E+02 0.  0.
         13    1    3    3    0    0  0.89603973507E+02 -0.75841778373E+01 -0.35199061152E+02  0.96567933227E+02  0.00000000000E+00 0.  1.
        -13    1    3    3    0    0  0.21724478590E+03  0.74024003742E+02  0.20083044130E+02  0.23038701958E+03  0.00000000000E+00 0. -1.
         22    1    1    2    0    0 -0.30684875941E+03 -0.66439825905E+02  0.48230993423E+03  0.57549394807E+03  0.00000000000E+00 0. -1.
<mgrwt>
<rscale>  0 0.77210353E+03</rscale>
<asrwt>0</asrwt>
<pdfrwt beam="1">  1        2 0.10535714E+00 0.77210353E+03</pdfrwt>
<pdfrwt beam="2">  1       -2 0.33481153E-01 0.77210353E+03</pdfrwt>
<totfact> 0.35318184E+02</totfact>
</mgrwt>
</event>
<event>
 6    1  0.1637818E-005  0.1204425E+04  0.7818608E-02  0.9108992E-01
          2   -1    0    0  501    0  0.00000000000E+00  0.00000000000E+00  0.12781697745E+04  0.12781697745E+04  0.00000000000E+00 0.  1.
         -2   -1    0    0    0  501 -0.00000000000E+00 -0.00000000000E+00 -0.28373355014E+03  0.28373355014E+03  0.00000000000E+00 0. -1.
         23    2    1    2    0    0  0.54183182054E+03  0.25346169625E+03  0.53418770954E+03  0.80714955776E+03  0.91155616122E+02 0.  0.
         11    1    3    3    0    0  0.30935977431E+03  0.17579890278E+03  0.36211497214E+03  0.50767704028E+03  0.00000000000E+00 0. -1.
        -11    1    3    3    0    0  0.23247204624E+03  0.77662793474E+02  0.17207273740E+03  0.29947251748E+03  0.00000000000E+00 0.  1.
         22    1    1    2    0    0 -0.54183182054E+03 -0.25346169625E+03  0.46024851479E+03  0.75475376686E+03  0.00000000000E+00 0.  1.
<mgrwt>
<rscale>  0 0.12044246E+04</rscale>
<asrwt>0</asrwt>
<pdfrwt beam="1">  1        2 0.19664150E+00 0.12044246E+04</pdfrwt>
<pdfrwt beam="2">  1       -2 0.43651316E-01 0.12044246E+04</pdfrwt>
<totfact> 0.83536921E+01</totfact>
</mgrwt>
</event>
<event>
 6    1  0.1637818E-005  0.3075056E+03  0.7818608E-02  0.1081548E+00
          2   -1    0    0  501    0  0.00000000000E+00  0.00000000000E+00  0.10518926877E+04  0.10518926877E+04  0.00000000000E+00 0. -1.
         -2   -1    0    0    0  501 -0.00000000000E+00 -0.00000000000E+00 -0.22473706391E+02  0.22473706391E+02  0.00000000000E+00 0.  1.
         23    2    1    2    0    0 -0.37843020545E+02  0.15710018400E+02  0.10286143066E+04  0.10333841250E+04  0.90313116778E+02 0.  0.
         11    1    3    3    0    0  0.22354692985E+02  0.51305217710E+01  0.93407770904E+02  0.96182463149E+02  0.00000000000E+00 0. -1.
        -11    1    3    3    0    0 -0.60197713531E+02  0.10579496629E+02  0.93520653571E+03  0.93720166181E+03  0.00000000000E+00 0.  1.
         22    1    1    2    0    0  0.37843020545E+02 -0.15710018400E+02  0.80467469701E+00  0.40982269135E+02  0.00000000000E+00 0.  1.
<mgrwt>
<rscale>  0 0.30750563E+03</rscale>
<asrwt>0</asrwt>
<pdfrwt beam="1">  1        2 0.16182961E+00 0.30750563E+03</pdfrwt>
<pdfrwt beam="2">  1       -2 0.34574941E-02 0.30750563E+03</pdfrwt>
<totfact> 0.83712815E+03</totfact>
</mgrwt>
</event>
<event>
 6    1  0.1637818E-005  0.1249800E+04  0.7818608E-02  0.9070350E-01
          1   -1    0    0  501    0  0.00000000000E+00  0.00000000000E+00  0.68032918248E+03  0.68032918248E+03  0.00000000000E+00 0. -1.
         -1   -1    0    0    0  501 -0.00000000000E+00 -0.00000000000E+00 -0.57398650110E+03  0.57398650110E+03  0.00000000000E+00 0.  1.
         23    2    1    2    0    0  0.34936361152E+03 -0.86003281027E+01 -0.46231154870E+03  0.58686041760E+03  0.92435290774E+02 0.  0.
         13    1    3    3    0    0  0.16123287779E+03 -0.63155309907E+01 -0.13986475246E+03  0.21353705953E+03  0.00000000000E+00 0. -1.
        -13    1    3    3    0    0  0.18813073374E+03 -0.22847971120E+01 -0.32244679624E+03  0.37332335807E+03  0.00000000000E+00 0.  1.
         22    1    1    2    0    0 -0.34936361152E+03  0.86003281027E+01  0.56865423008E+03  0.66745526598E+03  0.00000000000E+00 0. -1.
<mgrwt>
<rscale>  0 0.12497996E+04</rscale>
<asrwt>0</asrwt>
<pdfrwt beam="1">  1        1 0.10466603E+00 0.12497996E+04</pdfrwt>
<pdfrwt beam="2">  1       -1 0.88305615E-01 0.12497996E+04</pdfrwt>
<totfact> 0.35355331E+01</totfact>
</mgrwt>
</event>
<event>
 6    1  0.1637818E-005  0.7022021E+03  0.7818608E-02  0.9713474E-01
         -1   -1    0    0    0  501 -0.00000000000E+00  0.00000000000E+00  0.69508747566E+02  0.69508747566E+02  0.00000000000E+00 0.  1.
          1   -1    0    0  501    0  0.00000000000E+00 -0.00000000000E+00 -0.17734740566E+04  0.17734740566E+04  0.00000000000E+00 0. -1.
         23    2    1    2    0    0 -0.29832115669E+03 -0.87690646009E+02 -0.12599870496E+04  0.13009478821E+04  0.90624857267E+02 0.  0.
         11    1    3    3    0    0 -0.15664453662E+03 -0.28056363343E+02 -0.80844246392E+03  0.82395624146E+03  0.00000000000E+00 0. -1.
        -11    1    3    3    0    0 -0.14167662007E+03 -0.59634282667E+02 -0.45154458567E+03  0.47699164059E+03  0.00000000000E+00 0.  1.
         22    1    1    2    0    0  0.29832115669E+03  0.87690646009E+02 -0.44397825943E+03  0.54203492210E+03  0.00000000000E+00 0.  1.
<mgrwt>
<rscale>  0 0.70220214E+03</rscale>
<asrwt>0</asrwt>
<pdfrwt beam="1">  1        1 0.27284217E+00 0.70220214E+03</pdfrwt>
<pdfrwt beam="2">  1       -1 0.10693653E-01 0.70220214E+03</pdfrwt>
<totfact> 0.24755620E+02</totfact>
</mgrwt>
</event>
<event>
 6    1  0.1637818E-005  0.1749535E+04  0.7818608E-02  0.8733606E-01
         -1   -1    0    0    0  501 -0.00000000000E+00  0.00000000000E+00  0.36981071595E+03  0.36981071595E+03  0.00000000000E+00 0.  1.
          1   -1    0    0  501    0  0.00000000000E+00 -0.00000000000E+00 -0.20692161321E+04  0.20692161321E+04  0.00000000000E+00 0. -1.
         23    2    1    2    0    0  0.61869359602E+02 -0.78818624138E+03 -0.33815523020E+03  0.86483898204E+03  0.92369564242E+02 0.  0.
         11    1    3    3    0    0  0.82557989372E+02 -0.47718328872E+03 -0.20912763724E+03  0.52749794435E+03  0.00000000000E+00 0. -1.
        -11    1    3    3    0    0 -0.20688629770E+02 -0.31100295266E+03 -0.12902759296E+03  0.33734103769E+03  0.00000000000E+00 0.  1.
         22    1    1    2    0    0 -0.61869359602E+02  0.78818624138E+03 -0.13612501859E+04  0.15741878660E+04  0.00000000000E+00 0. -1.
<mgrwt>
<rscale>  0 0.17495351E+04</rscale>
<asrwt>0</asrwt>
<pdfrwt beam="1">  1        1 0.31834094E+00 0.17495351E+04</pdfrwt>
<pdfrwt beam="2">  1       -1 0.56893956E-01 0.17495351E+04</pdfrwt>
<totfact> 0.79284416E+00</totfact>
</mgrwt>
</event>
<event>
 6    1  0.1637818E-005  0.8383330E+03  0.7818608E-02  0.9506131E-01
         -1   -1    0    0    0  501 -0.00000000000E+00  0.00000000000E+00  0.63118630439E+03  0.63118630439E+03  0.00000000000E+00 0.  1.
          1   -1    0    0  501    0  0.00000000000E+00 -0.00000000000E+00 -0.27836560590E+03  0.27836560590E+03  0.00000000000E+00 0. -1.
         23    2    1    2    0    0 -0.17429179809E+03  0.30395352003E+02  0.58523800090E+03  0.61745721542E+03  0.86304037397E+02 0.  0.
         11    1    3    3    0    0 -0.89010513509E+02  0.56969910304E+02  0.27469901789E+03  0.29432633696E+03  0.00000000000E+00 0.  1.
        -11    1    3    3    0    0 -0.85281284580E+02 -0.26574558301E+02  0.31053898301E+03  0.32313087847E+03  0.00000000000E+00 0. -1.
         22    1    1    2    0    0  0.17429179809E+03 -0.30395352003E+02 -0.23241730241E+03  0.29209469486E+03  0.00000000000E+00 0. -1.
<mgrwt>
<rscale>  0 0.83833301E+03</rscale>
<asrwt>0</asrwt>
<pdfrwt beam="1">  1        1 0.42825478E-01 0.83833301E+03</pdfrwt>
<pdfrwt beam="2">  1       -1 0.97105585E-01 0.83833301E+03</pdfrwt>
<totfact> 0.99621445E+01</totfact>
</mgrwt>
</event>
<event>
 6    1  0.1637818E-005  0.2686362E+04  0.7818608E-02  0.8339443E-01
          1   -1    0    0  501    0  0.00000000000E+00  0.00000000000E+00  0.21634589934E+04  0.21634589934E+04  0.00000000000E+00 0. -1.
         -1   -1    0    0    0  501 -0.00000000000E+00 -0.00000000000E+00 -0.83391265890E+03  0.83391265890E+03  0.00000000000E+00 0.  1.
         23    2    1    2    0    0 -0.27438276488E+03  0.12972270158E+04  0.43717474881E+03  0.13991192069E+04  0.91263146391E+02 0.  0.
         11    1    3    3    0    0 -0.79758394933E+02  0.36947763898E+03  0.16843323241E+03  0.41381744894E+03  0.00000000000E+00 0. -1.
        -11    1    3    3    0    0 -0.19462436994E+03  0.92774937684E+03  0.26874151641E+03  0.98530175796E+03  0.00000000000E+00 0.  1.
         22    1    1    2    0    0  0.27438276488E+03 -0.12972270158E+04  0.89237158565E+03  0.15982524454E+04  0.00000000000E+00 0.  1.
<mgrwt>
<rscale>  0 0.26863625E+04</rscale>
<asrwt>0</asrwt>
<pdfrwt beam="1">  1        1 0.33283984E+00 0.26863625E+04</pdfrwt>
<pdfrwt beam="2">  1       -1 0.12829426E+00 0.26863625E+04</pdfrwt>
<totfact> 0.10572468E+00</totfact>
</mgrwt>
</event>
<event>
 6    1  0.1637818E-005  0.9631813E+03  0.7818608E-02  0.9349875E-01
          2   -1    0    0  501    0  0.00000000000E+00  0.00000000000E+00  0.10101723648E+04  0.10101723648E+04  0.00000000000E+00 0. -1.
         -2   -1    0    0    0  501 -0.00000000000E+00 -0.00000000000E+00 -0.22959402117E+03  0.22959402117E+03  0.00000000000E+00 0.  1.
         23    2    1    2    0    0  0.27109162838E+03 -0.31353447321E+03  0.87112560084E+02  0.43187448119E+03  0.84453729973E+02 0.  0.
         13    1    3    3    0    0  0.18496997788E+03 -0.22469298722E+03  0.21513560196E+02  0.29182814206E+03  0.00000000000E+00 0.  1.
        -13    1    3    3    0    0  0.86121650500E+02 -0.88841485989E+02  0.65598999887E+02  0.14004633913E+03  0.00000000000E+00 0. -1.
         22    1    1    2    0    0 -0.27109162838E+03  0.31353447321E+03  0.69346578358E+03  0.80789190481E+03  0.00000000000E+00 0. -1.
<mgrwt>
<rscale>  0 0.96318126E+03</rscale>
<asrwt>0</asrwt>
<pdfrwt beam="1">  1        2 0.15541113E+00 0.96318126E+03</pdfrwt>
<pdfrwt beam="2">  1       -2 0.35322158E-01 0.96318126E+03</pdfrwt>
<totfact> 0.18656729E+02</totfact>
</mgrwt>
</event>
<event>
 6    1  0.1637818E-005  0.2982852E+04  0.7818608E-02  0.8248645E-01
          2   -1    0    0  501    0  0.00000000000E+00  0.00000000000E+00  0.23068398075E+04  0.23068398075E+04  0.00000000000E+00 0. -1.
         -2   -1    0    0    0  501 -0.00000000000E+00 -0.00000000000E+00 -0.96424169672E+03  0.96424169672E+03  0.00000000000E+00 0.  1.
         23    2    1    2    0    0  0.11278970730E+04  0.10409987751E+03 -0.38947803202E+03  0.12015220448E+04  0.94728532268E+02 0.  0.
         13    1    3    3    0    0  0.93696011715E+03  0.97273613712E+02 -0.35880509504E+03  0.10080166235E+04  0.00000000000E+00 0. -1.
        -13    1    3    3    0    0  0.19093695586E+03  0.68262638005E+01 -0.30672936986E+02  0.19350542125E+03  0.00000000000E+00 0.  1.
         22    1    1    2    0    0 -0.11278970730E+04 -0.10409987751E+03  0.17320761428E+04  0.20695594595E+04  0.00000000000E+00 0. -1.
<mgrwt>
<rscale>  0 0.29828517E+04</rscale>
<asrwt>0</asrwt>
<pdfrwt beam="1">  1        2 0.35489843E+00 0.29828517E+04</pdfrwt>
<pdfrwt beam="2">  1       -2 0.14834488E+00 0.29828517E+04</pdfrwt>
<totfact> 0.11883654E+00</totfact>
</mgrwt>
</event>
<event>
 6    1  0.1637818E-005  0.4897486E+04  0.7818608E-02  0.7844519E-01
          1   -1    0    0  501    0  0.00000000000E+00  0.00000000000E+00  0.22610769795E+04  0.22610769795E+04  0.00000000000E+00 0. -1.
         -1   -1    0    0    0  501 -0.00000000000E+00 -0.00000000000E+00 -0.26519845444E+04  0.26519845444E+04  0.00000000000E+00 0.  1.
         23    2    1    2    0    0 -0.19101550793E+04  0.60891175616E+03 -0.16045285173E+04  0.25694869528E+04  0.91024634467E+02 0.  0.
         11    1    3    3    0    0 -0.39882530445E+03  0.12087412248E+03 -0.28776292849E+03  0.50643822917E+03  0.00000000000E+00 0. -1.
        -11    1    3    3    0    0 -0.15113297749E+04  0.48803763368E+03 -0.13167655888E+04  0.20630487237E+04  0.00000000000E+00 0.  1.
         22    1    1    2    0    0  0.19101550793E+04 -0.60891175616E+03  0.12136209525E+04  0.23435745710E+04  0.00000000000E+00 0.  1.
<mgrwt>
<rscale>  0 0.48974856E+04</rscale>
<asrwt>0</asrwt>
<pdfrwt beam="1">  1        1 0.34785800E+00 0.48974856E+04</pdfrwt>
<pdfrwt beam="2">  1       -1 0.40799762E+00 0.48974856E+04</pdfrwt>
<totfact> 0.90869175E-03</totfact>
</mgrwt>
</event>
<event>
 6    1  0.1637818E-005  0.2145392E+04  0.7818608E-02  0.8541507E-01
          2   -1    0    0  501    0  0.00000000000E+00  0.00000000000E+00  0.22623430237E+04  0.22623430237E+04  0.00000000000E+00 0. -1.
         -2   -1    0    0    0  501 -0.00000000000E+00 -0.00000000000E+00 -0.50862175920E+03  0.50862175920E+03  0.00000000000E+00 0.  1.
         23    2    1    2    0    0  0.35124969126E+03  0.35747285152E+03  0.21005907594E+04  0.21614718529E+04  0.91191269117E+02 0.  0.
         13    1    3    3    0    0  0.61241061785E+02  0.86131498338E+02  0.59876727348E+03  0.60802249173E+03  0.00000000000E+00 0.  1.
        -13    1    3    3    0    0  0.29000862948E+03  0.27134135319E+03  0.15018234859E+04  0.15534493612E+04  0.00000000000E+00 0. -1.
         22    1    1    2    0    0 -0.35124969126E+03 -0.35747285152E+03 -0.34686949486E+03  0.60949292995E+03  0.00000000000E+00 0.  1.
<mgrwt>
<rscale>  0 0.21453922E+04</rscale>
<asrwt>0</asrwt>
<pdfrwt beam="1">  1        2 0.34805277E+00 0.21453922E+04</pdfrwt>
<pdfrwt beam="2">  1       -2 0.78249503E-01 0.21453922E+04</pdfrwt>
<totfact> 0.63511249E+00</totfact>
</mgrwt>
</event>
<event>
 6    1  0.1637818E-005  0.8647931E+03  0.7818608E-02  0.9470694E-01
         -2   -1    0    0    0  501 -0.00000000000E+00  0.00000000000E+00  0.18369402446E+03  0.18369402446E+03  0.00000000000E+00 0.  1.
          2   -1    0    0  501    0  0.00000000000E+00 -0.00000000000E+00 -0.10178163108E+04  0.10178163108E+04  0.00000000000E+00 0. -1.
         23    2    1    2    0    0  0.23909516475E+03 -0.10219771299E+02 -0.91389062787E+03  0.94925266973E+03  0.92809534841E+02 0.  0.
         11    1    3    3    0    0  0.10317748524E+03 -0.12690243378E+02 -0.57122711109E+03  0.58060920435E+03  0.00000000000E+00 0.  1.
        -11    1    3    3    0    0  0.13591767951E+03  0.24704720793E+01 -0.34266351678E+03  0.36864346538E+03  0.00000000000E+00 0. -1.
         22    1    1    2    0    0 -0.23909516475E+03  0.10219771299E+02  0.79768341488E+02  0.25225766556E+03  0.00000000000E+00 0.  1.
<mgrwt>
<rscale>  0 0.86479310E+03</rscale>
<asrwt>0</asrwt>
<pdfrwt beam="1">  1        2 0.15658713E+00 0.86479310E+03</pdfrwt>
<pdfrwt beam="2">  1       -2 0.28260619E-01 0.86479310E+03</pdfrwt>
<totfact> 0.28176709E+02</totfact>
</mgrwt>
</event>
<event>
 6    1  0.1637818E-005  0.1892891E+04  0.7818608E-02  0.8658403E-01
         -2   -1    0    0    0  501 -0.00000000000E+00  0.00000000000E+00  0.11512308764E+04  0.11512308764E+04  0.00000000000E+00 0. -1.
          2   -1    0    0  501    0  0.00000000000E+00 -0.00000000000E+00 -0.77808799183E+03  0.77808799183E+03  0.00000000000E+00 0.  1.
         23    2    1    2    0    0 -0.54500106905E+03  0.14328814892E+03  0.95921272498E+03  0.11162779611E+04  0.91813810921E+02 0.  0.
         11    1    3    3    0    0 -0.25093366566E+03  0.95764742598E+02  0.38546866631E+03  0.46981345574E+03  0.00000000000E+00 0. -1.
        -11    1    3    3    0    0 -0.29406740339E+03  0.47523406327E+02  0.57374405866E+03  0.64646450540E+03  0.00000000000E+00 0.  1.
         22    1    1    2    0    0  0.54500106905E+03 -0.14328814892E+03 -0.58606984037E+03  0.81304090714E+03  0.00000000000E+00 0.  1.
<mgrwt>
<rscale>  0 0.18928908E+04</rscale>
<asrwt>0</asrwt>
<pdfrwt beam="1">  1        2 0.11970584E+00 0.18928908E+04</pdfrwt>
<pdfrwt beam="2">  1       -2 0.17711244E+00 0.18928908E+04</pdfrwt>
<totfact> 0.63561879E+00</totfact>
</mgrwt>
</event>
<event>
 6    1  0.1637818E-005  0.2979608E+04  0.7818608E-02  0.8249578E-01
          2   -1    0    0  501    0  0.00000000000E+00  0.00000000000E+00  0.33970118364E+04  0.33970118364E+04  0.00000000000E+00 0. -1.
         -2   -1    0    0    0  501 -0.00000000000E+00 -0.00000000000E+00 -0.65337313645E+03  0.65337313645E+03  0.00000000000E+00 0.  1.
         23    2    1    2    0    0  0.12345697127E+04  0.48979196692E+02  0.24495914959E+03  0.12629200255E+04  0.91655162502E+02 0.  0.
         11    1    3    3    0    0  0.10879955887E+04  0.15274443668E+02  0.20422915614E+03  0.11071030927E+04  0.00000000000E+00 0. -1.
        -11    1    3    3    0    0  0.14657412394E+03  0.33704753024E+02  0.40729993444E+02  0.15581693281E+03  0.00000000000E+00 0.  1.
         22    1    1    2    0    0 -0.12345697127E+04 -0.48979196692E+02  0.24986795504E+04  0.27874649473E+04  0.00000000000E+00 0. -1.
<mgrwt>
<rscale>  0 0.29796082E+04</rscale>
<asrwt>0</asrwt>
<pdfrwt beam="1">  1        2 0.52261720E+00 0.29796082E+04</pdfrwt>
<pdfrwt beam="2">  1       -2 0.10051895E+00 0.29796082E+04</pdfrwt>
<totfact> 0.66965198E-01</totfact>
</mgrwt>
</event>
<event>
 6    1  0.1637818E-005  0.6259547E+03  0.7818608E-02  0.9852975E-01
          2   -1    0    0  501    0  0.00000000000E+00  0.00000000000E+00  0.79261552861E+03  0.79261552861E+03  0.00000000000E+00 0. -1.
         -2   -1    0    0    0  501 -0.00000000000E+00 -0.00000000000E+00 -0.12358426495E+03  0.12358426495E+03  0.00000000000E+00 0.  1.
         23    2    1    2    0    0  0.17321990488E+03 -0.52636158067E+02 -0.19947136785E+02  0.20383265728E+03  0.91510454717E+02 0.  0.
         13    1    3    3    0    0 -0.14979069352E+01 -0.12654905962E+02 -0.21036690992E+02  0.24595380420E+02  0.00000000000E+00 0. -1.
        -13    1    3    3    0    0  0.17471781182E+03 -0.39981252104E+02  0.10895542067E+01  0.17923727686E+03  0.00000000000E+00 0.  1.
         22    1    1    2    0    0 -0.17321990488E+03  0.52636158067E+02  0.68897840044E+03  0.71236713628E+03  0.00000000000E+00 0. -1.
<mgrwt>
<rscale>  0 0.62595465E+03</rscale>
<asrwt>0</asrwt>
<pdfrwt beam="1">  1        2 0.12194085E+00 0.62595465E+03</pdfrwt>
<pdfrwt beam="2">  1       -2 0.19012964E-01 0.62595465E+03</pdfrwt>
<totfact> 0.81774940E+02</totfact>
</mgrwt>
</event>
<event>
 6    1  0.1637818E-005  0.4332906E+04  0.7818608E-02  0.7940561E-01
          2   -1    0    0  501    0  0.00000000000E+00  0.00000000000E+00  0.34525827491E+04  0.34525827491E+04  0.00000000000E+00 0.  1.
         -2   -1    0    0    0  501 -0.00000000000E+00 -0.00000000000E+00 -0.13594227866E+04  0.13594227866E+04  0.00000000000E+00 0. -1.
         23    2    1    2    0    0 -0.84919429543E+03  0.38884725147E+02  0.32589379046E+04  0.33692022978E+04  0.90580817648E+02 0.  0.
         11    1    3    3    0    0 -0.24211375229E+03  0.33823519017E+02  0.80644615273E+03  0.84268528927E+03  0.00000000000E+00 0. -1.
        -11    1    3    3    0    0 -0.60708054314E+03  0.50612061301E+01  0.24524917518E+04  0.25265170086E+04  0.00000000000E+00 0.  1.
         22    1    1    2    0    0  0.84919429543E+03 -0.38884725147E+02 -0.11657779421E+04  0.14428032380E+04  0.00000000000E+00 0. -1.
<mgrwt>
<rscale>  0 0.43329065E+04</rscale>
<asrwt>0</asrwt>
<pdfrwt beam="1">  1        2 0.53116658E+00 0.43329065E+04</pdfrwt>
<pdfrwt beam="2">  1       -2 0.20914197E+00 0.43329065E+04</pdfrwt>
<totfact> 0.77997773E-02</totfact>
</mgrwt>
</event>
<event>
 6    1  0.1637818E-005  0.1457498E+04  0.7818608E-02  0.8913219E-01
         -2   -1    0    0    0  501 -0.00000000000E+00  0.00000000000E+00  0.43241021419E+03  0.43241021419E+03  0.00000000000E+00 0.  1.
          2   -1    0    0  501    0  0.00000000000E+00 -0.00000000000E+00 -0.12281748601E+04  0.12281748601E+04  0.00000000000E+00 0. -1.
         23    2    1    2    0    0  0.72956304657E+01 -0.33817111978E+03  0.33227960825E+03  0.48291925930E+03  0.91587883845E+02 0.  0.
         13    1    3    3    0    0  0.43328264082E+02 -0.20184452357E+03  0.16603192392E+03  0.26492480051E+03  0.00000000000E+00 0.  1.
        -13    1    3    3    0    0 -0.36032633616E+02 -0.13632659622E+03  0.16624768433E+03  0.21799445879E+03  0.00000000000E+00 0. -1.
         22    1    1    2    0    0 -0.72956304657E+01  0.33817111978E+03 -0.11280442541E+04  0.11776658150E+04  0.00000000000E+00 0. -1.
<mgrwt>
<rscale>  0 0.14574983E+04</rscale>
<asrwt>0</asrwt>
<pdfrwt beam="1">  1        2 0.18894998E+00 0.14574983E+04</pdfrwt>
<pdfrwt beam="2">  1       -2 0.66524649E-01 0.14574983E+04</pdfrwt>
<totfact> 0.36678166E+01</totfact>
</mgrwt>
</event>
<event>
 6    1  0.1637818E-005  0.5108337E+04  0.7818608E-02  0.7812009E-01
         -2   -1    0    0    0  501 -0.00000000000E+00  0.00000000000E+00  0.33827898880E+04  0.33827898880E+04  0.00000000000E+00 0. -1.
          2   -1    0    0  501    0  0.00000000000E+00 -0.00000000000E+00 -0.19285193522E+04  0.19285193522E+04  0.00000000000E+00 0.  1.
         23    2    1    2    0    0 -0.20836528525E+04 -0.12786663580E+04 -0.39046994953E+02  0.24465938769E+04  0.87750020168E+02 0.  0.
         13    1    3    3    0    0 -0.64192147800E+03 -0.43106077377E+03 -0.38099491379E+02  0.77416286778E+03  0.00000000000E+00 0. -1.
        -13    1    3    3    0    0 -0.14417313745E+04 -0.84760558419E+03 -0.94750357376E+00  0.16724310091E+04  0.00000000000E+00 0.  1.
         22    1    1    2    0    0  0.20836528525E+04  0.12786663580E+04  0.14933175308E+04  0.28647153633E+04  0.00000000000E+00 0. -1.
<mgrwt>
<rscale>  0 0.51083366E+04</rscale>
<asrwt>0</asrwt>
<pdfrwt beam="1">  1        2 0.29669528E+00 0.51083366E+04</pdfrwt>
<pdfrwt beam="2">  1       -2 0.52042921E+00 0.51083366E+04</pdfrwt>
<totfact> 0.66245166E-03</totfact>
</mgrwt>
</event>
<event>
 6    1  0.1637818E-005  0.1632988E+04  0.7818608E-02  0.8800535E-01
         -2   -1    0    0    0  501 -0.00000000000E+00  0.00000000000E+00  0.41359778855E+03  0.41359778855E+03  0.00000000000E+00 0. -1.
          2   -1    0    0  501    0  0.00000000000E+00 -0.00000000000E+00 -0.16118608690E+04  0.16118608690E+04  0.00000000000E+00 0.  1.
         23    2    1    2    0    0 -0.40536633463E+03  0.53093690410E+03 -0.11776799787E+04  0.13571477079E+04  0.93294733785E+02 0.  0.
         11    1    3    3    0    0 -0.30721396040E+03  0.34770898679E+03 -0.86696560639E+03  0.98331649006E+03  0.00000000000E+00 0. -1.
        -11    1    3    3    0    0 -0.98152374227E+02  0.18322791731E+03 -0.31071437234E+03  0.37383121783E+03  0.00000000000E+00 0.  1.
         22    1    1    2    0    0  0.40536633463E+03 -0.53093690410E+03 -0.20583101755E+02  0.66831094968E+03  0.00000000000E+00 0. -1.
<mgrwt>
<rscale>  0 0.16329876E+04</rscale>
<asrwt>0</asrwt>
<pdfrwt beam="1">  1        2 0.24797859E+00 0.16329876E+04</pdfrwt>
<pdfrwt beam="2">  1       -2 0.63630430E-01 0.16329876E+04</pdfrwt>
<totfact> 0.24004679E+01</totfact>
</mgrwt>
</event>
<event>
 6    1  0.1637818E-005  0.3867175E+04  0.7818608E-02  0.8031891E-01
         -2   -1    0    0    0  501 -0.00000000000E+00  0.00000000000E+00  0.24268646413E+04  0.24268646413E+04  0.00000000000E+00 0.  1.
          2   -1    0    0  501    0  0.00000000000E+00 -0.00000000000E+00 -0.15405723764E+04  0.15405723764E+04  0.00000000000E+00 0. -1.
         23    2    1    2    0    0 -0.12730939770E+04 -0.13792042216E+04 -0.28763055069E+02  0.18793041680E+04  0.89354817198E+02 0.  0.
         11    1    3    3    0    0 -0.51765026890E+03 -0.57307775987E+03  0.31341606342E+02  0.77289211151E+03  0.00000000000E+00 0.  1.
        -11    1    3    3    0    0 -0.75544370811E+03 -0.80612646178E+03 -0.60104661411E+02  0.11064120565E+04  0.00000000000E+00 0. -1.
         22    1    1    2    0    0  0.12730939770E+04  0.13792042216E+04  0.91505531994E+03  0.20881328497E+04  0.00000000000E+00 0.  1.
<mgrwt>
<rscale>  0 0.38671750E+04</rscale>
<asrwt>0</asrwt>
<pdfrwt beam="1">  1        2 0.23701113E+00 0.38671750E+04</pdfrwt>
<pdfrwt beam="2">  1       -2 0.37336379E+00 0.38671750E+04</pdfrwt>
<totfact> 0.10603282E-01</totfact>
</mgrwt>
</event>
<event>
 6    1  0.1637818E-005  0.2661983E+04  0.7818608E-02  0.8347447E-01
          2   -1    0    0  501    0  0.00000000000E+00  0.00000000000E+00  0.86636064045E+03  0.86636064045E+03  0.00000000000E+00 0. -1.
         -2   -1    0    0    0  501 -0.00000000000E+00 -0.00000000000E+00 -0.20448042293E+04  0.20448042293E+04  0.00000000000E+00 0.  1.
         23    2    1    2    0    0  0.10654081746E+04 -0.78373234710E+03 -0.43939321519E+03  0.13960653927E+04  0.81247848061E+02 0.  0.
         11    1    3    3    0    0  0.77849684020E+03 -0.54115850253E+03 -0.34232366352E+03  0.10080155483E+04  0.00000000000E+00 0.  1.
        -11    1    3    3    0    0  0.28691133442E+03 -0.24257384458E+03 -0.97069551674E+02  0.38804984442E+03  0.00000000000E+00 0. -1.
         22    1    1    2    0    0 -0.10654081746E+04  0.78373234710E+03 -0.73905037369E+03  0.15150994770E+04  0.00000000000E+00 0.  1.
<mgrwt>
<rscale>  0 0.26619826E+04</rscale>
<asrwt>0</asrwt>
<pdfrwt beam="1">  1        2 0.13328625E+00 0.26619826E+04</pdfrwt>
<pdfrwt beam="2">  1       -2 0.31458526E+00 0.26619826E+04</pdfrwt>
<totfact> 0.70367224E-01</totfact>
</mgrwt>
</event>
<event>
 6    1  0.1637818E-005  0.4985091E+03  0.7818608E-02  0.1014169E+00
         -2   -1    0    0    0  501 -0.00000000000E+00  0.00000000000E+00  0.34914823884E+03  0.34914823884E+03  0.00000000000E+00 0.  1.
          2   -1    0    0  501    0  0.00000000000E+00 -0.00000000000E+00 -0.17794110793E+03  0.17794110793E+03  0.00000000000E+00 0. -1.
         23    2    1    2    0    0  0.14969584872E+03 -0.78207136081E+02 -0.93406218150E+02  0.21316988614E+03  0.90506770519E+02 0.  0.
         13    1    3    3    0    0  0.12049703196E+03 -0.14442766586E+02 -0.55476254296E+02  0.13343816174E+03  0.00000000000E+00 0.  1.
        -13    1    3    3    0    0  0.29198816754E+02 -0.63764369496E+02 -0.37929963854E+02  0.79731724395E+02  0.00000000000E+00 0. -1.
         22    1    1    2    0    0 -0.14969584872E+03  0.78207136081E+02  0.26461334906E+03  0.31391946062E+03  0.00000000000E+00 0.  1.
<mgrwt>
<rscale>  0 0.49850907E+03</rscale>
<asrwt>0</asrwt>
<pdfrwt beam="1">  1        2 0.27375555E-01 0.49850907E+03</pdfrwt>
<pdfrwt beam="2">  1       -2 0.53715114E-01 0.49850907E+03</pdfrwt>
<totfact> 0.64891822E+02</totfact>
</mgrwt>
</event>
<event>
 6    1  0.1637818E-005  0.1288439E+04  0.7818608E-02  0.9038784E-01
          1   -1    0    0  501    0  0.00000000000E+00  0.00000000000E+00  0.41194197001E+03  0.41194197001E+03  0.00000000000E+00 0. -1.
         -1   -1    0    0    0  501 -0.00000000000E+00 -0.00000000000E+00 -0.10074692980E+04  0.10074692980E+04  0.00000000000E+00 0.  1.
         23    2    1    2    0    0  0.48398955418E+03 -0.41973649888E+03 -0.27734561626E+03  0.70410418798E+03  0.91746932534E+02 0.  0.
         11    1    3    3    0    0  0.27099089699E+03 -0.21120287553E+03 -0.19411264008E+03  0.39461682418E+03  0.00000000000E+00 0.  1.
        -11    1    3    3    0    0  0.21299865719E+03 -0.20853362335E+03 -0.83232976176E+02  0.30948736380E+03  0.00000000000E+00 0. -1.
         22    1    1    2    0    0 -0.48398955418E+03  0.41973649888E+03 -0.31818171170E+03  0.71530708001E+03  0.00000000000E+00 0. -1.
<mgrwt>
<rscale>  0 0.12884392E+04</rscale>
<asrwt>0</asrwt>
<pdfrwt beam="1">  1        1 0.63375688E-01 0.12884392E+04</pdfrwt>
<pdfrwt beam="2">  1       -1 0.15499527E+00 0.12884392E+04</pdfrwt>
<totfact> 0.18103635E+01</totfact>
</mgrwt>
</event>
<event>
 6    1  0.1637818E-005  0.1384474E+04  0.7818608E-02  0.8965135E-01
         -1   -1    0    0    0  501 -0.00000000000E+00  0.00000000000E+00  0.70658928378E+03  0.70658928378E+03  0.00000000000E+00 0.  1.
          1   -1    0    0  501    0  0.00000000000E+00 -0.00000000000E+00 -0.67817589163E+03  0.67817589163E+03  0.00000000000E+00 0. -1.
         23    2    1    2    0    0 -0.48830886747E+03  0.25840376103E+03  0.42641289921E+03  0.70386748752E+03  0.91561048566E+02 0.  0.
         13    1    3    3    0    0 -0.18781045249E+03  0.86124333976E+02  0.10692607811E+03  0.23264426309E+03  0.00000000000E+00 0.  1.
        -13    1    3    3    0    0 -0.30049841497E+03  0.17227942705E+03  0.31948682109E+03  0.47122322442E+03  0.00000000000E+00 0. -1.
         22    1    1    2    0    0  0.48830886747E+03 -0.25840376103E+03 -0.39799950705E+03  0.68089768789E+03  0.00000000000E+00 0. -1.
<mgrwt>
<rscale>  0 0.13844736E+04</rscale>
<asrwt>0</asrwt>
<pdfrwt beam="1">  1        1 0.10433475E+00 0.13844736E+04</pdfrwt>
<pdfrwt beam="2">  1       -1 0.10870604E+00 0.13844736E+04</pdfrwt>
<totfact> 0.21909424E+01</totfact>
</mgrwt>
</event>
<event>
 6    1  0.1637818E-005  0.1916996E+04  0.7818608E-02  0.8646442E-01
         -2   -1    0    0    0  501 -0.00000000000E+00  0.00000000000E+00  0.63129567347E+03  0.63129567347E+03  0.00000000000E+00 0.  1.
          2   -1    0    0  501    0  0.00000000000E+00 -0.00000000000E+00 -0.14552897667E+04  0.14552897667E+04  0.00000000000E+00 0. -1.
         23    2    1    2    0    0 -0.31997649630E+01  0.91432028628E+03 -0.71808089803E+03  0.11661456381E+04  0.90904613015E+02 0.  0.
         11    1    3    3    0    0  0.31143780867E+01  0.77378201593E+03 -0.56411375715E+03  0.95758688302E+03  0.00000000000E+00 0.  1.
        -11    1    3    3    0    0 -0.63141430497E+01  0.14053827034E+03 -0.15396714088E+03  0.20855875504E+03  0.00000000000E+00 0. -1.
         22    1    1    2    0    0  0.31997649630E+01 -0.91432028628E+03 -0.10591319521E+03  0.92043980211E+03  0.00000000000E+00 0.  1.
<mgrwt>
<rscale>  0 0.19169957E+04</rscale>
<asrwt>0</asrwt>
<pdfrwt beam="1">  1        2 0.22389073E+00 0.19169957E+04</pdfrwt>
<pdfrwt beam="2">  1       -2 0.97122411E-01 0.19169957E+04</pdfrwt>
<totfact> 0.11138874E+01</totfact>
</mgrwt>
</event>
<event>
 6    1  0.1637818E-005  0.2271887E+04  0.7818608E-02  0.8489089E-01
         -2   -1    0    0    0  501 -0.00000000000E+00  0.00000000000E+00  0.27479458504E+03  0.27479458504E+03  0.00000000000E+00 0.  1.
          2   -1    0    0  501    0  0.00000000000E+00 -0.00000000000E+00 -0.46957528394E+04  0.46957528394E+04  0.00000000000E+00 0. -1.
         23    2    1    2    0    0  0.68411386611E+03 -0.17270515652E+03 -0.41566964241E+04  0.42171065390E+04  0.89574250578E+02 0.  0.
         13    1    3    3    0    0  0.62729740523E+03 -0.14588513012E+03 -0.36317061735E+04  0.36883701327E+04  0.00000000000E+00 0. -1.
        -13    1    3    3    0    0  0.56816460880E+02 -0.26820026404E+02 -0.52499025064E+03  0.52873640627E+03  0.00000000000E+00 0.  1.
         22    1    1    2    0    0 -0.68411386611E+03  0.17270515652E+03 -0.26426183025E+03  0.75344088541E+03  0.00000000000E+00 0.  1.
<mgrwt>
<rscale>  0 0.22718868E+04</rscale>
<asrwt>0</asrwt>
<pdfrwt beam="1">  1        2 0.72242347E+00 0.22718868E+04</pdfrwt>
<pdfrwt beam="2">  1       -2 0.42276093E-01 0.22718868E+04</pdfrwt>
<totfact> 0.37826751E-01</totfact>
</mgrwt>
</event>
<event>
 6    1  0.1637818E-005  0.1458648E+04  0.7818608E-02  0.8912427E-01
         -2   -1    0    0    0  501 -0.00000000000E+00  0.00000000000E+00  0.32213559506E+03  0.32213559506E+03  0.00000000000E+00 0.  1.
          2   -1    0    0  501    0  0.00000000000E+00 -0.00000000000E+00 -0.16512090043E+04  0.16512090043E+04  0.00000000000E+00 0. -1.
         23    2    1    2    0    0 -0.12206729703E+01  0.62597595736E+03 -0.11660073256E+04  0.13264768100E+04  0.90112457636E+02 0.  0.
         11    1    3    3    0    0 -0.21977094603E+02  0.58038061120E+03 -0.10961644401E+04  0.12405245367E+04  0.00000000000E+00 0.  1.
        -11    1    3    3    0    0  0.20756421633E+02  0.45595346156E+02 -0.69842885473E+02  0.85952273276E+02  0.00000000000E+00 0. -1.
         22    1    1    2    0    0  0.12206729703E+01 -0.62597595736E+03 -0.16306608367E+03  0.64686778933E+03  0.00000000000E+00 0.  1.
<mgrwt>
<rscale>  0 0.14586476E+04</rscale>
<asrwt>0</asrwt>
<pdfrwt beam="1">  1        2 0.25403216E+00 0.14586476E+04</pdfrwt>
<pdfrwt beam="2">  1       -2 0.49559322E-01 0.14586476E+04</pdfrwt>
<totfact> 0.38983616E+01</totfact>
</mgrwt>
</event>
<event>
 6    1  0.1637818E-005  0.5007269E+04  0.7818608E-02  0.7827387E-01
          2   -1    0    0  501    0  0.00000000000E+00  0.00000000000E+00  0.20483145935E+04  0.20483145935E+04  0.00000000000E+00 0. -1.
         -2   -1    0    0    0  501 -0.00000000000E+00 -0.00000000000E+00 -0.30601670176E+04  0.30601670176E+04  0.00000000000E+00 0.  1.
         23    2    1    2    0    0 -0.15534051135E+04  0.10686013690E+04  0.11731215976E+04  0.22224657054E+04  0.90350408385E+02 0.  0.
         13    1    3    3    0    0 -0.36835282167E+03  0.28482741052E+03  0.25567752879E+03  0.53120754301E+03  0.00000000000E+00 0.  1.
        -13    1    3    3    0    0 -0.11850522919E+04  0.78377395850E+03  0.91744406883E+03  0.16912581624E+04  0.00000000000E+00 0. -1.
         22    1    1    2    0    0  0.15534051135E+04 -0.10686013690E+04 -0.21849740217E+04  0.28860159057E+04  0.00000000000E+00 0.  1.
<mgrwt>
<rscale>  0 0.50072686E+04</rscale>
<asrwt>0</asrwt>
<pdfrwt beam="1">  1        2 0.31512532E+00 0.50072686E+04</pdfrwt>
<pdfrwt beam="2">  1       -2 0.47079492E+00 0.50072686E+04</pdfrwt>
<totfact> 0.11625584E-02</totfact>
</mgrwt>
</event>
<event>
 6    1  0.1637818E-005  0.1209169E+04  0.7818608E-02  0.9104868E-01
         -2   -1    0    0    0  501 -0.00000000000E+00  0.00000000000E+00  0.25258880545E+03  0.25258880545E+03  0.00000000000E+00 0.  1.
          2   -1    0    0  501    0  0.00000000000E+00 -0.00000000000E+00 -0.14471051731E+04  0.14471051731E+04  0.00000000000E+00 0. -1.
         23    2    1    2    0    0 -0.36775930969E+03  0.42149362901E+03 -0.29122965227E+03  0.63722954181E+03  0.91339966208E+02 0.  0.
         11    1    3    3    0    0 -0.14446440869E+03  0.12196653026E+03 -0.13481015164E+03  0.23220589327E+03  0.00000000000E+00 0.  1.
        -11    1    3    3    0    0 -0.22329490100E+03  0.29952709875E+03 -0.15641950063E+03  0.40502364854E+03  0.00000000000E+00 0. -1.
         22    1    1    2    0    0  0.36775930969E+03 -0.42149362901E+03 -0.90328671538E+03  0.10624644367E+04  0.00000000000E+00 0. -1.
<mgrwt>
<rscale>  0 0.12091692E+04</rscale>
<asrwt>0</asrwt>
<pdfrwt beam="1">  1        2 0.22263156E+00 0.12091692E+04</pdfrwt>
<pdfrwt beam="2">  1       -2 0.38859817E-01 0.12091692E+04</pdfrwt>
<totfact> 0.83896369E+01</totfact>
</mgrwt>
</event>
<event>
 6    1  0.1637818E-005  0.4148155E+04  0.7818608E-02  0.7975308E-01
         -2   -1    0    0    0  501 -0.00000000000E+00  0.00000000000E+00  0.19164859530E+04  0.19164859530E+04  0.00000000000E+00 0.  1.
          2   -1    0    0  501    0  0.00000000000E+00 -0.00000000000E+00 -0.22446280293E+04  0.22446280293E+04  0.00000000000E+00 0. -1.
         23    2    1    2    0    0  0.76948951273E+03 -0.15182382252E+04 -0.13500644926E+04  0.21757961630E+04  0.11938756366E+03 0.  0.
         13    1    3    3    0    0  0.61646401466E+03 -0.12924432757E+04 -0.11676248458E+04  0.18476431698E+04  0.00000000000E+00 0. -1.
        -13    1    3    3    0    0  0.15302549807E+03 -0.22579494948E+03 -0.18243964676E+03  0.32815299325E+03  0.00000000000E+00 0.  1.
         22    1    1    2    0    0 -0.76948951273E+03  0.15182382252E+04  0.10219224163E+04  0.19853178193E+04  0.00000000000E+00 0.  1.
<mgrwt>
<rscale>  0 0.41481553E+04</rscale>
<asrwt>0</asrwt>
<pdfrwt beam="1">  1        2 0.34532739E+00 0.41481553E+04</pdfrwt>
<pdfrwt beam="2">  1       -2 0.29484399E+00 0.41481553E+04</pdfrwt>
<totfact> 0.12983711E-01</totfact>
</mgrwt>
</event>
<event>
 6    1  0.1637818E-005  0.3185767E+04  0.7818608E-02  0.8192586E-01
         -2   -1    0    0    0  501 -0.00000000000E+00  0.00000000000E+00  0.11659668696E+04  0.11659668696E+04  0.00000000000E+00 0.  1.
          2   -1    0    0  501    0  0.00000000000E+00 -0.00000000000E+00 -0.21761149264E+04  0.21761149264E+04  0.00000000000E+00 0. -1.
         23    2    1    2    0    0  0.10482880418E+04  0.65903758912E+03 -0.15544304324E+04  0.19894984652E+04  0.92799847711E+02 0.  0.
         11    1    3    3    0    0  0.58804487671E+03  0.42024282525E+03 -0.93100522558E+03  0.11786312143E+04  0.00000000000E+00 0.  1.
        -11    1    3    3    0    0  0.46024316506E+03  0.23879476387E+03 -0.62342520679E+03  0.81086725098E+03  0.00000000000E+00 0. -1.
         22    1    1    2    0    0 -0.10482880418E+04 -0.65903758912E+03  0.54428237552E+03  0.13525833308E+04  0.00000000000E+00 0.  1.
<mgrwt>
<rscale>  0 0.31857670E+04</rscale>
<asrwt>0</asrwt>
<pdfrwt beam="1">  1        2 0.33478691E+00 0.31857670E+04</pdfrwt>
<pdfrwt beam="2">  1       -2 0.17937952E+00 0.31857670E+04</pdfrwt>
<totfact> 0.82228645E-01</totfact>
</mgrwt>
</event>
<event>
 6    1  0.1637818E-005  0.1673367E+04  0.7818608E-02  0.8776702E-01
          1   -1    0    0  501    0  0.00000000000E+00  0.00000000000E+00  0.10725196566E+04  0.10725196566E+04  0.00000000000E+00 0. -1.
         -1   -1    0    0    0  501 -0.00000000000E+00 -0.00000000000E+00 -0.65270533046E+03  0.65270533046E+03  0.00000000000E+00 0.  1.
         23    2    1    2    0    0  0.38512114466E+03  0.62880613128E+03 -0.19144749201E+03  0.76743771573E+03  0.92698751508E+02 0.  0.
         13    1    3    3    0    0  0.23920471718E+03  0.30200991244E+03 -0.10183963321E+03  0.39849742135E+03  0.00000000000E+00 0. -1.
        -13    1    3    3    0    0  0.14591642748E+03  0.32679621884E+03 -0.89607858806E+02  0.36894029438E+03  0.00000000000E+00 0.  1.
         22    1    1    2    0    0 -0.38512114466E+03 -0.62880613128E+03  0.61126181815E+03  0.95778727133E+03  0.00000000000E+00 0. -1.
<mgrwt>
<rscale>  0 0.16733670E+04</rscale>
<asrwt>0</asrwt>
<pdfrwt beam="1">  1        1 0.16500302E+00 0.16733670E+04</pdfrwt>
<pdfrwt beam="2">  1       -1 0.10041621E+00 0.16733670E+04</pdfrwt>
<totfact> 0.11978744E+01</totfact>
</mgrwt>
</event>
<event>
 6    1  0.1637818E-005  0.1119408E+04  0.7818608E-02  0.9186480E-01
          1   -1    0    0  501    0  0.00000000000E+00  0.00000000000E+00  0.11186041277E+04  0.11186041277E+04  0.00000000000E+00 0. -1.
         -1   -1    0    0    0  501 -0.00000000000E+00 -0.00000000000E+00 -0.28005288279E+03  0.28005288279E+03  0.00000000000E+00 0.  1.
         23    2    1    2    0    0  0.10978073372E+03 -0.48232304007E+03  0.10344709473E+03  0.51261782620E+03  0.85955859885E+02 0.  0.
         13    1    3    3    0    0  0.29005951262E+02 -0.24408035121E+03  0.16111000402E+02  0.24632524717E+03  0.00000000000E+00 0.  1.
        -13    1    3    3    0    0  0.80774782461E+02 -0.23824268886E+03  0.87336094329E+02  0.26629257903E+03  0.00000000000E+00 0. -1.
         22    1    1    2    0    0 -0.10978073372E+03  0.48232304007E+03  0.73510415020E+03  0.88603918431E+03  0.00000000000E+00 0. -1.
<mgrwt>
<rscale>  0 0.11194075E+04</rscale>
<asrwt>0</asrwt>
<pdfrwt beam="1">  1        1 0.17209294E+00 0.11194075E+04</pdfrwt>
<pdfrwt beam="2">  1       -1 0.43085059E-01 0.11194075E+04</pdfrwt>
<totfact> 0.64848984E+01</totfact>
</mgrwt>
</event>
<event>
 6    1  0.1637818E-005  0.1708127E+04  0.7818608E-02  0.8756743E-01
         -2   -1    0    0    0  501 -0.00000000000E+00  0.00000000000E+00  0.13807577710E+04  0.13807577710E+04  0.00000000000E+00 0. -1.
          2   -1    0    0  501    0  0.00000000000E+00 -0.00000000000E+00 -0.52827824603E+03  0.52827824603E+03  0.00000000000E+00 0.  1.
         23    2    1    2    0    0 -0.10969205795E+02 -0.81157790663E+03  0.71552410022E+03  0.10859103824E+04  0.91910818454E+02 0.  0.
         13    1    3    3    0    0 -0.73881108309E+01 -0.64219183007E+03  0.61332032775E+03  0.88804659519E+03  0.00000000000E+00 0.  1.
        -13    1    3    3    0    0 -0.35810949641E+01 -0.16938607656E+03  0.10220377247E+03  0.19786378719E+03  0.00000000000E+00 0. -1.
         22    1    1    2    0    0  0.10969205795E+02  0.81157790663E+03  0.13695542471E+03  0.82312563462E+03  0.00000000000E+00 0. -1.
<mgrwt>
<rscale>  0 0.17081268E+04</rscale>
<asrwt>0</asrwt>
<pdfrwt beam="1">  1        2 0.81273577E-01 0.17081268E+04</pdfrwt>
<pdfrwt beam="2">  1       -2 0.21242427E+00 0.17081268E+04</pdfrwt>
<totfact> 0.60604699E+00</totfact>
</mgrwt>
</event>
<event>
 6    1  0.1637818E-005  0.3366374E+04  0.7818608E-02  0.8146209E-01
         -2   -1    0    0    0  501 -0.00000000000E+00  0.00000000000E+00  0.91111513967E+03  0.91111513967E+03  0.00000000000E+00 0.  1.
          2   -1    0    0  501    0  0.00000000000E+00 -0.00000000000E+00 -0.31095058076E+04  0.31095058076E+04  0.00000000000E+00 0. -1.
         23    2    1    2    0    0  0.15873622651E+04  0.24573330658E+03 -0.50437964406E+03  0.16861451672E+04  0.92643838211E+02 0.  0.
         13    1    3    3    0    0  0.98733849320E+03  0.14138588920E+03 -0.35856039264E+03  0.10599022714E+04  0.00000000000E+00 0.  1.
        -13    1    3    3    0    0  0.60002377194E+03  0.10434741738E+03 -0.14581925142E+03  0.62624289577E+03  0.00000000000E+00 0. -1.
         22    1    1    2    0    0 -0.15873622651E+04 -0.24573330658E+03 -0.16940110239E+04  0.23344757801E+04  0.00000000000E+00 0.  1.
<mgrwt>
<rscale>  0 0.33663736E+04</rscale>
<asrwt>0</asrwt>
<pdfrwt beam="1">  1        2 0.47838551E+00 0.33663736E+04</pdfrwt>
<pdfrwt beam="2">  1       -2 0.14017156E+00 0.33663736E+04</pdfrwt>
<totfact> 0.44093823E-01</totfact>
</mgrwt>
</event>
<event>
 6    1  0.1637818E-005  0.1651288E+04  0.7818608E-02  0.8789645E-01
         -1   -1    0    0    0  501 -0.00000000000E+00  0.00000000000E+00  0.15129005637E+03  0.15129005637E+03  0.00000000000E+00 0.  1.
          1   -1    0    0  501    0  0.00000000000E+00 -0.00000000000E+00 -0.45058361886E+04  0.45058361886E+04  0.00000000000E+00 0. -1.
         23    2    1    2    0    0 -0.78595437551E+03  0.49065344346E+02 -0.15090063124E+04  0.17046309352E+04  0.92384445457E+02 0.  0.
         11    1    3    3    0    0 -0.63254547630E+03  0.75898817638E+02 -0.12038891545E+04  0.13620658965E+04  0.00000000000E+00 0.  1.
        -11    1    3    3    0    0 -0.15340889921E+03 -0.26833473291E+02 -0.30511715795E+03  0.34256503867E+03  0.00000000000E+00 0. -1.
         22    1    1    2    0    0  0.78595437551E+03 -0.49065344346E+02 -0.28455398198E+04  0.29524953098E+04  0.00000000000E+00 0. -1.
<mgrwt>
<rscale>  0 0.16512882E+04</rscale>
<asrwt>0</asrwt>
<pdfrwt beam="1">  1        1 0.69320549E+00 0.16512882E+04</pdfrwt>
<pdfrwt beam="2">  1       -1 0.23275396E-01 0.16512882E+04</pdfrwt>
<totfact> 0.49211244E-01</totfact>
</mgrwt>
</event>
<event>
 6    1  0.1847895E-005  0.3862128E+04  0.7818608E-02  0.8032952E-01
          2   -1    0    0  501    0  0.00000000000E+00  0.00000000000E+00  0.21299426423E+04  0.21299426423E+04  0.00000000000E+00 0. -1.
         -2   -1    0    0    0  501 -0.00000000000E+00 -0.00000000000E+00 -0.17507551663E+04  0.17507551663E+04  0.00000000000E+00 0.  1.
         23    2    1    2    0    0 -0.16413588830E+04  0.15543492256E+03 -0.81852711507E+03  0.18428707208E+04  0.89257255664E+02 0.  0.
         11    1    3    3    0    0 -0.83844893899E+03  0.11052245838E+03 -0.38372258551E+03  0.92868447802E+03  0.00000000000E+00 0.  1.
        -11    1    3    3    0    0 -0.80290994400E+03  0.44912464172E+02 -0.43480452956E+03  0.91418624281E+03  0.00000000000E+00 0. -1.
         22    1    1    2    0    0  0.16413588830E+04 -0.15543492256E+03  0.11977145911E+04  0.20378270878E+04  0.00000000000E+00 0. -1.
<mgrwt>
<rscale>  0 0.38621280E+04</rscale>
<asrwt>0</asrwt>
<pdfrwt beam="1">  1        2 0.32768348E+00 0.38621280E+04</pdfrwt>
<pdfrwt beam="2">  1       -2 0.26934695E+00 0.38621280E+04</pdfrwt>
<totfact> 0.22061940E-01</totfact>
</mgrwt>
</event>
<event>
 6    1  0.1637818E-005  0.1735330E+04  0.7818608E-02  0.8741467E-01
          2   -1    0    0  501    0  0.00000000000E+00  0.00000000000E+00  0.13560109880E+04  0.13560109880E+04  0.00000000000E+00 0.  1.
         -2   -1    0    0    0  501 -0.00000000000E+00 -0.00000000000E+00 -0.55518926341E+03  0.55518926341E+03  0.00000000000E+00 0. -1.
         23    2    1    2    0    0  0.54366467647E+03 -0.67163121785E+03  0.34878012173E+03  0.93600725312E+03  0.88330240256E+02 0.  0.
         13    1    3    3    0    0  0.32789702743E+03 -0.40034011519E+03  0.16196271408E+03  0.54223665422E+03  0.00000000000E+00 0.  1.
        -13    1    3    3    0    0  0.21576764904E+03 -0.27129110266E+03  0.18681740766E+03  0.39377059890E+03  0.00000000000E+00 0. -1.
         22    1    1    2    0    0 -0.54366467647E+03  0.67163121785E+03  0.45204160288E+03  0.97519299832E+03  0.00000000000E+00 0.  1.
<mgrwt>
<rscale>  0 0.17353302E+04</rscale>
<asrwt>0</asrwt>
<pdfrwt beam="1">  1        2 0.20861707E+00 0.17353302E+04</pdfrwt>
<pdfrwt beam="2">  1       -2 0.85413734E-01 0.17353302E+04</pdfrwt>
<totfact> 0.17345904E+01</totfact>
</mgrwt>
</event>
<event>
 6    1  0.1637818E-005  0.1985907E+04  0.7818608E-02  0.8613238E-01
          2   -1    0    0  501    0  0.00000000000E+00  0.00000000000E+00  0.31976234889E+04  0.31976234889E+04  0.00000000000E+00 0. -1.
         -2   -1    0    0    0  501 -0.00000000000E+00 -0.00000000000E+00 -0.30834060094E+03  0.30834060094E+03  0.00000000000E+00 0.  1.
         23    2    1    2    0    0  0.79721971407E+03  0.58648878393E+03  0.15298055145E+04  0.18243853390E+04  0.92458568572E+02 0.  0.
         11    1    3    3    0    0  0.33473184698E+03  0.29153010274E+03  0.73586145314E+03  0.85937610416E+03  0.00000000000E+00 0. -1.
        -11    1    3    3    0    0  0.46248786709E+03  0.29495868119E+03  0.79394406132E+03  0.96500923484E+03  0.00000000000E+00 0.  1.
         22    1    1    2    0    0 -0.79721971407E+03 -0.58648878393E+03  0.13594773735E+04  0.16815787508E+04  0.00000000000E+00 0.  1.
<mgrwt>
<rscale>  0 0.19859075E+04</rscale>
<asrwt>0</asrwt>
<pdfrwt beam="1">  1        2 0.49194205E+00 0.19859075E+04</pdfrwt>
<pdfrwt beam="2">  1       -2 0.47437018E-01 0.19859075E+04</pdfrwt>
<totfact> 0.51163481E+00</totfact>
</mgrwt>
</event>
<event>
 6    1  0.1637818E-005  0.3769514E+04  0.7818608E-02  0.8052729E-01
         -2   -1    0    0    0  501 -0.00000000000E+00  0.00000000000E+00  0.37433123665E+04  0.37433123665E+04  0.00000000000E+00 0.  1.
          2   -1    0    0  501    0  0.00000000000E+00 -0.00000000000E+00 -0.94897454559E+03  0.94897454559E+03  0.00000000000E+00 0. -1.
         23    2    1    2    0    0  0.15622304652E+04  0.70033390025E+03  0.42017147753E+03  0.17652239773E+04  0.91869588980E+02 0.  0.
         13    1    3    3    0    0  0.54100714844E+03  0.21336036079E+03  0.17820538509E+03  0.60825039046E+03  0.00000000000E+00 0. -1.
        -13    1    3    3    0    0  0.10212233167E+04  0.48697353946E+03  0.24196609244E+03  0.11569735869E+04  0.00000000000E+00 0.  1.
         22    1    1    2    0    0 -0.15622304652E+04 -0.70033390025E+03  0.23741663434E+04  0.29270629348E+04  0.00000000000E+00 0. -1.
<mgrwt>
<rscale>  0 0.37695136E+04</rscale>
<asrwt>0</asrwt>
<pdfrwt beam="1">  1        2 0.14599609E+00 0.37695136E+04</pdfrwt>
<pdfrwt beam="2">  1       -2 0.57589420E+00 0.37695136E+04</pdfrwt>
<totfact> 0.13969471E-02</totfact>
</mgrwt>
</event>
<event>
 6    1  0.1637818E-005  0.2198862E+04  0.7818608E-02  0.8518902E-01
         -1   -1    0    0    0  501 -0.00000000000E+00  0.00000000000E+00  0.18586875865E+04  0.18586875865E+04  0.00000000000E+00 0.  1.
          1   -1    0    0  501    0  0.00000000000E+00 -0.00000000000E+00 -0.65032346373E+03  0.65032346373E+03  0.00000000000E+00 0. -1.
         23    2    1    2    0    0 -0.57936156608E+03 -0.42512775904E+03  0.15517208104E+04  0.17125895219E+04  0.93444964786E+02 0.  0.
         13    1    3    3    0    0 -0.48850780495E+03 -0.35553669998E+03  0.13770484022E+04  0.15037647830E+04  0.00000000000E+00 0. -1.
        -13    1    3    3    0    0 -0.90853761129E+02 -0.69591059052E+02  0.17467240821E+03  0.20882473896E+03  0.00000000000E+00 0.  1.
         22    1    1    2    0    0  0.57936156608E+03  0.42512775904E+03 -0.34335668765E+03  0.79642152828E+03  0.00000000000E+00 0. -1.
<mgrwt>
<rscale>  0 0.21988617E+04</rscale>
<asrwt>0</asrwt>
<pdfrwt beam="1">  1        1 0.10004976E+00 0.21988617E+04</pdfrwt>
<pdfrwt beam="2">  1       -1 0.28595193E+00 0.21988617E+04</pdfrwt>
<totfact> 0.11304341E+00</totfact>
</mgrwt>
</event>
<event>
 6    1  0.1637818E-005  0.2751195E+04  0.7818608E-02  0.8318582E-01
          2   -1    0    0  501    0  0.00000000000E+00  0.00000000000E+00  0.28150906490E+04  0.28150906490E+04  0.00000000000E+00 0. -1.
         -2   -1    0    0    0  501 -0.00000000000E+00 -0.00000000000E+00 -0.67218757385E+03  0.67218757385E+03  0.00000000000E+00 0.  1.
         23    2    1    2    0    0  0.11065351611E+04  0.13689863732E+02  0.21051176744E+04  0.23800134797E+04  0.91303150132E+02 0.  0.
         13    1    3    3    0    0  0.10061230452E+04  0.38716279240E+02  0.19039271829E+04  0.21537690800E+04  0.00000000000E+00 0.  1.
        -13    1    3    3    0    0  0.10041211585E+03 -0.25026415507E+02  0.20119049157E+03  0.22624439967E+03  0.00000000000E+00 0. -1.
         22    1    1    2    0    0 -0.11065351611E+04 -0.13689863732E+02  0.37785400758E+02  0.11072647432E+04  0.00000000000E+00 0.  1.
<mgrwt>
<rscale>  0 0.27511953E+04</rscale>
<asrwt>0</asrwt>
<pdfrwt beam="1">  1        2 0.43309086E+00 0.27511953E+04</pdfrwt>
<pdfrwt beam="2">  1       -2 0.10341347E+00 0.27511953E+04</pdfrwt>
<totfact> 0.15076185E+00</totfact>
</mgrwt>
</event>
<event>
 6    1  0.1826843E-005  0.4147404E+04  0.7818608E-02  0.7975453E-01
         -2   -1    0    0    0  501 -0.00000000000E+00  0.00000000000E+00  0.15110885240E+04  0.15110885240E+04  0.00000000000E+00 0.  1.
          2   -1    0    0  501    0  0.00000000000E+00 -0.00000000000E+00 -0.28457898054E+04  0.28457898054E+04  0.00000000000E+00 0. -1.
         23    2    1    2    0    0  0.99101563637E+03  0.25440890373E+02 -0.25798738294E+04  0.27652709957E+04  0.90639251487E+02 0.  0.
         11    1    3    3    0    0  0.41227125536E+03  0.21950817754E+02 -0.95575122627E+03  0.10411099043E+04  0.00000000000E+00 0. -1.
        -11    1    3    3    0    0  0.57874438101E+03  0.34900726188E+01 -0.16241226031E+04  0.17241610914E+04  0.00000000000E+00 0.  1.
         22    1    1    2    0    0 -0.99101563637E+03 -0.25440890373E+02  0.12451725480E+04  0.15916073337E+04  0.00000000000E+00 0.  1.
<mgrwt>
<rscale>  0 0.41474042E+04</rscale>
<asrwt>0</asrwt>
<pdfrwt beam="1">  1        2 0.43781381E+00 0.41474042E+04</pdfrwt>
<pdfrwt beam="2">  1       -2 0.23247516E+00 0.41474042E+04</pdfrwt>
<totfact> 0.13945088E-01</totfact>
</mgrwt>
</event>
<event>
 6    1  0.1637818E-005  0.5688824E+03  0.7818608E-02  0.9972155E-01
         -2   -1    0    0    0  501 -0.00000000000E+00  0.00000000000E+00  0.18633098937E+03  0.18633098937E+03  0.00000000000E+00 0. -1.
          2   -1    0    0  501    0  0.00000000000E+00 -0.00000000000E+00 -0.43421009972E+03  0.43421009972E+03  0.00000000000E+00 0.  1.
         23    2    1    2    0    0 -0.17108974356E+03 -0.99449779696E+02  0.83431778247E+02  0.23462806270E+03  0.94485486463E+02 0.  0.
         11    1    3    3    0    0 -0.82919287817E+02  0.36042230921E+01  0.40633937486E+02  0.92410581601E+02  0.00000000000E+00 0.  1.
        -11    1    3    3    0    0 -0.88170455743E+02 -0.10305400279E+03  0.42797840761E+02  0.14221748110E+03  0.00000000000E+00 0. -1.
         22    1    1    2    0    0  0.17108974356E+03  0.99449779696E+02 -0.33131088859E+03  0.38591302639E+03  0.00000000000E+00 0.  1.
<mgrwt>
<rscale>  0 0.56888240E+03</rscale>
<asrwt>0</asrwt>
<pdfrwt beam="1">  1        2 0.66801553E-01 0.56888240E+03</pdfrwt>
<pdfrwt beam="2">  1       -2 0.28666306E-01 0.56888240E+03</pdfrwt>
<totfact> 0.81177546E+02</totfact>
</mgrwt>
</event>
<event>
 6    1  0.1637818E-005  0.2593011E+04  0.7818608E-02  0.8370579E-01
         -1   -1    0    0    0  501 -0.00000000000E+00  0.00000000000E+00  0.13899212928E+04  0.13899212928E+04  0.00000000000E+00 0.  1.
          1   -1    0    0  501    0  0.00000000000E+00 -0.00000000000E+00 -0.12093685213E+04  0.12093685213E+04  0.00000000000E+00 0. -1.
         23    2    1    2    0    0 -0.83877039610E+03  0.74526434117E+03 -0.55750648109E+03  0.12562759735E+04  0.91984398465E+02 0.  0.
         13    1    3    3    0    0 -0.44103238485E+03  0.34021027419E+03 -0.30398574264E+03  0.63455490455E+03  0.00000000000E+00 0.  1.
        -13    1    3    3    0    0 -0.39773801125E+03  0.40505406698E+03 -0.25352073845E+03  0.62172106896E+03  0.00000000000E+00 0. -1.
         22    1    1    2    0    0  0.83877039610E+03 -0.74526434117E+03  0.73805925256E+03  0.13430138405E+04  0.00000000000E+00 0.  1.
<mgrwt>
<rscale>  0 0.25930114E+04</rscale>
<asrwt>0</asrwt>
<pdfrwt beam="1">  1        1 0.18605670E+00 0.25930114E+04</pdfrwt>
<pdfrwt beam="2">  1       -1 0.21383404E+00 0.25930114E+04</pdfrwt>
<totfact> 0.11224661E+00</totfact>
</mgrwt>
</event>
<event>
 6    1  0.1637818E-005  0.4411046E+04  0.7818608E-02  0.7926398E-01
          2   -1    0    0  501    0  0.00000000000E+00  0.00000000000E+00  0.11617316122E+04  0.11617316122E+04  0.00000000000E+00 0. -1.
         -2   -1    0    0    0  501 -0.00000000000E+00 -0.00000000000E+00 -0.41871393722E+04  0.41871393722E+04  0.00000000000E+00 0.  1.
         23    2    1    2    0    0 -0.12739674371E+04  0.15572894162E+04 -0.42041167776E+03  0.20573442952E+04  0.88182842892E+02 0.  0.
         13    1    3    3    0    0 -0.11098695496E+04  0.13251818005E+04 -0.33702014392E+03  0.17611075489E+04  0.00000000000E+00 0. -1.
        -13    1    3    3    0    0 -0.16409788749E+03  0.23210761571E+03 -0.83391533843E+02  0.29623674631E+03  0.00000000000E+00 0.  1.
         22    1    1    2    0    0  0.12739674371E+04 -0.15572894162E+04 -0.26049960822E+04  0.32915266891E+04  0.00000000000E+00 0.  1.
<mgrwt>
<rscale>  0 0.44110462E+04</rscale>
<asrwt>0</asrwt>
<pdfrwt beam="1">  1        2 0.17872794E+00 0.44110462E+04</pdfrwt>
<pdfrwt beam="2">  1       -2 0.64417528E+00 0.44110462E+04</pdfrwt>
<totfact> 0.53758424E-03</totfact>
</mgrwt>
</event>
<event>
 6    1  0.2468768E-005  0.2977632E+04  0.7818608E-02  0.8250147E-01
          2   -1    0    0  501    0  0.00000000000E+00  0.00000000000E+00  0.20491355101E+04  0.20491355101E+04  0.00000000000E+00 0.  1.
         -2   -1    0    0    0  501 -0.00000000000E+00 -0.00000000000E+00 -0.10817114039E+04  0.10817114039E+04  0.00000000000E+00 0. -1.
         23    2    1    2    0    0 -0.65207746749E+03  0.63241488565E+03  0.17226251028E+04  0.19495416373E+04  0.90120695201E+02 0.  0.
         13    1    3    3    0    0 -0.27854608367E+03  0.22443182113E+03  0.73993285221E+03  0.82186263381E+03  0.00000000000E+00 0. -1.
        -13    1    3    3    0    0 -0.37353138382E+03  0.40798306452E+03  0.98269225060E+03  0.11276790035E+04  0.00000000000E+00 0.  1.
         22    1    1    2    0    0  0.65207746749E+03 -0.63241488565E+03 -0.75520099664E+03  0.11813052766E+04  0.00000000000E+00 0. -1.
<mgrwt>
<rscale>  0 0.29776321E+04</rscale>
<asrwt>0</asrwt>
<pdfrwt beam="1">  1        2 0.31525162E+00 0.29776321E+04</pdfrwt>
<pdfrwt beam="2">  1       -2 0.16641714E+00 0.29776321E+04</pdfrwt>
<totfact> 0.12165119E+00</totfact>
</mgrwt>
</event>
<event>
 6    1  0.1637818E-005  0.2151926E+04  0.7818608E-02  0.8538708E-01
         -1   -1    0    0    0  501 -0.00000000000E+00  0.00000000000E+00  0.95359996158E+03  0.95359996158E+03  0.00000000000E+00 0.  1.
          1   -1    0    0  501    0  0.00000000000E+00 -0.00000000000E+00 -0.12140269583E+04  0.12140269583E+04  0.00000000000E+00 0. -1.
         23    2    1    2    0    0  0.24051819532E+03  0.10375350370E+04 -0.27513243933E+03  0.11024770688E+04  0.73687671063E+02 0.  0.
         11    1    3    3    0    0  0.18363313692E+03  0.78216074951E+03 -0.23991529382E+03  0.83848429637E+03  0.00000000000E+00 0. -1.
        -11    1    3    3    0    0  0.56885058406E+02  0.25537428745E+03 -0.35217145512E+02  0.26399277244E+03  0.00000000000E+00 0.  1.
         22    1    1    2    0    0 -0.24051819532E+03 -0.10375350370E+04  0.14705442602E+02  0.10651498511E+04  0.00000000000E+00 0.  1.
<mgrwt>
<rscale>  0 0.21519257E+04</rscale>
<asrwt>0</asrwt>
<pdfrwt beam="1">  1        1 0.18677338E+00 0.21519257E+04</pdfrwt>
<pdfrwt beam="2">  1       -1 0.14670769E+00 0.21519257E+04</pdfrwt>
<totfact> 0.35388304E+00</totfact>
</mgrwt>
</event>
<event>
 6    1  0.1637818E-005  0.2529792E+04  0.7818608E-02  0.8392448E-01
          2   -1    0    0  501    0  0.00000000000E+00  0.00000000000E+00  0.34280427679E+04  0.34280427679E+04  0.00000000000E+00 0.  1.
         -2   -1    0    0    0  501 -0.00000000000E+00 -0.00000000000E+00 -0.46672743617E+03  0.46672743617E+03  0.00000000000E+00 0. -1.
         23    2    1    2    0    0 -0.25359674324E+03 -0.34419910401E+02  0.33871205758E+04  0.33979743261E+04  0.90264544656E+02 0.  0.
         13    1    3    3    0    0 -0.95349591737E+02  0.15140684961E+02  0.85592202070E+03  0.86134969119E+03  0.00000000000E+00 0. -1.
        -13    1    3    3    0    0 -0.15824715150E+03 -0.49560595363E+02  0.25311985550E+04  0.25366246350E+04  0.00000000000E+00 0.  1.
         22    1    1    2    0    0  0.25359674324E+03  0.34419910401E+02 -0.42580524406E+03  0.49679587789E+03  0.00000000000E+00 0. -1.
<mgrwt>
<rscale>  0 0.25297918E+04</rscale>
<asrwt>0</asrwt>
<pdfrwt beam="1">  1        2 0.52739118E+00 0.25297918E+04</pdfrwt>
<pdfrwt beam="2">  1       -2 0.71804223E-01 0.25297918E+04</pdfrwt>
<totfact> 0.14279431E+00</totfact>
</mgrwt>
</event>
<event>
 6    1  0.1637818E-005  0.2949657E+04  0.7818608E-02  0.8258255E-01
         -1   -1    0    0    0  501 -0.00000000000E+00  0.00000000000E+00  0.77500498176E+03  0.77500498176E+03  0.00000000000E+00 0.  1.
          1   -1    0    0  501    0  0.00000000000E+00 -0.00000000000E+00 -0.28065863237E+04  0.28065863237E+04  0.00000000000E+00 0. -1.
         23    2    1    2    0    0 -0.62719097403E+03  0.12423239304E+04 -0.16043957158E+04  0.21258355481E+04  0.91399666410E+02 0.  0.
         13    1    3    3    0    0 -0.18301186495E+03  0.31131997520E+03 -0.46707187554E+03  0.59039783756E+03  0.00000000000E+00 0. -1.
        -13    1    3    3    0    0 -0.44417910909E+03  0.93100395515E+03 -0.11373238402E+04  0.15354377106E+04  0.00000000000E+00 0.  1.
         22    1    1    2    0    0  0.62719097403E+03 -0.12423239304E+04 -0.42718562616E+03  0.14557557573E+04  0.00000000000E+00 0.  1.
<mgrwt>
<rscale>  0 0.29496565E+04</rscale>
<asrwt>0</asrwt>
<pdfrwt beam="1">  1        1 0.43178251E+00 0.29496565E+04</pdfrwt>
<pdfrwt beam="2">  1       -1 0.11923154E+00 0.29496565E+04</pdfrwt>
<totfact> 0.44288881E-01</totfact>
</mgrwt>
</event>
<event>
 6    1  0.1637818E-005  0.4674444E+04  0.7818608E-02  0.7880789E-01
         -2   -1    0    0    0  501 -0.00000000000E+00  0.00000000000E+00  0.22776169270E+04  0.22776169270E+04  0.00000000000E+00 0. -1.
          2   -1    0    0  501    0  0.00000000000E+00 -0.00000000000E+00 -0.23983866719E+04  0.23983866719E+04  0.00000000000E+00 0.  1.
         23    2    1    2    0    0 -0.19999873714E+04 -0.28387909838E+03  0.11139126276E+04  0.23085202539E+04  0.89037027792E+02 0.  0.
         13    1    3    3    0    0 -0.61713824402E+03 -0.95218536710E+02  0.29853639660E+03  0.69213449709E+03  0.00000000000E+00 0. -1.
        -13    1    3    3    0    0 -0.13828491274E+04 -0.18866056167E+03  0.81537623102E+03  0.16163857568E+04  0.00000000000E+00 0.  1.
         22    1    1    2    0    0  0.19999873714E+04  0.28387909838E+03 -0.12346823725E+04  0.23674833451E+04  0.00000000000E+00 0.  1.
<mgrwt>
<rscale>  0 0.46744437E+04</rscale>
<asrwt>0</asrwt>
<pdfrwt beam="1">  1        2 0.36898256E+00 0.46744437E+04</pdfrwt>
<pdfrwt beam="2">  1       -2 0.35040261E+00 0.46744437E+04</pdfrwt>
<totfact> 0.46040581E-02</totfact>
</mgrwt>
</event>
<event>
 6    1  0.1637818E-005  0.2756553E+04  0.7818608E-02  0.8316885E-01
          2   -1    0    0  501    0  0.00000000000E+00  0.00000000000E+00  0.30496310272E+04  0.30496310272E+04  0.00000000000E+00 0. -1.
         -2   -1    0    0    0  501 -0.00000000000E+00 -0.00000000000E+00 -0.62291033241E+03  0.62291033241E+03  0.00000000000E+00 0.  1.
         23    2    1    2    0    0  0.76825223477E+03 -0.55565979990E+02 -0.30562051268E+03  0.83370576233E+03  0.91445754483E+02 0.  0.
         11    1    3    3    0    0  0.39305439149E+03 -0.22399126284E+02 -0.20484755281E+03  0.44379724585E+03  0.00000000000E+00 0.  1.
        -11    1    3    3    0    0  0.37519784328E+03 -0.33166853706E+02 -0.10077295987E+03  0.38990851648E+03  0.00000000000E+00 0. -1.
         22    1    1    2    0    0 -0.76825223477E+03  0.55565979990E+02  0.27323412075E+04  0.28388355973E+04  0.00000000000E+00 0. -1.
<mgrwt>
<rscale>  0 0.27565534E+04</rscale>
<asrwt>0</asrwt>
<pdfrwt beam="1">  1        2 0.46917400E+00 0.27565534E+04</pdfrwt>
<pdfrwt beam="2">  1       -2 0.95832360E-01 0.27565534E+04</pdfrwt>
<totfact> 0.12914863E+00</totfact>
</mgrwt>
</event>
<event>
 6    1  0.1637818E-005  0.3251308E+04  0.7818608E-02  0.8175397E-01
         -2   -1    0    0    0  501 -0.00000000000E+00  0.00000000000E+00  0.16328712544E+04  0.16328712544E+04  0.00000000000E+00 0.  1.
          2   -1    0    0  501    0  0.00000000000E+00 -0.00000000000E+00 -0.16184688576E+04  0.16184688576E+04  0.00000000000E+00 0. -1.
         23    2    1    2    0    0  0.11518983880E+04 -0.24945043202E+03 -0.11104704374E+04  0.16220966350E+04  0.94644000093E+02 0.  0.
         13    1    3    3    0    0  0.10431953095E+04 -0.23779851857E+03 -0.97086261069E+03  0.14447763834E+04  0.00000000000E+00 0. -1.
        -13    1    3    3    0    0  0.10870307847E+03 -0.11651913456E+02 -0.13960782668E+03  0.17732025160E+03  0.00000000000E+00 0.  1.
         22    1    1    2    0    0 -0.11518983880E+04  0.24945043202E+03  0.11248728341E+04  0.16292434770E+04  0.00000000000E+00 0.  1.
<mgrwt>
<rscale>  0 0.32513082E+04</rscale>
<asrwt>0</asrwt>
<pdfrwt beam="1">  1        2 0.24899521E+00 0.32513082E+04</pdfrwt>
<pdfrwt beam="2">  1       -2 0.25121096E+00 0.32513082E+04</pdfrwt>
<totfact> 0.57682556E-01</totfact>
</mgrwt>
</event>
<event>
 6    1  0.1637818E-005  0.3930528E+04  0.7818608E-02  0.8018710E-01
          2   -1    0    0  501    0  0.00000000000E+00  0.00000000000E+00  0.17784569225E+04  0.17784569225E+04  0.00000000000E+00 0. -1.
         -2   -1    0    0    0  501 -0.00000000000E+00 -0.00000000000E+00 -0.21716928545E+04  0.21716928545E+04  0.00000000000E+00 0.  1.
         23    2    1    2    0    0 -0.53550167133E+03 -0.16264822889E+04  0.77030982432E+03  0.18798731280E+04  0.91318539334E+02 0.  0.
         11    1    3    3    0    0 -0.41867953068E+03 -0.12870054528E+04  0.64862498471E+03  0.15007964405E+04  0.00000000000E+00 0. -1.
        -11    1    3    3    0    0 -0.11682214065E+03 -0.33947683609E+03  0.12168483961E+03  0.37907668746E+03  0.00000000000E+00 0.  1.
         22    1    1    2    0    0  0.53550167133E+03  0.16264822889E+04 -0.11635457564E+04  0.20702766490E+04  0.00000000000E+00 0.  1.
<mgrwt>
<rscale>  0 0.39305278E+04</rscale>
<asrwt>0</asrwt>
<pdfrwt beam="1">  1        2 0.27360876E+00 0.39305278E+04</pdfrwt>
<pdfrwt beam="2">  1       -2 0.33410659E+00 0.39305278E+04</pdfrwt>
<totfact> 0.13769249E-01</totfact>
</mgrwt>
</event>
<event>
 6    1  0.1637818E-005  0.1703700E+04  0.7818608E-02  0.8759257E-01
         -1   -1    0    0    0  501 -0.00000000000E+00  0.00000000000E+00  0.39589234370E+03  0.39589234370E+03  0.00000000000E+00 0.  1.
          1   -1    0    0  501    0  0.00000000000E+00 -0.00000000000E+00 -0.18329430740E+04  0.18329430740E+04  0.00000000000E+00 0. -1.
         23    2    1    2    0    0 -0.11057969474E+03 -0.34678799164E+03  0.28335009506E+03  0.47035062110E+03  0.91938296506E+02 0.  0.
         11    1    3    3    0    0 -0.11369335053E+03 -0.34657683535E+03  0.26279150596E+03  0.44955651076E+03  0.00000000000E+00 0. -1.
        -11    1    3    3    0    0  0.31136557924E+01 -0.21115628693E+00  0.20558589091E+02  0.20794110339E+02  0.00000000000E+00 0.  1.
         22    1    1    2    0    0  0.11057969474E+03  0.34678799164E+03 -0.17204008253E+04  0.17584847966E+04  0.00000000000E+00 0. -1.
<mgrwt>
<rscale>  0 0.17036997E+04</rscale>
<asrwt>0</asrwt>
<pdfrwt beam="1">  1        1 0.28199124E+00 0.17036997E+04</pdfrwt>
<pdfrwt beam="2">  1       -1 0.60906514E-01 0.17036997E+04</pdfrwt>
<totfact> 0.10063799E+01</totfact>
</mgrwt>
</event>
<event>
 6    1  0.1637818E-005  0.9032067E+03  0.7818608E-02  0.9421582E-01
          1   -1    0    0  501    0  0.00000000000E+00  0.00000000000E+00  0.19780585627E+03  0.19780585627E+03  0.00000000000E+00 0. -1.
         -1   -1    0    0    0  501 -0.00000000000E+00 -0.00000000000E+00 -0.10310390842E+04  0.10310390842E+04  0.00000000000E+00 0.  1.
         23    2    1    2    0    0 -0.15631707130E+03 -0.13170288885E+03  0.12709424730E+03  0.24700506687E+03  0.55478623379E+02 0.  0.
         13    1    3    3    0    0 -0.10250391196E+03 -0.10802375150E+03  0.11192132134E+03  0.18628624486E+03  0.00000000000E+00 0. -1.
        -13    1    3    3    0    0 -0.53813159338E+02 -0.23679137343E+02  0.15172925965E+02  0.60718822004E+02  0.00000000000E+00 0.  1.
         22    1    1    2    0    0  0.15631707130E+03  0.13170288885E+03 -0.96032747518E+03  0.98183987356E+03  0.00000000000E+00 0.  1.
<mgrwt>
<rscale>  0 0.90320666E+03</rscale>
<asrwt>0</asrwt>
<pdfrwt beam="1">  1        1 0.30431670E-01 0.90320666E+03</pdfrwt>
<pdfrwt beam="2">  1       -1 0.15862140E+00 0.90320666E+03</pdfrwt>
<totfact> 0.45592916E+01</totfact>
</mgrwt>
</event>
<event>
 6    1  0.1637818E-005  0.1649339E+04  0.7818608E-02  0.8790798E-01
          2   -1    0    0  501    0  0.00000000000E+00  0.00000000000E+00  0.23753430301E+03  0.23753430301E+03  0.00000000000E+00 0. -1.
         -2   -1    0    0    0  501 -0.00000000000E+00 -0.00000000000E+00 -0.28630794485E+04  0.28630794485E+04  0.00000000000E+00 0.  1.
         23    2    1    2    0    0 -0.27543978024E+03 -0.70264451173E+03 -0.19302733862E+04  0.20744660030E+04  0.88755112039E+02 0.  0.
         13    1    3    3    0    0 -0.13635184151E+02 -0.10272519169E+03 -0.31504471032E+03  0.33164974409E+03  0.00000000000E+00 0. -1.
        -13    1    3    3    0    0 -0.26180459609E+03 -0.59991932004E+03 -0.16152286759E+04  0.17428162589E+04  0.00000000000E+00 0.  1.
         22    1    1    2    0    0  0.27543978024E+03  0.70264451173E+03 -0.69527175929E+03  0.10261477485E+04  0.00000000000E+00 0. -1.
<mgrwt>
<rscale>  0 0.16493388E+04</rscale>
<asrwt>0</asrwt>
<pdfrwt beam="1">  1        2 0.36543742E-01 0.16493388E+04</pdfrwt>
<pdfrwt beam="2">  1       -2 0.44047373E+00 0.16493388E+04</pdfrwt>
<totfact> 0.54988529E-01</totfact>
</mgrwt>
</event>
<event>
 6    1  0.1637818E-005  0.1850471E+04  0.7818608E-02  0.8679911E-01
         -1   -1    0    0    0  501 -0.00000000000E+00  0.00000000000E+00  0.88022071374E+03  0.88022071374E+03  0.00000000000E+00 0.  1.
          1   -1    0    0  501    0  0.00000000000E+00 -0.00000000000E+00 -0.97255192465E+03  0.97255192465E+03  0.00000000000E+00 0. -1.
         23    2    1    2    0    0 -0.66300930069E+03 -0.48990575500E+03 -0.46176428379E+03  0.94940683380E+03  0.92510003220E+02 0.  0.
         13    1    3    3    0    0 -0.19498384254E+03 -0.15216692296E+03 -0.91643837719E+02  0.26376516883E+03  0.00000000000E+00 0. -1.
        -13    1    3    3    0    0 -0.46802545814E+03 -0.33773883204E+03 -0.37012044607E+03  0.68564166497E+03  0.00000000000E+00 0.  1.
         22    1    1    2    0    0  0.66300930069E+03  0.48990575500E+03  0.36943307287E+03  0.90336580460E+03  0.00000000000E+00 0. -1.
<mgrwt>
<rscale>  0 0.18504706E+04</rscale>
<asrwt>0</asrwt>
<pdfrwt beam="1">  1        1 0.14962337E+00 0.18504706E+04</pdfrwt>
<pdfrwt beam="2">  1       -1 0.13541857E+00 0.18504706E+04</pdfrwt>
<totfact> 0.68292772E+00</totfact>
</mgrwt>
</event>
<event>
 6    1  0.1637818E-005  0.1661952E+04  0.7818608E-02  0.8783367E-01
         -2   -1    0    0    0  501 -0.00000000000E+00  0.00000000000E+00  0.10646199797E+04  0.10646199797E+04  0.00000000000E+00 0.  1.
          2   -1    0    0  501    0  0.00000000000E+00 -0.00000000000E+00 -0.64860827778E+03  0.64860827778E+03  0.00000000000E+00 0. -1.
         23    2    1    2    0    0 -0.60223425188E+02  0.30763364049E+03  0.99894679448E+03  0.10513531637E+04  0.95830365481E+02 0.  0.
         11    1    3    3    0    0 -0.35008450857E+02  0.20531236174E+03  0.50450620484E+03  0.54580698808E+03  0.00000000000E+00 0. -1.
        -11    1    3    3    0    0 -0.25214974330E+02  0.10232127875E+03  0.49444058964E+03  0.50554617564E+03  0.00000000000E+00 0.  1.
         22    1    1    2    0    0  0.60223425188E+02 -0.30763364049E+03 -0.58293509252E+03  0.66187509380E+03  0.00000000000E+00 0. -1.
<mgrwt>
<rscale>  0 0.16619523E+04</rscale>
<asrwt>0</asrwt>
<pdfrwt beam="1">  1        2 0.99785889E-01 0.16619523E+04</pdfrwt>
<pdfrwt beam="2">  1       -2 0.16378769E+00 0.16619523E+04</pdfrwt>
<totfact> 0.10157546E+01</totfact>
</mgrwt>
</event>
<event>
 6    1  0.1637818E-005  0.1082893E+04  0.7818608E-02  0.9222027E-01
          2   -1    0    0  501    0  0.00000000000E+00  0.00000000000E+00  0.23617006193E+04  0.23617006193E+04  0.00000000000E+00 0. -1.
         -2   -1    0    0    0  501 -0.00000000000E+00 -0.00000000000E+00 -0.12413281286E+03  0.12413281286E+03  0.00000000000E+00 0.  1.
         23    2    1    2    0    0 -0.55062922641E+02 -0.47032171281E+03  0.17111508798E+04  0.17777732513E+04  0.90586758662E+02 0.  0.
         13    1    3    3    0    0 -0.42195340076E+02 -0.86646054239E+02  0.40984285041E+03  0.42102155227E+03  0.00000000000E+00 0. -1.
        -13    1    3    3    0    0 -0.12867582565E+02 -0.38367565857E+03  0.13013080293E+04  0.13567516990E+04  0.00000000000E+00 0.  1.
         22    1    1    2    0    0  0.55062922641E+02  0.47032171281E+03  0.52641692666E+03  0.70806018082E+03  0.00000000000E+00 0. -1.
<mgrwt>
<rscale>  0 0.10828934E+04</rscale>
<asrwt>0</asrwt>
<pdfrwt beam="1">  1        2 0.36333852E+00 0.10828934E+04</pdfrwt>
<pdfrwt beam="2">  1       -2 0.19097358E-01 0.10828934E+04</pdfrwt>
<totfact> 0.96997677E+01</totfact>
</mgrwt>
</event>
<event>
 6    1  0.1637818E-005  0.1610830E+04  0.7818608E-02  0.8813922E-01
          1   -1    0    0  501    0  0.00000000000E+00  0.00000000000E+00  0.50521777745E+03  0.50521777745E+03  0.00000000000E+00 0. -1.
         -1   -1    0    0    0  501 -0.00000000000E+00 -0.00000000000E+00 -0.12839881151E+04  0.12839881151E+04  0.00000000000E+00 0.  1.
         23    2    1    2    0    0 -0.44543078623E+03  0.18130785429E+03 -0.11044563541E+04  0.12083853483E+04  0.95342480855E+02 0.  0.
         11    1    3    3    0    0 -0.33742981461E+03  0.11593723057E+03 -0.71676704280E+03  0.80065930012E+03  0.00000000000E+00 0.  1.
        -11    1    3    3    0    0 -0.10800097162E+03  0.65370623712E+02 -0.38768931125E+03  0.40772604819E+03  0.00000000000E+00 0. -1.
         22    1    1    2    0    0  0.44543078623E+03 -0.18130785429E+03  0.32568601639E+03  0.58082054425E+03  0.00000000000E+00 0. -1.
<mgrwt>
<rscale>  0 0.16108304E+04</rscale>
<asrwt>0</asrwt>
<pdfrwt beam="1">  1        1 0.77725813E-01 0.16108304E+04</pdfrwt>
<pdfrwt beam="2">  1       -1 0.19753663E+00 0.16108304E+04</pdfrwt>
<totfact> 0.65549020E+00</totfact>
</mgrwt>
</event>
<event>
 6    1  0.1637818E-005  0.4463371E+03  0.7818608E-02  0.1028820E+00
          1   -1    0    0  501    0  0.00000000000E+00  0.00000000000E+00  0.30518295338E+03  0.30518295338E+03  0.00000000000E+00 0. -1.
         -1   -1    0    0    0  501 -0.00000000000E+00 -0.00000000000E+00 -0.16319458361E+03  0.16319458361E+03  0.00000000000E+00 0.  1.
         23    2    1    2    0    0 -0.49962696591E+02  0.33663926385E+02 -0.14170908329E+03  0.17835378647E+03  0.89994876907E+02 0.  0.
         11    1    3    3    0    0 -0.34239931620E+02  0.63019832301E+02 -0.11558418643E+03  0.13602785132E+03  0.00000000000E+00 0.  1.
        -11    1    3    3    0    0 -0.15722764971E+02 -0.29355905916E+02 -0.26124896859E+02  0.42325935151E+02  0.00000000000E+00 0. -1.
         22    1    1    2    0    0  0.49962696591E+02 -0.33663926385E+02  0.28369745306E+03  0.29002375052E+03  0.00000000000E+00 0. -1.
<mgrwt>
<rscale>  0 0.44633711E+03</rscale>
<asrwt>0</asrwt>
<pdfrwt beam="1">  1        1 0.46951224E-01 0.44633711E+03</pdfrwt>
<pdfrwt beam="2">  1       -1 0.25106859E-01 0.44633711E+03</pdfrwt>
<totfact> 0.11904022E+03</totfact>
</mgrwt>
</event>
<event>
 6    1  0.1637818E-005  0.4659574E+04  0.7818608E-02  0.7883280E-01
         -2   -1    0    0    0  501 -0.00000000000E+00  0.00000000000E+00  0.19502214226E+04  0.19502214226E+04  0.00000000000E+00 0.  1.
          2   -1    0    0  501    0  0.00000000000E+00 -0.00000000000E+00 -0.27832263014E+04  0.27832263014E+04  0.00000000000E+00 0. -1.
         23    2    1    2    0    0 -0.94272326377E+03  0.14311102946E+03  0.17417533702E+04  0.19877988098E+04  0.91822583878E+02 0.  0.
         13    1    3    3    0    0 -0.33913140124E+03  0.96228497323E+02  0.64421981105E+03  0.73436312268E+03  0.00000000000E+00 0. -1.
        -13    1    3    3    0    0 -0.60359186253E+03  0.46882532132E+02  0.10975335592E+04  0.12534356872E+04  0.00000000000E+00 0.  1.
         22    1    1    2    0    0  0.94272326377E+03 -0.14311102946E+03 -0.25747582490E+04  0.27456489142E+04  0.00000000000E+00 0. -1.
<mgrwt>
<rscale>  0 0.46595740E+04</rscale>
<asrwt>0</asrwt>
<pdfrwt beam="1">  1        2 0.42818866E+00 0.46595740E+04</pdfrwt>
<pdfrwt beam="2">  1       -2 0.30003406E+00 0.46595740E+04</pdfrwt>
<totfact> 0.56238413E-02</totfact>
</mgrwt>
</event>
<event>
 6    1  0.1637818E-005  0.1887411E+04  0.7818608E-02  0.8661148E-01
          2   -1    0    0  501    0  0.00000000000E+00  0.00000000000E+00  0.34426211631E+04  0.34426211631E+04  0.00000000000E+00 0. -1.
         -2   -1    0    0    0  501 -0.00000000000E+00 -0.00000000000E+00 -0.25869237460E+03  0.25869237460E+03  0.00000000000E+00 0.  1.
         23    2    1    2    0    0 -0.29874561117E+03  0.48838805393E+03  0.30613985935E+04  0.31158346908E+04  0.92155524291E+02 0.  0.
         11    1    3    3    0    0 -0.10058488122E+03  0.95853822257E+02  0.82489399458E+03  0.83651382288E+03  0.00000000000E+00 0. -1.
        -11    1    3    3    0    0 -0.19816072995E+03  0.39253423167E+03  0.22365045990E+04  0.22793208680E+04  0.00000000000E+00 0.  1.
         22    1    1    2    0    0  0.29874561117E+03 -0.48838805393E+03  0.12253019492E+03  0.58547884682E+03  0.00000000000E+00 0.  1.
<mgrwt>
<rscale>  0 0.18874108E+04</rscale>
<asrwt>0</asrwt>
<pdfrwt beam="1">  1        2 0.52963399E+00 0.18874108E+04</pdfrwt>
<pdfrwt beam="2">  1       -2 0.39798829E-01 0.18874108E+04</pdfrwt>
<totfact> 0.50230802E+00</totfact>
</mgrwt>
</event>
<event>
 6    1  0.1637818E-005  0.1467402E+04  0.7818608E-02  0.8906424E-01
          2   -1    0    0  501    0  0.00000000000E+00  0.00000000000E+00  0.18366684084E+04  0.18366684084E+04  0.00000000000E+00 0. -1.
         -2   -1    0    0    0  501 -0.00000000000E+00 -0.00000000000E+00 -0.29309440938E+03  0.29309440938E+03  0.00000000000E+00 0.  1.
         23    2    1    2    0    0  0.50984097707E+02  0.51239368414E+03  0.21651297718E+02  0.52309067495E+03  0.89489718781E+02 0.  0.
         11    1    3    3    0    0  0.12946718527E+02  0.24649821027E+03  0.53613408526E+02  0.25259331495E+03  0.00000000000E+00 0. -1.
        -11    1    3    3    0    0  0.38037379181E+02  0.26589547387E+03 -0.31962110808E+02  0.27049736000E+03  0.00000000000E+00 0.  1.
         22    1    1    2    0    0 -0.50984097707E+02 -0.51239368414E+03  0.15219227013E+04  0.16066721428E+04  0.00000000000E+00 0. -1.
<mgrwt>
<rscale>  0 0.14674021E+04</rscale>
<asrwt>0</asrwt>
<pdfrwt beam="1">  1        2 0.28256436E+00 0.14674021E+04</pdfrwt>
<pdfrwt beam="2">  1       -2 0.45091449E-01 0.14674021E+04</pdfrwt>
<totfact> 0.37197086E+01</totfact>
</mgrwt>
</event>
<event>
 6    1  0.1637818E-005  0.1662810E+04  0.7818608E-02  0.8782864E-01
         -2   -1    0    0    0  501 -0.00000000000E+00  0.00000000000E+00  0.39519513055E+03  0.39519513055E+03  0.00000000000E+00 0.  1.
          2   -1    0    0  501    0  0.00000000000E+00 -0.00000000000E+00 -0.17490963551E+04  0.17490963551E+04  0.00000000000E+00 0. -1.
         23    2    1    2    0    0  0.27465909317E+03 -0.76499990813E+03 -0.88930912980E+03  0.12080712704E+04  0.88898757773E+02 0.  0.
         11    1    3    3    0    0  0.12804398544E+03 -0.45121048378E+03 -0.46661808086E+03  0.66160305037E+03  0.00000000000E+00 0. -1.
        -11    1    3    3    0    0  0.14661510773E+03 -0.31378942435E+03 -0.42269104895E+03  0.54646822003E+03  0.00000000000E+00 0.  1.
         22    1    1    2    0    0 -0.27465909317E+03  0.76499990813E+03 -0.46459209472E+03  0.93622021522E+03  0.00000000000E+00 0. -1.
<mgrwt>
<rscale>  0 0.16628101E+04</rscale>
<asrwt>0</asrwt>
<pdfrwt beam="1">  1        2 0.26909175E+00 0.16628101E+04</pdfrwt>
<pdfrwt beam="2">  1       -2 0.60799250E-01 0.16628101E+04</pdfrwt>
<totfact> 0.22129732E+01</totfact>
</mgrwt>
</event>
<event>
 6    1  0.1637818E-005  0.1434767E+04  0.7818608E-02  0.8929030E-01
          2   -1    0    0  501    0  0.00000000000E+00  0.00000000000E+00  0.81017211880E+03  0.81017211880E+03  0.00000000000E+00 0. -1.
         -2   -1    0    0    0  501 -0.00000000000E+00 -0.00000000000E+00 -0.63522156820E+03  0.63522156820E+03  0.00000000000E+00 0.  1.
         23    2    1    2    0    0 -0.42798566915E+03  0.32999523640E+03 -0.38286889265E+03  0.66871413898E+03  0.92311546777E+02 0.  0.
         13    1    3    3    0    0 -0.16754019272E+03  0.16973166276E+03 -0.12826909504E+03  0.27079792145E+03  0.00000000000E+00 0. -1.
        -13    1    3    3    0    0 -0.26044547643E+03  0.16026357364E+03 -0.25459979762E+03  0.39791621754E+03  0.00000000000E+00 0.  1.
         22    1    1    2    0    0  0.42798566915E+03 -0.32999523640E+03  0.55781944325E+03  0.77667954802E+03  0.00000000000E+00 0. -1.
<mgrwt>
<rscale>  0 0.14347666E+04</rscale>
<asrwt>0</asrwt>
<pdfrwt beam="1">  1        2 0.12464186E+00 0.14347666E+04</pdfrwt>
<pdfrwt beam="2">  1       -2 0.97726395E-01 0.14347666E+04</pdfrwt>
<totfact> 0.28684513E+01</totfact>
</mgrwt>
</event>
<event>
 6    1  0.1637818E-005  0.1662115E+04  0.7818608E-02  0.8783272E-01
          2   -1    0    0  501    0  0.00000000000E+00  0.00000000000E+00  0.12190811797E+04  0.12190811797E+04  0.00000000000E+00 0. -1.
         -2   -1    0    0    0  501 -0.00000000000E+00 -0.00000000000E+00 -0.56653831123E+03  0.56653831123E+03  0.00000000000E+00 0.  1.
         23    2    1    2    0    0 -0.61929815675E+03  0.22396116678E+03 -0.21299205514E+03  0.69803523433E+03  0.90547013399E+02 0.  0.
         11    1    3    3    0    0 -0.24641595766E+03  0.50026441366E+02 -0.55680946430E+02  0.25753414690E+03  0.00000000000E+00 0.  1.
        -11    1    3    3    0    0 -0.37288219910E+03  0.17393472541E+03 -0.15731110871E+03  0.44050108743E+03  0.00000000000E+00 0. -1.
         22    1    1    2    0    0  0.61929815675E+03 -0.22396116678E+03  0.86553492356E+03  0.10875842565E+04  0.00000000000E+00 0. -1.
<mgrwt>
<rscale>  0 0.16621145E+04</rscale>
<asrwt>0</asrwt>
<pdfrwt beam="1">  1        2 0.18755095E+00 0.16621145E+04</pdfrwt>
<pdfrwt beam="2">  1       -2 0.87159740E-01 0.16621145E+04</pdfrwt>
<totfact> 0.20036697E+01</totfact>
</mgrwt>
</event>
<event>
 6    1  0.1637818E-005  0.5101432E+04  0.7818608E-02  0.7813048E-01
          2   -1    0    0  501    0  0.00000000000E+00  0.00000000000E+00  0.20092564313E+04  0.20092564313E+04  0.00000000000E+00 0. -1.
         -2   -1    0    0    0  501 -0.00000000000E+00 -0.00000000000E+00 -0.32380892558E+04  0.32380892558E+04  0.00000000000E+00 0.  1.
         23    2    1    2    0    0 -0.23898954403E+04  0.65574255175E+03 -0.12315186794E+04  0.27691193610E+04  0.98920511993E+02 0.  0.
         13    1    3    3    0    0 -0.88633209784E+03  0.19431836112E+03 -0.44279097430E+03  0.10096573974E+04  0.00000000000E+00 0. -1.
        -13    1    3    3    0    0 -0.15035633425E+04  0.46142419063E+03 -0.78872770512E+03  0.17594619636E+04  0.00000000000E+00 0.  1.
         22    1    1    2    0    0  0.23898954403E+04 -0.65574255175E+03  0.26858550117E+01  0.24782263261E+04  0.00000000000E+00 0. -1.
<mgrwt>
<rscale>  0 0.51014318E+04</rscale>
<asrwt>0</asrwt>
<pdfrwt beam="1">  1        2 0.30911638E+00 0.51014318E+04</pdfrwt>
<pdfrwt beam="2">  1       -2 0.49816757E+00 0.51014318E+04</pdfrwt>
<totfact> 0.81322880E-03</totfact>
</mgrwt>
</event>
<event>
 6    1  0.1637818E-005  0.9445556E+03  0.7818608E-02  0.9371537E-01
         -1   -1    0    0    0  501 -0.00000000000E+00  0.00000000000E+00  0.44858964518E+03  0.44858964518E+03  0.00000000000E+00 0.  1.
          1   -1    0    0  501    0  0.00000000000E+00 -0.00000000000E+00 -0.49721685355E+03  0.49721685355E+03  0.00000000000E+00 0. -1.
         23    2    1    2    0    0 -0.27373420319E+03 -0.20642655680E+03 -0.34346318622E+03  0.49362225400E+03  0.90297464000E+02 0.  0.
         11    1    3    3    0    0 -0.13560017230E+03 -0.57137413231E+02 -0.10830208641E+03  0.18270586373E+03  0.00000000000E+00 0. -1.
        -11    1    3    3    0    0 -0.13813403089E+03 -0.14928914357E+03 -0.23516109980E+03  0.31091639027E+03  0.00000000000E+00 0.  1.
         22    1    1    2    0    0  0.27373420319E+03  0.20642655680E+03  0.29483597785E+03  0.45218424473E+03  0.00000000000E+00 0.  1.
<mgrwt>
<rscale>  0 0.94455562E+03</rscale>
<asrwt>0</asrwt>
<pdfrwt beam="1">  1        1 0.76494901E-01 0.94455562E+03</pdfrwt>
<pdfrwt beam="2">  1       -1 0.69013791E-01 0.94455562E+03</pdfrwt>
<totfact> 0.95462396E+01</totfact>
</mgrwt>
</event>
<event>
 6    1  0.1637818E-005  0.2091010E+04  0.7818608E-02  0.8565214E-01
          2   -1    0    0  501    0  0.00000000000E+00  0.00000000000E+00  0.15786542591E+04  0.15786542591E+04  0.00000000000E+00 0. -1.
         -2   -1    0    0    0  501 -0.00000000000E+00 -0.00000000000E+00 -0.69241327094E+03  0.69241327094E+03  0.00000000000E+00 0.  1.
         23    2    1    2    0    0  0.33517010914E+03  0.76880195492E+03  0.11183476436E+04  0.14008555172E+04  0.91100384457E+02 0.  0.
         11    1    3    3    0    0  0.17747483005E+03  0.31175146235E+03  0.51652088539E+03  0.62887209719E+03  0.00000000000E+00 0. -1.
        -11    1    3    3    0    0  0.15769527909E+03  0.45705049257E+03  0.60182675823E+03  0.77198341998E+03  0.00000000000E+00 0.  1.
         22    1    1    2    0    0 -0.33517010914E+03 -0.76880195492E+03 -0.23210665541E+03  0.87021201292E+03  0.00000000000E+00 0.  1.
<mgrwt>
<rscale>  0 0.20910104E+04</rscale>
<asrwt>0</asrwt>
<pdfrwt beam="1">  1        2 0.24286988E+00 0.20910104E+04</pdfrwt>
<pdfrwt beam="2">  1       -2 0.10652512E+00 0.20910104E+04</pdfrwt>
<totfact> 0.75069645E+00</totfact>
</mgrwt>
</event>
<event>
 6    1  0.1637818E-005  0.3464947E+04  0.7818608E-02  0.8122148E-01
          2   -1    0    0  501    0  0.00000000000E+00  0.00000000000E+00  0.47636365655E+04  0.47636365655E+04  0.00000000000E+00 0.  1.
         -2   -1    0    0    0  501 -0.00000000000E+00 -0.00000000000E+00 -0.63007840640E+03  0.63007840640E+03  0.00000000000E+00 0. -1.
         23    2    1    2    0    0 -0.68269559613E+03 -0.12573060904E+04  0.55051057033E+03  0.15355908286E+04  0.89918979454E+02 0.  0.
         11    1    3    3    0    0 -0.46161053671E+03 -0.86705237831E+03  0.42140121500E+03  0.10688512985E+04  0.00000000000E+00 0.  1.
        -11    1    3    3    0    0 -0.22108505942E+03 -0.39025371208E+03  0.12910935533E+03  0.46673953006E+03  0.00000000000E+00 0. -1.
         22    1    1    2    0    0  0.68269559613E+03  0.12573060904E+04  0.35830475887E+04  0.38581241433E+04  0.00000000000E+00 0.  1.
<mgrwt>
<rscale>  0 0.34649471E+04</rscale>
<asrwt>0</asrwt>
<pdfrwt beam="1">  1        2 0.73286714E+00 0.34649471E+04</pdfrwt>
<pdfrwt beam="2">  1       -2 0.96935142E-01 0.34649471E+04</pdfrwt>
<totfact> 0.47620084E-02</totfact>
</mgrwt>
</event>
<event>
 6    1  0.1637818E-005  0.3605141E+04  0.7818608E-02  0.8089315E-01
         -2   -1    0    0    0  501 -0.00000000000E+00  0.00000000000E+00  0.82329239536E+03  0.82329239536E+03  0.00000000000E+00 0.  1.
          2   -1    0    0  501    0  0.00000000000E+00 -0.00000000000E+00 -0.39466669710E+04  0.39466669710E+04  0.00000000000E+00 0. -1.
         23    2    1    2    0    0  0.71404841562E+03  0.96651464847E+03 -0.33382556097E+04  0.35492261587E+04  0.95079465899E+02 0.  0.
         13    1    3    3    0    0  0.36837239393E+03  0.57592723980E+03 -0.19242003413E+04  0.20420424481E+04  0.00000000000E+00 0.  1.
        -13    1    3    3    0    0  0.34567602169E+03  0.39058740867E+03 -0.14140552683E+04  0.15071837106E+04  0.00000000000E+00 0. -1.
         22    1    1    2    0    0 -0.71404841562E+03 -0.96651464847E+03  0.21488103398E+03  0.12207332077E+04  0.00000000000E+00 0.  1.
<mgrwt>
<rscale>  0 0.36051413E+04</rscale>
<asrwt>0</asrwt>
<pdfrwt beam="1">  1        2 0.60717953E+00 0.36051413E+04</pdfrwt>
<pdfrwt beam="2">  1       -2 0.12666037E+00 0.36051413E+04</pdfrwt>
<totfact> 0.14228528E-01</totfact>
</mgrwt>
</event>
<event>
 6    1  0.1637818E-005  0.8181584E+03  0.7818608E-02  0.9534099E-01
         -2   -1    0    0    0  501 -0.00000000000E+00  0.00000000000E+00  0.23577669957E+03  0.23577669957E+03  0.00000000000E+00 0.  1.
          2   -1    0    0  501    0  0.00000000000E+00 -0.00000000000E+00 -0.70976396961E+03  0.70976396961E+03  0.00000000000E+00 0. -1.
         23    2    1    2    0    0  0.17313064294E+03  0.23715816402E+03 -0.56077926855E+03  0.63935271173E+03  0.89890420385E+02 0.  0.
         11    1    3    3    0    0  0.16790159300E+03  0.17337667279E+03 -0.46910884418E+03  0.52755428468E+03  0.00000000000E+00 0.  1.
        -11    1    3    3    0    0  0.52290499422E+01  0.63781491224E+02 -0.91670424369E+02  0.11179842705E+03  0.00000000000E+00 0. -1.
         22    1    1    2    0    0 -0.17313064294E+03 -0.23715816402E+03  0.86791998512E+02  0.30618795745E+03  0.00000000000E+00 0.  1.
<mgrwt>
<rscale>  0 0.81815844E+03</rscale>
<asrwt>0</asrwt>
<pdfrwt beam="1">  1        2 0.10919445E+00 0.81815844E+03</pdfrwt>
<pdfrwt beam="2">  1       -2 0.36273339E-01 0.81815844E+03</pdfrwt>
<totfact> 0.28932167E+02</totfact>
</mgrwt>
</event>
<event>
 6    1  0.1637818E-005  0.1659318E+04  0.7818608E-02  0.8784913E-01
          2   -1    0    0  501    0  0.00000000000E+00  0.00000000000E+00  0.29189402412E+04  0.29189402412E+04  0.00000000000E+00 0. -1.
         -2   -1    0    0    0  501 -0.00000000000E+00 -0.00000000000E+00 -0.23581656032E+03  0.23581656032E+03  0.00000000000E+00 0.  1.
         23    2    1    2    0    0 -0.26303366080E+03  0.20190865297E+03  0.27863099389E+04  0.28074799455E+04  0.92014987249E+02 0.  0.
         13    1    3    3    0    0 -0.18036668209E+02  0.55084986839E+02  0.53169864345E+03  0.53484869320E+03  0.00000000000E+00 0.  1.
        -13    1    3    3    0    0 -0.24499699259E+03  0.14682366613E+03  0.22546112955E+04  0.22726312523E+04  0.00000000000E+00 0. -1.
         22    1    1    2    0    0  0.26303366080E+03 -0.20190865297E+03 -0.10318625806E+03  0.34727685599E+03  0.00000000000E+00 0.  1.
<mgrwt>
<rscale>  0 0.16593185E+04</rscale>
<asrwt>0</asrwt>
<pdfrwt beam="1">  1        2 0.44906770E+00 0.16593185E+04</pdfrwt>
<pdfrwt beam="2">  1       -2 0.36279473E-01 0.16593185E+04</pdfrwt>
<totfact> 0.13409863E+01</totfact>
</mgrwt>
</event>
<event>
 6    1  0.1637818E-005  0.1335121E+04  0.7818608E-02  0.9002168E-01
         -2   -1    0    0    0  501 -0.00000000000E+00  0.00000000000E+00  0.28744879615E+03  0.28744879615E+03  0.00000000000E+00 0.  1.
          2   -1    0    0  501    0  0.00000000000E+00 -0.00000000000E+00 -0.15503178585E+04  0.15503178585E+04  0.00000000000E+00 0. -1.
         23    2    1    2    0    0  0.62998852360E+03  0.14289846768E+03 -0.84715860071E+03  0.10695735150E+04  0.94890975396E+02 0.  0.
         13    1    3    3    0    0  0.41074145749E+03  0.13427044701E+03 -0.59409772242E+03  0.73463542089E+03  0.00000000000E+00 0. -1.
        -13    1    3    3    0    0  0.21924706611E+03  0.86280206777E+01 -0.25306087829E+03  0.33493809407E+03  0.00000000000E+00 0.  1.
         22    1    1    2    0    0 -0.62998852360E+03 -0.14289846768E+03 -0.41571046163E+03  0.76819313967E+03  0.00000000000E+00 0.  1.
<mgrwt>
<rscale>  0 0.13351210E+04</rscale>
<asrwt>0</asrwt>
<pdfrwt beam="1">  1        2 0.23851044E+00 0.13351210E+04</pdfrwt>
<pdfrwt beam="2">  1       -2 0.44222891E-01 0.13351210E+04</pdfrwt>
<totfact> 0.56365398E+01</totfact>
</mgrwt>
</event>
<event>
 6    1  0.1637818E-005  0.1866990E+04  0.7818608E-02  0.8671465E-01
          1   -1    0    0  501    0  0.00000000000E+00  0.00000000000E+00  0.10771691804E+04  0.10771691804E+04  0.00000000000E+00 0. -1.
         -1   -1    0    0    0  501 -0.00000000000E+00 -0.00000000000E+00 -0.80898385972E+03  0.80898385972E+03  0.00000000000E+00 0.  1.
         23    2    1    2    0    0  0.36654589015E+03 -0.84414293104E+03  0.27851753368E+03  0.96580531661E+03  0.90965462703E+02 0.  0.
         11    1    3    3    0    0  0.21536172633E+03 -0.59952712889E+03  0.20056617087E+03  0.66786244118E+03  0.00000000000E+00 0. -1.
        -11    1    3    3    0    0  0.15118416383E+03 -0.24461580215E+03  0.77951362816E+02  0.29794287543E+03  0.00000000000E+00 0.  1.
         22    1    1    2    0    0 -0.36654589015E+03  0.84414293104E+03 -0.10332212971E+02  0.92034772355E+03  0.00000000000E+00 0.  1.
<mgrwt>
<rscale>  0 0.18669895E+04</rscale>
<asrwt>0</asrwt>
<pdfrwt beam="1">  1        1 0.16571834E+00 0.18669895E+04</pdfrwt>
<pdfrwt beam="2">  1       -1 0.12445906E+00 0.18669895E+04</pdfrwt>
<totfact> 0.70036810E+00</totfact>
</mgrwt>
</event>
<event>
 6    1  0.1637818E-005  0.1215882E+04  0.7818608E-02  0.9099067E-01
         -2   -1    0    0    0  501 -0.00000000000E+00  0.00000000000E+00  0.26130353785E+03  0.26130353785E+03  0.00000000000E+00 0. -1.
          2   -1    0    0  501    0  0.00000000000E+00 -0.00000000000E+00 -0.14144181819E+04  0.14144181819E+04  0.00000000000E+00 0.  1.
         23    2    1    2    0    0 -0.45679248330E+02 -0.55142573313E+03 -0.24414765981E+03  0.61158925086E+03  0.90974716794E+02 0.  0.
         13    1    3    3    0    0 -0.11886806002E+02 -0.48101806175E+03 -0.19414669105E+03  0.51885702225E+03  0.00000000000E+00 0.  1.
        -13    1    3    3    0    0 -0.33792442328E+02 -0.70407671375E+02 -0.50000968762E+02  0.92732228616E+02  0.00000000000E+00 0. -1.
         22    1    1    2    0    0  0.45679248330E+02  0.55142573313E+03 -0.90896698423E+03  0.10641324689E+04  0.00000000000E+00 0.  1.
<mgrwt>
<rscale>  0 0.12158824E+04</rscale>
<asrwt>0</asrwt>
<pdfrwt beam="1">  1        2 0.21760280E+00 0.12158824E+04</pdfrwt>
<pdfrwt beam="2">  1       -2 0.40200544E-01 0.12158824E+04</pdfrwt>
<totfact> 0.81918877E+01</totfact>
</mgrwt>
</event>
<event>
 6    1  0.1637818E-005  0.2670734E+04  0.7818608E-02  0.8344564E-01
         -2   -1    0    0    0  501 -0.00000000000E+00  0.00000000000E+00  0.17577887072E+04  0.17577887072E+04  0.00000000000E+00 0.  1.
          2   -1    0    0  501    0  0.00000000000E+00 -0.00000000000E+00 -0.10144589154E+04  0.10144589154E+04  0.00000000000E+00 0. -1.
         23    2    1    2    0    0  0.15968242561E+03  0.11410985741E+04  0.10696046036E+04  0.15747253115E+04  0.90007587857E+02 0.  0.
         11    1    3    3    0    0  0.13055696648E+03  0.10358190740E+04  0.99674473105E+03  0.14434217452E+04  0.00000000000E+00 0.  1.
        -11    1    3    3    0    0  0.29125459134E+02  0.10527950004E+03  0.72859872520E+02  0.13130356629E+03  0.00000000000E+00 0. -1.
         22    1    1    2    0    0 -0.15968242561E+03 -0.11410985741E+04 -0.32627481181E+03  0.11975223111E+04  0.00000000000E+00 0. -1.
<mgrwt>
<rscale>  0 0.26707336E+04</rscale>
<asrwt>0</asrwt>
<pdfrwt beam="1">  1        2 0.15607060E+00 0.26707336E+04</pdfrwt>
<pdfrwt beam="2">  1       -2 0.27042903E+00 0.26707336E+04</pdfrwt>
<totfact> 0.10445337E+00</totfact>
</mgrwt>
</event>
<event>
 6    1  0.1637818E-005  0.2404696E+04  0.7818608E-02  0.8437747E-01
          2   -1    0    0  501    0  0.00000000000E+00  0.00000000000E+00  0.35737459571E+04  0.35737459571E+04  0.00000000000E+00 0.  1.
         -2   -1    0    0    0  501 -0.00000000000E+00 -0.00000000000E+00 -0.40451701043E+03  0.40451701043E+03  0.00000000000E+00 0. -1.
         23    2    1    2    0    0 -0.24356087080E+03  0.11646241764E+04  0.18525522192E+04  0.22036337176E+04  0.91544887258E+02 0.  0.
         11    1    3    3    0    0 -0.21920929549E+03  0.97374516700E+03  0.14945862676E+04  0.17972257723E+04  0.00000000000E+00 0. -1.
        -11    1    3    3    0    0 -0.24351575314E+02  0.19087900940E+03  0.35796595162E+03  0.40640794526E+03  0.00000000000E+00 0.  1.
         22    1    1    2    0    0  0.24356087080E+03 -0.11646241764E+04  0.13166767274E+04  0.17746292499E+04  0.00000000000E+00 0.  1.
<mgrwt>
<rscale>  0 0.24046963E+04</rscale>
<asrwt>0</asrwt>
<pdfrwt beam="1">  1        2 0.54980705E+00 0.24046963E+04</pdfrwt>
<pdfrwt beam="2">  1       -2 0.62233389E-01 0.24046963E+04</pdfrwt>
<totfact> 0.15565086E+00</totfact>
</mgrwt>
</event>
<event>
 6    1  0.1637818E-005  0.2914704E+04  0.7818608E-02  0.8268516E-01
         -1   -1    0    0    0  501 -0.00000000000E+00  0.00000000000E+00  0.15482507011E+04  0.15482507011E+04  0.00000000000E+00 0.  1.
          1   -1    0    0  501    0  0.00000000000E+00 -0.00000000000E+00 -0.13717904632E+04  0.13717904632E+04  0.00000000000E+00 0. -1.
         23    2    1    2    0    0  0.11965716740E+04 -0.56902012708E+03 -0.51616337709E+03  0.14249508166E+04  0.92154879960E+02 0.  0.
         11    1    3    3    0    0  0.42817265447E+03 -0.19970409487E+03 -0.23161788418E+03  0.52617524819E+03  0.00000000000E+00 0.  1.
        -11    1    3    3    0    0  0.76839901950E+03 -0.36931603221E+03 -0.28454549291E+03  0.89877556840E+03  0.00000000000E+00 0. -1.
         22    1    1    2    0    0 -0.11965716740E+04  0.56902012708E+03  0.69262361496E+03  0.14950903478E+04  0.00000000000E+00 0.  1.
<mgrwt>
<rscale>  0 0.29147045E+04</rscale>
<asrwt>0</asrwt>
<pdfrwt beam="1">  1        1 0.21104469E+00 0.29147045E+04</pdfrwt>
<pdfrwt beam="2">  1       -1 0.23819241E+00 0.29147045E+04</pdfrwt>
<totfact> 0.57451834E-01</totfact>
</mgrwt>
</event>
<event>
 6    1  0.1637818E-005  0.2201323E+04  0.7818608E-02  0.8517878E-01
         -2   -1    0    0    0  501 -0.00000000000E+00  0.00000000000E+00  0.50879088981E+03  0.50879088981E+03  0.00000000000E+00 0.  1.
          2   -1    0    0  501    0  0.00000000000E+00 -0.00000000000E+00 -0.23810474631E+04  0.23810474631E+04  0.00000000000E+00 0. -1.
         23    2    1    2    0    0  0.99853814924E+03 -0.28636367554E+03 -0.46773791370E+03  0.11429109774E+04  0.91565038045E+02 0.  0.
         11    1    3    3    0    0  0.85163086915E+03 -0.24276906197E+03 -0.43315924411E+03  0.98581889082E+03  0.00000000000E+00 0.  1.
        -11    1    3    3    0    0  0.14690728009E+03 -0.43594613570E+02 -0.34578669592E+02  0.15709208658E+03  0.00000000000E+00 0. -1.
         22    1    1    2    0    0 -0.99853814924E+03  0.28636367554E+03 -0.14045186596E+04  0.17469273755E+04  0.00000000000E+00 0. -1.
<mgrwt>
<rscale>  0 0.22013226E+04</rscale>
<asrwt>0</asrwt>
<pdfrwt beam="1">  1        2 0.36631499E+00 0.22013226E+04</pdfrwt>
<pdfrwt beam="2">  1       -2 0.78275522E-01 0.22013226E+04</pdfrwt>
<totfact> 0.54076826E+00</totfact>
</mgrwt>
</event>
<event>
 6    1  0.1637818E-005  0.1476395E+04  0.7818608E-02  0.8900303E-01
          1   -1    0    0  501    0  0.00000000000E+00  0.00000000000E+00  0.15242449545E+04  0.15242449545E+04  0.00000000000E+00 0. -1.
         -1   -1    0    0    0  501 -0.00000000000E+00 -0.00000000000E+00 -0.35751184078E+03  0.35751184078E+03  0.00000000000E+00 0.  1.
         23    2    1    2    0    0 -0.27831828157E+02  0.25296650224E+03  0.14650328924E+04  0.14896478565E+04  0.89233954100E+02 0.  0.
         13    1    3    3    0    0 -0.24716375653E+02  0.21021234932E+03  0.13572205534E+04  0.13736257721E+04  0.00000000000E+00 0. -1.
        -13    1    3    3    0    0 -0.31154525043E+01  0.42754152920E+02  0.10781233901E+03  0.11602208445E+03  0.00000000000E+00 0.  1.
         22    1    1    2    0    0  0.27831828157E+02 -0.25296650224E+03 -0.29829977869E+03  0.39210893880E+03  0.00000000000E+00 0.  1.
<mgrwt>
<rscale>  0 0.14763951E+04</rscale>
<asrwt>0</asrwt>
<pdfrwt beam="1">  1        1 0.23449922E+00 0.14763951E+04</pdfrwt>
<pdfrwt beam="2">  1       -1 0.55001822E-01 0.14763951E+04</pdfrwt>
<totfact> 0.20376531E+01</totfact>
</mgrwt>
</event>
<event>
 6    1  0.1637818E-005  0.1290862E+04  0.7818608E-02  0.9036843E-01
         -1   -1    0    0    0  501 -0.00000000000E+00  0.00000000000E+00  0.42810002950E+03  0.42810002950E+03  0.00000000000E+00 0.  1.
          1   -1    0    0  501    0  0.00000000000E+00 -0.00000000000E+00 -0.97309307388E+03  0.97309307388E+03  0.00000000000E+00 0. -1.
         23    2    1    2    0    0 -0.22897340249E+03 -0.40889951786E+03  0.19890097358E+03  0.52198553703E+03  0.11523744537E+03 0.  0.
         11    1    3    3    0    0 -0.11768735859E+03 -0.16922297964E+03  0.14573166873E+03  0.25243702280E+03  0.00000000000E+00 0. -1.
        -11    1    3    3    0    0 -0.11128604390E+03 -0.23967653823E+03  0.53169304852E+02  0.26954851423E+03  0.00000000000E+00 0.  1.
         22    1    1    2    0    0  0.22897340249E+03  0.40889951786E+03 -0.74389401796E+03  0.87920756635E+03  0.00000000000E+00 0. -1.
<mgrwt>
<rscale>  0 0.12908620E+04</rscale>
<asrwt>0</asrwt>
<pdfrwt beam="1">  1        1 0.14970662E+00 0.12908620E+04</pdfrwt>
<pdfrwt beam="2">  1       -1 0.65861544E-01 0.12908620E+04</pdfrwt>
<totfact> 0.36503699E+01</totfact>
</mgrwt>
</event>
<event>
 6    1  0.1637818E-005  0.1392366E+04  0.7818608E-02  0.8959363E-01
         -1   -1    0    0    0  501 -0.00000000000E+00  0.00000000000E+00  0.76853849090E+03  0.76853849090E+03  0.00000000000E+00 0.  1.
          1   -1    0    0  501    0  0.00000000000E+00 -0.00000000000E+00 -0.63063928984E+03  0.63063928984E+03  0.00000000000E+00 0. -1.
         23    2    1    2    0    0 -0.61190040060E+03  0.22559725906E+03  0.30522158477E+03  0.72589254873E+03  0.91888807507E+02 0.  0.
         11    1    3    3    0    0 -0.37591720750E+03  0.93706875103E+02  0.16162056415E+03  0.41978081435E+03  0.00000000000E+00 0. -1.
        -11    1    3    3    0    0 -0.23598319310E+03  0.13189038395E+03  0.14360102063E+03  0.30611173439E+03  0.00000000000E+00 0.  1.
         22    1    1    2    0    0  0.61190040060E+03 -0.22559725906E+03 -0.16732238371E+03  0.67328523201E+03  0.00000000000E+00 0. -1.
<mgrwt>
<rscale>  0 0.13923657E+04</rscale>
<asrwt>0</asrwt>
<pdfrwt beam="1">  1        1 0.97021429E-01 0.13923657E+04</pdfrwt>
<pdfrwt beam="2">  1       -1 0.11823669E+00 0.13923657E+04</pdfrwt>
<totfact> 0.19952881E+01</totfact>
</mgrwt>
</event>
<event>
 6    1  0.1637818E-005  0.1002330E+04  0.7818608E-02  0.9305993E-01
         -1   -1    0    0    0  501 -0.00000000000E+00  0.00000000000E+00  0.12002310507E+04  0.12002310507E+04  0.00000000000E+00 0.  1.
          1   -1    0    0  501    0  0.00000000000E+00 -0.00000000000E+00 -0.20926484463E+03  0.20926484463E+03  0.00000000000E+00 0. -1.
         23    2    1    2    0    0 -0.26222206132E+03  0.21912886821E+03 -0.77444105404E+01  0.35393880731E+03  0.91841347433E+02 0.  0.
         11    1    3    3    0    0 -0.20616199076E+03  0.13561156166E+03 -0.36192765794E+02  0.24940565027E+03  0.00000000000E+00 0. -1.
        -11    1    3    3    0    0 -0.56060070564E+02  0.83517306543E+02  0.28448355254E+02  0.10453315704E+03  0.00000000000E+00 0.  1.
         22    1    1    2    0    0  0.26222206132E+03 -0.21912886821E+03  0.99871061662E+03  0.10555570880E+04  0.00000000000E+00 0. -1.
<mgrwt>
<rscale>  0 0.10023296E+04</rscale>
<asrwt>0</asrwt>
<pdfrwt beam="1">  1        1 0.32194592E-01 0.10023296E+04</pdfrwt>
<pdfrwt beam="2">  1       -1 0.18465093E+00 0.10023296E+04</pdfrwt>
<totfact> 0.27131376E+01</totfact>
</mgrwt>
</event>
<event>
 6    1  0.1637818E-005  0.5775073E+03  0.7818608E-02  0.9953202E-01
          2   -1    0    0  501    0  0.00000000000E+00  0.00000000000E+00  0.28014522811E+03  0.28014522811E+03  0.00000000000E+00 0. -1.
         -2   -1    0    0    0  501 -0.00000000000E+00 -0.00000000000E+00 -0.29762654681E+03  0.29762654681E+03  0.00000000000E+00 0.  1.
         23    2    1    2    0    0  0.25473572206E+03  0.10039037950E+03 -0.74878611291E+02  0.29801658625E+03  0.90766529414E+02 0.  0.
         11    1    3    3    0    0  0.90110020005E+02 -0.75542332725E+01 -0.36146391843E+02  0.97382974841E+02  0.00000000000E+00 0. -1.
        -11    1    3    3    0    0  0.16462570205E+03  0.10794461277E+03 -0.38732219448E+02  0.20063361141E+03  0.00000000000E+00 0.  1.
         22    1    1    2    0    0 -0.25473572206E+03 -0.10039037950E+03  0.57397292591E+02  0.27975518867E+03  0.00000000000E+00 0. -1.
<mgrwt>
<rscale>  0 0.57750725E+03</rscale>
<asrwt>0</asrwt>
<pdfrwt beam="1">  1        2 0.43099266E-01 0.57750725E+03</pdfrwt>
<pdfrwt beam="2">  1       -2 0.45788700E-01 0.57750725E+03</pdfrwt>
<totfact> 0.54019095E+02</totfact>
</mgrwt>
</event>
<event>
 6    1  0.1637818E-005  0.5258410E+04  0.7818608E-02  0.7789836E-01
          2   -1    0    0  501    0  0.00000000000E+00  0.00000000000E+00  0.30893967350E+04  0.30893967350E+04  0.00000000000E+00 0. -1.
         -2   -1    0    0    0  501 -0.00000000000E+00 -0.00000000000E+00 -0.22375625452E+04  0.22375625452E+04  0.00000000000E+00 0.  1.
         23    2    1    2    0    0 -0.13448454811E+04  0.93774635190E+03 -0.16552264963E+04  0.23314074324E+04  0.87796772992E+02 0.  0.
         13    1    3    3    0    0 -0.86576688322E+03  0.59584485311E+03 -0.11194914369E+04  0.15355274216E+04  0.00000000000E+00 0. -1.
        -13    1    3    3    0    0 -0.47907859786E+03  0.34190149879E+03 -0.53573505941E+03  0.79588001086E+03  0.00000000000E+00 0.  1.
         22    1    1    2    0    0  0.13448454811E+04 -0.93774635190E+03  0.25070606862E+04  0.29955518478E+04  0.00000000000E+00 0. -1.
<mgrwt>
<rscale>  0 0.52584098E+04</rscale>
<asrwt>0</asrwt>
<pdfrwt beam="1">  1        2 0.47529180E+00 0.52584098E+04</pdfrwt>
<pdfrwt beam="2">  1       -2 0.34424039E+00 0.52584098E+04</pdfrwt>
<totfact> 0.18428478E-02</totfact>
</mgrwt>
</event>
<event>
 6    1  0.1637818E-005  0.1478253E+04  0.7818608E-02  0.8899045E-01
          1   -1    0    0  501    0  0.00000000000E+00  0.00000000000E+00  0.92960604722E+03  0.92960604722E+03  0.00000000000E+00 0. -1.
         -1   -1    0    0    0  501 -0.00000000000E+00 -0.00000000000E+00 -0.58767666864E+03  0.58767666864E+03  0.00000000000E+00 0.  1.
         23    2    1    2    0    0 -0.28455503190E+03  0.66874560528E+03  0.50800220396E+02  0.73437247993E+03  0.92358140557E+02 0.  0.
         13    1    3    3    0    0 -0.26661885354E+02  0.15829377509E+03  0.42294159702E+01  0.16057914971E+03  0.00000000000E+00 0. -1.
        -13    1    3    3    0    0 -0.25789314654E+03  0.51045183020E+03  0.46570804425E+02  0.57379333022E+03  0.00000000000E+00 0.  1.
         22    1    1    2    0    0  0.28455503190E+03 -0.66874560528E+03  0.29112915818E+03  0.78291023592E+03  0.00000000000E+00 0.  1.
<mgrwt>
<rscale>  0 0.14782527E+04</rscale>
<asrwt>0</asrwt>
<pdfrwt beam="1">  1        1 0.14301631E+00 0.14782527E+04</pdfrwt>
<pdfrwt beam="2">  1       -1 0.90411795E-01 0.14782527E+04</pdfrwt>
<totfact> 0.19952480E+01</totfact>
</mgrwt>
</event>
<event>
 6    1  0.1637818E-005  0.3432982E+04  0.7818608E-02  0.8129859E-01
          2   -1    0    0  501    0  0.00000000000E+00  0.00000000000E+00  0.16895055062E+04  0.16895055062E+04  0.00000000000E+00 0. -1.
         -2   -1    0    0    0  501 -0.00000000000E+00 -0.00000000000E+00 -0.17439077211E+04  0.17439077211E+04  0.00000000000E+00 0.  1.
         23    2    1    2    0    0  0.56597109689E+03 -0.14826628078E+04 -0.67810920712E+03  0.17282379587E+04  0.91444305863E+02 0.  0.
         13    1    3    3    0    0  0.16089190961E+03 -0.32951098680E+03 -0.17861134786E+03  0.40787952950E+03  0.00000000000E+00 0. -1.
        -13    1    3    3    0    0  0.40507918728E+03 -0.11531518210E+04 -0.49949785926E+03  0.13203584292E+04  0.00000000000E+00 0.  1.
         22    1    1    2    0    0 -0.56597109689E+03  0.14826628078E+04  0.62370699225E+03  0.17051752685E+04  0.00000000000E+00 0.  1.
<mgrwt>
<rscale>  0 0.34329822E+04</rscale>
<asrwt>0</asrwt>
<pdfrwt beam="1">  1        2 0.25992392E+00 0.34329822E+04</pdfrwt>
<pdfrwt beam="2">  1       -2 0.26829350E+00 0.34329822E+04</pdfrwt>
<totfact> 0.40770421E-01</totfact>
</mgrwt>
</event>
<event>
 6    1  0.1637818E-005  0.1660956E+04  0.7818608E-02  0.8783951E-01
         -2   -1    0    0    0  501 -0.00000000000E+00  0.00000000000E+00  0.11035950603E+04  0.11035950603E+04  0.00000000000E+00 0.  1.
          2   -1    0    0  501    0  0.00000000000E+00 -0.00000000000E+00 -0.62495207133E+03  0.62495207133E+03  0.00000000000E+00 0. -1.
         23    2    1    2    0    0  0.42624985116E+03 -0.48732414153E+03  0.77731346093E+03  0.10155409568E+04  0.89069993886E+02 0.  0.
         13    1    3    3    0    0  0.22919987633E+03 -0.32424160871E+03  0.44996223456E+03  0.60010933725E+03  0.00000000000E+00 0. -1.
        -13    1    3    3    0    0  0.19704997482E+03 -0.16308253281E+03  0.32735122637E+03  0.41543161952E+03  0.00000000000E+00 0.  1.
         22    1    1    2    0    0 -0.42624985116E+03  0.48732414153E+03 -0.29867047198E+03  0.71300617484E+03  0.00000000000E+00 0. -1.
<mgrwt>
<rscale>  0 0.16609564E+04</rscale>
<asrwt>0</asrwt>
<pdfrwt beam="1">  1        2 0.96146473E-01 0.16609564E+04</pdfrwt>
<pdfrwt beam="2">  1       -2 0.16978386E+00 0.16609564E+04</pdfrwt>
<totfact> 0.96262724E+00</totfact>
</mgrwt>
</event>
<event>
 6    1  0.1637818E-005  0.5529173E+03  0.7818608E-02  0.1000821E+00
         -1   -1    0    0    0  501 -0.00000000000E+00  0.00000000000E+00  0.37020601331E+03  0.37020601331E+03  0.00000000000E+00 0.  1.
          1   -1    0    0  501    0  0.00000000000E+00 -0.00000000000E+00 -0.20645096561E+03  0.20645096561E+03  0.00000000000E+00 0. -1.
         23    2    1    2    0    0  0.41274778330E+02 -0.26228374268E+03  0.44929706612E+02  0.28576897524E+03  0.95649671600E+02 0.  0.
         13    1    3    3    0    0  0.38912871305E+02 -0.20898321928E+03  0.73904883572E+02  0.22505583598E+03  0.00000000000E+00 0.  1.
        -13    1    3    3    0    0  0.23619070243E+01 -0.53300523394E+02 -0.28975176960E+02  0.60713139259E+02  0.00000000000E+00 0. -1.
         22    1    1    2    0    0 -0.41274778330E+02  0.26228374268E+03  0.11882534108E+03  0.29088800367E+03  0.00000000000E+00 0. -1.
<mgrwt>
<rscale>  0 0.55291731E+03</rscale>
<asrwt>0</asrwt>
<pdfrwt beam="1">  1        1 0.31761687E-01 0.55291731E+03</pdfrwt>
<pdfrwt beam="2">  1       -1 0.56954771E-01 0.55291731E+03</pdfrwt>
<totfact> 0.45093775E+02</totfact>
</mgrwt>
</event>
<event>
 6    1  0.1637818E-005  0.1090547E+04  0.7818608E-02  0.9214455E-01
          1   -1    0    0  501    0  0.00000000000E+00  0.00000000000E+00  0.16665765035E+04  0.16665765035E+04  0.00000000000E+00 0. -1.
         -1   -1    0    0    0  501 -0.00000000000E+00 -0.00000000000E+00 -0.17840352020E+03  0.17840352020E+03  0.00000000000E+00 0.  1.
         23    2    1    2    0    0  0.11542144929E+03  0.49083378741E+03  0.41633752539E+03  0.66046697326E+03  0.92950362522E+02 0.  0.
         11    1    3    3    0    0  0.94088027025E+02  0.33723548306E+03  0.33834590086E+03  0.48688630756E+03  0.00000000000E+00 0. -1.
        -11    1    3    3    0    0  0.21333422267E+02  0.15359830436E+03  0.77991624530E+02  0.17358066570E+03  0.00000000000E+00 0.  1.
         22    1    1    2    0    0 -0.11542144929E+03 -0.49083378741E+03  0.10718354580E+04  0.11845130505E+04  0.00000000000E+00 0. -1.
<mgrwt>
<rscale>  0 0.10905469E+04</rscale>
<asrwt>0</asrwt>
<pdfrwt beam="1">  1        1 0.25639637E+00 0.10905469E+04</pdfrwt>
<pdfrwt beam="2">  1       -1 0.27446697E-01 0.10905469E+04</pdfrwt>
<totfact> 0.59737927E+01</totfact>
</mgrwt>
</event>
<event>
 6    1  0.1637818E-005  0.2649313E+04  0.7818608E-02  0.8351641E-01
          1   -1    0    0  501    0  0.00000000000E+00  0.00000000000E+00  0.27536353744E+04  0.27536353744E+04  0.00000000000E+00 0. -1.
         -1   -1    0    0    0  501 -0.00000000000E+00 -0.00000000000E+00 -0.63723561136E+03  0.63723561136E+03  0.00000000000E+00 0.  1.
         23    2    1    2    0    0  0.28615077892E+03 -0.10536206528E+04  0.20160888806E+04  0.22944855511E+04  0.89726367259E+02 0.  0.
         11    1    3    3    0    0  0.19784368751E+03 -0.65313152587E+03  0.13390464406E+04  0.15029199197E+04  0.00000000000E+00 0. -1.
        -11    1    3    3    0    0  0.88307091416E+02 -0.40048912697E+03  0.67704244002E+03  0.79156563140E+03  0.00000000000E+00 0.  1.
         22    1    1    2    0    0 -0.28615077892E+03  0.10536206528E+04  0.10031088245E+03  0.10963854347E+04  0.00000000000E+00 0.  1.
<mgrwt>
<rscale>  0 0.26493128E+04</rscale>
<asrwt>0</asrwt>
<pdfrwt beam="1">  1        1 0.42363620E+00 0.26493128E+04</pdfrwt>
<pdfrwt beam="2">  1       -1 0.98036250E-01 0.26493128E+04</pdfrwt>
<totfact> 0.78604584E-01</totfact>
</mgrwt>
</event>
<event>
 6    1  0.1637818E-005  0.9333567E+03  0.7818608E-02  0.9384818E-01
         -1   -1    0    0    0  501 -0.00000000000E+00  0.00000000000E+00  0.14792863372E+03  0.14792863372E+03  0.00000000000E+00 0.  1.
          1   -1    0    0  501    0  0.00000000000E+00 -0.00000000000E+00 -0.14722549266E+04  0.14722549266E+04  0.00000000000E+00 0. -1.
         23    2    1    2    0    0 -0.25135707781E+03  0.24008312171E+03 -0.11974767742E+04  0.12501685791E+04  0.90280482969E+02 0.  0.
         13    1    3    3    0    0 -0.17797035810E+03  0.13662568134E+03 -0.63212566297E+03  0.67076290815E+03  0.00000000000E+00 0. -1.
        -13    1    3    3    0    0 -0.73386719711E+02  0.10345744037E+03 -0.56535111123E+03  0.57940567098E+03  0.00000000000E+00 0.  1.
         22    1    1    2    0    0  0.25135707781E+03 -0.24008312171E+03 -0.12684951866E+03  0.37001498116E+03  0.00000000000E+00 0. -1.
<mgrwt>
<rscale>  0 0.93335665E+03</rscale>
<asrwt>0</asrwt>
<pdfrwt beam="1">  1        1 0.22650076E+00 0.93335665E+03</pdfrwt>
<pdfrwt beam="2">  1       -1 0.22758251E-01 0.93335665E+03</pdfrwt>
<totfact> 0.11320359E+02</totfact>
</mgrwt>
</event>
<event>
 6    1  0.1637818E-005  0.4278542E+04  0.7818608E-02  0.7950598E-01
          1   -1    0    0  501    0  0.00000000000E+00  0.00000000000E+00  0.29323420257E+04  0.29323420257E+04  0.00000000000E+00 0. -1.
         -1   -1    0    0    0  501 -0.00000000000E+00 -0.00000000000E+00 -0.15606913051E+04  0.15606913051E+04  0.00000000000E+00 0.  1.
         23    2    1    2    0    0  0.91330918231E+01 -0.13135523866E+04 -0.10857318444E+04  0.17065961152E+04  0.90296050372E+02 0.  0.
         11    1    3    3    0    0  0.12567809032E+02 -0.40949999950E+03 -0.28674207444E+03  0.50006921188E+03  0.00000000000E+00 0. -1.
        -11    1    3    3    0    0 -0.34347172091E+01 -0.90405238710E+03 -0.79898976996E+03  0.12065269033E+04  0.00000000000E+00 0.  1.
         22    1    1    2    0    0 -0.91330918231E+01  0.13135523866E+04  0.24573825650E+04  0.27864372156E+04  0.00000000000E+00 0. -1.
<mgrwt>
<rscale>  0 0.42785421E+04</rscale>
<asrwt>0</asrwt>
<pdfrwt beam="1">  1        1 0.45112954E+00 0.42785421E+04</pdfrwt>
<pdfrwt beam="2">  1       -1 0.24010635E+00 0.42785421E+04</pdfrwt>
<totfact> 0.41446935E-02</totfact>
</mgrwt>
</event>
<event>
 6    1  0.1637818E-005  0.1721475E+04  0.7818608E-02  0.8749210E-01
          1   -1    0    0  501    0  0.00000000000E+00  0.00000000000E+00  0.21096144389E+04  0.21096144389E+04  0.00000000000E+00 0. -1.
         -1   -1    0    0    0  501 -0.00000000000E+00 -0.00000000000E+00 -0.35118685405E+03  0.35118685405E+03  0.00000000000E+00 0.  1.
         23    2    1    2    0    0 -0.45779798835E+03  0.39733827039E+03  0.17503846960E+04  0.18545658706E+04  0.90062672856E+02 0.  0.
         13    1    3    3    0    0 -0.22437841394E+03  0.22244709284E+03  0.10301336900E+04  0.10774988636E+04  0.00000000000E+00 0. -1.
        -13    1    3    3    0    0 -0.23341957441E+03  0.17489117755E+03  0.72025100606E+03  0.77706700704E+03  0.00000000000E+00 0.  1.
         22    1    1    2    0    0  0.45779798835E+03 -0.39733827039E+03  0.80428888158E+01  0.60623542235E+03  0.00000000000E+00 0.  1.
<mgrwt>
<rscale>  0 0.17214748E+04</rscale>
<asrwt>0</asrwt>
<pdfrwt beam="1">  1        1 0.32455606E+00 0.17214748E+04</pdfrwt>
<pdfrwt beam="2">  1       -1 0.54028748E-01 0.17214748E+04</pdfrwt>
<totfact> 0.82507119E+00</totfact>
</mgrwt>
</event>
<event>
 6    1  0.1637818E-005  0.3468881E+04  0.7818608E-02  0.8121205E-01
          2   -1    0    0  501    0  0.00000000000E+00  0.00000000000E+00  0.16421302259E+04  0.16421302259E+04  0.00000000000E+00 0. -1.
         -2   -1    0    0    0  501 -0.00000000000E+00 -0.00000000000E+00 -0.18319394365E+04  0.18319394365E+04  0.00000000000E+00 0.  1.
         23    2    1    2    0    0  0.11764804524E+04 -0.11119730700E+04 -0.71531875919E+03  0.17720853356E+04  0.89527348072E+02 0.  0.
         13    1    3    3    0    0  0.44619673005E+03 -0.36969919260E+03 -0.23365774492E+03  0.62479193071E+03  0.00000000000E+00 0.  1.
        -13    1    3    3    0    0  0.73028372233E+03 -0.74227387740E+03 -0.48166101427E+03  0.11472934049E+04  0.00000000000E+00 0. -1.
         22    1    1    2    0    0 -0.11764804524E+04  0.11119730700E+04  0.52550954852E+03  0.17019843268E+04  0.00000000000E+00 0. -1.
<mgrwt>
<rscale>  0 0.34688806E+04</rscale>
<asrwt>0</asrwt>
<pdfrwt beam="1">  1        2 0.25263542E+00 0.34688806E+04</pdfrwt>
<pdfrwt beam="2">  1       -2 0.28183684E+00 0.34688806E+04</pdfrwt>
<totfact> 0.35711672E-01</totfact>
</mgrwt>
</event>
<event>
 6    1  0.1637818E-005  0.2612581E+04  0.7818608E-02  0.8363940E-01
          2   -1    0    0  501    0  0.00000000000E+00  0.00000000000E+00  0.25679430693E+04  0.25679430693E+04  0.00000000000E+00 0. -1.
         -2   -1    0    0    0  501 -0.00000000000E+00 -0.00000000000E+00 -0.66449847351E+03  0.66449847351E+03  0.00000000000E+00 0.  1.
         23    2    1    2    0    0 -0.67641960328E+03  0.10745762570E+04  0.13239874367E+04  0.18367237308E+04  0.91398680506E+02 0.  0.
         13    1    3    3    0    0 -0.55663407242E+03  0.85963091089E+03  0.11142954804E+04  0.15134269758E+04  0.00000000000E+00 0. -1.
        -13    1    3    3    0    0 -0.11978553086E+03  0.21494534606E+03  0.20969195637E+03  0.32329675495E+03  0.00000000000E+00 0.  1.
         22    1    1    2    0    0  0.67641960328E+03 -0.10745762570E+04  0.57945715909E+03  0.13957178121E+04  0.00000000000E+00 0. -1.
<mgrwt>
<rscale>  0 0.26125805E+04</rscale>
<asrwt>0</asrwt>
<pdfrwt beam="1">  1        2 0.39506816E+00 0.26125805E+04</pdfrwt>
<pdfrwt beam="2">  1       -2 0.10223054E+00 0.26125805E+04</pdfrwt>
<totfact> 0.22002006E+00</totfact>
</mgrwt>
</event>
<event>
 6    1  0.1637818E-005  0.1997390E+04  0.7818608E-02  0.8607842E-01
         -1   -1    0    0    0  501 -0.00000000000E+00  0.00000000000E+00  0.27407371012E+04  0.27407371012E+04  0.00000000000E+00 0.  1.
          1   -1    0    0  501    0  0.00000000000E+00 -0.00000000000E+00 -0.36391365301E+03  0.36391365301E+03  0.00000000000E+00 0. -1.
         23    2    1    2    0    0  0.96629335960E+03 -0.35510202505E+02  0.81577225958E+03  0.12683869810E+04  0.91308941497E+02 0.  0.
         13    1    3    3    0    0  0.11012672566E+03 -0.33391867571E+02  0.96848972961E+02  0.15040823145E+03  0.00000000000E+00 0.  1.
        -13    1    3    3    0    0  0.85616663395E+03 -0.21183349336E+01  0.71892328662E+03  0.11179787496E+04  0.00000000000E+00 0. -1.
         22    1    1    2    0    0 -0.96629335960E+03  0.35510202505E+02  0.15610511886E+04  0.18362637732E+04  0.00000000000E+00 0.  1.
<mgrwt>
<rscale>  0 0.19973899E+04</rscale>
<asrwt>0</asrwt>
<pdfrwt beam="1">  1        1 0.55986718E-01 0.19973899E+04</pdfrwt>
<pdfrwt beam="2">  1       -1 0.42165185E+00 0.19973899E+04</pdfrwt>
<totfact> 0.32107921E-01</totfact>
</mgrwt>
</event>
<event>
 6    1  0.1637818E-005  0.3916504E+04  0.7818608E-02  0.8021605E-01
         -2   -1    0    0    0  501 -0.00000000000E+00  0.00000000000E+00  0.18561514613E+04  0.18561514613E+04  0.00000000000E+00 0.  1.
          2   -1    0    0  501    0  0.00000000000E+00 -0.00000000000E+00 -0.20659690504E+04  0.20659690504E+04  0.00000000000E+00 0. -1.
         23    2    1    2    0    0 -0.13927784744E+04 -0.12986198384E+03 -0.14757219693E+04  0.20355336695E+04  0.94583166190E+02 0.  0.
         13    1    3    3    0    0 -0.43662553700E+03 -0.26885190845E+02 -0.40207189078E+03  0.59416031372E+03  0.00000000000E+00 0. -1.
        -13    1    3    3    0    0 -0.95615293741E+03 -0.10297679299E+03 -0.10736500785E+04  0.14413733557E+04  0.00000000000E+00 0.  1.
         22    1    1    2    0    0  0.13927784744E+04  0.12986198384E+03  0.12659043802E+04  0.18865868423E+04  0.00000000000E+00 0.  1.
<mgrwt>
<rscale>  0 0.39165043E+04</rscale>
<asrwt>0</asrwt>
<pdfrwt beam="1">  1        2 0.31784139E+00 0.39165043E+04</pdfrwt>
<pdfrwt beam="2">  1       -2 0.28556176E+00 0.39165043E+04</pdfrwt>
<totfact> 0.18989651E-01</totfact>
</mgrwt>
</event>
<event>
 6    1  0.1637818E-005  0.4033280E+04  0.7818608E-02  0.7997866E-01
          2   -1    0    0  501    0  0.00000000000E+00  0.00000000000E+00  0.12594781548E+04  0.12594781548E+04  0.00000000000E+00 0. -1.
         -2   -1    0    0    0  501 -0.00000000000E+00 -0.00000000000E+00 -0.32289863686E+04  0.32289863686E+04  0.00000000000E+00 0.  1.
         23    2    1    2    0    0  0.13892893257E+04 -0.11052098155E+04 -0.20474432299E+04  0.27114762192E+04  0.92010546477E+02 0.  0.
         13    1    3    3    0    0  0.33841304524E+03 -0.22008720546E+03 -0.46874174731E+03  0.61861182729E+03  0.00000000000E+00 0.  1.
        -13    1    3    3    0    0  0.10508762804E+04 -0.88512261008E+03 -0.15787014826E+04  0.20928643919E+04  0.00000000000E+00 0. -1.
         22    1    1    2    0    0 -0.13892893257E+04  0.11052098155E+04  0.77935016119E+02  0.17769883043E+04  0.00000000000E+00 0. -1.
<mgrwt>
<rscale>  0 0.40332804E+04</rscale>
<asrwt>0</asrwt>
<pdfrwt beam="1">  1        2 0.19376587E+00 0.40332804E+04</pdfrwt>
<pdfrwt beam="2">  1       -2 0.49676713E+00 0.40332804E+04</pdfrwt>
<totfact> 0.23767434E-02</totfact>
</mgrwt>
</event>
<event>
 6    1  0.1637818E-005  0.2234621E+04  0.7818608E-02  0.8504155E-01
          2   -1    0    0  501    0  0.00000000000E+00  0.00000000000E+00  0.19740547229E+04  0.19740547229E+04  0.00000000000E+00 0.  1.
         -2   -1    0    0    0  501 -0.00000000000E+00 -0.00000000000E+00 -0.63239512051E+03  0.63239512051E+03  0.00000000000E+00 0. -1.
         23    2    1    2    0    0  0.70867450558E+03  0.70734513012E+03  0.98600680027E+02  0.10102818784E+04  0.91600719411E+02 0.  0.
         13    1    3    3    0    0  0.60472029565E+03  0.64005504046E+03  0.10179719101E+03  0.88640834771E+03  0.00000000000E+00 0. -1.
        -13    1    3    3    0    0  0.10395420993E+03  0.67290089666E+02 -0.31965109828E+01  0.12387353071E+03  0.00000000000E+00 0.  1.
         22    1    1    2    0    0 -0.70867450558E+03 -0.70734513012E+03  0.12430589224E+04  0.15961679650E+04  0.00000000000E+00 0.  1.
<mgrwt>
<rscale>  0 0.22346208E+04</rscale>
<asrwt>0</asrwt>
<pdfrwt beam="1">  1        2 0.30370072E+00 0.22346208E+04</pdfrwt>
<pdfrwt beam="2">  1       -2 0.97291558E-01 0.22346208E+04</pdfrwt>
<totfact> 0.55479543E+00</totfact>
</mgrwt>
</event>
<event>
 6    1  0.1637818E-005  0.2198843E+04  0.7818608E-02  0.8518910E-01
          1   -1    0    0  501    0  0.00000000000E+00  0.00000000000E+00  0.13910309995E+04  0.13910309995E+04  0.00000000000E+00 0.  1.
         -1   -1    0    0    0  501 -0.00000000000E+00 -0.00000000000E+00 -0.86894403407E+03  0.86894403407E+03  0.00000000000E+00 0. -1.
         23    2    1    2    0    0  0.29680839832E+03 -0.58863519653E+03  0.11633688176E+04  0.13402853936E+04  0.91385505917E+02 0.  0.
         13    1    3    3    0    0  0.21445260953E+03 -0.36341279204E+03  0.80839890386E+03  0.91190326621E+03  0.00000000000E+00 0.  1.
        -13    1    3    3    0    0  0.82355788795E+02 -0.22522240449E+03  0.35496991372E+03  0.42838212740E+03  0.00000000000E+00 0. -1.
         22    1    1    2    0    0 -0.29680839832E+03  0.58863519653E+03 -0.64128185217E+03  0.91968963995E+03  0.00000000000E+00 0. -1.
<mgrwt>
<rscale>  0 0.21988434E+04</rscale>
<asrwt>0</asrwt>
<pdfrwt beam="1">  1        1 0.21400477E+00 0.21988434E+04</pdfrwt>
<pdfrwt beam="2">  1       -1 0.13368370E+00 0.21988434E+04</pdfrwt>
<totfact> 0.33575979E+00</totfact>
</mgrwt>
</event>
<event>
 6    1  0.1637818E-005  0.1883504E+04  0.7818608E-02  0.8663111E-01
         -1   -1    0    0    0  501 -0.00000000000E+00  0.00000000000E+00  0.53675978730E+03  0.53675978730E+03  0.00000000000E+00 0.  1.
          1   -1    0    0  501    0  0.00000000000E+00 -0.00000000000E+00 -0.16523169559E+04  0.16523169559E+04  0.00000000000E+00 0. -1.
         23    2    1    2    0    0  0.91814315580E+02 -0.66208745237E+03 -0.13268548483E+04  0.14880515135E+04  0.83449716301E+02 0.  0.
         11    1    3    3    0    0  0.67134465816E+02 -0.21955454676E+03 -0.48770862030E+03  0.53904631881E+03  0.00000000000E+00 0. -1.
        -11    1    3    3    0    0  0.24679849764E+02 -0.44253290562E+03 -0.83914622804E+03  0.94900519471E+03  0.00000000000E+00 0.  1.
         22    1    1    2    0    0 -0.91814315580E+02  0.66208745237E+03  0.21129767977E+03  0.70102522966E+03  0.00000000000E+00 0.  1.
<mgrwt>
<rscale>  0 0.18835045E+04</rscale>
<asrwt>0</asrwt>
<pdfrwt beam="1">  1        1 0.25420261E+00 0.18835045E+04</pdfrwt>
<pdfrwt beam="2">  1       -1 0.82578430E-01 0.18835045E+04</pdfrwt>
<totfact> 0.70145620E+00</totfact>
</mgrwt>
</event>
<event>
 6    1  0.1637818E-005  0.4475093E+04  0.7818608E-02  0.7915012E-01
         -1   -1    0    0    0  501 -0.00000000000E+00  0.00000000000E+00  0.16025154114E+04  0.16025154114E+04  0.00000000000E+00 0.  1.
          1   -1    0    0  501    0  0.00000000000E+00 -0.00000000000E+00 -0.31242219914E+04  0.31242219914E+04  0.00000000000E+00 0. -1.
         23    2    1    2    0    0 -0.71643140835E+03  0.72476141238E+01  0.14766725636E+04  0.16439458140E+04  0.93110088832E+02 0.  0.
         13    1    3    3    0    0 -0.82559940255E+02 -0.16363221082E+02  0.23535262577E+03  0.24994950929E+03  0.00000000000E+00 0. -1.
        -13    1    3    3    0    0 -0.63387146810E+03  0.23610835206E+02  0.12413199378E+04  0.13939963047E+04  0.00000000000E+00 0.  1.
         22    1    1    2    0    0  0.71643140835E+03 -0.72476141238E+01 -0.29983791436E+04  0.30827915888E+04  0.00000000000E+00 0. -1.
<mgrwt>
<rscale>  0 0.44750928E+04</rscale>
<asrwt>0</asrwt>
<pdfrwt beam="1">  1        1 0.48064953E+00 0.44750928E+04</pdfrwt>
<pdfrwt beam="2">  1       -1 0.24654083E+00 0.44750928E+04</pdfrwt>
<totfact> 0.26766587E-02</totfact>
</mgrwt>
</event>
<event>
 6    1  0.1637818E-005  0.4567783E+04  0.7818608E-02  0.7898876E-01
          1   -1    0    0  501    0  0.00000000000E+00  0.00000000000E+00  0.23310517319E+04  0.23310517319E+04  0.00000000000E+00 0. -1.
         -1   -1    0    0    0  501 -0.00000000000E+00 -0.00000000000E+00 -0.22376849101E+04  0.22376849101E+04  0.00000000000E+00 0.  1.
         23    2    1    2    0    0  0.13305624352E+04  0.30631952656E+03  0.18765933773E+04  0.23228236885E+04  0.98382609877E+02 0.  0.
         11    1    3    3    0    0  0.93304233713E+03  0.21349862932E+03  0.13900240195E+04  0.16876956012E+04  0.00000000000E+00 0. -1.
        -11    1    3    3    0    0  0.39752009802E+03  0.92820897242E+02  0.48656935782E+03  0.63512808729E+03  0.00000000000E+00 0.  1.
         22    1    1    2    0    0 -0.13305624352E+04 -0.30631952656E+03 -0.17832265556E+04  0.22459129535E+04  0.00000000000E+00 0.  1.
<mgrwt>
<rscale>  0 0.45677825E+04</rscale>
<asrwt>0</asrwt>
<pdfrwt beam="1">  1        1 0.35862334E+00 0.45677825E+04</pdfrwt>
<pdfrwt beam="2">  1       -1 0.34425922E+00 0.45677825E+04</pdfrwt>
<totfact> 0.22458510E-02</totfact>
</mgrwt>
</event>
<event>
 6    1  0.1637818E-005  0.7894976E+03  0.7818608E-02  0.9575345E-01
         -2   -1    0    0    0  501 -0.00000000000E+00  0.00000000000E+00  0.41489096477E+03  0.41489096477E+03  0.00000000000E+00 0.  1.
          2   -1    0    0  501    0  0.00000000000E+00 -0.00000000000E+00 -0.37558450704E+03  0.37558450704E+03  0.00000000000E+00 0. -1.
         23    2    1    2    0    0  0.98172137079E+01  0.29955751177E+03 -0.22921898409E+03  0.38806151399E+03  0.90660440263E+02 0.  0.
         13    1    3    3    0    0  0.29457506263E+02  0.22945404418E+03 -0.13116254662E+03  0.26593329370E+03  0.00000000000E+00 0.  1.
        -13    1    3    3    0    0 -0.19640292555E+02  0.70103467595E+02 -0.98056437474E+02  0.12212822029E+03  0.00000000000E+00 0. -1.
         22    1    1    2    0    0 -0.98172137079E+01 -0.29955751177E+03  0.26852544181E+03  0.40241395782E+03  0.00000000000E+00 0.  1.
<mgrwt>
<rscale>  0 0.78949761E+03</rscale>
<asrwt>0</asrwt>
<pdfrwt beam="1">  1        2 0.57782232E-01 0.78949761E+03</pdfrwt>
<pdfrwt beam="2">  1       -2 0.63829379E-01 0.78949761E+03</pdfrwt>
<totfact> 0.19534902E+02</totfact>
</mgrwt>
</event>
<event>
 6    1  0.1637818E-005  0.3383342E+04  0.7818608E-02  0.8142007E-01
          2   -1    0    0  501    0  0.00000000000E+00  0.00000000000E+00  0.20456380774E+04  0.20456380774E+04  0.00000000000E+00 0. -1.
         -2   -1    0    0    0  501 -0.00000000000E+00 -0.00000000000E+00 -0.13989528828E+04  0.13989528828E+04  0.00000000000E+00 0.  1.
         23    2    1    2    0    0  0.37520428246E+03  0.13149449613E+04  0.13353286260E+04  0.19135493930E+04  0.93328642904E+02 0.  0.
         13    1    3    3    0    0  0.18357834698E+03  0.62003649562E+03  0.56716313857E+03  0.86012806670E+03  0.00000000000E+00 0. -1.
        -13    1    3    3    0    0  0.19162593548E+03  0.69490846565E+03  0.76816548739E+03  0.10534213263E+04  0.00000000000E+00 0.  1.
         22    1    1    2    0    0 -0.37520428246E+03 -0.13149449613E+04 -0.68864343132E+03  0.15310415671E+04  0.00000000000E+00 0.  1.
<mgrwt>
<rscale>  0 0.33833423E+04</rscale>
<asrwt>0</asrwt>
<pdfrwt beam="1">  1        2 0.31471355E+00 0.33833423E+04</pdfrwt>
<pdfrwt beam="2">  1       -2 0.21522352E+00 0.33833423E+04</pdfrwt>
<totfact> 0.55413760E-01</totfact>
</mgrwt>
</event>
<event>
 6    1  0.1637818E-005  0.3892157E+04  0.7818608E-02  0.8026662E-01
          2   -1    0    0  501    0  0.00000000000E+00  0.00000000000E+00  0.34387045071E+04  0.34387045071E+04  0.00000000000E+00 0.  1.
         -2   -1    0    0    0  501 -0.00000000000E+00 -0.00000000000E+00 -0.11013514559E+04  0.11013514559E+04  0.00000000000E+00 0. -1.
         23    2    1    2    0    0  0.72586786596E+03 -0.17111320075E+04  0.18375165657E+04  0.26152979474E+04  0.91974552795E+02 0.  0.
         11    1    3    3    0    0  0.30826822677E+03 -0.84434979956E+03  0.88921656793E+03  0.12643820579E+04  0.00000000000E+00 0.  1.
        -11    1    3    3    0    0  0.41759963920E+03 -0.86678220798E+03  0.94829999781E+03  0.13509158895E+04  0.00000000000E+00 0. -1.
         22    1    1    2    0    0 -0.72586786596E+03  0.17111320075E+04  0.49983648548E+03  0.19247580155E+04  0.00000000000E+00 0. -1.
<mgrwt>
<rscale>  0 0.38921574E+04</rscale>
<asrwt>0</asrwt>
<pdfrwt beam="1">  1        2 0.52903146E+00 0.38921574E+04</pdfrwt>
<pdfrwt beam="2">  1       -2 0.16943869E+00 0.38921574E+04</pdfrwt>
<totfact> 0.15326192E-01</totfact>
</mgrwt>
</event>
<event>
 6    1  0.1637818E-005  0.2757665E+04  0.7818608E-02  0.8316534E-01
          1   -1    0    0  501    0  0.00000000000E+00  0.00000000000E+00  0.12414292966E+04  0.12414292966E+04  0.00000000000E+00 0. -1.
         -1   -1    0    0    0  501 -0.00000000000E+00 -0.00000000000E+00 -0.15314433910E+04  0.15314433910E+04  0.00000000000E+00 0.  1.
         23    2    1    2    0    0  0.59389972269E+03 -0.10800064883E+03 -0.13900107493E+04  0.15181322119E+04  0.90633928127E+02 0.  0.
         13    1    3    3    0    0  0.91242918565E+02 -0.50540431503E+02 -0.25134705393E+03  0.27213038589E+03  0.00000000000E+00 0.  1.
        -13    1    3    3    0    0  0.50265680413E+03 -0.57460217326E+02 -0.11386636954E+04  0.12460018260E+04  0.00000000000E+00 0. -1.
         22    1    1    2    0    0 -0.59389972269E+03  0.10800064883E+03  0.10999966549E+04  0.12547404758E+04  0.00000000000E+00 0. -1.
<mgrwt>
<rscale>  0 0.27576647E+04</rscale>
<asrwt>0</asrwt>
<pdfrwt beam="1">  1        1 0.19098912E+00 0.27576647E+04</pdfrwt>
<pdfrwt beam="2">  1       -1 0.23560668E+00 0.27576647E+04</pdfrwt>
<totfact> 0.75056860E-01</totfact>
</mgrwt>
</event>
<event>
 6    1  0.1637818E-005  0.1950787E+04  0.7818608E-02  0.8629981E-01
          2   -1    0    0  501    0  0.00000000000E+00  0.00000000000E+00  0.28628054567E+04  0.28628054567E+04  0.00000000000E+00 0. -1.
         -2   -1    0    0    0  501 -0.00000000000E+00 -0.00000000000E+00 -0.33232878977E+03  0.33232878977E+03  0.00000000000E+00 0.  1.
         23    2    1    2    0    0 -0.11620986822E+03 -0.51337436814E+03 -0.73390327588E+02  0.53859866408E+03  0.87432290550E+02 0.  0.
         13    1    3    3    0    0 -0.53900316237E+02 -0.14127667521E+03  0.12306726918E+02  0.15170958630E+03  0.00000000000E+00 0.  1.
        -13    1    3    3    0    0 -0.62309551978E+02 -0.37209769293E+03 -0.85697054506E+02  0.38688907777E+03  0.00000000000E+00 0. -1.
         22    1    1    2    0    0  0.11620986822E+03  0.51337436814E+03  0.26038669945E+04  0.26565355823E+04  0.00000000000E+00 0. -1.
<mgrwt>
<rscale>  0 0.19507872E+04</rscale>
<asrwt>0</asrwt>
<pdfrwt beam="1">  1        2 0.44043159E+00 0.19507872E+04</pdfrwt>
<pdfrwt beam="2">  1       -2 0.51127508E-01 0.19507872E+04</pdfrwt>
<totfact> 0.71553041E+00</totfact>
</mgrwt>
</event>
<event>
 6    1  0.1637818E-005  0.3580444E+04  0.7818608E-02  0.8094986E-01
          1   -1    0    0  501    0  0.00000000000E+00  0.00000000000E+00  0.12437955137E+04  0.12437955137E+04  0.00000000000E+00 0. -1.
         -1   -1    0    0    0  501 -0.00000000000E+00 -0.00000000000E+00 -0.25767055317E+04  0.25767055317E+04  0.00000000000E+00 0.  1.
         23    2    1    2    0    0  0.12379141318E+04 -0.99816126955E+03 -0.15415356258E+04  0.22166675247E+04  0.92333698567E+02 0.  0.
         11    1    3    3    0    0  0.54835823413E+03 -0.43373732513E+03 -0.74116649303E+03  0.10188977331E+04  0.00000000000E+00 0. -1.
        -11    1    3    3    0    0  0.68955589770E+03 -0.56442394442E+03 -0.80036913275E+03  0.11977697916E+04  0.00000000000E+00 0.  1.
         22    1    1    2    0    0 -0.12379141318E+04  0.99816126955E+03  0.20862560776E+03  0.16038335207E+04  0.00000000000E+00 0. -1.
<mgrwt>
<rscale>  0 0.35804440E+04</rscale>
<asrwt>0</asrwt>
<pdfrwt beam="1">  1        1 0.19135316E+00 0.35804440E+04</pdfrwt>
<pdfrwt beam="2">  1       -1 0.39641623E+00 0.35804440E+04</pdfrwt>
<totfact> 0.60848156E-02</totfact>
</mgrwt>
</event>
<event>
 6    1  0.1637818E-005  0.3105785E+04  0.7818608E-02  0.8214152E-01
         -2   -1    0    0    0  501 -0.00000000000E+00  0.00000000000E+00  0.66929117723E+03  0.66929117723E+03  0.00000000000E+00 0.  1.
          2   -1    0    0  501    0  0.00000000000E+00 -0.00000000000E+00 -0.36030278255E+04  0.36030278255E+04  0.00000000000E+00 0. -1.
         23    2    1    2    0    0  0.12407795446E+04  0.29534159650E+03 -0.25281255700E+03  0.13034615592E+04  0.91308873167E+02 0.  0.
         11    1    3    3    0    0  0.10433922182E+04  0.22893350646E+03 -0.23979244485E+03  0.10947960029E+04  0.00000000000E+00 0.  1.
        -11    1    3    3    0    0  0.19738732647E+03  0.66408090044E+02 -0.13020112149E+02  0.20866555632E+03  0.00000000000E+00 0. -1.
         22    1    1    2    0    0 -0.12407795446E+04 -0.29534159650E+03 -0.26809240913E+04  0.29688574436E+04  0.00000000000E+00 0. -1.
<mgrwt>
<rscale>  0 0.31057848E+04</rscale>
<asrwt>0</asrwt>
<pdfrwt beam="1">  1        2 0.55431197E+00 0.31057848E+04</pdfrwt>
<pdfrwt beam="2">  1       -2 0.10296787E+00 0.31057848E+04</pdfrwt>
<totfact> 0.44857242E-01</totfact>
</mgrwt>
</event>
<event>
 6    1  0.1637818E-005  0.2288956E+04  0.7818608E-02  0.8482289E-01
          2   -1    0    0  501    0  0.00000000000E+00  0.00000000000E+00  0.11726043558E+04  0.11726043558E+04  0.00000000000E+00 0. -1.
         -2   -1    0    0    0  501 -0.00000000000E+00 -0.00000000000E+00 -0.11170258269E+04  0.11170258269E+04  0.00000000000E+00 0.  1.
         23    2    1    2    0    0 -0.87511268267E+03 -0.43469928246E+03  0.62043968049E+03  0.11609788662E+04  0.90226698429E+02 0.  0.
         11    1    3    3    0    0 -0.61633879653E+03 -0.30129667760E+03  0.38595166716E+03  0.78715429836E+03  0.00000000000E+00 0. -1.
        -11    1    3    3    0    0 -0.25877388615E+03 -0.13340260486E+03  0.23448801333E+03  0.37382456785E+03  0.00000000000E+00 0.  1.
         22    1    1    2    0    0  0.87511268267E+03  0.43469928246E+03 -0.56486115159E+03  0.11286513164E+04  0.00000000000E+00 0.  1.
<mgrwt>
<rscale>  0 0.22889555E+04</rscale>
<asrwt>0</asrwt>
<pdfrwt beam="1">  1        2 0.18040067E+00 0.22889555E+04</pdfrwt>
<pdfrwt beam="2">  1       -2 0.17185013E+00 0.22889555E+04</pdfrwt>
<totfact> 0.36914332E+00</totfact>
</mgrwt>
</event>
<event>
 6    1  0.1637818E-005  0.9536163E+03  0.7818608E-02  0.9360934E-01
          2   -1    0    0  501    0  0.00000000000E+00  0.00000000000E+00  0.19994017011E+04  0.19994017011E+04  0.00000000000E+00 0. -1.
         -2   -1    0    0    0  501 -0.00000000000E+00 -0.00000000000E+00 -0.11370702284E+03  0.11370702284E+03  0.00000000000E+00 0.  1.
         23    2    1    2    0    0 -0.35931328120E+03 -0.23844833785E+03  0.13796234655E+04  0.14482239849E+04  0.89599999505E+02 0.  0.
         13    1    3    3    0    0 -0.33066708100E+03 -0.22721189851E+03  0.11823768580E+04  0.12485916064E+04  0.00000000000E+00 0.  1.
        -13    1    3    3    0    0 -0.28646200200E+02 -0.11236439338E+02  0.19724660747E+03  0.19963237842E+03  0.00000000000E+00 0. -1.
         22    1    1    2    0    0  0.35931328120E+03  0.23844833785E+03  0.50607121277E+03  0.66488473909E+03  0.00000000000E+00 0. -1.
<mgrwt>
<rscale>  0 0.95361631E+03</rscale>
<asrwt>0</asrwt>
<pdfrwt beam="1">  1        2 0.30760024E+00 0.95361631E+03</pdfrwt>
<pdfrwt beam="2">  1       -2 0.17493390E-01 0.95361631E+03</pdfrwt>
<totfact> 0.18147521E+02</totfact>
</mgrwt>
</event>
<event>
 6    1  0.1637818E-005  0.3511468E+04  0.7818608E-02  0.8111077E-01
         -2   -1    0    0    0  501 -0.00000000000E+00  0.00000000000E+00  0.10011753491E+04  0.10011753491E+04  0.00000000000E+00 0.  1.
          2   -1    0    0  501    0  0.00000000000E+00 -0.00000000000E+00 -0.30789833861E+04  0.30789833861E+04  0.00000000000E+00 0. -1.
         23    2    1    2    0    0  0.17472703699E+04 -0.11217274557E+03 -0.11726016111E+04  0.21091348531E+04  0.88987752092E+02 0.  0.
         11    1    3    3    0    0  0.77172183699E+03 -0.58380891949E+02 -0.57056007986E+03  0.96151012837E+03  0.00000000000E+00 0. -1.
        -11    1    3    3    0    0  0.97554853288E+03 -0.53791853617E+02 -0.60204153127E+03  0.11476247248E+04  0.00000000000E+00 0.  1.
         22    1    1    2    0    0 -0.17472703699E+04  0.11217274557E+03 -0.90520642581E+03  0.19710238820E+04  0.00000000000E+00 0.  1.
<mgrwt>
<rscale>  0 0.35114682E+04</rscale>
<asrwt>0</asrwt>
<pdfrwt beam="1">  1        2 0.47368975E+00 0.35114682E+04</pdfrwt>
<pdfrwt beam="2">  1       -2 0.15402698E+00 0.35114682E+04</pdfrwt>
<totfact> 0.35544133E-01</totfact>
</mgrwt>
</event>
<event>
 6    1  0.1637818E-005  0.1476877E+04  0.7818608E-02  0.8899977E-01
         -2   -1    0    0    0  501 -0.00000000000E+00  0.00000000000E+00  0.11003349671E+03  0.11003349671E+03  0.00000000000E+00 0.  1.
          2   -1    0    0  501    0  0.00000000000E+00 -0.00000000000E+00 -0.49556867560E+04  0.49556867560E+04  0.00000000000E+00 0. -1.
         23    2    1    2    0    0  0.48345664294E+03  0.42706335228E+03 -0.12201062680E+04  0.13832340791E+04  0.92540693780E+02 0.  0.
         11    1    3    3    0    0  0.47989723296E+02  0.78291169175E+02 -0.13789344261E+03  0.16567173032E+03  0.00000000000E+00 0.  1.
        -11    1    3    3    0    0  0.43546691964E+03  0.34877218311E+03 -0.10822128254E+04  0.12175623488E+04  0.00000000000E+00 0. -1.
         22    1    1    2    0    0 -0.48345664294E+03 -0.42706335228E+03 -0.36255469913E+04  0.36824861736E+04  0.00000000000E+00 0. -1.
<mgrwt>
<rscale>  0 0.14768772E+04</rscale>
<asrwt>0</asrwt>
<pdfrwt beam="1">  1        2 0.76241352E+00 0.14768772E+04</pdfrwt>
<pdfrwt beam="2">  1       -2 0.16928227E-01 0.14768772E+04</pdfrwt>
<totfact> 0.11355668E+00</totfact>
</mgrwt>
</event>
<event>
 6    1  0.1637818E-005  0.1230179E+04  0.7818608E-02  0.9086844E-01
          2   -1    0    0  501    0  0.00000000000E+00  0.00000000000E+00  0.15727710389E+04  0.15727710389E+04  0.00000000000E+00 0.  1.
         -2   -1    0    0    0  501 -0.00000000000E+00 -0.00000000000E+00 -0.24055303915E+03  0.24055303915E+03  0.00000000000E+00 0. -1.
         23    2    1    2    0    0 -0.33322507889E+01 -0.39891335889E+03 -0.13847982257E+02  0.40938796849E+03  0.90905282209E+02 0.  0.
         13    1    3    3    0    0 -0.39385490041E+02 -0.14886362860E+03 -0.27333307012E+02  0.15639279529E+03  0.00000000000E+00 0.  1.
        -13    1    3    3    0    0  0.36053239252E+02 -0.25004973029E+03  0.13485324755E+02  0.25299517320E+03  0.00000000000E+00 0. -1.
         22    1    1    2    0    0  0.33322507889E+01  0.39891335889E+03  0.13460659820E+04  0.14039361095E+04  0.00000000000E+00 0.  1.
<mgrwt>
<rscale>  0 0.12301786E+04</rscale>
<asrwt>0</asrwt>
<pdfrwt beam="1">  1        2 0.24196477E+00 0.12301786E+04</pdfrwt>
<pdfrwt beam="2">  1       -2 0.37008161E-01 0.12301786E+04</pdfrwt>
<totfact> 0.78236849E+01</totfact>
</mgrwt>
</event>
<event>
 6    1  0.1637818E-005  0.1763211E+04  0.7818608E-02  0.8726112E-01
          2   -1    0    0  501    0  0.00000000000E+00  0.00000000000E+00  0.33408824106E+04  0.33408824106E+04  0.00000000000E+00 0. -1.
         -2   -1    0    0    0  501 -0.00000000000E+00 -0.00000000000E+00 -0.23264152177E+03  0.23264152177E+03  0.00000000000E+00 0.  1.
         23    2    1    2    0    0  0.94215978390E+02 -0.58264667950E+03  0.28790636302E+04  0.29403762248E+04  0.91930152388E+02 0.  0.
         13    1    3    3    0    0  0.19857948087E+02 -0.37150155740E+03  0.16967958291E+04  0.17371021360E+04  0.00000000000E+00 0. -1.
        -13    1    3    3    0    0  0.74358030304E+02 -0.21114512210E+03  0.11822678010E+04  0.12032740887E+04  0.00000000000E+00 0.  1.
         22    1    1    2    0    0 -0.94215978390E+02  0.58264667950E+03  0.22917725862E+03  0.63314770756E+03  0.00000000000E+00 0.  1.
<mgrwt>
<rscale>  0 0.17632107E+04</rscale>
<asrwt>0</asrwt>
<pdfrwt beam="1">  1        2 0.51398188E+00 0.17632107E+04</pdfrwt>
<pdfrwt beam="2">  1       -2 0.35791006E-01 0.17632107E+04</pdfrwt>
<totfact> 0.73186949E+00</totfact>
</mgrwt>
</event>
<event>
 6    1  0.1637818E-005  0.4092086E+04  0.7818608E-02  0.7986223E-01
          1   -1    0    0  501    0  0.00000000000E+00  0.00000000000E+00  0.89243808657E+03  0.89243808657E+03  0.00000000000E+00 0. -1.
         -1   -1    0    0    0  501 -0.00000000000E+00 -0.00000000000E+00 -0.46908483485E+04  0.46908483485E+04  0.00000000000E+00 0.  1.
         23    2    1    2    0    0 -0.16635785597E+04 -0.31512611896E+03 -0.33543649330E+03  0.17285509815E+04  0.92589196940E+02 0.  0.
         13    1    3    3    0    0 -0.78450988007E+03 -0.15496992823E+03 -0.11176099426E+03  0.80744160806E+03  0.00000000000E+00 0.  1.
        -13    1    3    3    0    0 -0.87906867961E+03 -0.16015619073E+03 -0.22367549904E+03  0.92110937340E+03  0.00000000000E+00 0. -1.
         22    1    1    2    0    0  0.16635785597E+04  0.31512611896E+03 -0.34629737686E+04  0.38547354536E+04  0.00000000000E+00 0.  1.
<mgrwt>
<rscale>  0 0.40920859E+04</rscale>
<asrwt>0</asrwt>
<pdfrwt beam="1">  1        1 0.13729817E+00 0.40920859E+04</pdfrwt>
<pdfrwt beam="2">  1       -1 0.72166898E+00 0.40920859E+04</pdfrwt>
<totfact> 0.23954199E-03</totfact>
</mgrwt>
</event>
<event>
 6    1  0.1637818E-005  0.2479741E+04  0.7818608E-02  0.8410239E-01
          3   -1    0    0  501    0  0.00000000000E+00  0.00000000000E+00  0.51500199352E+03  0.51500199352E+03  0.00000000000E+00 0. -1.
         -3   -1    0    0    0  501 -0.00000000000E+00 -0.00000000000E+00 -0.29849960728E+04  0.29849960728E+04  0.00000000000E+00 0.  1.
         23    2    1    2    0    0 -0.85635121642E+02 -0.48745305890E+03 -0.28386348306E+04  0.28828758238E+04  0.90451395150E+02 0.  0.
         11    1    3    3    0    0 -0.69768978864E+02 -0.29887829989E+03 -0.15143642309E+04  0.15451520871E+04  0.00000000000E+00 0. -1.
        -11    1    3    3    0    0 -0.15866142778E+02 -0.18857475901E+03 -0.13242705997E+04  0.13377237366E+04  0.00000000000E+00 0.  1.
         22    1    1    2    0    0  0.85635121642E+02  0.48745305890E+03  0.36864075136E+03  0.61712224255E+03  0.00000000000E+00 0. -1.
<mgrwt>
<rscale>  0 0.24797411E+04</rscale>
<asrwt>0</asrwt>
<pdfrwt beam="1">  1        3 0.79231077E-01 0.24797411E+04</pdfrwt>
<pdfrwt beam="2">  1       -3 0.45923016E+00 0.24797411E+04</pdfrwt>
<totfact> 0.17376190E-02</totfact>
</mgrwt>
</event>
<event>
 6    1  0.1637818E-005  0.1205992E+04  0.7818608E-02  0.9107628E-01
         -2   -1    0    0    0  501 -0.00000000000E+00  0.00000000000E+00  0.83471260976E+03  0.83471260976E+03  0.00000000000E+00 0.  1.
          2   -1    0    0  501    0  0.00000000000E+00 -0.00000000000E+00 -0.43560428685E+03  0.43560428685E+03  0.00000000000E+00 0. -1.
         23    2    1    2    0    0 -0.16936919057E+03 -0.34857659744E+03 -0.28115962393E+03  0.48740180128E+03  0.91204247508E+02 0.  0.
         11    1    3    3    0    0 -0.12114324006E+03 -0.25383056480E+03 -0.15062346855E+03  0.31905026174E+03  0.00000000000E+00 0.  1.
        -11    1    3    3    0    0 -0.48225950516E+02 -0.94746032642E+02 -0.13053615538E+03  0.16835153954E+03  0.00000000000E+00 0. -1.
         22    1    1    2    0    0  0.16936919057E+03  0.34857659744E+03  0.68026794683E+03  0.78291509533E+03  0.00000000000E+00 0.  1.
<mgrwt>
<rscale>  0 0.12059924E+04</rscale>
<asrwt>0</asrwt>
<pdfrwt beam="1">  1        2 0.67016044E-01 0.12059924E+04</pdfrwt>
<pdfrwt beam="2">  1       -2 0.12841732E+00 0.12059924E+04</pdfrwt>
<totfact> 0.31876522E+01</totfact>
</mgrwt>
</event>
<event>
 6    1  0.2118859E-005  0.2401705E+04  0.7818608E-02  0.8438866E-01
         -1   -1    0    0    0  501 -0.00000000000E+00  0.00000000000E+00  0.14406552416E+04  0.14406552416E+04  0.00000000000E+00 0.  1.
          1   -1    0    0  501    0  0.00000000000E+00 -0.00000000000E+00 -0.10009655018E+04  0.10009655018E+04  0.00000000000E+00 0. -1.
         23    2    1    2    0    0  0.71580019192E+03  0.57898679374E+03  0.10012172008E+04  0.13632382920E+04  0.91581305051E+02 0.  0.
         11    1    3    3    0    0  0.46770932193E+03  0.35393914503E+03  0.69480207019E+03  0.90927160131E+03  0.00000000000E+00 0.  1.
        -11    1    3    3    0    0  0.24809086999E+03  0.22504764871E+03  0.30641513060E+03  0.45396669065E+03  0.00000000000E+00 0. -1.
         22    1    1    2    0    0 -0.71580019192E+03 -0.57898679374E+03 -0.56152746099E+03  0.10783824514E+04  0.00000000000E+00 0. -1.
<mgrwt>
<rscale>  0 0.24017046E+04</rscale>
<asrwt>0</asrwt>
<pdfrwt beam="1">  1        1 0.15399469E+00 0.24017046E+04</pdfrwt>
<pdfrwt beam="2">  1       -1 0.22163927E+00 0.24017046E+04</pdfrwt>
<totfact> 0.14521372E+00</totfact>
</mgrwt>
</event>
<event>
 6    1  0.1637818E-005  0.2282004E+04  0.7818608E-02  0.8485051E-01
          2   -1    0    0  501    0  0.00000000000E+00  0.00000000000E+00  0.35112952036E+04  0.35112952036E+04  0.00000000000E+00 0. -1.
         -2   -1    0    0    0  501 -0.00000000000E+00 -0.00000000000E+00 -0.37077066461E+03  0.37077066461E+03  0.00000000000E+00 0.  1.
         23    2    1    2    0    0  0.21071597929E+03  0.26409479602E+03  0.34233475037E+04  0.34414570683E+04  0.10085304375E+03 0.  0.
         11    1    3    3    0    0  0.60607744704E+02  0.16659809660E+02  0.66951072514E+03  0.67245480075E+03  0.00000000000E+00 0. -1.
        -11    1    3    3    0    0  0.15010823458E+03  0.24743498636E+03  0.27538367786E+04  0.27690022675E+04  0.00000000000E+00 0.  1.
         22    1    1    2    0    0 -0.21071597929E+03 -0.26409479602E+03 -0.28282296471E+03  0.44060879994E+03  0.00000000000E+00 0.  1.
<mgrwt>
<rscale>  0 0.22820037E+04</rscale>
<asrwt>0</asrwt>
<pdfrwt beam="1">  1        2 0.54019924E+00 0.22820037E+04</pdfrwt>
<pdfrwt beam="2">  1       -2 0.57041643E-01 0.22820037E+04</pdfrwt>
<totfact> 0.20941723E+00</totfact>
</mgrwt>
</event>
<event>
 6    1  0.1637818E-005  0.1851167E+04  0.7818608E-02  0.8679553E-01
          2   -1    0    0  501    0  0.00000000000E+00  0.00000000000E+00  0.92060354333E+03  0.92060354333E+03  0.00000000000E+00 0. -1.
         -2   -1    0    0    0  501 -0.00000000000E+00 -0.00000000000E+00 -0.93059085623E+03  0.93059085623E+03  0.00000000000E+00 0.  1.
         23    2    1    2    0    0  0.44404770131E+03 -0.82751828712E+02  0.80022244475E+03  0.92358129185E+03  0.92845114965E+02 0.  0.
         13    1    3    3    0    0  0.26876159475E+03 -0.89114629128E+02  0.54054392463E+03  0.61021467238E+03  0.00000000000E+00 0. -1.
        -13    1    3    3    0    0  0.17528610656E+03  0.63628004166E+01  0.25967852013E+03  0.31336661947E+03  0.00000000000E+00 0.  1.
         22    1    1    2    0    0 -0.44404770131E+03  0.82751828712E+02 -0.81020975766E+03  0.92761310771E+03  0.00000000000E+00 0.  1.
<mgrwt>
<rscale>  0 0.18511675E+04</rscale>
<asrwt>0</asrwt>
<pdfrwt beam="1">  1        2 0.14163131E+00 0.18511675E+04</pdfrwt>
<pdfrwt beam="2">  1       -2 0.14316782E+00 0.18511675E+04</pdfrwt>
<totfact> 0.90447033E+00</totfact>
</mgrwt>
</event>
<event>
 6    1  0.1637818E-005  0.2029130E+04  0.7818608E-02  0.8593121E-01
         -2   -1    0    0    0  501 -0.00000000000E+00  0.00000000000E+00  0.62555857785E+03  0.62555857785E+03  0.00000000000E+00 0. -1.
          2   -1    0    0  501    0  0.00000000000E+00 -0.00000000000E+00 -0.16454771580E+04  0.16454771580E+04  0.00000000000E+00 0.  1.
         23    2    1    2    0    0 -0.52952658857E+03  0.11948709841E+03  0.44546554808E+03  0.70833735869E+03  0.92879946734E+02 0.  0.
         13    1    3    3    0    0 -0.10265604776E+03 -0.85759924145E+01  0.10856200965E+03  0.14965801592E+03  0.00000000000E+00 0. -1.
        -13    1    3    3    0    0 -0.42687054081E+03  0.12806309083E+03  0.33690353842E+03  0.55867934278E+03  0.00000000000E+00 0.  1.
         22    1    1    2    0    0  0.52952658857E+03 -0.11948709841E+03 -0.14653841282E+04  0.15626983772E+04  0.00000000000E+00 0.  1.
<mgrwt>
<rscale>  0 0.20291302E+04</rscale>
<asrwt>0</asrwt>
<pdfrwt beam="1">  1        2 0.25315033E+00 0.20291302E+04</pdfrwt>
<pdfrwt beam="2">  1       -2 0.96239782E-01 0.20291302E+04</pdfrwt>
<totfact> 0.88143711E+00</totfact>
</mgrwt>
</event>
<event>
 6    1  0.1637818E-005  0.3172056E+04  0.7818608E-02  0.8196236E-01
          2   -1    0    0  501    0  0.00000000000E+00  0.00000000000E+00  0.26303052755E+04  0.26303052755E+04  0.00000000000E+00 0. -1.
         -2   -1    0    0    0  501 -0.00000000000E+00 -0.00000000000E+00 -0.95634706964E+03  0.95634706964E+03  0.00000000000E+00 0.  1.
         23    2    1    2    0    0 -0.14410791054E+04  0.51586789174E+03  0.13017769650E+04  0.20114229823E+04  0.91490312775E+02 0.  0.
         13    1    3    3    0    0 -0.43330068717E+03  0.17766170256E+03  0.35099974709E+03  0.58524694661E+03  0.00000000000E+00 0. -1.
        -13    1    3    3    0    0 -0.10077784182E+04  0.33820618918E+03  0.95077721796E+03  0.14261760357E+04  0.00000000000E+00 0.  1.
         22    1    1    2    0    0  0.14410791054E+04 -0.51586789174E+03  0.37218124084E+03  0.15752293629E+04  0.00000000000E+00 0.  1.
<mgrwt>
<rscale>  0 0.31720560E+04</rscale>
<asrwt>0</asrwt>
<pdfrwt beam="1">  1        2 0.40466235E+00 0.31720560E+04</pdfrwt>
<pdfrwt beam="2">  1       -2 0.14713032E+00 0.31720560E+04</pdfrwt>
<totfact> 0.77707356E-01</totfact>
</mgrwt>
</event>
<event>
 6    1  0.1637818E-005  0.1974083E+04  0.7818608E-02  0.8618834E-01
          2   -1    0    0  501    0  0.00000000000E+00  0.00000000000E+00  0.12055209802E+04  0.12055209802E+04  0.00000000000E+00 0. -1.
         -2   -1    0    0    0  501 -0.00000000000E+00 -0.00000000000E+00 -0.80815798980E+03  0.80815798980E+03  0.00000000000E+00 0.  1.
         23    2    1    2    0    0  0.57874794853E+03  0.13565287816E+03  0.10001839096E+04  0.11670716514E+04  0.91309885151E+02 0.  0.
         11    1    3    3    0    0  0.32981997152E+03  0.11613378107E+03  0.63034997910E+03  0.72083934747E+03  0.00000000000E+00 0. -1.
        -11    1    3    3    0    0  0.24892797702E+03  0.19519097098E+02  0.36983393054E+03  0.44623230393E+03  0.00000000000E+00 0.  1.
         22    1    1    2    0    0 -0.57874794853E+03 -0.13565287816E+03 -0.60282091922E+03  0.84660731861E+03  0.00000000000E+00 0.  1.
<mgrwt>
<rscale>  0 0.19740835E+04</rscale>
<asrwt>0</asrwt>
<pdfrwt beam="1">  1        2 0.18546477E+00 0.19740835E+04</pdfrwt>
<pdfrwt beam="2">  1       -2 0.12433200E+00 0.19740835E+04</pdfrwt>
<totfact> 0.85060981E+00</totfact>
</mgrwt>
</event>
<event>
 6    1  0.1637818E-005  0.1870038E+04  0.7818608E-02  0.8669916E-01
         -2   -1    0    0    0  501 -0.00000000000E+00  0.00000000000E+00  0.52311146367E+03  0.52311146367E+03  0.00000000000E+00 0.  1.
          2   -1    0    0  501    0  0.00000000000E+00 -0.00000000000E+00 -0.16712702606E+04  0.16712702606E+04  0.00000000000E+00 0. -1.
         23    2    1    2    0    0 -0.76389818221E+03  0.32146580772E+03 -0.10777093688E+04  0.13626102291E+04  0.91479256752E+02 0.  0.
         13    1    3    3    0    0 -0.23517471294E+03  0.54281658934E+02 -0.31940498286E+03  0.40034133833E+03  0.00000000000E+00 0.  1.
        -13    1    3    3    0    0 -0.52872346927E+03  0.26718414878E+03 -0.75830438599E+03  0.96226889076E+03  0.00000000000E+00 0. -1.
         22    1    1    2    0    0  0.76389818221E+03 -0.32146580772E+03 -0.70449428113E+02  0.83177149520E+03  0.00000000000E+00 0.  1.
<mgrwt>
<rscale>  0 0.18700381E+04</rscale>
<asrwt>0</asrwt>
<pdfrwt beam="1">  1        2 0.25711850E+00 0.18700381E+04</pdfrwt>
<pdfrwt beam="2">  1       -2 0.80478686E-01 0.18700381E+04</pdfrwt>
<totfact> 0.13027259E+01</totfact>
</mgrwt>
</event>
<event>
 6    1  0.1637818E-005  0.2263721E+04  0.7818608E-02  0.8492364E-01
          1   -1    0    0  501    0  0.00000000000E+00  0.00000000000E+00  0.13084387645E+04  0.13084387645E+04  0.00000000000E+00 0. -1.
         -1   -1    0    0    0  501 -0.00000000000E+00 -0.00000000000E+00 -0.97911220281E+03  0.97911220281E+03  0.00000000000E+00 0.  1.
         23    2    1    2    0    0 -0.28120715840E+03  0.78500327870E+03 -0.60655543068E+03  0.10340826920E+04  0.78165912990E+02 0.  0.
         13    1    3    3    0    0 -0.10247298050E+03  0.20413117945E+03 -0.19229595605E+03  0.29857659799E+03  0.00000000000E+00 0. -1.
        -13    1    3    3    0    0 -0.17873417790E+03  0.58087209925E+03 -0.41425947463E+03  0.73550609403E+03  0.00000000000E+00 0.  1.
         22    1    1    2    0    0  0.28120715840E+03 -0.78500327870E+03  0.93588199232E+03  0.12534682752E+04  0.00000000000E+00 0. -1.
<mgrwt>
<rscale>  0 0.22637211E+04</rscale>
<asrwt>0</asrwt>
<pdfrwt beam="1">  1        1 0.20129827E+00 0.22637211E+04</pdfrwt>
<pdfrwt beam="2">  1       -1 0.15063265E+00 0.22637211E+04</pdfrwt>
<totfact> 0.27904142E+00</totfact>
</mgrwt>
</event>
<event>
 6    1  0.1637818E-005  0.2127374E+04  0.7818608E-02  0.8549280E-01
          1   -1    0    0  501    0  0.00000000000E+00  0.00000000000E+00  0.42276735740E+03  0.42276735740E+03  0.00000000000E+00 0. -1.
         -1   -1    0    0    0  501 -0.00000000000E+00 -0.00000000000E+00 -0.26762472013E+04  0.26762472013E+04  0.00000000000E+00 0.  1.
         23    2    1    2    0    0  0.81911374034E+03  0.66554463982E+03 -0.12996168150E+04  0.16764282994E+04  0.86665967941E+02 0.  0.
         11    1    3    3    0    0  0.66309976000E+03  0.51201468683E+03 -0.10736142641E+04  0.13618031867E+04  0.00000000000E+00 0.  1.
        -11    1    3    3    0    0  0.15601398034E+03  0.15352995299E+03 -0.22600255091E+03  0.31462511271E+03  0.00000000000E+00 0. -1.
         22    1    1    2    0    0 -0.81911374034E+03 -0.66554463982E+03 -0.95386302884E+03  0.14225862592E+04  0.00000000000E+00 0.  1.
<mgrwt>
<rscale>  0 0.21273739E+04</rscale>
<asrwt>0</asrwt>
<pdfrwt beam="1">  1        1 0.65041133E-01 0.21273739E+04</pdfrwt>
<pdfrwt beam="2">  1       -1 0.41173033E+00 0.21273739E+04</pdfrwt>
<totfact> 0.30416510E-01</totfact>
</mgrwt>
</event>
<event>
 6    1  0.1637818E-005  0.3892015E+04  0.7818608E-02  0.8026692E-01
         -2   -1    0    0    0  501 -0.00000000000E+00  0.00000000000E+00  0.13375074416E+04  0.13375074416E+04  0.00000000000E+00 0.  1.
          2   -1    0    0  501    0  0.00000000000E+00 -0.00000000000E+00 -0.28313445724E+04  0.28313445724E+04  0.00000000000E+00 0. -1.
         23    2    1    2    0    0 -0.85563807755E+03 -0.11333388522E+04  0.67588312929E+03  0.15757342996E+04  0.97709286599E+02 0.  0.
         13    1    3    3    0    0 -0.56613700103E+03 -0.77004842474E+03  0.50325513101E+03  0.10801626763E+04  0.00000000000E+00 0.  1.
        -13    1    3    3    0    0 -0.28950107653E+03 -0.36329042746E+03  0.17262799828E+03  0.49557162326E+03  0.00000000000E+00 0. -1.
         22    1    1    2    0    0  0.85563807755E+03  0.11333388522E+04 -0.21697202601E+04  0.25931177144E+04  0.00000000000E+00 0. -1.
<mgrwt>
<rscale>  0 0.38920146E+04</rscale>
<asrwt>0</asrwt>
<pdfrwt beam="1">  1        2 0.43559147E+00 0.38920146E+04</pdfrwt>
<pdfrwt beam="2">  1       -2 0.20577038E+00 0.38920146E+04</pdfrwt>
<totfact> 0.21471070E-01</totfact>
</mgrwt>
</event>
<event>
 6    1  0.1637818E-005  0.2216559E+04  0.7818608E-02  0.8511567E-01
         -1   -1    0    0    0  501 -0.00000000000E+00  0.00000000000E+00  0.11110921952E+04  0.11110921952E+04  0.00000000000E+00 0.  1.
          1   -1    0    0  501    0  0.00000000000E+00 -0.00000000000E+00 -0.11054736099E+04  0.11054736099E+04  0.00000000000E+00 0. -1.
         23    2    1    2    0    0 -0.84246345663E+03  0.69518044583E+03 -0.17363536672E+03  0.11096997304E+04  0.90905022483E+02 0.  0.
         13    1    3    3    0    0 -0.35492567421E+03  0.33907564111E+03 -0.10605830114E+03  0.50218810006E+03  0.00000000000E+00 0.  1.
        -13    1    3    3    0    0 -0.48753778242E+03  0.35610480472E+03 -0.67577065584E+02  0.60751163036E+03  0.00000000000E+00 0. -1.
         22    1    1    2    0    0  0.84246345663E+03 -0.69518044583E+03  0.17925395197E+03  0.11068660747E+04  0.00000000000E+00 0.  1.
<mgrwt>
<rscale>  0 0.22165587E+04</rscale>
<asrwt>0</asrwt>
<pdfrwt beam="1">  1        1 0.17007286E+00 0.22165587E+04</pdfrwt>
<pdfrwt beam="2">  1       -1 0.17093726E+00 0.22165587E+04</pdfrwt>
<totfact> 0.27692926E+00</totfact>
</mgrwt>
</event>
<event>
 6    1  0.1637818E-005  0.2271658E+04  0.7818608E-02  0.8489181E-01
         -2   -1    0    0    0  501 -0.00000000000E+00  0.00000000000E+00  0.43004091143E+03  0.43004091143E+03  0.00000000000E+00 0.  1.
          2   -1    0    0  501    0  0.00000000000E+00 -0.00000000000E+00 -0.29999644657E+04  0.29999644657E+04  0.00000000000E+00 0. -1.
         23    2    1    2    0    0  0.14554765370E+03  0.40013566798E+03 -0.28740328681E+04  0.29067701078E+04  0.89190023922E+02 0.  0.
         11    1    3    3    0    0  0.75146229275E+02  0.96283248133E+02 -0.89965358416E+03  0.90790637796E+03  0.00000000000E+00 0. -1.
        -11    1    3    3    0    0  0.70401424423E+02  0.30385241984E+03 -0.19743792840E+04  0.19988637299E+04  0.00000000000E+00 0.  1.
         22    1    1    2    0    0 -0.14554765370E+03 -0.40013566798E+03  0.30410931385E+03  0.52323526932E+03  0.00000000000E+00 0.  1.
<mgrwt>
<rscale>  0 0.22716579E+04</rscale>
<asrwt>0</asrwt>
<pdfrwt beam="1">  1        2 0.46153298E+00 0.22716579E+04</pdfrwt>
<pdfrwt beam="2">  1       -2 0.66160142E-01 0.22716579E+04</pdfrwt>
<totfact> 0.33281180E+00</totfact>
</mgrwt>
</event>
<event>
 6    1  0.1637818E-005  0.2118242E+04  0.7818608E-02  0.8553250E-01
          2   -1    0    0  501    0  0.00000000000E+00  0.00000000000E+00  0.17413145168E+04  0.17413145168E+04  0.00000000000E+00 0. -1.
         -2   -1    0    0    0  501 -0.00000000000E+00 -0.00000000000E+00 -0.64418965274E+03  0.64418965274E+03  0.00000000000E+00 0.  1.
         23    2    1    2    0    0 -0.49142788408E+03 -0.34606447600E+03  0.15289779148E+04  0.16453967150E+04  0.91076336607E+02 0.  0.
         13    1    3    3    0    0 -0.12502199107E+03 -0.64736263257E+02  0.27311273620E+03  0.30726511144E+03  0.00000000000E+00 0.  1.
        -13    1    3    3    0    0 -0.36640589300E+03 -0.28132821274E+03  0.12558651786E+04  0.13381316036E+04  0.00000000000E+00 0. -1.
         22    1    1    2    0    0  0.49142788408E+03  0.34606447600E+03 -0.43185305074E+03  0.74010745452E+03  0.00000000000E+00 0.  1.
<mgrwt>
<rscale>  0 0.21182415E+04</rscale>
<asrwt>0</asrwt>
<pdfrwt beam="1">  1        2 0.26789454E+00 0.21182415E+04</pdfrwt>
<pdfrwt beam="2">  1       -2 0.99106101E-01 0.21182415E+04</pdfrwt>
<totfact> 0.72218395E+00</totfact>
</mgrwt>
</event>
<event>
 6    1  0.1637818E-005  0.1865118E+04  0.7818608E-02  0.8672417E-01
         -2   -1    0    0    0  501 -0.00000000000E+00  0.00000000000E+00  0.54057191812E+03  0.54057191812E+03  0.00000000000E+00 0.  1.
          2   -1    0    0  501    0  0.00000000000E+00 -0.00000000000E+00 -0.16087890075E+04  0.16087890075E+04  0.00000000000E+00 0. -1.
         23    2    1    2    0    0 -0.41363353352E+02 -0.54091854411E+03  0.33493353584E+03  0.64498880563E+03  0.97602702788E+02 0.  0.
         13    1    3    3    0    0 -0.53903216599E+00  0.43635796243E+01  0.28590173286E+01  0.52445555482E+01  0.00000000000E+00 0.  1.
        -13    1    3    3    0    0 -0.40824321186E+02 -0.54528212374E+03  0.33207451851E+03  0.63974425008E+03  0.00000000000E+00 0. -1.
         22    1    1    2    0    0  0.41363353352E+02  0.54091854411E+03 -0.14031506252E+04  0.15043721200E+04  0.00000000000E+00 0. -1.
<mgrwt>
<rscale>  0 0.18651179E+04</rscale>
<asrwt>0</asrwt>
<pdfrwt beam="1">  1        2 0.24750600E+00 0.18651179E+04</pdfrwt>
<pdfrwt beam="2">  1       -2 0.83164912E-01 0.18651179E+04</pdfrwt>
<totfact> 0.13112109E+01</totfact>
</mgrwt>
</event>
<event>
 6    1  0.1637818E-005  0.2415756E+04  0.7818608E-02  0.8433628E-01
         -2   -1    0    0    0  501 -0.00000000000E+00  0.00000000000E+00  0.94525043035E+03  0.94525043035E+03  0.00000000000E+00 0.  1.
          2   -1    0    0  501    0  0.00000000000E+00 -0.00000000000E+00 -0.15434738320E+04  0.15434738320E+04  0.00000000000E+00 0. -1.
         23    2    1    2    0    0  0.47104335392E+03 -0.10842974695E+04 -0.52648999139E+02  0.11867126370E+04  0.89062461590E+02 0.  0.
         13    1    3    3    0    0  0.20896810485E+03 -0.59215874340E+03 -0.23986315754E+02  0.62840670714E+03  0.00000000000E+00 0.  1.
        -13    1    3    3    0    0  0.26207524907E+03 -0.49213872615E+03 -0.28662683385E+02  0.55830592990E+03  0.00000000000E+00 0. -1.
         22    1    1    2    0    0 -0.47104335392E+03  0.10842974695E+04 -0.54557440250E+03  0.13020116253E+04  0.00000000000E+00 0.  1.
<mgrwt>
<rscale>  0 0.24157560E+04</rscale>
<asrwt>0</asrwt>
<pdfrwt beam="1">  1        2 0.23745751E+00 0.24157560E+04</pdfrwt>
<pdfrwt beam="2">  1       -2 0.14542314E+00 0.24157560E+04</pdfrwt>
<totfact> 0.35041321E+00</totfact>
</mgrwt>
</event>
<event>
 6    1  0.1637818E-005  0.3386874E+04  0.7818608E-02  0.8141135E-01
          1   -1    0    0  501    0  0.00000000000E+00  0.00000000000E+00  0.19333062850E+04  0.19333062850E+04  0.00000000000E+00 0.  1.
         -1   -1    0    0    0  501 -0.00000000000E+00 -0.00000000000E+00 -0.14833289479E+04  0.14833289479E+04  0.00000000000E+00 0. -1.
         23    2    1    2    0    0 -0.14114050578E+04  0.29011333831E+03  0.11202229435E+04  0.18274659030E+04  0.92207359901E+02 0.  0.
         13    1    3    3    0    0 -0.48295357112E+03  0.92836286980E+02  0.43780422486E+03  0.65843395064E+03  0.00000000000E+00 0. -1.
        -13    1    3    3    0    0 -0.92845148669E+03  0.19727705133E+03  0.68241871864E+03  0.11690319524E+04  0.00000000000E+00 0.  1.
         22    1    1    2    0    0  0.14114050578E+04 -0.29011333831E+03 -0.67024560641E+03  0.15891693299E+04  0.00000000000E+00 0. -1.
<mgrwt>
<rscale>  0 0.33868742E+04</rscale>
<asrwt>0</asrwt>
<pdfrwt beam="1">  1        1 0.29743174E+00 0.33868742E+04</pdfrwt>
<pdfrwt beam="2">  1       -1 0.22820445E+00 0.33868742E+04</pdfrwt>
<totfact> 0.26429916E-01</totfact>
</mgrwt>
</event>
<event>
 6    1  0.1637818E-005  0.1088406E+04  0.7818608E-02  0.9216566E-01
         -1   -1    0    0    0  501 -0.00000000000E+00  0.00000000000E+00  0.31929045157E+03  0.31929045157E+03  0.00000000000E+00 0.  1.
          1   -1    0    0  501    0  0.00000000000E+00 -0.00000000000E+00 -0.92754768755E+03  0.92754768755E+03  0.00000000000E+00 0. -1.
         23    2    1    2    0    0 -0.26025571188E+02  0.24575772457E+03 -0.85678760954E+03  0.89635056999E+03  0.91022782360E+02 0.  0.
         13    1    3    3    0    0 -0.43279964555E+02  0.47288761092E+02 -0.20197866781E+03  0.21190744325E+03  0.00000000000E+00 0. -1.
        -13    1    3    3    0    0  0.17254393367E+02  0.19846896348E+03 -0.65480894174E+03  0.68444312673E+03  0.00000000000E+00 0.  1.
         22    1    1    2    0    0  0.26025571188E+02 -0.24575772457E+03  0.24853037356E+03  0.35048756914E+03  0.00000000000E+00 0.  1.
<mgrwt>
<rscale>  0 0.10884064E+04</rscale>
<asrwt>0</asrwt>
<pdfrwt beam="1">  1        1 0.14269964E+00 0.10884064E+04</pdfrwt>
<pdfrwt beam="2">  1       -1 0.49121608E-01 0.10884064E+04</pdfrwt>
<totfact> 0.71510348E+01</totfact>
</mgrwt>
</event>
<event>
 6    1  0.1637818E-005  0.1961540E+04  0.7818608E-02  0.8624816E-01
          1   -1    0    0  501    0  0.00000000000E+00  0.00000000000E+00  0.19188750274E+04  0.19188750274E+04  0.00000000000E+00 0. -1.
         -1   -1    0    0    0  501 -0.00000000000E+00 -0.00000000000E+00 -0.50128836171E+03  0.50128836171E+03  0.00000000000E+00 0.  1.
         23    2    1    2    0    0  0.83371946183E+03  0.45801177048E+03  0.42648472067E+03  0.10464290668E+04  0.90893629744E+02 0.  0.
         11    1    3    3    0    0  0.28816515440E+03  0.18411653826E+03  0.11269546103E+03  0.36005322219E+03  0.00000000000E+00 0. -1.
        -11    1    3    3    0    0  0.54555430743E+03  0.27389523222E+03  0.31378925964E+03  0.68637584460E+03  0.00000000000E+00 0.  1.
         22    1    1    2    0    0 -0.83371946183E+03 -0.45801177048E+03  0.99110194504E+03  0.13737343223E+04  0.00000000000E+00 0. -1.
<mgrwt>
<rscale>  0 0.19615399E+04</rscale>
<asrwt>0</asrwt>
<pdfrwt beam="1">  1        1 0.29521154E+00 0.19615399E+04</pdfrwt>
<pdfrwt beam="2">  1       -1 0.77121287E-01 0.19615399E+04</pdfrwt>
<totfact> 0.53080057E+00</totfact>
</mgrwt>
</event>
<event>
 6    1  0.1637818E-005  0.8683501E+03  0.7818608E-02  0.9466034E-01
          1   -1    0    0  501    0  0.00000000000E+00  0.00000000000E+00  0.15446552927E+04  0.15446552927E+04  0.00000000000E+00 0. -1.
         -1   -1    0    0    0  501 -0.00000000000E+00 -0.00000000000E+00 -0.12203886423E+03  0.12203886423E+03  0.00000000000E+00 0.  1.
         23    2    1    2    0    0 -0.22736562743E+03  0.12914889501E+03  0.13735374732E+04  0.14006428283E+04  0.82586781875E+02 0.  0.
         11    1    3    3    0    0 -0.11277638681E+03  0.11092563563E+03  0.79461606534E+03  0.81020843081E+03  0.00000000000E+00 0.  1.
        -11    1    3    3    0    0 -0.11458924061E+03  0.18223259373E+02  0.57892140790E+03  0.59043439751E+03  0.00000000000E+00 0. -1.
         22    1    1    2    0    0  0.22736562743E+03 -0.12914889501E+03  0.49078955265E+02  0.26605132863E+03  0.00000000000E+00 0.  1.
<mgrwt>
<rscale>  0 0.86835011E+03</rscale>
<asrwt>0</asrwt>
<pdfrwt beam="1">  1        1 0.23763926E+00 0.86835011E+03</pdfrwt>
<pdfrwt beam="2">  1       -1 0.18775211E-01 0.86835011E+03</pdfrwt>
<totfact> 0.14004883E+02</totfact>
</mgrwt>
</event>
<event>
 6    1  0.1637818E-005  0.6462308E+04  0.7818608E-02  0.7635582E-01
          2   -1    0    0  501    0  0.00000000000E+00  0.00000000000E+00  0.28882763080E+04  0.28882763080E+04  0.00000000000E+00 0. -1.
         -2   -1    0    0    0  501 -0.00000000000E+00 -0.00000000000E+00 -0.36147362031E+04  0.36147362031E+04  0.00000000000E+00 0.  1.
         23    2    1    2    0    0  0.30689531742E+04 -0.18901140922E+03 -0.13599419709E+04  0.33636656939E+04  0.10298464888E+03 0.  0.
         13    1    3    3    0    0  0.58373814816E+03 -0.39565452226E+02 -0.21520529476E+03  0.62340113051E+03  0.00000000000E+00 0.  1.
        -13    1    3    3    0    0  0.24852150260E+04 -0.14944595700E+03 -0.11447366761E+04  0.27402645634E+04  0.00000000000E+00 0. -1.
         22    1    1    2    0    0 -0.30689531742E+04  0.18901140922E+03  0.63348207585E+03  0.31393468172E+04  0.00000000000E+00 0. -1.
<mgrwt>
<rscale>  0 0.64623082E+04</rscale>
<asrwt>0</asrwt>
<pdfrwt beam="1">  1        2 0.44435020E+00 0.64623082E+04</pdfrwt>
<pdfrwt beam="2">  1       -2 0.55611326E+00 0.64623082E+04</pdfrwt>
<totfact> 0.10779862E-03</totfact>
</mgrwt>
</event>
<event>
 6    1  0.1637818E-005  0.8356656E+03  0.7818608E-02  0.9509781E-01
          1   -1    0    0  501    0  0.00000000000E+00  0.00000000000E+00  0.13105118410E+04  0.13105118410E+04  0.00000000000E+00 0. -1.
         -1   -1    0    0    0  501 -0.00000000000E+00 -0.00000000000E+00 -0.13321835974E+03  0.13321835974E+03  0.00000000000E+00 0.  1.
         23    2    1    2    0    0  0.31855243849E+03 -0.22153094089E+03  0.35292778185E+03  0.53261526826E+03  0.92571004843E+02 0.  0.
         11    1    3    3    0    0  0.27452448856E+03 -0.17814241240E+03  0.33484797689E+03  0.46821104380E+03  0.00000000000E+00 0. -1.
        -11    1    3    3    0    0  0.44027949931E+02 -0.43388528492E+02  0.18079804963E+02  0.64404224453E+02  0.00000000000E+00 0.  1.
         22    1    1    2    0    0 -0.31855243849E+03  0.22153094089E+03  0.82436569938E+03  0.91111493246E+03  0.00000000000E+00 0. -1.
<mgrwt>
<rscale>  0 0.83566557E+03</rscale>
<asrwt>0</asrwt>
<pdfrwt beam="1">  1        1 0.20161720E+00 0.83566557E+03</pdfrwt>
<pdfrwt beam="2">  1       -1 0.20495133E-01 0.83566557E+03</pdfrwt>
<totfact> 0.17636356E+02</totfact>
</mgrwt>
</event>
<event>
 6    1  0.1637818E-005  0.2332575E+04  0.7818608E-02  0.8465187E-01
          2   -1    0    0  501    0  0.00000000000E+00  0.00000000000E+00  0.11430733847E+04  0.11430733847E+04  0.00000000000E+00 0. -1.
         -2   -1    0    0    0  501 -0.00000000000E+00 -0.00000000000E+00 -0.11899733912E+04  0.11899733912E+04  0.00000000000E+00 0.  1.
         23    2    1    2    0    0  0.35175785896E+03  0.57828938677E+02  0.10853921586E+04  0.11459649234E+04  0.89898220902E+02 0.  0.
         13    1    3    3    0    0  0.11884062448E+03 -0.18008204330E+02  0.29715280381E+03  0.32054200702E+03  0.00000000000E+00 0.  1.
        -13    1    3    3    0    0  0.23291723448E+03  0.75837143007E+02  0.78823935481E+03  0.82542291635E+03  0.00000000000E+00 0. -1.
         22    1    1    2    0    0 -0.35175785896E+03 -0.57828938677E+02 -0.11322921651E+04  0.11870818525E+04  0.00000000000E+00 0.  1.
<mgrwt>
<rscale>  0 0.23325753E+04</rscale>
<asrwt>0</asrwt>
<pdfrwt beam="1">  1        2 0.17585745E+00 0.23325753E+04</pdfrwt>
<pdfrwt beam="2">  1       -2 0.18307283E+00 0.23325753E+04</pdfrwt>
<totfact> 0.32012422E+00</totfact>
</mgrwt>
</event>
<event>
 6    1  0.1637818E-005  0.1574006E+04  0.7818608E-02  0.8836678E-01
          2   -1    0    0  501    0  0.00000000000E+00  0.00000000000E+00  0.17284399227E+04  0.17284399227E+04  0.00000000000E+00 0. -1.
         -2   -1    0    0    0  501 -0.00000000000E+00 -0.00000000000E+00 -0.35834284410E+03  0.35834284410E+03  0.00000000000E+00 0.  1.
         23    2    1    2    0    0 -0.37769888591E+03  0.64747887656E+03  0.99352038191E+03  0.12479172517E+04  0.91265402487E+02 0.  0.
         11    1    3    3    0    0 -0.21042356730E+03  0.27108673527E+03  0.45980761980E+03  0.57375007010E+03  0.00000000000E+00 0.  1.
        -11    1    3    3    0    0 -0.16727531861E+03  0.37639214129E+03  0.53371276211E+03  0.67416718155E+03  0.00000000000E+00 0. -1.
         22    1    1    2    0    0  0.37769888591E+03 -0.64747887656E+03  0.37657669668E+03  0.83886551514E+03  0.00000000000E+00 0.  1.
<mgrwt>
<rscale>  0 0.15740065E+04</rscale>
<asrwt>0</asrwt>
<pdfrwt beam="1">  1        2 0.26591383E+00 0.15740065E+04</pdfrwt>
<pdfrwt beam="2">  1       -2 0.55129670E-01 0.15740065E+04</pdfrwt>
<totfact> 0.28105810E+01</totfact>
</mgrwt>
</event>
<event>
 6    1  0.1637818E-005  0.7806460E+03  0.7818608E-02  0.9588462E-01
         -2   -1    0    0    0  501 -0.00000000000E+00  0.00000000000E+00  0.98181337765E+02  0.98181337765E+02  0.00000000000E+00 0.  1.
          2   -1    0    0  501    0  0.00000000000E+00 -0.00000000000E+00 -0.15517413142E+04  0.15517413142E+04  0.00000000000E+00 0. -1.
         23    2    1    2    0    0 -0.53040816506E+02 -0.20537978541E+03 -0.14155277606E+04  0.14344217612E+04  0.94089126605E+02 0.  0.
         11    1    3    3    0    0 -0.65359345911E+02 -0.10855866610E+03 -0.61145280151E+03  0.62444483869E+03  0.00000000000E+00 0.  1.
        -11    1    3    3    0    0  0.12318529406E+02 -0.96821119311E+02 -0.80407495904E+03  0.80997692255E+03  0.00000000000E+00 0. -1.
         22    1    1    2    0    0  0.53040816506E+02  0.20537978541E+03 -0.38032215917E+02  0.21550089076E+03  0.00000000000E+00 0.  1.
<mgrwt>
<rscale>  0 0.78064598E+03</rscale>
<asrwt>0</asrwt>
<pdfrwt beam="1">  1        2 0.23872940E+00 0.78064598E+03</pdfrwt>
<pdfrwt beam="2">  1       -2 0.15104823E-01 0.78064598E+03</pdfrwt>
<totfact> 0.41577363E+02</totfact>
</mgrwt>
</event>
<event>
 6    1  0.1637818E-005  0.9723831E+03  0.7818608E-02  0.9339364E-01
          1   -1    0    0  501    0  0.00000000000E+00  0.00000000000E+00  0.17607139576E+04  0.17607139576E+04  0.00000000000E+00 0. -1.
         -1   -1    0    0    0  501 -0.00000000000E+00 -0.00000000000E+00 -0.13425360959E+03  0.13425360959E+03  0.00000000000E+00 0.  1.
         23    2    1    2    0    0 -0.31236188208E+03 -0.27943045865E+03  0.36162086992E+03  0.56249984452E+03  0.99925446849E+02 0.  0.
         11    1    3    3    0    0 -0.13041151231E+03 -0.76735533699E+02  0.17985944443E+03  0.23504238857E+03  0.00000000000E+00 0. -1.
        -11    1    3    3    0    0 -0.18195036977E+03 -0.20269492495E+03  0.18176142549E+03  0.32745745595E+03  0.00000000000E+00 0.  1.
         22    1    1    2    0    0  0.31236188208E+03  0.27943045865E+03  0.12648394781E+04  0.13324677226E+04  0.00000000000E+00 0.  1.
<mgrwt>
<rscale>  0 0.97238306E+03</rscale>
<asrwt>0</asrwt>
<pdfrwt beam="1">  1        1 0.27087905E+00 0.97238306E+03</pdfrwt>
<pdfrwt beam="2">  1       -1 0.20654403E-01 0.97238306E+03</pdfrwt>
<totfact> 0.84520339E+01</totfact>
</mgrwt>
</event>
<event>
 6    1  0.1685076E-005  0.2087611E+04  0.7818608E-02  0.8566721E-01
          2   -1    0    0  501    0  0.00000000000E+00  0.00000000000E+00  0.93208403708E+03  0.93208403708E+03  0.00000000000E+00 0. -1.
         -2   -1    0    0    0  501 -0.00000000000E+00 -0.00000000000E+00 -0.11689177651E+04  0.11689177651E+04  0.00000000000E+00 0.  1.
         23    2    1    2    0    0 -0.29367063767E+03 -0.64168681985E+03  0.65271244872E+03  0.96552973349E+03  0.90607435316E+02 0.  0.
         13    1    3    3    0    0 -0.74080113778E+02 -0.11979958771E+03  0.89346564548E+02  0.16680111831E+03  0.00000000000E+00 0. -1.
        -13    1    3    3    0    0 -0.21959052389E+03 -0.52188723214E+03  0.56336588417E+03  0.79872861518E+03  0.00000000000E+00 0.  1.
         22    1    1    2    0    0  0.29367063767E+03  0.64168681985E+03 -0.88954617670E+03  0.11354720686E+04  0.00000000000E+00 0.  1.
<mgrwt>
<rscale>  0 0.20876107E+04</rscale>
<asrwt>0</asrwt>
<pdfrwt beam="1">  1        2 0.14339755E+00 0.20876107E+04</pdfrwt>
<pdfrwt beam="2">  1       -2 0.17983350E+00 0.20876107E+04</pdfrwt>
<totfact> 0.46782054E+00</totfact>
</mgrwt>
</event>
<event>
 6    1  0.1637818E-005  0.6648696E+04  0.7818608E-02  0.7614792E-01
         -2   -1    0    0    0  501 -0.00000000000E+00  0.00000000000E+00  0.52500673578E+04  0.52500673578E+04  0.00000000000E+00 0.  1.
          2   -1    0    0  501    0  0.00000000000E+00 -0.00000000000E+00 -0.21049803033E+04  0.21049803033E+04  0.00000000000E+00 0. -1.
         23    2    1    2    0    0 -0.23029253432E+04  0.72749852643E+03  0.40989404722E+04  0.47584045233E+04  0.91549828285E+02 0.  0.
         13    1    3    3    0    0 -0.28245086687E+03  0.10063320861E+03  0.45528465816E+03  0.54515103854E+03  0.00000000000E+00 0. -1.
        -13    1    3    3    0    0 -0.20204744763E+04  0.62686531782E+03  0.36436558140E+04  0.42132534848E+04  0.00000000000E+00 0.  1.
         22    1    1    2    0    0  0.23029253432E+04 -0.72749852643E+03 -0.95385341771E+03  0.25966431378E+04  0.00000000000E+00 0. -1.
<mgrwt>
<rscale>  0 0.66486956E+04</rscale>
<asrwt>0</asrwt>
<pdfrwt beam="1">  1        2 0.32384313E+00 0.66486956E+04</pdfrwt>
<pdfrwt beam="2">  1       -2 0.80770266E+00 0.66486956E+04</pdfrwt>
<totfact> 0.26228978E-04</totfact>
</mgrwt>
</event>
<event>
 6    1  0.1637818E-005  0.1828257E+04  0.7818608E-02  0.8691415E-01
          2   -1    0    0  501    0  0.00000000000E+00  0.00000000000E+00  0.10674445832E+04  0.10674445832E+04  0.00000000000E+00 0. -1.
         -2   -1    0    0    0  501 -0.00000000000E+00 -0.00000000000E+00 -0.78283292848E+03  0.78283292848E+03  0.00000000000E+00 0.  1.
         23    2    1    2    0    0 -0.65632265623E+03 -0.32834608880E+03  0.69045155144E+03  0.10116616253E+04  0.90362138844E+02 0.  0.
         13    1    3    3    0    0 -0.26406593670E+03 -0.18182996939E+03  0.29225766488E+03  0.43382888259E+03  0.00000000000E+00 0. -1.
        -13    1    3    3    0    0 -0.39225671953E+03 -0.14651611941E+03  0.39819388657E+03  0.57783274273E+03  0.00000000000E+00 0.  1.
         22    1    1    2    0    0  0.65632265623E+03  0.32834608880E+03 -0.40583989671E+03  0.83861588637E+03  0.00000000000E+00 0.  1.
<mgrwt>
<rscale>  0 0.18282568E+04</rscale>
<asrwt>0</asrwt>
<pdfrwt beam="1">  1        2 0.16422224E+00 0.18282568E+04</pdfrwt>
<pdfrwt beam="2">  1       -2 0.12043584E+00 0.18282568E+04</pdfrwt>
<totfact> 0.11315323E+01</totfact>
</mgrwt>
</event>
<event>
 6    1  0.1637818E-005  0.1350720E+04  0.7818608E-02  0.8990283E-01
         -1   -1    0    0    0  501 -0.00000000000E+00  0.00000000000E+00  0.48716449676E+03  0.48716449676E+03  0.00000000000E+00 0.  1.
          1   -1    0    0  501    0  0.00000000000E+00 -0.00000000000E+00 -0.93625729386E+03  0.93625729386E+03  0.00000000000E+00 0. -1.
         23    2    1    2    0    0  0.65416253657E+03  0.15442057110E+03 -0.22792982031E+03  0.71582911165E+03  0.93193224386E+02 0.  0.
         11    1    3    3    0    0  0.52638816330E+03  0.14301941060E+03 -0.21711223849E+03  0.58709179382E+03  0.00000000000E+00 0. -1.
        -11    1    3    3    0    0  0.12777437327E+03  0.11401160498E+02 -0.10817581816E+02  0.12873731783E+03  0.00000000000E+00 0.  1.
         22    1    1    2    0    0 -0.65416253657E+03 -0.15442057110E+03 -0.22116297679E+03  0.70759267897E+03  0.00000000000E+00 0. -1.
<mgrwt>
<rscale>  0 0.13507203E+04</rscale>
<asrwt>0</asrwt>
<pdfrwt beam="1">  1        1 0.14403958E+00 0.13507203E+04</pdfrwt>
<pdfrwt beam="2">  1       -1 0.74948384E-01 0.13507203E+04</pdfrwt>
<totfact> 0.29802608E+01</totfact>
</mgrwt>
</event>
<event>
 6    1  0.1637818E-005  0.5285503E+04  0.7818608E-02  0.7785914E-01
         -2   -1    0    0    0  501 -0.00000000000E+00  0.00000000000E+00  0.20410638650E+04  0.20410638650E+04  0.00000000000E+00 0.  1.
          2   -1    0    0  501    0  0.00000000000E+00 -0.00000000000E+00 -0.34218111942E+04  0.34218111942E+04  0.00000000000E+00 0. -1.
         23    2    1    2    0    0  0.99540913248E+03 -0.56949992018E+03 -0.31505276884E+04  0.33540146987E+04  0.91762645694E+02 0.  0.
         13    1    3    3    0    0  0.57478596775E+03 -0.29467834403E+03 -0.18720309141E+04  0.19803317850E+04  0.00000000000E+00 0.  1.
        -13    1    3    3    0    0  0.42062316473E+03 -0.27482157615E+03 -0.12784967743E+04  0.13736829137E+04  0.00000000000E+00 0. -1.
         22    1    1    2    0    0 -0.99540913248E+03  0.56949992018E+03  0.17697803592E+04  0.21088603605E+04  0.00000000000E+00 0.  1.
<mgrwt>
<rscale>  0 0.52855029E+04</rscale>
<asrwt>0</asrwt>
<pdfrwt beam="1">  1        2 0.52643248E+00 0.52855029E+04</pdfrwt>
<pdfrwt beam="2">  1       -2 0.31400983E+00 0.52855029E+04</pdfrwt>
<totfact> 0.17063685E-02</totfact>
</mgrwt>
</event>
<event>
 6    1  0.1637818E-005  0.2068401E+04  0.7818608E-02  0.8575292E-01
          2   -1    0    0  501    0  0.00000000000E+00  0.00000000000E+00  0.21183144478E+04  0.21183144478E+04  0.00000000000E+00 0. -1.
         -2   -1    0    0    0  501 -0.00000000000E+00 -0.00000000000E+00 -0.50491575555E+03  0.50491575555E+03  0.00000000000E+00 0.  1.
         23    2    1    2    0    0  0.29926647204E+02 -0.94706148568E+03  0.28927705424E+03  0.99500442843E+03  0.92366317570E+02 0.  0.
         11    1    3    3    0    0  0.92803431897E+01 -0.25694725432E+03  0.36155945552E+02  0.25964450441E+03  0.00000000000E+00 0.  1.
        -11    1    3    3    0    0  0.20646304015E+02 -0.69011423136E+03  0.25312110868E+03  0.73535992402E+03  0.00000000000E+00 0. -1.
         22    1    1    2    0    0 -0.29926647204E+02  0.94706148568E+03  0.13241216380E+04  0.16282257749E+04  0.00000000000E+00 0. -1.
<mgrwt>
<rscale>  0 0.20684007E+04</rscale>
<asrwt>0</asrwt>
<pdfrwt beam="1">  1        2 0.32589453E+00 0.20684007E+04</pdfrwt>
<pdfrwt beam="2">  1       -2 0.77679348E-01 0.20684007E+04</pdfrwt>
<totfact> 0.78291770E+00</totfact>
</mgrwt>
</event>
<event>
 6    1  0.1637818E-005  0.1981946E+04  0.7818608E-02  0.8615108E-01
          1   -1    0    0  501    0  0.00000000000E+00  0.00000000000E+00  0.11771184424E+04  0.11771184424E+04  0.00000000000E+00 0. -1.
         -1   -1    0    0    0  501 -0.00000000000E+00 -0.00000000000E+00 -0.83426383992E+03  0.83426383992E+03  0.00000000000E+00 0.  1.
         23    2    1    2    0    0 -0.61369656761E+03  0.74473977913E+03 -0.46291827496E+02  0.97085560816E+03  0.95691498512E+02 0.  0.
         13    1    3    3    0    0 -0.48173919847E+03  0.61481561571E+03 -0.69812492300E+02  0.78418408600E+03  0.00000000000E+00 0. -1.
        -13    1    3    3    0    0 -0.13195736914E+03  0.12992416343E+03  0.23520664804E+02  0.18667152216E+03  0.00000000000E+00 0.  1.
         22    1    1    2    0    0  0.61369656761E+03 -0.74473977913E+03  0.38914643003E+03  0.10405266742E+04  0.00000000000E+00 0. -1.
<mgrwt>
<rscale>  0 0.19819459E+04</rscale>
<asrwt>0</asrwt>
<pdfrwt beam="1">  1        1 0.18109515E+00 0.19819459E+04</pdfrwt>
<pdfrwt beam="2">  1       -1 0.12834828E+00 0.19819459E+04</pdfrwt>
<totfact> 0.54057244E+00</totfact>
</mgrwt>
</event>
<event>
 6    1  0.1637818E-005  0.2743663E+04  0.7818608E-02  0.8320975E-01
         -1   -1    0    0    0  501 -0.00000000000E+00  0.00000000000E+00  0.15149363046E+04  0.15149363046E+04  0.00000000000E+00 0.  1.
          1   -1    0    0  501    0  0.00000000000E+00 -0.00000000000E+00 -0.12422443142E+04  0.12422443142E+04  0.00000000000E+00 0. -1.
         23    2    1    2    0    0  0.10120167843E+04  0.73602605837E+03 -0.42480573262E+03  0.13245552652E+04  0.89857719496E+02 0.  0.
         11    1    3    3    0    0  0.35092867986E+03  0.29821795271E+03 -0.18345843155E+03  0.49572359413E+03  0.00000000000E+00 0. -1.
        -11    1    3    3    0    0  0.66108810443E+03  0.43780810566E+03 -0.24134730107E+03  0.82883167105E+03  0.00000000000E+00 0.  1.
         22    1    1    2    0    0 -0.10120167843E+04 -0.73602605837E+03  0.69749772296E+03  0.14326253536E+04  0.00000000000E+00 0.  1.
<mgrwt>
<rscale>  0 0.27436625E+04</rscale>
<asrwt>0</asrwt>
<pdfrwt beam="1">  1        1 0.19111451E+00 0.27436625E+04</pdfrwt>
<pdfrwt beam="2">  1       -1 0.23306712E+00 0.27436625E+04</pdfrwt>
<totfact> 0.78001947E-01</totfact>
</mgrwt>
</event>
<event>
 6    1  0.1637818E-005  0.2245545E+04  0.7818608E-02  0.8499707E-01
          2   -1    0    0  501    0  0.00000000000E+00  0.00000000000E+00  0.15267332803E+04  0.15267332803E+04  0.00000000000E+00 0. -1.
         -2   -1    0    0    0  501 -0.00000000000E+00 -0.00000000000E+00 -0.82569646968E+03  0.82569646968E+03  0.00000000000E+00 0.  1.
         23    2    1    2    0    0 -0.58824969902E+03  0.83506983496E+03 -0.13227347656E+03  0.10341788739E+04  0.93007165897E+02 0.  0.
         11    1    3    3    0    0 -0.33632908534E+03  0.40619838066E+03 -0.90092034630E+02  0.53500556333E+03  0.00000000000E+00 0. -1.
        -11    1    3    3    0    0 -0.25192061368E+03  0.42887145430E+03 -0.42181441934E+02  0.49917331054E+03  0.00000000000E+00 0.  1.
         22    1    1    2    0    0  0.58824969902E+03 -0.83506983496E+03  0.83331028722E+03  0.13182508761E+04  0.00000000000E+00 0. -1.
<mgrwt>
<rscale>  0 0.22455452E+04</rscale>
<asrwt>0</asrwt>
<pdfrwt beam="1">  1        2 0.23488204E+00 0.22455452E+04</pdfrwt>
<pdfrwt beam="2">  1       -2 0.12703023E+00 0.22455452E+04</pdfrwt>
<totfact> 0.51414847E+00</totfact>
</mgrwt>
</event>
<event>
 6    1  0.1637818E-005  0.1046434E+04  0.7818608E-02  0.9259034E-01
          1   -1    0    0  501    0  0.00000000000E+00  0.00000000000E+00  0.35046334614E+04  0.35046334614E+04  0.00000000000E+00 0. -1.
         -1   -1    0    0    0  501 -0.00000000000E+00 -0.00000000000E+00 -0.78112534889E+02  0.78112534889E+02  0.00000000000E+00 0.  1.
         23    2    1    2    0    0  0.22769882791E+03 -0.38424746905E+03  0.26328722585E+04  0.26720478674E+04  0.91272134332E+02 0.  0.
         13    1    3    3    0    0  0.13872115036E+03 -0.23960577868E+03  0.18788094529E+04  0.18990996411E+04  0.00000000000E+00 0.  1.
        -13    1    3    3    0    0  0.88977677556E+02 -0.14464169037E+03  0.75406280557E+03  0.77294822624E+03  0.00000000000E+00 0. -1.
         22    1    1    2    0    0 -0.22769882791E+03  0.38424746905E+03  0.79364866810E+03  0.91069812896E+03  0.00000000000E+00 0.  1.
<mgrwt>
<rscale>  0 0.10464336E+04</rscale>
<asrwt>0</asrwt>
<pdfrwt beam="1">  1        1 0.53917426E+00 0.10464336E+04</pdfrwt>
<pdfrwt beam="2">  1       -1 0.12017316E-01 0.10464336E+04</pdfrwt>
<totfact> 0.12043766E+01</totfact>
</mgrwt>
</event>
<event>
 6    1  0.1637818E-005  0.9676143E+03  0.7818608E-02  0.9344796E-01
         -1   -1    0    0    0  501 -0.00000000000E+00  0.00000000000E+00  0.82567653169E+02  0.82567653169E+02  0.00000000000E+00 0.  1.
          1   -1    0    0  501    0  0.00000000000E+00 -0.00000000000E+00 -0.28348796130E+04  0.28348796130E+04  0.00000000000E+00 0. -1.
         23    2    1    2    0    0 -0.15160264839E+03 -0.25583661939E+03 -0.25225666205E+04  0.25416565535E+04  0.90774126653E+02 0.  0.
         13    1    3    3    0    0 -0.14357658382E+02 -0.93371468110E+02 -0.60483006722E+03  0.61216320015E+03  0.00000000000E+00 0.  1.
        -13    1    3    3    0    0 -0.13724499001E+03 -0.16246515128E+03 -0.19177365533E+04  0.19294933533E+04  0.00000000000E+00 0. -1.
         22    1    1    2    0    0  0.15160264839E+03  0.25583661939E+03 -0.22974533934E+03  0.37579071272E+03  0.00000000000E+00 0.  1.
<mgrwt>
<rscale>  0 0.96761430E+03</rscale>
<asrwt>0</asrwt>
<pdfrwt beam="1">  1        1 0.43613525E+00 0.96761430E+03</pdfrwt>
<pdfrwt beam="2">  1       -1 0.12702718E-01 0.96761430E+03</pdfrwt>
<totfact> 0.34771282E+01</totfact>
</mgrwt>
</event>
<event>
 6    1  0.1637818E-005  0.1321529E+04  0.7818608E-02  0.9012664E-01
         -2   -1    0    0    0  501 -0.00000000000E+00  0.00000000000E+00  0.47354814173E+03  0.47354814173E+03  0.00000000000E+00 0.  1.
          2   -1    0    0  501    0  0.00000000000E+00 -0.00000000000E+00 -0.92199706798E+03  0.92199706798E+03  0.00000000000E+00 0. -1.
         23    2    1    2    0    0 -0.29916292808E+03 -0.67446498219E+02  0.38897764182E+03  0.50373203164E+03  0.91623502476E+02 0.  0.
         13    1    3    3    0    0 -0.16411080973E+03 -0.34474323877E+02  0.13947997414E+03  0.21811808742E+03  0.00000000000E+00 0.  1.
        -13    1    3    3    0    0 -0.13505211835E+03 -0.32972174342E+02  0.24949766768E+03  0.28561394422E+03  0.00000000000E+00 0. -1.
         22    1    1    2    0    0  0.29916292808E+03  0.67446498219E+02 -0.83742656808E+03  0.89181317807E+03  0.00000000000E+00 0. -1.
<mgrwt>
<rscale>  0 0.13215294E+04</rscale>
<asrwt>0</asrwt>
<pdfrwt beam="1">  1        2 0.14184570E+00 0.13215294E+04</pdfrwt>
<pdfrwt beam="2">  1       -2 0.72853561E-01 0.13215294E+04</pdfrwt>
<totfact> 0.47241453E+01</totfact>
</mgrwt>
</event>
<event>
 6    1  0.1637818E-005  0.1506552E+04  0.7818608E-02  0.8880108E-01
          2   -1    0    0  501    0  0.00000000000E+00  0.00000000000E+00  0.67772315354E+03  0.67772315354E+03  0.00000000000E+00 0. -1.
         -2   -1    0    0    0  501 -0.00000000000E+00 -0.00000000000E+00 -0.83725124065E+03  0.83725124065E+03  0.00000000000E+00 0.  1.
         23    2    1    2    0    0 -0.38727896940E+03 -0.67012599831E+02 -0.72293924858E+03  0.82801891853E+03  0.92187220477E+02 0.  0.
         13    1    3    3    0    0 -0.31973387127E+03 -0.30987332748E+02 -0.63351620346E+03  0.71030468341E+03  0.00000000000E+00 0. -1.
        -13    1    3    3    0    0 -0.67545098133E+02 -0.36025267083E+02 -0.89423045126E+02  0.11771423512E+03  0.00000000000E+00 0.  1.
         22    1    1    2    0    0  0.38727896940E+03  0.67012599831E+02  0.56341116147E+03  0.68695547566E+03  0.00000000000E+00 0. -1.
<mgrwt>
<rscale>  0 0.15065518E+04</rscale>
<asrwt>0</asrwt>
<pdfrwt beam="1">  1        2 0.10426510E+00 0.15065518E+04</pdfrwt>
<pdfrwt beam="2">  1       -2 0.12880788E+00 0.15065518E+04</pdfrwt>
<totfact> 0.18317537E+01</totfact>
</mgrwt>
</event>
<event>
 6    1  0.1637818E-005  0.3772386E+04  0.7818608E-02  0.8052107E-01
          2   -1    0    0  501    0  0.00000000000E+00  0.00000000000E+00  0.17046063353E+04  0.17046063353E+04  0.00000000000E+00 0. -1.
         -2   -1    0    0    0  501 -0.00000000000E+00 -0.00000000000E+00 -0.20871235159E+04  0.20871235159E+04  0.00000000000E+00 0.  1.
         23    2    1    2    0    0 -0.18020226149E+04 -0.31455342942E+03 -0.64879902521E+03  0.19431803158E+04  0.93702721711E+02 0.  0.
         13    1    3    3    0    0 -0.11056613056E+04 -0.15997825987E+03 -0.42992805324E+03  0.11970455702E+04  0.00000000000E+00 0. -1.
        -13    1    3    3    0    0 -0.69636130931E+03 -0.15457516954E+03 -0.21887097196E+03  0.74613474554E+03  0.00000000000E+00 0.  1.
         22    1    1    2    0    0  0.18020226149E+04  0.31455342942E+03  0.26628184462E+03  0.18485495355E+04  0.00000000000E+00 0.  1.
<mgrwt>
<rscale>  0 0.37723860E+04</rscale>
<asrwt>0</asrwt>
<pdfrwt beam="1">  1        2 0.26224713E+00 0.37723860E+04</pdfrwt>
<pdfrwt beam="2">  1       -2 0.32109592E+00 0.37723860E+04</pdfrwt>
<totfact> 0.18466436E-01</totfact>
</mgrwt>
</event>
<event>
 6    1  0.1637818E-005  0.1844883E+04  0.7818608E-02  0.8682789E-01
          2   -1    0    0  501    0  0.00000000000E+00  0.00000000000E+00  0.37336615094E+04  0.37336615094E+04  0.00000000000E+00 0. -1.
         -2   -1    0    0    0  501 -0.00000000000E+00 -0.00000000000E+00 -0.22789908043E+03  0.22789908043E+03  0.00000000000E+00 0.  1.
         23    2    1    2    0    0 -0.80951219095E+03  0.35271123624E+03  0.23049472867E+04  0.24710330962E+04  0.11622118743E+03 0.  0.
         13    1    3    3    0    0 -0.38050554571E+03  0.14553445356E+03  0.91157985923E+03  0.99847012336E+03  0.00000000000E+00 0. -1.
        -13    1    3    3    0    0 -0.42900664525E+03  0.20717678268E+03  0.13933674275E+04  0.14725629728E+04  0.00000000000E+00 0.  1.
         22    1    1    2    0    0  0.80951219095E+03 -0.35271123624E+03  0.12008151422E+04  0.14905274936E+04  0.00000000000E+00 0.  1.
<mgrwt>
<rscale>  0 0.18448827E+04</rscale>
<asrwt>0</asrwt>
<pdfrwt beam="1">  1        2 0.57440942E+00 0.18448827E+04</pdfrwt>
<pdfrwt beam="2">  1       -2 0.35061400E-01 0.18448827E+04</pdfrwt>
<totfact> 0.39979798E+00</totfact>
</mgrwt>
</event>
<event>
 6    1  0.1637818E-005  0.5625344E+04  0.7818608E-02  0.7738674E-01
          1   -1    0    0  501    0  0.00000000000E+00  0.00000000000E+00  0.51966028328E+04  0.51966028328E+04  0.00000000000E+00 0. -1.
         -1   -1    0    0    0  501 -0.00000000000E+00 -0.00000000000E+00 -0.15223643611E+04  0.15223643611E+04  0.00000000000E+00 0.  1.
         23    2    1    2    0    0 -0.10858822933E+04 -0.90389607886E+03  0.47414488968E+04  0.49483439794E+04  0.92747083453E+02 0.  0.
         13    1    3    3    0    0 -0.64380966738E+03 -0.51634889270E+03  0.29183355326E+04  0.30327857404E+04  0.00000000000E+00 0. -1.
        -13    1    3    3    0    0 -0.44207262593E+03 -0.38754718616E+03  0.18231133642E+04  0.19155582390E+04  0.00000000000E+00 0.  1.
         22    1    1    2    0    0  0.10858822933E+04  0.90389607886E+03 -0.10672104251E+04  0.17706232145E+04  0.00000000000E+00 0.  1.
<mgrwt>
<rscale>  0 0.56253437E+04</rscale>
<asrwt>0</asrwt>
<pdfrwt beam="1">  1        1 0.79947735E+00 0.56253437E+04</pdfrwt>
<pdfrwt beam="2">  1       -1 0.23420990E+00 0.56253437E+04</pdfrwt>
<totfact> 0.27878800E-04</totfact>
</mgrwt>
</event>
<event>
 6    1  0.1667698E-005  0.3369458E+04  0.7818608E-02  0.8145443E-01
          2   -1    0    0  501    0  0.00000000000E+00  0.00000000000E+00  0.23347191435E+04  0.23347191435E+04  0.00000000000E+00 0.  1.
         -2   -1    0    0    0  501 -0.00000000000E+00 -0.00000000000E+00 -0.12156976179E+04  0.12156976179E+04  0.00000000000E+00 0. -1.
         23    2    1    2    0    0 -0.11290773405E+04  0.29899553436E+03 -0.71763362810E+03  0.13738331716E+04  0.90584705177E+02 0.  0.
         11    1    3    3    0    0 -0.72352386302E+03  0.14815166113E+03 -0.46667916829E+03  0.87362757579E+03  0.00000000000E+00 0.  1.
        -11    1    3    3    0    0 -0.40555347744E+03  0.15084387323E+03 -0.25095445982E+03  0.50020559578E+03  0.00000000000E+00 0. -1.
         22    1    1    2    0    0  0.11290773405E+04 -0.29899553436E+03  0.18366551537E+04  0.21765835899E+04  0.00000000000E+00 0.  1.
<mgrwt>
<rscale>  0 0.33694584E+04</rscale>
<asrwt>0</asrwt>
<pdfrwt beam="1">  1        2 0.35918756E+00 0.33694584E+04</pdfrwt>
<pdfrwt beam="2">  1       -2 0.18703040E+00 0.33694584E+04</pdfrwt>
<totfact> 0.58395750E-01</totfact>
</mgrwt>
</event>
<event>
 6    1  0.1637818E-005  0.1652496E+04  0.7818608E-02  0.8788931E-01
         -1   -1    0    0    0  501 -0.00000000000E+00  0.00000000000E+00  0.31445709242E+03  0.31445709242E+03  0.00000000000E+00 0.  1.
          1   -1    0    0  501    0  0.00000000000E+00 -0.00000000000E+00 -0.21709978071E+04  0.21709978071E+04  0.00000000000E+00 0. -1.
         23    2    1    2    0    0 -0.41468085751E+03  0.71149073278E+03 -0.91010333101E+03  0.12308940211E+04  0.92912548502E+02 0.  0.
         11    1    3    3    0    0 -0.19114887649E+03  0.36651871949E+03 -0.51899703314E+03  0.66349964968E+03  0.00000000000E+00 0. -1.
        -11    1    3    3    0    0 -0.22353198103E+03  0.34497201330E+03 -0.39110629786E+03  0.56739437143E+03  0.00000000000E+00 0.  1.
         22    1    1    2    0    0  0.41468085751E+03 -0.71149073278E+03 -0.94643738367E+03  0.12545608784E+04  0.00000000000E+00 0.  1.
<mgrwt>
<rscale>  0 0.16524959E+04</rscale>
<asrwt>0</asrwt>
<pdfrwt beam="1">  1        1 0.33399967E+00 0.16524959E+04</pdfrwt>
<pdfrwt beam="2">  1       -1 0.48378013E-01 0.16524959E+04</pdfrwt>
<totfact> 0.93157107E+00</totfact>
</mgrwt>
</event>
<event>
 6    1  0.1637818E-005  0.1271537E+04  0.7818608E-02  0.9052446E-01
         -2   -1    0    0    0  501 -0.00000000000E+00  0.00000000000E+00  0.16245290780E+03  0.16245290780E+03  0.00000000000E+00 0.  1.
          2   -1    0    0  501    0  0.00000000000E+00 -0.00000000000E+00 -0.24881162311E+04  0.24881162311E+04  0.00000000000E+00 0. -1.
         23    2    1    2    0    0  0.44350636005E+02 -0.36723882599E+03 -0.99589712616E+02  0.39397102350E+03  0.91998490575E+02 0.  0.
         11    1    3    3    0    0  0.16418346330E+02 -0.21969214521E+03 -0.13137777604E+02  0.22069617569E+03  0.00000000000E+00 0.  1.
        -11    1    3    3    0    0  0.27932289675E+02 -0.14754668078E+03 -0.86451935013E+02  0.17327484781E+03  0.00000000000E+00 0. -1.
         22    1    1    2    0    0 -0.44350636005E+02  0.36723882599E+03 -0.22260736107E+04  0.22565981154E+04  0.00000000000E+00 0. -1.
<mgrwt>
<rscale>  0 0.12715372E+04</rscale>
<asrwt>0</asrwt>
<pdfrwt beam="1">  1        2 0.38278708E+00 0.12715372E+04</pdfrwt>
<pdfrwt beam="2">  1       -2 0.24992757E-01 0.12715372E+04</pdfrwt>
<totfact> 0.50107102E+01</totfact>
</mgrwt>
</event>
<event>
 6    1  0.1637818E-005  0.3440680E+04  0.7818608E-02  0.8127994E-01
         -2   -1    0    0    0  501 -0.00000000000E+00  0.00000000000E+00  0.14049595459E+04  0.14049595459E+04  0.00000000000E+00 0.  1.
          2   -1    0    0  501    0  0.00000000000E+00 -0.00000000000E+00 -0.21065158632E+04  0.21065158632E+04  0.00000000000E+00 0. -1.
         23    2    1    2    0    0 -0.16567054769E+04 -0.10895121171E+03 -0.80608434486E+03  0.18479040964E+04  0.91837763701E+02 0.  0.
         13    1    3    3    0    0 -0.12038150613E+04 -0.11391613314E+03 -0.61034370326E+03  0.13544988089E+04  0.00000000000E+00 0. -1.
        -13    1    3    3    0    0 -0.45289041556E+03  0.49649214317E+01 -0.19574064160E+03  0.49340528749E+03  0.00000000000E+00 0.  1.
         22    1    1    2    0    0  0.16567054769E+04  0.10895121171E+03  0.10452802756E+03  0.16635713126E+04  0.00000000000E+00 0.  1.
<mgrwt>
<rscale>  0 0.34406799E+04</rscale>
<asrwt>0</asrwt>
<pdfrwt beam="1">  1        2 0.32407936E+00 0.34406799E+04</pdfrwt>
<pdfrwt beam="2">  1       -2 0.21614762E+00 0.34406799E+04</pdfrwt>
<totfact> 0.50313188E-01</totfact>
</mgrwt>
</event>
<event>
 6    1  0.1637818E-005  0.4145811E+04  0.7818608E-02  0.7975761E-01
          2   -1    0    0  501    0  0.00000000000E+00  0.00000000000E+00  0.26134859642E+04  0.26134859642E+04  0.00000000000E+00 0. -1.
         -2   -1    0    0    0  501 -0.00000000000E+00 -0.00000000000E+00 -0.16441403633E+04  0.16441403633E+04  0.00000000000E+00 0.  1.
         23    2    1    2    0    0  0.16064612163E+04 -0.10408040484E+04 -0.32916649117E+03  0.19445927437E+04  0.95392104021E+02 0.  0.
         11    1    3    3    0    0  0.81167160841E+03 -0.50605307237E+03 -0.11910337723E+03  0.96389113827E+03  0.00000000000E+00 0.  1.
        -11    1    3    3    0    0  0.79478960786E+03 -0.53475097600E+03 -0.21006311393E+03  0.98070160545E+03  0.00000000000E+00 0. -1.
         22    1    1    2    0    0 -0.16064612163E+04  0.10408040484E+04  0.12985120921E+04  0.23130335838E+04  0.00000000000E+00 0.  1.
<mgrwt>
<rscale>  0 0.41458113E+04</rscale>
<asrwt>0</asrwt>
<pdfrwt beam="1">  1        2 0.40207476E+00 0.41458113E+04</pdfrwt>
<pdfrwt beam="2">  1       -2 0.25294467E+00 0.41458113E+04</pdfrwt>
<totfact> 0.14359044E-01</totfact>
</mgrwt>
</event>
<event>
 6    1  0.1637818E-005  0.6568123E+03  0.7818608E-02  0.9794080E-01
         -1   -1    0    0    0  501 -0.00000000000E+00  0.00000000000E+00  0.12000956976E+04  0.12000956976E+04  0.00000000000E+00 0.  1.
          1   -1    0    0  501    0  0.00000000000E+00 -0.00000000000E+00 -0.89868319932E+02  0.89868319932E+02  0.00000000000E+00 0. -1.
         23    2    1    2    0    0  0.20090810494E+03 -0.29790705305E+02  0.10566925980E+04  0.10799222946E+04  0.91549783447E+02 0.  0.
         13    1    3    3    0    0  0.76366082366E+01 -0.28293436717E+02  0.15536377878E+03  0.15810357397E+03  0.00000000000E+00 0. -1.
        -13    1    3    3    0    0  0.19327149670E+03 -0.14972685881E+01  0.90132881927E+03  0.92181872063E+03  0.00000000000E+00 0.  1.
         22    1    1    2    0    0 -0.20090810494E+03  0.29790705305E+02  0.53534779644E+02  0.21004172296E+03  0.00000000000E+00 0. -1.
<mgrwt>
<rscale>  0 0.65681225E+03</rscale>
<asrwt>0</asrwt>
<pdfrwt beam="1">  1        1 0.13825896E-01 0.65681225E+03</pdfrwt>
<pdfrwt beam="2">  1       -1 0.18463010E+00 0.65681225E+03</pdfrwt>
<totfact> 0.85247549E+01</totfact>
</mgrwt>
</event>
<event>
 6    1  0.1637818E-005  0.1920845E+04  0.7818608E-02  0.8644549E-01
          2   -1    0    0  501    0  0.00000000000E+00  0.00000000000E+00  0.38960788583E+04  0.38960788583E+04  0.00000000000E+00 0. -1.
         -2   -1    0    0    0  501 -0.00000000000E+00 -0.00000000000E+00 -0.23675382407E+03  0.23675382407E+03  0.00000000000E+00 0.  1.
         23    2    1    2    0    0 -0.84943801983E+03 -0.39102905009E+02  0.88379899464E+03  0.12299687890E+04  0.92997701032E+02 0.  0.
         13    1    3    3    0    0 -0.49168714001E+03 -0.44457015229E+02  0.56987446919E+03  0.75398248023E+03  0.00000000000E+00 0. -1.
        -13    1    3    3    0    0 -0.35775087982E+03  0.53541102199E+01  0.31392452545E+03  0.47598630882E+03  0.00000000000E+00 0.  1.
         22    1    1    2    0    0  0.84943801983E+03  0.39102905009E+02  0.27755260395E+04  0.29028638933E+04  0.00000000000E+00 0. -1.
<mgrwt>
<rscale>  0 0.19208452E+04</rscale>
<asrwt>0</asrwt>
<pdfrwt beam="1">  1        2 0.59939670E+00 0.19208452E+04</pdfrwt>
<pdfrwt beam="2">  1       -2 0.36423668E-01 0.19208452E+04</pdfrwt>
<totfact> 0.27763116E+00</totfact>
</mgrwt>
</event>
<event>
 6    1  0.1637818E-005  0.1610908E+04  0.7818608E-02  0.8813875E-01
          2   -1    0    0  501    0  0.00000000000E+00  0.00000000000E+00  0.25151450789E+04  0.25151450789E+04  0.00000000000E+00 0. -1.
         -2   -1    0    0    0  501 -0.00000000000E+00 -0.00000000000E+00 -0.25793977606E+03  0.25793977606E+03  0.00000000000E+00 0.  1.
         23    2    1    2    0    0 -0.19293943617E+03  0.75418793198E+03  0.14702425434E+04  0.16661361445E+04  0.91495644314E+02 0.  0.
         13    1    3    3    0    0 -0.95048609254E+01  0.18431668236E+03  0.37487152276E+03  0.41784164507E+03  0.00000000000E+00 0. -1.
        -13    1    3    3    0    0 -0.18343457525E+03  0.56987124963E+03  0.10953710206E+04  0.12482944994E+04  0.00000000000E+00 0.  1.
         22    1    1    2    0    0  0.19293943617E+03 -0.75418793198E+03  0.78696275952E+03  0.11069487105E+04  0.00000000000E+00 0. -1.
<mgrwt>
<rscale>  0 0.16109078E+04</rscale>
<asrwt>0</asrwt>
<pdfrwt beam="1">  1        2 0.38694538E+00 0.16109078E+04</pdfrwt>
<pdfrwt beam="2">  1       -2 0.39683044E-01 0.16109078E+04</pdfrwt>
<totfact> 0.19677326E+01</totfact>
</mgrwt>
</event>
<event>
 6    1  0.1637818E-005  0.7413161E+03  0.7818608E-02  0.9649073E-01
          2   -1    0    0  501    0  0.00000000000E+00  0.00000000000E+00  0.57287268019E+03  0.57287268019E+03  0.00000000000E+00 0.  1.
         -2   -1    0    0    0  501 -0.00000000000E+00 -0.00000000000E+00 -0.23982185857E+03  0.23982185857E+03  0.00000000000E+00 0. -1.
         23    2    1    2    0    0  0.18308260291E+03  0.77764819488E+02  0.50441405420E+03  0.55014556405E+03  0.93059104472E+02 0.  0.
         13    1    3    3    0    0  0.11064774867E+03  0.76415334827E+02  0.23092832521E+03  0.26722671847E+03  0.00000000000E+00 0.  1.
        -13    1    3    3    0    0  0.72434854243E+02  0.13494846611E+01  0.27348572899E+03  0.28291884557E+03  0.00000000000E+00 0. -1.
         22    1    1    2    0    0 -0.18308260291E+03 -0.77764819488E+02 -0.17136323259E+03  0.26254897471E+03  0.00000000000E+00 0. -1.
<mgrwt>
<rscale>  0 0.74131610E+03</rscale>
<asrwt>0</asrwt>
<pdfrwt beam="1">  1        2 0.88134258E-01 0.74131610E+03</pdfrwt>
<pdfrwt beam="2">  1       -2 0.36895671E-01 0.74131610E+03</pdfrwt>
<totfact> 0.36544424E+02</totfact>
</mgrwt>
</event>
<event>
 6    1  0.1637818E-005  0.1144019E+04  0.7818608E-02  0.9163319E-01
          2   -1    0    0  501    0  0.00000000000E+00  0.00000000000E+00  0.14644461679E+04  0.14644461679E+04  0.00000000000E+00 0. -1.
         -2   -1    0    0    0  501 -0.00000000000E+00 -0.00000000000E+00 -0.22342586391E+03  0.22342586391E+03  0.00000000000E+00 0.  1.
         23    2    1    2    0    0 -0.92740748063E+02 -0.45286381151E+02  0.14491827180E+04  0.14555289811E+04  0.88217695737E+02 0.  0.
         13    1    3    3    0    0 -0.54372558959E+02 -0.12091900768E+02  0.29383660059E+03  0.29906945193E+03  0.00000000000E+00 0.  1.
        -13    1    3    3    0    0 -0.38368189104E+02 -0.33194480383E+02  0.11553461174E+04  0.11564595291E+04  0.00000000000E+00 0. -1.
         22    1    1    2    0    0  0.92740748063E+02  0.45286381151E+02 -0.20816241397E+03  0.23234305080E+03  0.00000000000E+00 0.  1.
<mgrwt>
<rscale>  0 0.11440195E+04</rscale>
<asrwt>0</asrwt>
<pdfrwt beam="1">  1        2 0.22529940E+00 0.11440195E+04</pdfrwt>
<pdfrwt beam="2">  1       -2 0.34373211E-01 0.11440195E+04</pdfrwt>
<totfact> 0.10433755E+02</totfact>
</mgrwt>
</event>
<event>
 6    1  0.1637818E-005  0.3956210E+04  0.7818608E-02  0.8013439E-01
          2   -1    0    0  501    0  0.00000000000E+00  0.00000000000E+00  0.16570898415E+04  0.16570898415E+04  0.00000000000E+00 0. -1.
         -2   -1    0    0    0  501 -0.00000000000E+00 -0.00000000000E+00 -0.23613085057E+04  0.23613085057E+04  0.00000000000E+00 0.  1.
         23    2    1    2    0    0  0.15331730529E+04  0.74511704583E+03  0.66481231919E+03  0.18320624042E+04  0.93049508725E+02 0.  0.
         13    1    3    3    0    0  0.89942236865E+03  0.42098023603E+03  0.34037459011E+03  0.10497808428E+04  0.00000000000E+00 0.  1.
        -13    1    3    3    0    0  0.63375068427E+03  0.32413680980E+03  0.32443772908E+03  0.78228156142E+03  0.00000000000E+00 0. -1.
         22    1    1    2    0    0 -0.15331730529E+04 -0.74511704583E+03 -0.13690309834E+04  0.21863359430E+04  0.00000000000E+00 0.  1.
<mgrwt>
<rscale>  0 0.39562105E+04</rscale>
<asrwt>0</asrwt>
<pdfrwt beam="1">  1        2 0.25493690E+00 0.39562105E+04</pdfrwt>
<pdfrwt beam="2">  1       -2 0.36327823E+00 0.39562105E+04</pdfrwt>
<totfact> 0.10510088E-01</totfact>
</mgrwt>
</event>
<event>
 6    1  0.1637818E-005  0.5159280E+03  0.7818608E-02  0.1009703E+00
         -1   -1    0    0    0  501 -0.00000000000E+00  0.00000000000E+00  0.13367849101E+03  0.13367849101E+03  0.00000000000E+00 0.  1.
          1   -1    0    0  501    0  0.00000000000E+00 -0.00000000000E+00 -0.49780212131E+03  0.49780212131E+03  0.00000000000E+00 0. -1.
         23    2    1    2    0    0  0.17526119622E+03 -0.13153661140E+03 -0.33494680876E+03  0.41041579387E+03  0.90738041209E+02 0.  0.
         13    1    3    3    0    0  0.25173478182E+02 -0.65115897292E+02 -0.70796689076E+02  0.99428141228E+02  0.00000000000E+00 0.  1.
        -13    1    3    3    0    0  0.15008771804E+03 -0.66420714109E+02 -0.26415011969E+03  0.31098765265E+03  0.00000000000E+00 0. -1.
         22    1    1    2    0    0 -0.17526119622E+03  0.13153661140E+03 -0.29176821545E+02  0.22106481844E+03  0.00000000000E+00 0.  1.
<mgrwt>
<rscale>  0 0.51592804E+03</rscale>
<asrwt>0</asrwt>
<pdfrwt beam="1">  1        1 0.76584941E-01 0.51592804E+03</pdfrwt>
<pdfrwt beam="2">  1       -1 0.20565922E-01 0.51592804E+03</pdfrwt>
<totfact> 0.87491731E+02</totfact>
</mgrwt>
</event>
<event>
 6    1  0.1637818E-005  0.2601123E+04  0.7818608E-02  0.8367820E-01
         -2   -1    0    0    0  501 -0.00000000000E+00  0.00000000000E+00  0.86304330196E+03  0.86304330196E+03  0.00000000000E+00 0. -1.
          2   -1    0    0  501    0  0.00000000000E+00 -0.00000000000E+00 -0.19598784494E+04  0.19598784494E+04  0.00000000000E+00 0.  1.
         23    2    1    2    0    0  0.10546280045E+04 -0.30896625163E+03  0.20250411117E+03  0.11211629901E+04  0.91094251968E+02 0.  0.
         13    1    3    3    0    0  0.55064725167E+03 -0.12411009161E+03  0.75062949564E+02  0.56942967696E+03  0.00000000000E+00 0. -1.
        -13    1    3    3    0    0  0.50398075286E+03 -0.18485616001E+03  0.12744116161E+03  0.55173331313E+03  0.00000000000E+00 0.  1.
         22    1    1    2    0    0 -0.10546280045E+04  0.30896625163E+03 -0.12993392586E+04  0.17017587612E+04  0.00000000000E+00 0.  1.
<mgrwt>
<rscale>  0 0.26011228E+04</rscale>
<asrwt>0</asrwt>
<pdfrwt beam="1">  1        2 0.30151976E+00 0.26011228E+04</pdfrwt>
<pdfrwt beam="2">  1       -2 0.13277590E+00 0.26011228E+04</pdfrwt>
<totfact> 0.25607169E+00</totfact>
</mgrwt>
</event>
<event>
 6    1  0.1637818E-005  0.1971432E+04  0.7818608E-02  0.8620095E-01
         -1   -1    0    0    0  501 -0.00000000000E+00  0.00000000000E+00  0.73137646909E+03  0.73137646909E+03  0.00000000000E+00 0.  1.
          1   -1    0    0  501    0  0.00000000000E+00 -0.00000000000E+00 -0.13285026985E+04  0.13285026985E+04  0.00000000000E+00 0. -1.
         23    2    1    2    0    0 -0.93866849539E+03 -0.15717605874E+03 -0.55840437301E+03  0.11073550262E+04  0.92827003966E+02 0.  0.
         13    1    3    3    0    0 -0.54247187828E+03 -0.82554579492E+02 -0.37377879780E+03  0.66392890207E+03  0.00000000000E+00 0.  1.
        -13    1    3    3    0    0 -0.39619661711E+03 -0.74621479250E+02 -0.18462557521E+03  0.44342612417E+03  0.00000000000E+00 0. -1.
         22    1    1    2    0    0  0.93866849539E+03  0.15717605874E+03 -0.38721856396E+02  0.95252414135E+03  0.00000000000E+00 0.  1.
<mgrwt>
<rscale>  0 0.19714316E+04</rscale>
<asrwt>0</asrwt>
<pdfrwt beam="1">  1        1 0.20438503E+00 0.19714316E+04</pdfrwt>
<pdfrwt beam="2">  1       -1 0.11251946E+00 0.19714316E+04</pdfrwt>
<totfact> 0.58051902E+00</totfact>
</mgrwt>
</event>
<event>
 6    1  0.1637818E-005  0.3531309E+04  0.7818608E-02  0.8106410E-01
         -2   -1    0    0    0  501 -0.00000000000E+00  0.00000000000E+00  0.20404612188E+04  0.20404612188E+04  0.00000000000E+00 0.  1.
          2   -1    0    0  501    0  0.00000000000E+00 -0.00000000000E+00 -0.15278583984E+04  0.15278583984E+04  0.00000000000E+00 0. -1.
         23    2    1    2    0    0 -0.16619207048E+04  0.69122648073E+01  0.85568888713E+03  0.18713410501E+04  0.87667815262E+02 0.  0.
         13    1    3    3    0    0 -0.63009286901E+03  0.43424879477E+02  0.33832131043E+03  0.71649427968E+03  0.00000000000E+00 0. -1.
        -13    1    3    3    0    0 -0.10318278357E+04 -0.36512614670E+02  0.51736757671E+03  0.11548467704E+04  0.00000000000E+00 0.  1.
         22    1    1    2    0    0  0.16619207048E+04 -0.69122648073E+01 -0.34308606671E+03  0.16969785672E+04  0.00000000000E+00 0. -1.
<mgrwt>
<rscale>  0 0.35313090E+04</rscale>
<asrwt>0</asrwt>
<pdfrwt beam="1">  1        2 0.23505514E+00 0.35313090E+04</pdfrwt>
<pdfrwt beam="2">  1       -2 0.31391711E+00 0.35313090E+04</pdfrwt>
<totfact> 0.26189803E-01</totfact>
</mgrwt>
</event>
<event>
 6    1  0.1637818E-005  0.1674624E+04  0.7818608E-02  0.8775971E-01
         -1   -1    0    0    0  501 -0.00000000000E+00  0.00000000000E+00  0.14090155586E+04  0.14090155586E+04  0.00000000000E+00 0.  1.
          1   -1    0    0  501    0  0.00000000000E+00 -0.00000000000E+00 -0.49757555320E+03  0.49757555320E+03  0.00000000000E+00 0. -1.
         23    2    1    2    0    0 -0.44348998491E+02 -0.64034753427E+03  0.10648406835E+04  0.12466338660E+04  0.90545658176E+02 0.  0.
         13    1    3    3    0    0 -0.26482487466E+02 -0.31382615109E+03  0.60917630998E+03  0.68577252197E+03  0.00000000000E+00 0. -1.
        -13    1    3    3    0    0 -0.17866511025E+02 -0.32652138318E+03  0.45566437356E+03  0.56086134402E+03  0.00000000000E+00 0.  1.
         22    1    1    2    0    0  0.44348998491E+02  0.64034753427E+03 -0.15340067810E+03  0.65995724585E+03  0.00000000000E+00 0.  1.
<mgrwt>
<rscale>  0 0.16746244E+04</rscale>
<asrwt>0</asrwt>
<pdfrwt beam="1">  1        1 0.76550086E-01 0.16746244E+04</pdfrwt>
<pdfrwt beam="2">  1       -1 0.21677162E+00 0.16746244E+04</pdfrwt>
<totfact> 0.49220689E+00</totfact>
</mgrwt>
</event>
<event>
 6    1  0.1637818E-005  0.2569765E+04  0.7818608E-02  0.8378544E-01
         -1   -1    0    0    0  501 -0.00000000000E+00  0.00000000000E+00  0.11079043803E+04  0.11079043803E+04  0.00000000000E+00 0. -1.
          1   -1    0    0  501    0  0.00000000000E+00 -0.00000000000E+00 -0.14901318541E+04  0.14901318541E+04  0.00000000000E+00 0.  1.
         23    2    1    2    0    0  0.86282216083E+03  0.70999540527E+03  0.44665191718E+03  0.12067790326E+04  0.90896323724E+02 0.  0.
         13    1    3    3    0    0  0.51654082271E+03  0.39672938187E+03  0.21783474916E+03  0.68677551056E+03  0.00000000000E+00 0. -1.
        -13    1    3    3    0    0  0.34628133812E+03  0.31326602340E+03  0.22881716802E+03  0.52000352203E+03  0.00000000000E+00 0.  1.
         22    1    1    2    0    0 -0.86282216083E+03 -0.70999540527E+03 -0.82887939102E+03  0.13912572018E+04  0.00000000000E+00 0.  1.
<mgrwt>
<rscale>  0 0.25697654E+04</rscale>
<asrwt>0</asrwt>
<pdfrwt beam="1">  1        1 0.22925105E+00 0.25697654E+04</pdfrwt>
<pdfrwt beam="2">  1       -1 0.17044683E+00 0.25697654E+04</pdfrwt>
<totfact> 0.14332142E+00</totfact>
</mgrwt>
</event>
<event>
 6    1  0.1637818E-005  0.7738744E+03  0.7818608E-02  0.9598622E-01
          2   -1    0    0  501    0  0.00000000000E+00  0.00000000000E+00  0.15382142812E+04  0.15382142812E+04  0.00000000000E+00 0. -1.
         -2   -1    0    0    0  501 -0.00000000000E+00 -0.00000000000E+00 -0.97333904676E+02  0.97333904676E+02  0.00000000000E+00 0.  1.
         23    2    1    2    0    0  0.30075510821E+02 -0.38038615625E+03  0.73092434631E+03  0.82954835396E+03  0.91114802873E+02 0.  0.
         11    1    3    3    0    0  0.45346688821E+02 -0.14489614021E+03  0.34907645612E+03  0.38066466325E+03  0.00000000000E+00 0.  1.
        -11    1    3    3    0    0 -0.15271178001E+02 -0.23549001605E+03  0.38184789020E+03  0.44888369071E+03  0.00000000000E+00 0. -1.
         22    1    1    2    0    0 -0.30075510821E+02  0.38038615625E+03  0.70995603022E+03  0.80599983193E+03  0.00000000000E+00 0. -1.
<mgrwt>
<rscale>  0 0.77387441E+03</rscale>
<asrwt>0</asrwt>
<pdfrwt beam="1">  1        2 0.23664833E+00 0.77387441E+03</pdfrwt>
<pdfrwt beam="2">  1       -2 0.14974448E-01 0.77387441E+03</pdfrwt>
<totfact> 0.42944192E+02</totfact>
</mgrwt>
</event>
<event>
 6    1  0.1637818E-005  0.3433276E+04  0.7818608E-02  0.8129787E-01
          2   -1    0    0  501    0  0.00000000000E+00  0.00000000000E+00  0.23101261241E+04  0.23101261241E+04  0.00000000000E+00 0.  1.
         -2   -1    0    0    0  501 -0.00000000000E+00 -0.00000000000E+00 -0.12756209219E+04  0.12756209219E+04  0.00000000000E+00 0. -1.
         23    2    1    2    0    0 -0.85384172077E+03 -0.13754347250E+04  0.11101023068E+04  0.19650739485E+04  0.91225680967E+02 0.  0.
         13    1    3    3    0    0 -0.16014920790E+03 -0.28998984934E+03  0.26755181986E+03  0.42582374032E+03  0.00000000000E+00 0. -1.
        -13    1    3    3    0    0 -0.69369251287E+03 -0.10854448756E+04  0.84255048695E+03  0.15392502082E+04  0.00000000000E+00 0.  1.
         22    1    1    2    0    0  0.85384172077E+03  0.13754347250E+04 -0.75597104620E+02  0.16206730975E+04  0.00000000000E+00 0. -1.
<mgrwt>
<rscale>  0 0.34332755E+04</rscale>
<asrwt>0</asrwt>
<pdfrwt beam="1">  1        2 0.35540402E+00 0.34332755E+04</pdfrwt>
<pdfrwt beam="2">  1       -2 0.19624937E+00 0.34332755E+04</pdfrwt>
<totfact> 0.52044641E-01</totfact>
</mgrwt>
</event>
<event>
 6    1  0.1637818E-005  0.2536954E+04  0.7818608E-02  0.8389937E-01
         -2   -1    0    0    0  501 -0.00000000000E+00  0.00000000000E+00  0.16906759685E+04  0.16906759685E+04  0.00000000000E+00 0.  1.
          2   -1    0    0  501    0  0.00000000000E+00 -0.00000000000E+00 -0.95171045482E+03  0.95171045482E+03  0.00000000000E+00 0. -1.
         23    2    1    2    0    0 -0.10745579049E+04 -0.67050328026E+03  0.34479031869E+03  0.13158784422E+04  0.91686263717E+02 0.  0.
         11    1    3    3    0    0 -0.92143061758E+03 -0.53643870430E+03  0.29746208948E+03  0.11069257252E+04  0.00000000000E+00 0.  1.
        -11    1    3    3    0    0 -0.15312728729E+03 -0.13406457596E+03  0.47328229208E+02  0.20895271695E+03  0.00000000000E+00 0. -1.
         22    1    1    2    0    0  0.10745579049E+04  0.67050328026E+03  0.39417519502E+03  0.13265079812E+04  0.00000000000E+00 0.  1.
<mgrwt>
<rscale>  0 0.25369541E+04</rscale>
<asrwt>0</asrwt>
<pdfrwt beam="1">  1        2 0.14641699E+00 0.25369541E+04</pdfrwt>
<pdfrwt beam="2">  1       -2 0.26010399E+00 0.25369541E+04</pdfrwt>
<totfact> 0.13413208E+00</totfact>
</mgrwt>
</event>
<event>
 6    1  0.1637818E-005  0.4276670E+04  0.7818608E-02  0.7950946E-01
         -1   -1    0    0    0  501 -0.00000000000E+00  0.00000000000E+00  0.16748325345E+04  0.16748325345E+04  0.00000000000E+00 0.  1.
          1   -1    0    0  501    0  0.00000000000E+00 -0.00000000000E+00 -0.27301099074E+04  0.27301099074E+04  0.00000000000E+00 0. -1.
         23    2    1    2    0    0  0.49921382663E+03 -0.20637397149E+04 -0.27538971623E+03  0.21429829347E+04  0.91106021520E+02 0.  0.
         11    1    3    3    0    0  0.33686845218E+03 -0.12088082548E+04 -0.17452613947E+03  0.12669479564E+04  0.00000000000E+00 0. -1.
        -11    1    3    3    0    0  0.16234537445E+03 -0.85493146010E+03 -0.10086357676E+03  0.87603497829E+03  0.00000000000E+00 0.  1.
         22    1    1    2    0    0 -0.49921382663E+03  0.20637397149E+04 -0.77988765660E+03  0.22619595072E+04  0.00000000000E+00 0.  1.
<mgrwt>
<rscale>  0 0.42766702E+04</rscale>
<asrwt>0</asrwt>
<pdfrwt beam="1">  1        1 0.42001691E+00 0.42766702E+04</pdfrwt>
<pdfrwt beam="2">  1       -1 0.25766654E+00 0.42766702E+04</pdfrwt>
<totfact> 0.44425029E-02</totfact>
</mgrwt>
</event>
<event>
 6    1  0.1637818E-005  0.3094482E+04  0.7818608E-02  0.8217254E-01
          2   -1    0    0  501    0  0.00000000000E+00  0.00000000000E+00  0.19921310935E+04  0.19921310935E+04  0.00000000000E+00 0. -1.
         -2   -1    0    0    0  501 -0.00000000000E+00 -0.00000000000E+00 -0.12017050425E+04  0.12017050425E+04  0.00000000000E+00 0.  1.
         23    2    1    2    0    0 -0.71480291568E+03  0.10672543254E+04  0.12832651331E+04  0.18180216993E+04  0.91970070271E+02 0.  0.
         11    1    3    3    0    0 -0.58471663919E+03  0.93102548195E+03  0.10912550432E+04  0.15490447268E+04  0.00000000000E+00 0. -1.
        -11    1    3    3    0    0 -0.13008627649E+03  0.13622884349E+03  0.19201008992E+03  0.26897697255E+03  0.00000000000E+00 0.  1.
         22    1    1    2    0    0  0.71480291568E+03 -0.10672543254E+04 -0.49283908203E+03  0.13758144367E+04  0.00000000000E+00 0.  1.
<mgrwt>
<rscale>  0 0.30944815E+04</rscale>
<asrwt>0</asrwt>
<pdfrwt beam="1">  1        2 0.30648171E+00 0.30944815E+04</pdfrwt>
<pdfrwt beam="2">  1       -2 0.18487770E+00 0.30944815E+04</pdfrwt>
<totfact> 0.96242591E-01</totfact>
</mgrwt>
</event>
<event>
 6    1  0.1637818E-005  0.1499261E+04  0.7818608E-02  0.8884944E-01
         -1   -1    0    0    0  501 -0.00000000000E+00  0.00000000000E+00  0.13060954449E+04  0.13060954449E+04  0.00000000000E+00 0.  1.
          1   -1    0    0  501    0  0.00000000000E+00 -0.00000000000E+00 -0.43024883547E+03  0.43024883547E+03  0.00000000000E+00 0. -1.
         23    2    1    2    0    0 -0.47573863167E+02 -0.61838737355E+02  0.12998419098E+04  0.13052302391E+04  0.89161004868E+02 0.  0.
         11    1    3    3    0    0 -0.23958444956E+02 -0.82604106989E+02  0.10225944695E+04  0.10262050939E+04  0.00000000000E+00 0.  1.
        -11    1    3    3    0    0 -0.23615418211E+02  0.20765369634E+02  0.27724744024E+03  0.27902514523E+03  0.00000000000E+00 0. -1.
         22    1    1    2    0    0  0.47573863167E+02  0.61838737355E+02 -0.42399530032E+03  0.43111404128E+03  0.00000000000E+00 0. -1.
<mgrwt>
<rscale>  0 0.14992612E+04</rscale>
<asrwt>0</asrwt>
<pdfrwt beam="1">  1        1 0.66192129E-01 0.14992612E+04</pdfrwt>
<pdfrwt beam="2">  1       -1 0.20093776E+00 0.14992612E+04</pdfrwt>
<totfact> 0.78034893E+00</totfact>
</mgrwt>
</event>
<event>
 6    1  0.1637818E-005  0.3016903E+04  0.7818608E-02  0.8238920E-01
         -2   -1    0    0    0  501 -0.00000000000E+00  0.00000000000E+00  0.13622241545E+04  0.13622241545E+04  0.00000000000E+00 0. -1.
          2   -1    0    0  501    0  0.00000000000E+00 -0.00000000000E+00 -0.16703759993E+04  0.16703759993E+04  0.00000000000E+00 0.  1.
         23    2    1    2    0    0 -0.10904292635E+04 -0.10401438128E+04 -0.18199472968E+03  0.15203664590E+04  0.86353681404E+02 0.  0.
         11    1    3    3    0    0 -0.77084265142E+03 -0.76715040524E+03 -0.99836681723E+02  0.10921014149E+04  0.00000000000E+00 0. -1.
        -11    1    3    3    0    0 -0.31958661204E+03 -0.27299340753E+03 -0.82158047959E+02  0.42826504409E+03  0.00000000000E+00 0.  1.
         22    1    1    2    0    0  0.10904292635E+04  0.10401438128E+04 -0.12615711511E+03  0.15122336948E+04  0.00000000000E+00 0. -1.
<mgrwt>
<rscale>  0 0.30169034E+04</rscale>
<asrwt>0</asrwt>
<pdfrwt beam="1">  1        2 0.25698092E+00 0.30169034E+04</pdfrwt>
<pdfrwt beam="2">  1       -2 0.20957295E+00 0.30169034E+04</pdfrwt>
<totfact> 0.10035753E+00</totfact>
</mgrwt>
</event>
<event>
 6    1  0.1637818E-005  0.3663007E+04  0.7818608E-02  0.8076210E-01
          2   -1    0    0  501    0  0.00000000000E+00  0.00000000000E+00  0.21717216779E+04  0.21717216779E+04  0.00000000000E+00 0. -1.
         -2   -1    0    0    0  501 -0.00000000000E+00 -0.00000000000E+00 -0.15445833171E+04  0.15445833171E+04  0.00000000000E+00 0.  1.
         23    2    1    2    0    0  0.17146490930E+04 -0.51026456034E+03 -0.73660255990E+02  0.17949746915E+04  0.12695225858E+03 0.  0.
         13    1    3    3    0    0  0.47447781497E+03 -0.11974519445E+03 -0.73005941865E+02  0.49477062973E+03  0.00000000000E+00 0.  1.
        -13    1    3    3    0    0  0.12401712780E+04 -0.39051936590E+03 -0.65431412547E+00  0.13002040617E+04  0.00000000000E+00 0. -1.
         22    1    1    2    0    0 -0.17146490930E+04  0.51026456034E+03  0.70079861681E+03  0.19213303035E+04  0.00000000000E+00 0. -1.
<mgrwt>
<rscale>  0 0.36630070E+04</rscale>
<asrwt>0</asrwt>
<pdfrwt beam="1">  1        2 0.33411102E+00 0.36630070E+04</pdfrwt>
<pdfrwt beam="2">  1       -2 0.23762820E+00 0.36630070E+04</pdfrwt>
<totfact> 0.33283245E-01</totfact>
</mgrwt>
</event>
<event>
 6    1  0.1637818E-005  0.1648257E+04  0.7818608E-02  0.8791439E-01
          1   -1    0    0  501    0  0.00000000000E+00  0.00000000000E+00  0.70277509365E+03  0.70277509365E+03  0.00000000000E+00 0. -1.
         -1   -1    0    0    0  501 -0.00000000000E+00 -0.00000000000E+00 -0.96643632433E+03  0.96643632433E+03  0.00000000000E+00 0.  1.
         23    2    1    2    0    0  0.76558679764E+03 -0.27425302031E+03 -0.13603671289E+02  0.81840788785E+03  0.90931552061E+02 0.  0.
         11    1    3    3    0    0  0.36771763984E+03 -0.15265674996E+03 -0.47621412925E+02  0.40098397091E+03  0.00000000000E+00 0.  1.
        -11    1    3    3    0    0  0.39786915780E+03 -0.12159627036E+03  0.34017741636E+02  0.41742391695E+03  0.00000000000E+00 0. -1.
         22    1    1    2    0    0 -0.76558679764E+03  0.27425302031E+03 -0.25005755939E+03  0.85080353013E+03  0.00000000000E+00 0.  1.
<mgrwt>
<rscale>  0 0.16482565E+04</rscale>
<asrwt>0</asrwt>
<pdfrwt beam="1">  1        1 0.10811925E+00 0.16482565E+04</pdfrwt>
<pdfrwt beam="2">  1       -1 0.14868251E+00 0.16482565E+04</pdfrwt>
<totfact> 0.92480014E+00</totfact>
</mgrwt>
</event>
<event>
 6    1  0.1785446E-005  0.2238915E+04  0.7818608E-02  0.8502403E-01
          2   -1    0    0  501    0  0.00000000000E+00  0.00000000000E+00  0.17589950178E+04  0.17589950178E+04  0.00000000000E+00 0. -1.
         -2   -1    0    0    0  501 -0.00000000000E+00 -0.00000000000E+00 -0.71244406797E+03  0.71244406797E+03  0.00000000000E+00 0.  1.
         23    2    1    2    0    0  0.36844764229E+03 -0.29306053752E+03  0.16430182345E+04  0.17115631975E+04  0.91112658587E+02 0.  0.
         11    1    3    3    0    0  0.13579887518E+03 -0.54975423676E+02  0.52095397013E+03  0.54116233304E+03  0.00000000000E+00 0.  1.
        -11    1    3    3    0    0  0.23264876712E+03 -0.23808511385E+03  0.11220642644E+04  0.11704008645E+04  0.00000000000E+00 0. -1.
         22    1    1    2    0    0 -0.36844764229E+03  0.29306053752E+03 -0.59646728468E+03  0.75987588820E+03  0.00000000000E+00 0.  1.
<mgrwt>
<rscale>  0 0.22389154E+04</rscale>
<asrwt>0</asrwt>
<pdfrwt beam="1">  1        2 0.27061462E+00 0.22389154E+04</pdfrwt>
<pdfrwt beam="2">  1       -2 0.10960678E+00 0.22389154E+04</pdfrwt>
<totfact> 0.54913314E+00</totfact>
</mgrwt>
</event>
<event>
 6    1  0.1637818E-005  0.4031924E+04  0.7818608E-02  0.7998137E-01
         -2   -1    0    0    0  501 -0.00000000000E+00  0.00000000000E+00  0.14544638507E+04  0.14544638507E+04  0.00000000000E+00 0.  1.
          2   -1    0    0  501    0  0.00000000000E+00 -0.00000000000E+00 -0.27942274306E+04  0.27942274306E+04  0.00000000000E+00 0. -1.
         23    2    1    2    0    0  0.10025592687E+04 -0.26201978889E+02  0.11715235301E+04  0.15445510150E+04  0.85783596323E+02 0.  0.
         11    1    3    3    0    0  0.66374931860E+03  0.21534353903E+02  0.79118011798E+03  0.10329534672E+04  0.00000000000E+00 0. -1.
        -11    1    3    3    0    0  0.33880995014E+03 -0.47736332792E+02  0.38034341208E+03  0.51159754778E+03  0.00000000000E+00 0.  1.
         22    1    1    2    0    0 -0.10025592687E+04  0.26201978889E+02 -0.25112871100E+04  0.27041402663E+04  0.00000000000E+00 0. -1.
<mgrwt>
<rscale>  0 0.40319240E+04</rscale>
<asrwt>0</asrwt>
<pdfrwt beam="1">  1        2 0.42988114E+00 0.40319240E+04</pdfrwt>
<pdfrwt beam="2">  1       -2 0.22376367E+00 0.40319240E+04</pdfrwt>
<totfact> 0.17157638E-01</totfact>
</mgrwt>
</event>
<event>
 6    1  0.1637818E-005  0.4541262E+03  0.7818608E-02  0.1026499E+00
         -2   -1    0    0    0  501 -0.00000000000E+00  0.00000000000E+00  0.11623257112E+03  0.11623257112E+03  0.00000000000E+00 0.  1.
          2   -1    0    0  501    0  0.00000000000E+00 -0.00000000000E+00 -0.44357327705E+03  0.44357327705E+03  0.00000000000E+00 0. -1.
         23    2    1    2    0    0 -0.10332279070E+03  0.14311952003E+02 -0.40630498291E+03  0.42897852653E+03  0.89768625058E+02 0.  0.
         13    1    3    3    0    0 -0.11599500742E+03  0.26325717101E+02 -0.37082543125E+03  0.38943470004E+03  0.00000000000E+00 0.  1.
        -13    1    3    3    0    0  0.12672216725E+02 -0.12013765099E+02 -0.35479551653E+02  0.39543826498E+02  0.00000000000E+00 0. -1.
         22    1    1    2    0    0  0.10332279070E+03 -0.14311952003E+02  0.78964276978E+02  0.13082732164E+03  0.00000000000E+00 0.  1.
<mgrwt>
<rscale>  0 0.45412625E+03</rscale>
<asrwt>0</asrwt>
<pdfrwt beam="1">  1        2 0.68242044E-01 0.45412625E+03</pdfrwt>
<pdfrwt beam="2">  1       -2 0.17881934E-01 0.45412625E+03</pdfrwt>
<totfact> 0.18246153E+03</totfact>
</mgrwt>
</event>
<event>
 6    1  0.1637818E-005  0.1800251E+04  0.7818608E-02  0.8706166E-01
         -2   -1    0    0    0  501 -0.00000000000E+00  0.00000000000E+00  0.52605726301E+03  0.52605726301E+03  0.00000000000E+00 0.  1.
          2   -1    0    0  501    0  0.00000000000E+00 -0.00000000000E+00 -0.15401854748E+04  0.15401854748E+04  0.00000000000E+00 0. -1.
         23    2    1    2    0    0  0.39177806870E+03 -0.36649620987E+02  0.41819212262E+03  0.58085565352E+03  0.87609297280E+02 0.  0.
         11    1    3    3    0    0  0.13758349518E+03 -0.34250071546E+02  0.99572746338E+02  0.17325419868E+03  0.00000000000E+00 0. -1.
        -11    1    3    3    0    0  0.25419457352E+03 -0.23995494412E+01  0.31861937628E+03  0.40760145484E+03  0.00000000000E+00 0.  1.
         22    1    1    2    0    0 -0.39177806870E+03  0.36649620987E+02 -0.14323203344E+04  0.14853870843E+04  0.00000000000E+00 0. -1.
<mgrwt>
<rscale>  0 0.18002508E+04</rscale>
<asrwt>0</asrwt>
<pdfrwt beam="1">  1        2 0.23695161E+00 0.18002508E+04</pdfrwt>
<pdfrwt beam="2">  1       -2 0.80931888E-01 0.18002508E+04</pdfrwt>
<totfact> 0.15317132E+01</totfact>
</mgrwt>
</event>
<event>
 6    1  0.1637818E-005  0.4280617E+04  0.7818608E-02  0.7950212E-01
         -2   -1    0    0    0  501 -0.00000000000E+00  0.00000000000E+00  0.11240456326E+04  0.11240456326E+04  0.00000000000E+00 0.  1.
          2   -1    0    0  501    0  0.00000000000E+00 -0.00000000000E+00 -0.40753863658E+04  0.40753863658E+04  0.00000000000E+00 0. -1.
         23    2    1    2    0    0 -0.51131308841E+03 -0.12693110366E+04  0.52097528887E+03  0.14671980642E+04  0.93076989253E+02 0.  0.
         11    1    3    3    0    0 -0.59898067023E+02 -0.19751421811E+03  0.10894881349E+03  0.23338699353E+03  0.00000000000E+00 0. -1.
        -11    1    3    3    0    0 -0.45141502139E+03 -0.10717968185E+04  0.41202647538E+03  0.12338110707E+04  0.00000000000E+00 0.  1.
         22    1    1    2    0    0  0.51131308841E+03  0.12693110366E+04 -0.34723160221E+04  0.37322339341E+04  0.00000000000E+00 0. -1.
<mgrwt>
<rscale>  0 0.42806169E+04</rscale>
<asrwt>0</asrwt>
<pdfrwt beam="1">  1        2 0.62698250E+00 0.42806169E+04</pdfrwt>
<pdfrwt beam="2">  1       -2 0.17293010E+00 0.42806169E+04</pdfrwt>
<totfact> 0.46288514E-02</totfact>
</mgrwt>
</event>
<event>
 6    1  0.1637818E-005  0.1486477E+04  0.7818608E-02  0.8893496E-01
          1   -1    0    0  501    0  0.00000000000E+00  0.00000000000E+00  0.85059493057E+03  0.85059493057E+03  0.00000000000E+00 0. -1.
         -1   -1    0    0    0  501 -0.00000000000E+00 -0.00000000000E+00 -0.64943166031E+03  0.64943166031E+03  0.00000000000E+00 0.  1.
         23    2    1    2    0    0  0.48547096345E+03  0.13148341644E+02 -0.46305902503E+03  0.67719842365E+03  0.91209150224E+02 0.  0.
         13    1    3    3    0    0  0.38701330910E+01  0.11804688723E+01 -0.27328801993E+02  0.27626705473E+02  0.00000000000E+00 0. -1.
        -13    1    3    3    0    0  0.48160083036E+03  0.11967872771E+02 -0.43573022303E+03  0.64957171817E+03  0.00000000000E+00 0.  1.
         22    1    1    2    0    0 -0.48547096345E+03 -0.13148341644E+02  0.66422229528E+03  0.82282816724E+03  0.00000000000E+00 0. -1.
<mgrwt>
<rscale>  0 0.14864767E+04</rscale>
<asrwt>0</asrwt>
<pdfrwt beam="1">  1        1 0.13086076E+00 0.14864767E+04</pdfrwt>
<pdfrwt beam="2">  1       -1 0.99912563E-01 0.14864767E+04</pdfrwt>
<totfact> 0.18508071E+01</totfact>
</mgrwt>
</event>
<event>
 6    1  0.1637818E-005  0.1387644E+04  0.7818608E-02  0.8962812E-01
         -2   -1    0    0    0  501 -0.00000000000E+00  0.00000000000E+00  0.89703574854E+03  0.89703574854E+03  0.00000000000E+00 0.  1.
          2   -1    0    0  501    0  0.00000000000E+00 -0.00000000000E+00 -0.53664382740E+03  0.53664382740E+03  0.00000000000E+00 0. -1.
         23    2    1    2    0    0 -0.31317199011E+03 -0.43057910448E+03  0.63580546461E+03  0.83424010399E+03  0.90735338631E+02 0.  0.
         11    1    3    3    0    0 -0.98030340474E+02 -0.17220383167E+03  0.29607516367E+03  0.35626480298E+03  0.00000000000E+00 0. -1.
        -11    1    3    3    0    0 -0.21514164964E+03 -0.25837527280E+03  0.33973030094E+03  0.47797530102E+03  0.00000000000E+00 0.  1.
         22    1    1    2    0    0  0.31317199011E+03  0.43057910448E+03 -0.27541354347E+03  0.59943947194E+03  0.00000000000E+00 0. -1.
<mgrwt>
<rscale>  0 0.13876436E+04</rscale>
<asrwt>0</asrwt>
<pdfrwt beam="1">  1        2 0.82560589E-01 0.13876436E+04</pdfrwt>
<pdfrwt beam="2">  1       -2 0.13800550E+00 0.13876436E+04</pdfrwt>
<totfact> 0.20569749E+01</totfact>
</mgrwt>
</event>
<event>
 6    1  0.1637818E-005  0.5760247E+04  0.7818608E-02  0.7720860E-01
          2   -1    0    0  501    0  0.00000000000E+00  0.00000000000E+00  0.53670703826E+04  0.53670703826E+04  0.00000000000E+00 0. -1.
         -2   -1    0    0    0  501 -0.00000000000E+00 -0.00000000000E+00 -0.15455569054E+04  0.15455569054E+04  0.00000000000E+00 0.  1.
         23    2    1    2    0    0 -0.16598409149E+04 -0.18692568234E+04  0.19634458716E+03  0.25091011537E+04  0.88568999876E+02 0.  0.
         11    1    3    3    0    0 -0.95015948874E+03 -0.11332505241E+04  0.10447050503E+03  0.14825565388E+04  0.00000000000E+00 0. -1.
        -11    1    3    3    0    0 -0.70968142621E+03 -0.73600629938E+03  0.91874082136E+02  0.10265446149E+04  0.00000000000E+00 0.  1.
         22    1    1    2    0    0  0.16598409149E+04  0.18692568234E+04  0.36251688900E+04  0.44035261344E+04  0.00000000000E+00 0. -1.
<mgrwt>
<rscale>  0 0.57602475E+04</rscale>
<asrwt>0</asrwt>
<pdfrwt beam="1">  1        2 0.82570313E+00 0.57602475E+04</pdfrwt>
<pdfrwt beam="2">  1       -2 0.23777799E+00 0.57602475E+04</pdfrwt>
<totfact> 0.51821028E-04</totfact>
</mgrwt>
</event>
<event>
 6    1  0.1637818E-005  0.1598186E+04  0.7818608E-02  0.8821663E-01
          2   -1    0    0  501    0  0.00000000000E+00  0.00000000000E+00  0.24155280492E+04  0.24155280492E+04  0.00000000000E+00 0. -1.
         -2   -1    0    0    0  501 -0.00000000000E+00 -0.00000000000E+00 -0.26435187778E+03  0.26435187778E+03  0.00000000000E+00 0.  1.
         23    2    1    2    0    0  0.34139261916E+03  0.13157371040E+03  0.22655384957E+04  0.22965533001E+04  0.87360305742E+02 0.  0.
         13    1    3    3    0    0  0.29179638835E+03  0.11574428425E+03  0.17094972658E+04  0.17380801977E+04  0.00000000000E+00 0.  1.
        -13    1    3    3    0    0  0.49596230804E+02  0.15829426151E+02  0.55604122985E+03  0.55847310242E+03  0.00000000000E+00 0. -1.
         22    1    1    2    0    0 -0.34139261916E+03 -0.13157371040E+03 -0.11436232426E+03  0.38332662690E+03  0.00000000000E+00 0.  1.
<mgrwt>
<rscale>  0 0.15981857E+04</rscale>
<asrwt>0</asrwt>
<pdfrwt beam="1">  1        2 0.37161969E+00 0.15981857E+04</pdfrwt>
<pdfrwt beam="2">  1       -2 0.40669521E-01 0.15981857E+04</pdfrwt>
<totfact> 0.21419636E+01</totfact>
</mgrwt>
</event>
<event>
 6    1  0.1637818E-005  0.3743434E+04  0.7818608E-02  0.8058404E-01
          2   -1    0    0  501    0  0.00000000000E+00  0.00000000000E+00  0.99356645987E+03  0.99356645987E+03  0.00000000000E+00 0.  1.
         -2   -1    0    0    0  501 -0.00000000000E+00 -0.00000000000E+00 -0.35260093869E+04  0.35260093869E+04  0.00000000000E+00 0. -1.
         23    2    1    2    0    0 -0.15555700800E+04  0.47942204482E+03 -0.23794561742E+04  0.28846297566E+04  0.98149769630E+02 0.  0.
         11    1    3    3    0    0 -0.13288212512E+04  0.37307097732E+03 -0.20242040708E+04  0.24499693859E+04  0.00000000000E+00 0. -1.
        -11    1    3    3    0    0 -0.22674882884E+03  0.10635106750E+03 -0.35525210333E+03  0.43466037070E+03  0.00000000000E+00 0.  1.
         22    1    1    2    0    0  0.15555700800E+04 -0.47942204482E+03 -0.15298675283E+03  0.16349460901E+04  0.00000000000E+00 0. -1.
<mgrwt>
<rscale>  0 0.37434341E+04</rscale>
<asrwt>0</asrwt>
<pdfrwt beam="1">  1        2 0.15285638E+00 0.37434341E+04</pdfrwt>
<pdfrwt beam="2">  1       -2 0.54246298E+00 0.37434341E+04</pdfrwt>
<totfact> 0.19133200E-02</totfact>
</mgrwt>
</event>
<event>
 6    1  0.1637818E-005  0.1489244E+04  0.7818608E-02  0.8891637E-01
          1   -1    0    0  501    0  0.00000000000E+00  0.00000000000E+00  0.75954193094E+03  0.75954193094E+03  0.00000000000E+00 0. -1.
         -1   -1    0    0    0  501 -0.00000000000E+00 -0.00000000000E+00 -0.72999512557E+03  0.72999512557E+03  0.00000000000E+00 0.  1.
         23    2    1    2    0    0 -0.41336061007E+03 -0.14177425358E+03 -0.58482199739E+03  0.73560339978E+03  0.90159082726E+02 0.  0.
         11    1    3    3    0    0 -0.13635940826E+03 -0.90090508409E+02 -0.19144797475E+03  0.25171911918E+03  0.00000000000E+00 0. -1.
        -11    1    3    3    0    0 -0.27700120182E+03 -0.51683745172E+02 -0.39337402263E+03  0.48388428059E+03  0.00000000000E+00 0.  1.
         22    1    1    2    0    0  0.41336061007E+03  0.14177425358E+03  0.61436880276E+03  0.75393365672E+03  0.00000000000E+00 0. -1.
<mgrwt>
<rscale>  0 0.14892440E+04</rscale>
<asrwt>0</asrwt>
<pdfrwt beam="1">  1        1 0.11685260E+00 0.14892440E+04</pdfrwt>
<pdfrwt beam="2">  1       -1 0.11230694E+00 0.14892440E+04</pdfrwt>
<totfact> 0.16894717E+01</totfact>
</mgrwt>
</event>
<event>
 6    1  0.1742791E-005  0.3952018E+04  0.7818608E-02  0.8014297E-01
         -1   -1    0    0    0  501 -0.00000000000E+00  0.00000000000E+00  0.15898569900E+04  0.15898569900E+04  0.00000000000E+00 0.  1.
          1   -1    0    0  501    0  0.00000000000E+00 -0.00000000000E+00 -0.24559516064E+04  0.24559516064E+04  0.00000000000E+00 0. -1.
         23    2    1    2    0    0 -0.73355673973E+03 -0.45881053020E+03  0.13842252145E+04  0.16348851355E+04  0.90318153114E+02 0.  0.
         13    1    3    3    0    0 -0.36686727050E+03 -0.20986407767E+03  0.75472353014E+03  0.86500990296E+03  0.00000000000E+00 0.  1.
        -13    1    3    3    0    0 -0.36668946923E+03 -0.24894645253E+03  0.62950168438E+03  0.76987523256E+03  0.00000000000E+00 0. -1.
         22    1    1    2    0    0  0.73355673973E+03  0.45881053020E+03 -0.22503198310E+04  0.24109234610E+04  0.00000000000E+00 0. -1.
<mgrwt>
<rscale>  0 0.39520181E+04</rscale>
<asrwt>0</asrwt>
<pdfrwt beam="1">  1        1 0.37783871E+00 0.39520181E+04</pdfrwt>
<pdfrwt beam="2">  1       -1 0.24459338E+00 0.39520181E+04</pdfrwt>
<totfact> 0.86378002E-02</totfact>
</mgrwt>
</event>
<event>
 6    1  0.1637818E-005  0.2061941E+04  0.7818608E-02  0.8578196E-01
         -2   -1    0    0    0  501 -0.00000000000E+00  0.00000000000E+00  0.23076753320E+03  0.23076753320E+03  0.00000000000E+00 0. -1.
          2   -1    0    0  501    0  0.00000000000E+00 -0.00000000000E+00 -0.46059355249E+04  0.46059355249E+04  0.00000000000E+00 0.  1.
         23    2    1    2    0    0 -0.87329871650E+03 -0.39057170102E+03 -0.13023030737E+04  0.16183656448E+04  0.88978438174E+02 0.  0.
         11    1    3    3    0    0 -0.61337182913E+03 -0.22927594472E+03 -0.87917620658E+03  0.10962405128E+04  0.00000000000E+00 0. -1.
        -11    1    3    3    0    0 -0.25992688737E+03 -0.16129575630E+03 -0.42312686713E+03  0.52212513200E+03  0.00000000000E+00 0.  1.
         22    1    1    2    0    0  0.87329871650E+03  0.39057170102E+03 -0.30728649180E+04  0.32183374134E+04  0.00000000000E+00 0. -1.
<mgrwt>
<rscale>  0 0.20619412E+04</rscale>
<asrwt>0</asrwt>
<pdfrwt beam="1">  1        2 0.70860542E+00 0.20619412E+04</pdfrwt>
<pdfrwt beam="2">  1       -2 0.35502700E-01 0.20619412E+04</pdfrwt>
<totfact> 0.67501608E-01</totfact>
</mgrwt>
</event>
<event>
 6    1  0.1637818E-005  0.3062413E+04  0.7818608E-02  0.8226130E-01
         -2   -1    0    0    0  501 -0.00000000000E+00  0.00000000000E+00  0.68072011544E+03  0.68072011544E+03  0.00000000000E+00 0.  1.
          2   -1    0    0  501    0  0.00000000000E+00 -0.00000000000E+00 -0.34442841526E+04  0.34442841526E+04  0.00000000000E+00 0. -1.
         23    2    1    2    0    0 -0.46023635438E+03 -0.13619759126E+04 -0.67842176862E+03  0.15922954082E+04  0.91393011197E+02 0.  0.
         11    1    3    3    0    0 -0.42861398414E+03 -0.11866846342E+04 -0.57789962837E+03  0.13877673973E+04  0.00000000000E+00 0.  1.
        -11    1    3    3    0    0 -0.31622370240E+02 -0.17529127840E+03 -0.10052214025E+03  0.20452801095E+03  0.00000000000E+00 0. -1.
         22    1    1    2    0    0  0.46023635438E+03  0.13619759126E+04 -0.20851422686E+04  0.25327088598E+04  0.00000000000E+00 0.  1.
<mgrwt>
<rscale>  0 0.30624131E+04</rscale>
<asrwt>0</asrwt>
<pdfrwt beam="1">  1        2 0.52988987E+00 0.30624131E+04</pdfrwt>
<pdfrwt beam="2">  1       -2 0.10472617E+00 0.30624131E+04</pdfrwt>
<totfact> 0.55943720E-01</totfact>
</mgrwt>
</event>
<event>
 6    1  0.1637818E-005  0.4670816E+03  0.7818608E-02  0.1022747E+00
         -2   -1    0    0    0  501 -0.00000000000E+00  0.00000000000E+00  0.13486688622E+03  0.13486688622E+03  0.00000000000E+00 0.  1.
          2   -1    0    0  501    0  0.00000000000E+00 -0.00000000000E+00 -0.40440848742E+03  0.40440848742E+03  0.00000000000E+00 0. -1.
         23    2    1    2    0    0  0.77794687464E+02  0.11919108233E+03  0.60636817384E+02  0.17972521635E+03  0.91464759688E+02 0.  0.
         11    1    3    3    0    0  0.22799211207E+01  0.76135146203E+02  0.46131381396E+01  0.76308843335E+02  0.00000000000E+00 0. -1.
        -11    1    3    3    0    0  0.75514766343E+02  0.43055936131E+02  0.56023679244E+02  0.10341637302E+03  0.00000000000E+00 0.  1.
         22    1    1    2    0    0 -0.77794687464E+02 -0.11919108233E+03 -0.33017841859E+03  0.35955015729E+03  0.00000000000E+00 0. -1.
<mgrwt>
<rscale>  0 0.46708164E+03</rscale>
<asrwt>0</asrwt>
<pdfrwt beam="1">  1        2 0.62216691E-01 0.46708164E+03</pdfrwt>
<pdfrwt beam="2">  1       -2 0.20748752E-01 0.46708164E+03</pdfrwt>
<totfact> 0.15656144E+03</totfact>
</mgrwt>
</event>
<event>
 6    1  0.1637818E-005  0.2966224E+04  0.7818608E-02  0.8253442E-01
         -1   -1    0    0    0  501 -0.00000000000E+00  0.00000000000E+00  0.11290416820E+04  0.11290416820E+04  0.00000000000E+00 0.  1.
          1   -1    0    0  501    0  0.00000000000E+00 -0.00000000000E+00 -0.19482191182E+04  0.19482191182E+04  0.00000000000E+00 0. -1.
         23    2    1    2    0    0  0.71226136197E+03 -0.12636692946E+04 -0.72330914032E+03  0.16235183663E+04  0.91975209442E+02 0.  0.
         13    1    3    3    0    0  0.34310663436E+03 -0.63175892316E+03 -0.40823354091E+03  0.82673824362E+03  0.00000000000E+00 0.  1.
        -13    1    3    3    0    0  0.36915472761E+03 -0.63191037147E+03 -0.31507559941E+03  0.79678012264E+03  0.00000000000E+00 0. -1.
         22    1    1    2    0    0 -0.71226136197E+03  0.12636692946E+04 -0.95868295895E+02  0.14537424339E+04  0.00000000000E+00 0.  1.
<mgrwt>
<rscale>  0 0.29662236E+04</rscale>
<asrwt>0</asrwt>
<pdfrwt beam="1">  1        1 0.29972602E+00 0.29662236E+04</pdfrwt>
<pdfrwt beam="2">  1       -1 0.17369872E+00 0.29662236E+04</pdfrwt>
<totfact> 0.63757649E-01</totfact>
</mgrwt>
</event>
<event>
 6    1  0.1637818E-005  0.2214101E+04  0.7818608E-02  0.8512582E-01
          1   -1    0    0  501    0  0.00000000000E+00  0.00000000000E+00  0.93183678384E+03  0.93183678384E+03  0.00000000000E+00 0. -1.
         -1   -1    0    0    0  501 -0.00000000000E+00 -0.00000000000E+00 -0.13152100659E+04  0.13152100659E+04  0.00000000000E+00 0.  1.
         23    2    1    2    0    0 -0.93185987159E+02  0.20777454535E+03  0.90525290312E+03  0.93845549448E+03  0.96757462896E+02 0.  0.
         13    1    3    3    0    0 -0.80170831754E+02  0.12779991634E+03  0.72932444908E+03  0.74476461577E+03  0.00000000000E+00 0.  1.
        -13    1    3    3    0    0 -0.13015155405E+02  0.79974629017E+02  0.17592845404E+03  0.19369087871E+03  0.00000000000E+00 0. -1.
         22    1    1    2    0    0  0.93185987159E+02 -0.20777454535E+03 -0.12886261852E+04  0.13085913552E+04  0.00000000000E+00 0.  1.
<mgrwt>
<rscale>  0 0.22141013E+04</rscale>
<asrwt>0</asrwt>
<pdfrwt beam="1">  1        1 0.14335951E+00 0.22141013E+04</pdfrwt>
<pdfrwt beam="2">  1       -1 0.20234001E+00 0.22141013E+04</pdfrwt>
<totfact> 0.22635429E+00</totfact>
</mgrwt>
</event>
<event>
 6    1  0.1637818E-005  0.1113796E+04  0.7818608E-02  0.9191848E-01
         -2   -1    0    0    0  501 -0.00000000000E+00  0.00000000000E+00  0.19204818096E+03  0.19204818096E+03  0.00000000000E+00 0. -1.
          2   -1    0    0  501    0  0.00000000000E+00 -0.00000000000E+00 -0.16148844843E+04  0.16148844843E+04  0.00000000000E+00 0.  1.
         23    2    1    2    0    0  0.27850821365E+03 -0.21290449532E+03 -0.14101847812E+04  0.14561404045E+04  0.93960690106E+02 0.  0.
         11    1    3    3    0    0  0.12437952533E+03 -0.65406923584E+02 -0.72569800791E+03  0.73917922770E+03  0.00000000000E+00 0.  1.
        -11    1    3    3    0    0  0.15412868832E+03 -0.14749757173E+03 -0.68448677331E+03  0.71696117682E+03  0.00000000000E+00 0. -1.
         22    1    1    2    0    0 -0.27850821365E+03  0.21290449532E+03 -0.12651522148E+02  0.35079226076E+03  0.00000000000E+00 0. -1.
<mgrwt>
<rscale>  0 0.11137964E+04</rscale>
<asrwt>0</asrwt>
<pdfrwt beam="1">  1        2 0.24844376E+00 0.11137964E+04</pdfrwt>
<pdfrwt beam="2">  1       -2 0.29545875E-01 0.11137964E+04</pdfrwt>
<totfact> 0.11445827E+02</totfact>
</mgrwt>
</event>
<event>
 6    1  0.1637818E-005  0.2637035E+04  0.7818608E-02  0.8355729E-01
         -2   -1    0    0    0  501 -0.00000000000E+00  0.00000000000E+00  0.15065299902E+04  0.15065299902E+04  0.00000000000E+00 0. -1.
          2   -1    0    0  501    0  0.00000000000E+00 -0.00000000000E+00 -0.11539683065E+04  0.11539683065E+04  0.00000000000E+00 0.  1.
         23    2    1    2    0    0 -0.69176403609E+02 -0.96047599635E+03  0.10827931680E+04  0.14519712863E+04  0.92087225943E+02 0.  0.
         13    1    3    3    0    0 -0.28468319331E+02 -0.13101519875E+03  0.19127602443E+03  0.23358498460E+03  0.00000000000E+00 0.  1.
        -13    1    3    3    0    0 -0.40708084278E+02 -0.82946079760E+03  0.89151714355E+03  0.12183863017E+04  0.00000000000E+00 0. -1.
         22    1    1    2    0    0  0.69176403609E+02  0.96047599635E+03 -0.73023148419E+03  0.12085270104E+04  0.00000000000E+00 0. -1.
<mgrwt>
<rscale>  0 0.26370346E+04</rscale>
<asrwt>0</asrwt>
<pdfrwt beam="1">  1        2 0.17753359E+00 0.26370346E+04</pdfrwt>
<pdfrwt beam="2">  1       -2 0.23177385E+00 0.26370346E+04</pdfrwt>
<totfact> 0.14838008E+00</totfact>
</mgrwt>
</event>
<event>
 6    1  0.1637818E-005  0.7658768E+03  0.7818608E-02  0.9610766E-01
         -1   -1    0    0    0  501 -0.00000000000E+00  0.00000000000E+00  0.82110492168E+02  0.82110492168E+02  0.00000000000E+00 0.  1.
          1   -1    0    0  501    0  0.00000000000E+00 -0.00000000000E+00 -0.17859084255E+04  0.17859084255E+04  0.00000000000E+00 0. -1.
         23    2    1    2    0    0 -0.34147148984E+03  0.15272862116E+03 -0.98867623536E+03  0.10609700635E+04  0.90818319736E+02 0.  0.
         13    1    3    3    0    0 -0.30757363896E+03  0.15002937009E+03 -0.81391966283E+03  0.88293576936E+03  0.00000000000E+00 0.  1.
        -13    1    3    3    0    0 -0.33897850880E+02  0.26992510669E+01 -0.17475657252E+03  0.17803429414E+03  0.00000000000E+00 0. -1.
         22    1    1    2    0    0  0.34147148984E+03 -0.15272862116E+03 -0.71512169796E+03  0.80704885415E+03  0.00000000000E+00 0. -1.
<mgrwt>
<rscale>  0 0.76587680E+03</rscale>
<asrwt>0</asrwt>
<pdfrwt beam="1">  1        1 0.27475511E+00 0.76587680E+03</pdfrwt>
<pdfrwt beam="2">  1       -1 0.12632385E-01 0.76587680E+03</pdfrwt>
<totfact> 0.18515545E+02</totfact>
</mgrwt>
</event>
<event>
 6    1  0.1637818E-005  0.1426612E+04  0.7818608E-02  0.8934778E-01
         -2   -1    0    0    0  501 -0.00000000000E+00  0.00000000000E+00  0.33206277710E+03  0.33206277710E+03  0.00000000000E+00 0.  1.
          2   -1    0    0  501    0  0.00000000000E+00 -0.00000000000E+00 -0.15322560541E+04  0.15322560541E+04  0.00000000000E+00 0. -1.
         23    2    1    2    0    0 -0.15670116437E+03  0.22700431453E+03 -0.14580478410E+04  0.14867275312E+04  0.91482410622E+02 0.  0.
         13    1    3    3    0    0 -0.15561026057E+03  0.16063001939E+03 -0.11623678665E+04  0.11836872954E+04  0.00000000000E+00 0. -1.
        -13    1    3    3    0    0 -0.10909038072E+01  0.66374295142E+02 -0.29567997453E+03  0.30304023572E+03  0.00000000000E+00 0.  1.
         22    1    1    2    0    0  0.15670116437E+03 -0.22700431453E+03  0.25785456399E+03  0.37759130009E+03  0.00000000000E+00 0.  1.
<mgrwt>
<rscale>  0 0.14266117E+04</rscale>
<asrwt>0</asrwt>
<pdfrwt beam="1">  1        2 0.23573170E+00 0.14266117E+04</pdfrwt>
<pdfrwt beam="2">  1       -2 0.51086581E-01 0.14266117E+04</pdfrwt>
<totfact> 0.42813426E+01</totfact>
</mgrwt>
</event>
<event>
 6    1  0.1637818E-005  0.1728500E+04  0.7818608E-02  0.8745275E-01
         -1   -1    0    0    0  501 -0.00000000000E+00  0.00000000000E+00  0.67491322844E+03  0.67491322844E+03  0.00000000000E+00 0.  1.
          1   -1    0    0  501    0  0.00000000000E+00 -0.00000000000E+00 -0.11067019523E+04  0.11067019523E+04  0.00000000000E+00 0. -1.
         23    2    1    2    0    0 -0.28215636562E+03  0.12729847245E+03  0.61246678105E+03  0.69244729869E+03  0.92469388536E+02 0.  0.
         11    1    3    3    0    0 -0.10332812056E+03  0.76381364677E+00  0.17607488345E+03  0.20415594160E+03  0.00000000000E+00 0.  1.
        -11    1    3    3    0    0 -0.17882824507E+03  0.12653465880E+03  0.43639189760E+03  0.48829135709E+03  0.00000000000E+00 0. -1.
         22    1    1    2    0    0  0.28215636562E+03 -0.12729847245E+03 -0.10442555049E+04  0.10891678820E+04  0.00000000000E+00 0. -1.
<mgrwt>
<rscale>  0 0.17284997E+04</rscale>
<asrwt>0</asrwt>
<pdfrwt beam="1">  1        1 0.17026184E+00 0.17284997E+04</pdfrwt>
<pdfrwt beam="2">  1       -1 0.10383280E+00 0.17284997E+04</pdfrwt>
<totfact> 0.10397670E+01</totfact>
</mgrwt>
</event>
<event>
 6    1  0.1637818E-005  0.2540244E+04  0.7818608E-02  0.8388787E-01
          2   -1    0    0  501    0  0.00000000000E+00  0.00000000000E+00  0.15883194096E+04  0.15883194096E+04  0.00000000000E+00 0. -1.
         -2   -1    0    0    0  501 -0.00000000000E+00 -0.00000000000E+00 -0.10156712967E+04  0.10156712967E+04  0.00000000000E+00 0.  1.
         23    2    1    2    0    0  0.15133294246E+03  0.66859045893E+03  0.13807451767E+04  0.15443040896E+04  0.92211804697E+02 0.  0.
         13    1    3    3    0    0  0.20333790368E+02  0.68378206690E+02  0.21594765553E+03  0.22742566282E+03  0.00000000000E+00 0.  1.
        -13    1    3    3    0    0  0.13099915209E+03  0.60021225224E+03  0.11647975211E+04  0.13168784267E+04  0.00000000000E+00 0. -1.
         22    1    1    2    0    0 -0.15133294246E+03 -0.66859045893E+03 -0.80809706380E+03  0.10596866168E+04  0.00000000000E+00 0.  1.
<mgrwt>
<rscale>  0 0.25402444E+04</rscale>
<asrwt>0</asrwt>
<pdfrwt beam="1">  1        2 0.24435683E+00 0.25402444E+04</pdfrwt>
<pdfrwt beam="2">  1       -2 0.15625712E+00 0.25402444E+04</pdfrwt>
<totfact> 0.27036502E+00</totfact>
</mgrwt>
</event>
<event>
 6    1  0.1637818E-005  0.2147592E+04  0.7818608E-02  0.8540564E-01
         -2   -1    0    0    0  501 -0.00000000000E+00  0.00000000000E+00  0.98066480738E+03  0.98066480738E+03  0.00000000000E+00 0.  1.
          2   -1    0    0  501    0  0.00000000000E+00 -0.00000000000E+00 -0.11757718352E+04  0.11757718352E+04  0.00000000000E+00 0. -1.
         23    2    1    2    0    0  0.59098509482E+03  0.46723179785E+03 -0.86322795337E+03  0.11494835620E+04  0.92633819555E+02 0.  0.
         13    1    3    3    0    0  0.25750775453E+03  0.26106009013E+03 -0.40130615872E+03  0.54360762258E+03  0.00000000000E+00 0. -1.
        -13    1    3    3    0    0  0.33347734029E+03  0.20617170772E+03 -0.46192179465E+03  0.60587593939E+03  0.00000000000E+00 0.  1.
         22    1    1    2    0    0 -0.59098509482E+03 -0.46723179785E+03  0.66812092561E+03  0.10069530806E+04  0.00000000000E+00 0.  1.
<mgrwt>
<rscale>  0 0.21475922E+04</rscale>
<asrwt>0</asrwt>
<pdfrwt beam="1">  1        2 0.18088797E+00 0.21475922E+04</pdfrwt>
<pdfrwt beam="2">  1       -2 0.15087151E+00 0.21475922E+04</pdfrwt>
<totfact> 0.53051130E+00</totfact>
</mgrwt>
</event>
<event>
 6    1  0.1637818E-005  0.3054930E+04  0.7818608E-02  0.8228217E-01
          2   -1    0    0  501    0  0.00000000000E+00  0.00000000000E+00  0.33134547986E+04  0.33134547986E+04  0.00000000000E+00 0. -1.
         -2   -1    0    0    0  501 -0.00000000000E+00 -0.00000000000E+00 -0.70414406979E+03  0.70414406979E+03  0.00000000000E+00 0.  1.
         23    2    1    2    0    0 -0.64019609190E+03 -0.58061451770E+03  0.29599800511E+04  0.30848967574E+04  0.90232180947E+02 0.  0.
         13    1    3    3    0    0 -0.36950839041E+03 -0.29245839297E+03  0.17223341014E+04  0.17856380145E+04  0.00000000000E+00 0. -1.
        -13    1    3    3    0    0 -0.27068770149E+03 -0.28815612473E+03  0.12376459497E+04  0.12992587428E+04  0.00000000000E+00 0.  1.
         22    1    1    2    0    0  0.64019609190E+03  0.58061451770E+03 -0.35066932231E+03  0.93270211100E+03  0.00000000000E+00 0.  1.
<mgrwt>
<rscale>  0 0.30549301E+04</rscale>
<asrwt>0</asrwt>
<pdfrwt beam="1">  1        2 0.50976227E+00 0.30549301E+04</pdfrwt>
<pdfrwt beam="2">  1       -2 0.10832986E+00 0.30549301E+04</pdfrwt>
<totfact> 0.63334235E-01</totfact>
</mgrwt>
</event>
<event>
 6    1  0.1637818E-005  0.1389604E+04  0.7818608E-02  0.8961378E-01
          2   -1    0    0  501    0  0.00000000000E+00  0.00000000000E+00  0.75136855036E+03  0.75136855036E+03  0.00000000000E+00 0. -1.
         -2   -1    0    0    0  501 -0.00000000000E+00 -0.00000000000E+00 -0.64249405711E+03  0.64249405711E+03  0.00000000000E+00 0.  1.
         23    2    1    2    0    0 -0.38917224828E+03 -0.57083451442E+03  0.89554405361E+02  0.70271837688E+03  0.92119726462E+02 0.  0.
         13    1    3    3    0    0 -0.21719271607E+03 -0.35029416833E+03  0.11346571436E+02  0.41231956655E+03  0.00000000000E+00 0.  1.
        -13    1    3    3    0    0 -0.17197953221E+03 -0.22054034609E+03  0.78207833925E+02  0.29039881033E+03  0.00000000000E+00 0. -1.
         22    1    1    2    0    0  0.38917224828E+03  0.57083451442E+03  0.19320087895E+02  0.69114423059E+03  0.00000000000E+00 0. -1.
<mgrwt>
<rscale>  0 0.13896040E+04</rscale>
<asrwt>0</asrwt>
<pdfrwt beam="1">  1        2 0.11559516E+00 0.13896040E+04</pdfrwt>
<pdfrwt beam="2">  1       -2 0.98845239E-01 0.13896040E+04</pdfrwt>
<totfact> 0.30945718E+01</totfact>
</mgrwt>
</event>
<event>
 6    1  0.1637818E-005  0.1425627E+04  0.7818608E-02  0.8935474E-01
         -1   -1    0    0    0  501 -0.00000000000E+00  0.00000000000E+00  0.68442669701E+03  0.68442669701E+03  0.00000000000E+00 0.  1.
          1   -1    0    0  501    0  0.00000000000E+00 -0.00000000000E+00 -0.74237780755E+03  0.74237780755E+03  0.00000000000E+00 0. -1.
         23    2    1    2    0    0 -0.35372395720E+03  0.70818530989E+02  0.58292538580E+03  0.69137362011E+03  0.89775135457E+02 0.  0.
         13    1    3    3    0    0 -0.14492475414E+03  0.64764974532E+02  0.30344527129E+03  0.34245688627E+03  0.00000000000E+00 0. -1.
        -13    1    3    3    0    0 -0.20879920306E+03  0.60535564569E+01  0.27948011451E+03  0.34891673384E+03  0.00000000000E+00 0.  1.
         22    1    1    2    0    0  0.35372395720E+03 -0.70818530989E+02 -0.64087649635E+03  0.73543088445E+03  0.00000000000E+00 0. -1.
<mgrwt>
<rscale>  0 0.14256271E+04</rscale>
<asrwt>0</asrwt>
<pdfrwt beam="1">  1        1 0.11421197E+00 0.14256271E+04</pdfrwt>
<pdfrwt beam="2">  1       -1 0.10529642E+00 0.14256271E+04</pdfrwt>
<totfact> 0.20490519E+01</totfact>
</mgrwt>
</event>
<event>
 6    1  0.1637818E-005  0.2797716E+04  0.7818608E-02  0.8303978E-01
          1   -1    0    0  501    0  0.00000000000E+00  0.00000000000E+00  0.11097158097E+04  0.11097158097E+04  0.00000000000E+00 0. -1.
         -1   -1    0    0    0  501 -0.00000000000E+00 -0.00000000000E+00 -0.17633380530E+04  0.17633380530E+04  0.00000000000E+00 0.  1.
         23    2    1    2    0    0  0.40752275049E+03 -0.55955531221E+03 -0.15737109495E+04  0.17216459563E+04  0.91223388270E+02 0.  0.
         11    1    3    3    0    0  0.20061265178E+03 -0.34522256472E+03 -0.94698639591E+03  0.10277194604E+04  0.00000000000E+00 0. -1.
        -11    1    3    3    0    0  0.20691009871E+03 -0.21433274749E+03 -0.62672455358E+03  0.69392649586E+03  0.00000000000E+00 0.  1.
         22    1    1    2    0    0 -0.40752275049E+03  0.55955531221E+03  0.92008870620E+03  0.11514079064E+04  0.00000000000E+00 0. -1.
<mgrwt>
<rscale>  0 0.27977163E+04</rscale>
<asrwt>0</asrwt>
<pdfrwt beam="1">  1        1 0.17072551E+00 0.27977163E+04</pdfrwt>
<pdfrwt beam="2">  1       -1 0.27128278E+00 0.27977163E+04</pdfrwt>
<totfact> 0.54715060E-01</totfact>
</mgrwt>
</event>
<event>
 6    1  0.1637818E-005  0.1943503E+04  0.7818608E-02  0.8633500E-01
          1   -1    0    0  501    0  0.00000000000E+00  0.00000000000E+00  0.99155719785E+03  0.99155719785E+03  0.00000000000E+00 0. -1.
         -1   -1    0    0    0  501 -0.00000000000E+00 -0.00000000000E+00 -0.95234165676E+03  0.95234165676E+03  0.00000000000E+00 0.  1.
         23    2    1    2    0    0 -0.61088146308E+03 -0.36001334832E+02  0.77199336554E+03  0.98920749189E+03  0.89919116601E+02 0.  0.
         13    1    3    3    0    0 -0.39394536703E+03 -0.29286020262E+02  0.42774326378E+03  0.58224988012E+03  0.00000000000E+00 0. -1.
        -13    1    3    3    0    0 -0.21693609605E+03 -0.67153145693E+01  0.34425010175E+03  0.40695761177E+03  0.00000000000E+00 0.  1.
         22    1    1    2    0    0  0.61088146308E+03  0.36001334832E+02 -0.73277782445E+03  0.95469136272E+03  0.00000000000E+00 0.  1.
<mgrwt>
<rscale>  0 0.19435033E+04</rscale>
<asrwt>0</asrwt>
<pdfrwt beam="1">  1        1 0.15254726E+00 0.19435033E+04</pdfrwt>
<pdfrwt beam="2">  1       -1 0.14651410E+00 0.19435033E+04</pdfrwt>
<totfact> 0.53228613E+00</totfact>
</mgrwt>
</event>
<event>
 6    1  0.1637818E-005  0.2416944E+04  0.7818608E-02  0.8433187E-01
         -2   -1    0    0    0  501 -0.00000000000E+00  0.00000000000E+00  0.96898764613E+03  0.96898764613E+03  0.00000000000E+00 0. -1.
          2   -1    0    0  501    0  0.00000000000E+00 -0.00000000000E+00 -0.15071443858E+04  0.15071443858E+04  0.00000000000E+00 0.  1.
         23    2    1    2    0    0  0.36422987921E+03  0.44483846067E+02 -0.14471861285E+04  0.14958378683E+04  0.92417640154E+02 0.  0.
         11    1    3    3    0    0  0.11643132203E+03 -0.15857932912E+02 -0.58669999609E+03  0.59835157909E+03  0.00000000000E+00 0. -1.
        -11    1    3    3    0    0  0.24779855718E+03  0.60341778978E+02 -0.86048613237E+03  0.89748628916E+03  0.00000000000E+00 0.  1.
         22    1    1    2    0    0 -0.36422987921E+03 -0.44483846067E+02  0.90902938884E+03  0.98029416363E+03  0.00000000000E+00 0. -1.
<mgrwt>
<rscale>  0 0.24169438E+04</rscale>
<asrwt>0</asrwt>
<pdfrwt beam="1">  1        2 0.23186837E+00 0.24169438E+04</pdfrwt>
<pdfrwt beam="2">  1       -2 0.14907502E+00 0.24169438E+04</pdfrwt>
<totfact> 0.34402347E+00</totfact>
</mgrwt>
</event>
<event>
 6    1  0.1637818E-005  0.3164738E+04  0.7818608E-02  0.8198192E-01
          2   -1    0    0  501    0  0.00000000000E+00  0.00000000000E+00  0.12804338692E+04  0.12804338692E+04  0.00000000000E+00 0. -1.
         -2   -1    0    0    0  501 -0.00000000000E+00 -0.00000000000E+00 -0.19555022865E+04  0.19555022865E+04  0.00000000000E+00 0.  1.
         23    2    1    2    0    0  0.12181660744E+04 -0.16314133280E+03  0.68059777656E+03  0.14060797382E+04  0.57473623476E+02 0.  0.
         11    1    3    3    0    0  0.13399157071E+03 -0.25705387164E+00  0.70151437026E+02  0.15124493781E+03  0.00000000000E+00 0. -1.
        -11    1    3    3    0    0  0.10841745037E+04 -0.16288427893E+03  0.61044633953E+03  0.12548348004E+04  0.00000000000E+00 0.  1.
         22    1    1    2    0    0 -0.12181660744E+04  0.16314133280E+03 -0.13556661939E+04  0.18298564175E+04  0.00000000000E+00 0.  1.
<mgrwt>
<rscale>  0 0.31647378E+04</rscale>
<asrwt>0</asrwt>
<pdfrwt beam="1">  1        2 0.19698983E+00 0.31647378E+04</pdfrwt>
<pdfrwt beam="2">  1       -2 0.30084650E+00 0.31647378E+04</pdfrwt>
<totfact> 0.45012995E-01</totfact>
</mgrwt>
</event>
<event>
 6    1  0.1637818E-005  0.4150555E+04  0.7818608E-02  0.7974845E-01
          2   -1    0    0  501    0  0.00000000000E+00  0.00000000000E+00  0.31710260875E+04  0.31710260875E+04  0.00000000000E+00 0.  1.
         -2   -1    0    0    0  501 -0.00000000000E+00 -0.00000000000E+00 -0.13581646930E+04  0.13581646930E+04  0.00000000000E+00 0. -1.
         23    2    1    2    0    0 -0.42084838108E+03  0.34076785629E+03  0.30918694661E+04  0.31402711503E+04  0.91706109222E+02 0.  0.
         11    1    3    3    0    0 -0.11911493706E+03  0.13125366811E+03  0.82436053895E+03  0.84319997142E+03  0.00000000000E+00 0.  1.
        -11    1    3    3    0    0 -0.30173344402E+03  0.20951418818E+03  0.22675089271E+04  0.22970711789E+04  0.00000000000E+00 0. -1.
         22    1    1    2    0    0  0.42084838108E+03 -0.34076785629E+03 -0.12790080716E+04  0.13889196302E+04  0.00000000000E+00 0. -1.
<mgrwt>
<rscale>  0 0.41505545E+04</rscale>
<asrwt>0</asrwt>
<pdfrwt beam="1">  1        2 0.48785017E+00 0.41505545E+04</pdfrwt>
<pdfrwt beam="2">  1       -2 0.20894841E+00 0.41505545E+04</pdfrwt>
<totfact> 0.12265348E-01</totfact>
</mgrwt>
</event>
<event>
 6    1  0.1637818E-005  0.1718856E+04  0.7818608E-02  0.8750682E-01
         -2   -1    0    0    0  501 -0.00000000000E+00  0.00000000000E+00  0.21534458879E+03  0.21534458879E+03  0.00000000000E+00 0.  1.
          2   -1    0    0  501    0  0.00000000000E+00 -0.00000000000E+00 -0.34299294233E+04  0.34299294233E+04  0.00000000000E+00 0. -1.
         23    2    1    2    0    0  0.59253601439E+03  0.26476512702E+03 -0.42313066825E+03  0.77936824547E+03  0.84710086729E+02 0.  0.
         11    1    3    3    0    0  0.20287012343E+03  0.13380001727E+03 -0.14413589931E+03  0.28254891448E+03  0.00000000000E+00 0.  1.
        -11    1    3    3    0    0  0.38966589097E+03  0.13096510975E+03 -0.27899476894E+03  0.49681933099E+03  0.00000000000E+00 0. -1.
         22    1    1    2    0    0 -0.59253601439E+03 -0.26476512702E+03 -0.27914541663E+04  0.28659057667E+04  0.00000000000E+00 0. -1.
<mgrwt>
<rscale>  0 0.17188563E+04</rscale>
<asrwt>0</asrwt>
<pdfrwt beam="1">  1        2 0.52768140E+00 0.17188563E+04</pdfrwt>
<pdfrwt beam="2">  1       -2 0.33129940E-01 0.17188563E+04</pdfrwt>
<totfact> 0.74149349E+00</totfact>
</mgrwt>
</event>
<event>
 6    1  0.1637818E-005  0.6047062E+03  0.7818608E-02  0.9895690E-01
         -1   -1    0    0    0  501 -0.00000000000E+00  0.00000000000E+00  0.29373560898E+03  0.29373560898E+03  0.00000000000E+00 0.  1.
          1   -1    0    0  501    0  0.00000000000E+00 -0.00000000000E+00 -0.31122338394E+03  0.31122338394E+03  0.00000000000E+00 0. -1.
         23    2    1    2    0    0 -0.23916555114E+03 -0.41358260883E+02 -0.17785479574E+03  0.31404964630E+03  0.89912098046E+02 0.  0.
         13    1    3    3    0    0 -0.37502417923E+02  0.14163540638E+01  0.57791972727E+01  0.37971522619E+02  0.00000000000E+00 0.  1.
        -13    1    3    3    0    0 -0.20166313322E+03 -0.42774614946E+02 -0.18363399301E+03  0.27607812368E+03  0.00000000000E+00 0. -1.
         22    1    1    2    0    0  0.23916555114E+03  0.41358260883E+02  0.16036702078E+03  0.29090934662E+03  0.00000000000E+00 0.  1.
<mgrwt>
<rscale>  0 0.60470618E+03</rscale>
<asrwt>0</asrwt>
<pdfrwt beam="1">  1        1 0.47880521E-01 0.60470618E+03</pdfrwt>
<pdfrwt beam="2">  1       -1 0.45190094E-01 0.60470618E+03</pdfrwt>
<totfact> 0.41116152E+02</totfact>
</mgrwt>
</event>
<event>
 6    1  0.1637818E-005  0.6401185E+04  0.7818608E-02  0.7642557E-01
         -2   -1    0    0    0  501 -0.00000000000E+00  0.00000000000E+00  0.28066436728E+04  0.28066436728E+04  0.00000000000E+00 0.  1.
          2   -1    0    0  501    0  0.00000000000E+00 -0.00000000000E+00 -0.36498375607E+04  0.36498375607E+04  0.00000000000E+00 0. -1.
         23    2    1    2    0    0  0.12075995289E+04 -0.80028067612E+03  0.24563771240E+04  0.28528837747E+04  0.80071681356E+02 0.  0.
         13    1    3    3    0    0  0.56140046817E+03 -0.32887817840E+03  0.11354590162E+04  0.13086628746E+04  0.00000000000E+00 0. -1.
        -13    1    3    3    0    0  0.64619906068E+03 -0.47140249771E+03  0.13209181078E+04  0.15442209001E+04  0.00000000000E+00 0.  1.
         22    1    1    2    0    0 -0.12075995289E+04  0.80028067612E+03 -0.32995710119E+04  0.36035974588E+04  0.00000000000E+00 0. -1.
<mgrwt>
<rscale>  0 0.64011854E+04</rscale>
<asrwt>0</asrwt>
<pdfrwt beam="1">  1        2 0.56151347E+00 0.64011854E+04</pdfrwt>
<pdfrwt beam="2">  1       -2 0.43179133E+00 0.64011854E+04</pdfrwt>
<totfact> 0.19009671E-03</totfact>
</mgrwt>
</event>
<event>
 6    1  0.1637818E-005  0.6969569E+03  0.7818608E-02  0.9722451E-01
          1   -1    0    0  501    0  0.00000000000E+00  0.00000000000E+00  0.52813776981E+03  0.52813776981E+03  0.00000000000E+00 0. -1.
         -1   -1    0    0    0  501 -0.00000000000E+00 -0.00000000000E+00 -0.22993474968E+03  0.22993474968E+03  0.00000000000E+00 0.  1.
         23    2    1    2    0    0 -0.64423532328E+02 -0.31028840059E+03  0.10843578475E+02  0.33028199625E+03  0.92408499575E+02 0.  0.
         11    1    3    3    0    0 -0.50969869379E+02 -0.23640379268E+03 -0.31803278867E+02  0.24391828412E+03  0.00000000000E+00 0. -1.
        -11    1    3    3    0    0 -0.13453662949E+02 -0.73884607910E+02  0.42646857341E+02  0.86363712135E+02  0.00000000000E+00 0.  1.
         22    1    1    2    0    0  0.64423532328E+02  0.31028840059E+03  0.28735944166E+03  0.42779052324E+03  0.00000000000E+00 0. -1.
<mgrwt>
<rscale>  0 0.69695689E+03</rscale>
<asrwt>0</asrwt>
<pdfrwt beam="1">  1        1 0.81251964E-01 0.69695689E+03</pdfrwt>
<pdfrwt beam="2">  1       -1 0.35374577E-01 0.69695689E+03</pdfrwt>
<totfact> 0.31643575E+02</totfact>
</mgrwt>
</event>
<event>
 6    1  0.1637818E-005  0.1068245E+04  0.7818608E-02  0.9236708E-01
         -2   -1    0    0    0  501 -0.00000000000E+00  0.00000000000E+00  0.28070934983E+03  0.28070934983E+03  0.00000000000E+00 0. -1.
          2   -1    0    0  501    0  0.00000000000E+00 -0.00000000000E+00 -0.10163059660E+04  0.10163059660E+04  0.00000000000E+00 0.  1.
         23    2    1    2    0    0  0.12021621203E+03  0.17722063132E+03 -0.95946664697E+03  0.98721395938E+03  0.90310935869E+02 0.  0.
         13    1    3    3    0    0  0.12913946611E+03  0.14238948507E+03 -0.72706943927E+03  0.75205168485E+03  0.00000000000E+00 0. -1.
        -13    1    3    3    0    0 -0.89232540859E+01  0.34831146244E+02 -0.23239720771E+03  0.23516227453E+03  0.00000000000E+00 0.  1.
         22    1    1    2    0    0 -0.12021621203E+03 -0.17722063132E+03  0.22387003077E+03  0.30980135648E+03  0.00000000000E+00 0. -1.
<mgrwt>
<rscale>  0 0.10682445E+04</rscale>
<asrwt>0</asrwt>
<pdfrwt beam="1">  1        2 0.15635476E+00 0.10682445E+04</pdfrwt>
<pdfrwt beam="2">  1       -2 0.43186055E-01 0.10682445E+04</pdfrwt>
<totfact> 0.12427086E+02</totfact>
</mgrwt>
</event>
<event>
 6    1  0.1637818E-005  0.6187479E+04  0.7818608E-02  0.7667582E-01
         -3   -1    0    0    0  501 -0.00000000000E+00  0.00000000000E+00  0.28036632906E+04  0.28036632906E+04  0.00000000000E+00 0.  1.
          3   -1    0    0  501    0  0.00000000000E+00 -0.00000000000E+00 -0.34138280329E+04  0.34138280329E+04  0.00000000000E+00 0. -1.
         23    2    1    2    0    0  0.13016842863E+04 -0.76903720861E+03  0.24063430241E+04  0.28433070792E+04  0.90045475676E+02 0.  0.
         13    1    3    3    0    0  0.57185984367E+03 -0.35228478670E+03  0.11500107091E+04  0.13317855994E+04  0.00000000000E+00 0. -1.
        -13    1    3    3    0    0  0.72982444261E+03 -0.41675242190E+03  0.12563323150E+04  0.15115214798E+04  0.00000000000E+00 0.  1.
         22    1    1    2    0    0 -0.13016842863E+04  0.76903720861E+03 -0.30165077664E+04  0.33741842442E+04  0.00000000000E+00 0. -1.
<mgrwt>
<rscale>  0 0.61874791E+04</rscale>
<asrwt>0</asrwt>
<pdfrwt beam="1">  1        3 0.52520431E+00 0.61874791E+04</pdfrwt>
<pdfrwt beam="2">  1       -3 0.43133281E+00 0.61874791E+04</pdfrwt>
<totfact> 0.31294533E-05</totfact>
</mgrwt>
</event>
<event>
 6    1  0.1637818E-005  0.3803248E+04  0.7818608E-02  0.8045458E-01
         -1   -1    0    0    0  501 -0.00000000000E+00  0.00000000000E+00  0.16670403025E+04  0.16670403025E+04  0.00000000000E+00 0.  1.
          1   -1    0    0  501    0  0.00000000000E+00 -0.00000000000E+00 -0.21692174542E+04  0.21692174542E+04  0.00000000000E+00 0. -1.
         23    2    1    2    0    0 -0.95349271163E+03  0.10591302897E+04 -0.15196364384E+04  0.20852212859E+04  0.89149228033E+02 0.  0.
         13    1    3    3    0    0 -0.93986128856E+03  0.10231111403E+04 -0.14746960284E+04  0.20260365306E+04  0.00000000000E+00 0.  1.
        -13    1    3    3    0    0 -0.13631423074E+02  0.36019149354E+02 -0.44940409926E+02  0.59184755297E+02  0.00000000000E+00 0. -1.
         22    1    1    2    0    0  0.95349271163E+03 -0.10591302897E+04  0.10174592867E+04  0.17510364707E+04  0.00000000000E+00 0.  1.
<mgrwt>
<rscale>  0 0.38032475E+04</rscale>
<asrwt>0</asrwt>
<pdfrwt beam="1">  1        1 0.33372576E+00 0.38032475E+04</pdfrwt>
<pdfrwt beam="2">  1       -1 0.25646774E+00 0.38032475E+04</pdfrwt>
<totfact> 0.11506763E-01</totfact>
</mgrwt>
</event>
<event>
 6    1  0.1637818E-005  0.6968136E+03  0.7818608E-02  0.9722697E-01
          1   -1    0    0  501    0  0.00000000000E+00  0.00000000000E+00  0.13926018071E+04  0.13926018071E+04  0.00000000000E+00 0. -1.
         -1   -1    0    0    0  501 -0.00000000000E+00 -0.00000000000E+00 -0.87165825519E+02  0.87165825519E+02  0.00000000000E+00 0.  1.
         23    2    1    2    0    0  0.11338126858E+03 -0.22969241688E+03  0.18063320886E+03  0.32616666350E+03  0.90235346721E+02 0.  0.
         11    1    3    3    0    0  0.11107683967E+03 -0.16854821234E+03  0.17032707111E+03  0.26411716216E+03  0.00000000000E+00 0. -1.
        -11    1    3    3    0    0  0.23044289142E+01 -0.61144204535E+02  0.10306137748E+02  0.62049501336E+02  0.00000000000E+00 0.  1.
         22    1    1    2    0    0 -0.11338126858E+03  0.22969241688E+03  0.11248027727E+04  0.11536009691E+04  0.00000000000E+00 0. -1.
<mgrwt>
<rscale>  0 0.69681357E+03</rscale>
<asrwt>0</asrwt>
<pdfrwt beam="1">  1        1 0.21424642E+00 0.69681357E+03</pdfrwt>
<pdfrwt beam="2">  1       -1 0.13410128E-01 0.69681357E+03</pdfrwt>
<totfact> 0.31272671E+02</totfact>
</mgrwt>
</event>
<event>
 6    1  0.1637818E-005  0.1589955E+04  0.7818608E-02  0.8826743E-01
         -2   -1    0    0    0  501 -0.00000000000E+00  0.00000000000E+00  0.11445264743E+04  0.11445264743E+04  0.00000000000E+00 0.  1.
          2   -1    0    0  501    0  0.00000000000E+00 -0.00000000000E+00 -0.55218410093E+03  0.55218410093E+03  0.00000000000E+00 0. -1.
         23    2    1    2    0    0 -0.54731377691E+03  0.18396253212E+03 -0.28195982111E+03  0.64895158058E+03  0.90786725865E+02 0.  0.
         13    1    3    3    0    0 -0.15798858915E+03  0.19881290688E+02 -0.49595146898E+02  0.16677931111E+03  0.00000000000E+00 0. -1.
        -13    1    3    3    0    0 -0.38932518777E+03  0.16408124144E+03 -0.23236467421E+03  0.48217226947E+03  0.00000000000E+00 0.  1.
         22    1    1    2    0    0  0.54731377691E+03 -0.18396253212E+03  0.87430219452E+03  0.10477589947E+04  0.00000000000E+00 0.  1.
<mgrwt>
<rscale>  0 0.15899551E+04</rscale>
<asrwt>0</asrwt>
<pdfrwt beam="1">  1        2 0.84951401E-01 0.15899551E+04</pdfrwt>
<pdfrwt beam="2">  1       -2 0.17608100E+00 0.15899551E+04</pdfrwt>
<totfact> 0.10142523E+01</totfact>
</mgrwt>
</event>
<event>
 6    1  0.1637818E-005  0.3389754E+04  0.7818608E-02  0.8140426E-01
         -2   -1    0    0    0  501 -0.00000000000E+00  0.00000000000E+00  0.12460160665E+04  0.12460160665E+04  0.00000000000E+00 0.  1.
          2   -1    0    0  501    0  0.00000000000E+00 -0.00000000000E+00 -0.23054346528E+04  0.23054346528E+04  0.00000000000E+00 0. -1.
         23    2    1    2    0    0  0.14989379989E+04 -0.41392338771E+03 -0.12330853093E+04  0.19867437735E+04  0.92215758288E+02 0.  0.
         11    1    3    3    0    0  0.94374369354E+03 -0.23141957201E+03 -0.81389038859E+03  0.12675270183E+04  0.00000000000E+00 0. -1.
        -11    1    3    3    0    0  0.55519430537E+03 -0.18250381570E+03 -0.41919492071E+03  0.71921675523E+03  0.00000000000E+00 0.  1.
         22    1    1    2    0    0 -0.14989379989E+04  0.41392338771E+03  0.17366672300E+03  0.15647069458E+04  0.00000000000E+00 0.  1.
<mgrwt>
<rscale>  0 0.33897543E+04</rscale>
<asrwt>0</asrwt>
<pdfrwt beam="1">  1        2 0.35468225E+00 0.33897543E+04</pdfrwt>
<pdfrwt beam="2">  1       -2 0.19169478E+00 0.33897543E+04</pdfrwt>
<totfact> 0.56356765E-01</totfact>
</mgrwt>
</event>
<event>
 6    1  0.1637818E-005  0.6738827E+03  0.7818608E-02  0.9762969E-01
         -2   -1    0    0    0  501 -0.00000000000E+00  0.00000000000E+00  0.91312018241E+02  0.91312018241E+02  0.00000000000E+00 0.  1.
          2   -1    0    0  501    0  0.00000000000E+00 -0.00000000000E+00 -0.12433135393E+04  0.12433135393E+04  0.00000000000E+00 0. -1.
         23    2    1    2    0    0  0.29569846496E+03  0.80432870833E+02 -0.33176112676E+03  0.45901072593E+03  0.81965678231E+02 0.  0.
         13    1    3    3    0    0  0.12402789462E+03 -0.56850708595E+01 -0.14824330504E+03  0.19336834323E+03  0.00000000000E+00 0. -1.
        -13    1    3    3    0    0  0.17167057033E+03  0.86117941693E+02 -0.18351782172E+03  0.26564238270E+03  0.00000000000E+00 0.  1.
         22    1    1    2    0    0 -0.29569846496E+03 -0.80432870833E+02 -0.82024039434E+03  0.87561483164E+03  0.00000000000E+00 0. -1.
<mgrwt>
<rscale>  0 0.67388269E+03</rscale>
<asrwt>0</asrwt>
<pdfrwt beam="1">  1        2 0.19127899E+00 0.67388269E+03</pdfrwt>
<pdfrwt beam="2">  1       -2 0.14048004E-01 0.67388269E+03</pdfrwt>
<totfact> 0.70617863E+02</totfact>
</mgrwt>
</event>
<event>
 6    1  0.1637818E-005  0.2612896E+04  0.7818608E-02  0.8363834E-01
         -1   -1    0    0    0  501 -0.00000000000E+00  0.00000000000E+00  0.31109052708E+04  0.31109052708E+04  0.00000000000E+00 0.  1.
          1   -1    0    0  501    0  0.00000000000E+00 -0.00000000000E+00 -0.54865279070E+03  0.54865279070E+03  0.00000000000E+00 0. -1.
         23    2    1    2    0    0  0.85572067152E+03  0.97876459227E+03  0.11269970109E+04  0.17230157158E+04  0.91776357033E+02 0.  0.
         11    1    3    3    0    0  0.20081631324E+03  0.26263315938E+03  0.33174088169E+03  0.46835390535E+03  0.00000000000E+00 0. -1.
        -11    1    3    3    0    0  0.65490435828E+03  0.71613143289E+03  0.79525612923E+03  0.12546618105E+04  0.00000000000E+00 0.  1.
         22    1    1    2    0    0 -0.85572067152E+03 -0.97876459227E+03  0.14352554692E+04  0.19365423457E+04  0.00000000000E+00 0.  1.
<mgrwt>
<rscale>  0 0.26128964E+04</rscale>
<asrwt>0</asrwt>
<pdfrwt beam="1">  1        1 0.84408124E-01 0.26128964E+04</pdfrwt>
<pdfrwt beam="2">  1       -1 0.47860080E+00 0.26128964E+04</pdfrwt>
<totfact> 0.70514429E-02</totfact>
</mgrwt>
</event>
<event>
 6    1  0.1637818E-005  0.2220414E+04  0.7818608E-02  0.8509979E-01
          3   -1    0    0  501    0  0.00000000000E+00  0.00000000000E+00  0.59140697941E+03  0.59140697941E+03  0.00000000000E+00 0. -1.
         -3   -1    0    0    0  501 -0.00000000000E+00 -0.00000000000E+00 -0.20841133535E+04  0.20841133535E+04  0.00000000000E+00 0.  1.
         23    2    1    2    0    0  0.88420320602E+02  0.54003282858E+03 -0.19088928285E+04  0.19880141338E+04  0.94205925814E+02 0.  0.
         11    1    3    3    0    0  0.29795338084E+02  0.42591720970E+03 -0.14751614247E+04  0.15357065021E+04  0.00000000000E+00 0.  1.
        -11    1    3    3    0    0  0.58624982518E+02  0.11411561889E+03 -0.43373140377E+03  0.45230763167E+03  0.00000000000E+00 0. -1.
         22    1    1    2    0    0 -0.88420320602E+02 -0.54003282858E+03  0.41618645438E+03  0.68750619914E+03  0.00000000000E+00 0. -1.
<mgrwt>
<rscale>  0 0.22204136E+04</rscale>
<asrwt>0</asrwt>
<pdfrwt beam="1">  1        3 0.90985690E-01 0.22204136E+04</pdfrwt>
<pdfrwt beam="2">  1       -3 0.32063282E+00 0.22204136E+04</pdfrwt>
<totfact> 0.75584992E-02</totfact>
</mgrwt>
</event>
<event>
 6    1  0.1637818E-005  0.1613444E+04  0.7818608E-02  0.8812331E-01
          2   -1    0    0  501    0  0.00000000000E+00  0.00000000000E+00  0.83696378318E+03  0.83696378318E+03  0.00000000000E+00 0. -1.
         -2   -1    0    0    0  501 -0.00000000000E+00 -0.00000000000E+00 -0.77757286181E+03  0.77757286181E+03  0.00000000000E+00 0.  1.
         23    2    1    2    0    0 -0.16060268168E+03 -0.78185448027E+03  0.12732707350E+03  0.81347174722E+03  0.91839262769E+02 0.  0.
         13    1    3    3    0    0 -0.80453726325E+02 -0.21828977552E+03  0.13999365182E+02  0.23306482017E+03  0.00000000000E+00 0.  1.
        -13    1    3    3    0    0 -0.80148955357E+02 -0.56356470476E+03  0.11332770832E+03  0.58040692705E+03  0.00000000000E+00 0. -1.
         22    1    1    2    0    0  0.16060268168E+03  0.78185448027E+03 -0.67936152136E+02  0.80106489778E+03  0.00000000000E+00 0.  1.
<mgrwt>
<rscale>  0 0.16134439E+04</rscale>
<asrwt>0</asrwt>
<pdfrwt beam="1">  1        2 0.12876366E+00 0.16134439E+04</pdfrwt>
<pdfrwt beam="2">  1       -2 0.11962659E+00 0.16134439E+04</pdfrwt>
<totfact> 0.16616142E+01</totfact>
</mgrwt>
</event>
<event>
 6    1  0.1637818E-005  0.3121977E+04  0.7818608E-02  0.8209732E-01
          2   -1    0    0  501    0  0.00000000000E+00  0.00000000000E+00  0.17330198682E+04  0.17330198682E+04  0.00000000000E+00 0. -1.
         -2   -1    0    0    0  501 -0.00000000000E+00 -0.00000000000E+00 -0.14060344098E+04  0.14060344098E+04  0.00000000000E+00 0.  1.
         23    2    1    2    0    0 -0.10140987695E+04  0.64170514608E+03  0.11652272473E+04  0.16752130622E+04  0.91664918618E+02 0.  0.
         11    1    3    3    0    0 -0.28893757014E+03  0.23264227241E+03  0.35319634741E+03  0.51220601927E+03  0.00000000000E+00 0. -1.
        -11    1    3    3    0    0 -0.72516119932E+03  0.40906287367E+03  0.81203089984E+03  0.11630070429E+04  0.00000000000E+00 0.  1.
         22    1    1    2    0    0  0.10140987695E+04 -0.64170514608E+03 -0.83824178883E+03  0.14638412159E+04  0.00000000000E+00 0.  1.
<mgrwt>
<rscale>  0 0.31219773E+04</rscale>
<asrwt>0</asrwt>
<pdfrwt beam="1">  1        2 0.26661844E+00 0.31219773E+04</pdfrwt>
<pdfrwt beam="2">  1       -2 0.21631299E+00 0.31219773E+04</pdfrwt>
<totfact> 0.83116856E-01</totfact>
</mgrwt>
</event>
<event>
 6    1  0.1637818E-005  0.7588911E+03  0.7818608E-02  0.9621504E-01
          3   -1    0    0  501    0  0.00000000000E+00  0.00000000000E+00  0.33519642054E+03  0.33519642054E+03  0.00000000000E+00 0.  1.
         -3   -1    0    0    0  501 -0.00000000000E+00 -0.00000000000E+00 -0.42953596814E+03  0.42953596814E+03  0.00000000000E+00 0. -1.
         23    2    1    2    0    0 -0.21267883139E+03 -0.36758104623E+02  0.25998226374E+03  0.34985000828E+03  0.90668667426E+02 0.  0.
         13    1    3    3    0    0 -0.12137401486E+03  0.60017632680E+00  0.82391857657E+02  0.14669843183E+03  0.00000000000E+00 0.  1.
        -13    1    3    3    0    0 -0.91304816538E+02 -0.37358280950E+02  0.17759040609E+03  0.20315157645E+03  0.00000000000E+00 0. -1.
         22    1    1    2    0    0  0.21267883139E+03  0.36758104623E+02 -0.35432181134E+03  0.41488238040E+03  0.00000000000E+00 0. -1.
<mgrwt>
<rscale>  0 0.75889108E+03</rscale>
<asrwt>0</asrwt>
<pdfrwt beam="1">  1        3 0.51568680E-01 0.75889108E+03</pdfrwt>
<pdfrwt beam="2">  1       -3 0.66082456E-01 0.75889108E+03</pdfrwt>
<totfact> 0.21688632E+01</totfact>
</mgrwt>
</event>
<event>
 6    1  0.1637818E-005  0.1223960E+04  0.7818608E-02  0.9092139E-01
         -2   -1    0    0    0  501 -0.00000000000E+00  0.00000000000E+00  0.85479006021E+03  0.85479006021E+03  0.00000000000E+00 0. -1.
          2   -1    0    0  501    0  0.00000000000E+00 -0.00000000000E+00 -0.43814238806E+03  0.43814238806E+03  0.00000000000E+00 0.  1.
         23    2    1    2    0    0  0.35466623035E+02 -0.37897368095E+03 -0.29230777876E+03  0.48826061232E+03  0.89864652763E+02 0.  0.
         13    1    3    3    0    0  0.45755847112E+01 -0.41014012738E+02 -0.74030164706E+02  0.84755828724E+02  0.00000000000E+00 0. -1.
        -13    1    3    3    0    0  0.30891038323E+02 -0.33795966821E+03 -0.21827761405E+03  0.40350478359E+03  0.00000000000E+00 0.  1.
         22    1    1    2    0    0 -0.35466623035E+02  0.37897368095E+03  0.70895545090E+03  0.80467183595E+03  0.00000000000E+00 0. -1.
<mgrwt>
<rscale>  0 0.12239604E+04</rscale>
<asrwt>0</asrwt>
<pdfrwt beam="1">  1        2 0.67406521E-01 0.12239604E+04</pdfrwt>
<pdfrwt beam="2">  1       -2 0.13150616E+00 0.12239604E+04</pdfrwt>
<totfact> 0.29777560E+01</totfact>
</mgrwt>
</event>
<event>
 6    1  0.1637818E-005  0.1342747E+04  0.7818608E-02  0.8996337E-01
          2   -1    0    0  501    0  0.00000000000E+00  0.00000000000E+00  0.43955001665E+03  0.43955001665E+03  0.00000000000E+00 0. -1.
         -2   -1    0    0    0  501 -0.00000000000E+00 -0.00000000000E+00 -0.10254636210E+04  0.10254636210E+04  0.00000000000E+00 0.  1.
         23    2    1    2    0    0 -0.39460900835E+03 -0.14641915332E+02 -0.88253597359E+03  0.97113563134E+03  0.91126366273E+02 0.  0.
         13    1    3    3    0    0 -0.12036813894E+03  0.37257413703E+02 -0.28675944436E+03  0.31322129985E+03  0.00000000000E+00 0.  1.
        -13    1    3    3    0    0 -0.27424086940E+03 -0.51899329035E+02 -0.59577652922E+03  0.65791433149E+03  0.00000000000E+00 0. -1.
         22    1    1    2    0    0  0.39460900835E+03  0.14641915332E+02  0.29662236926E+03  0.49387800629E+03  0.00000000000E+00 0. -1.
<mgrwt>
<rscale>  0 0.13427473E+04</rscale>
<asrwt>0</asrwt>
<pdfrwt beam="1">  1        2 0.67623080E-01 0.13427473E+04</pdfrwt>
<pdfrwt beam="2">  1       -2 0.15776363E+00 0.13427473E+04</pdfrwt>
<totfact> 0.18253304E+01</totfact>
</mgrwt>
</event>
<event>
 6    1  0.1637818E-005  0.1962928E+04  0.7818608E-02  0.8624152E-01
         -2   -1    0    0    0  501 -0.00000000000E+00  0.00000000000E+00  0.75304865142E+03  0.75304865142E+03  0.00000000000E+00 0.  1.
          2   -1    0    0  501    0  0.00000000000E+00 -0.00000000000E+00 -0.12791624818E+04  0.12791624818E+04  0.00000000000E+00 0. -1.
         23    2    1    2    0    0 -0.39720815085E+03 -0.95201487561E+02  0.65788365693E+03  0.77973850346E+03  0.91343250374E+02 0.  0.
         13    1    3    3    0    0 -0.20777623602E+03 -0.95592678113E+02  0.34275730361E+03  0.41205763376E+03  0.00000000000E+00 0.  1.
        -13    1    3    3    0    0 -0.18943191483E+03  0.39119055166E+00  0.31512635332E+03  0.36768086970E+03  0.00000000000E+00 0. -1.
         22    1    1    2    0    0  0.39720815085E+03  0.95201487561E+02 -0.11839974873E+04  0.12524726297E+04  0.00000000000E+00 0. -1.
<mgrwt>
<rscale>  0 0.19629280E+04</rscale>
<asrwt>0</asrwt>
<pdfrwt beam="1">  1        2 0.19679423E+00 0.19629280E+04</pdfrwt>
<pdfrwt beam="2">  1       -2 0.11585364E+00 0.19629280E+04</pdfrwt>
<totfact> 0.91762319E+00</totfact>
</mgrwt>
</event>
<event>
 6    1  0.1637818E-005  0.3082755E+04  0.7818608E-02  0.8220487E-01
         -2   -1    0    0    0  501 -0.00000000000E+00  0.00000000000E+00  0.92513461526E+03  0.92513461526E+03  0.00000000000E+00 0.  1.
          2   -1    0    0  501    0  0.00000000000E+00 -0.00000000000E+00 -0.25681061674E+04  0.25681061674E+04  0.00000000000E+00 0. -1.
         23    2    1    2    0    0  0.25877593031E+02 -0.76046131969E+03  0.69555756975E+03  0.10340357236E+04  0.80364645693E+02 0.  0.
         11    1    3    3    0    0  0.41030946445E+02 -0.45387075419E+03  0.45570731505E+03  0.64447758461E+03  0.00000000000E+00 0.  1.
        -11    1    3    3    0    0 -0.15153353414E+02 -0.30659056550E+03  0.23985025471E+03  0.38955813900E+03  0.00000000000E+00 0. -1.
         22    1    1    2    0    0 -0.25877593031E+02  0.76046131969E+03 -0.23385291219E+04  0.24592050590E+04  0.00000000000E+00 0. -1.
<mgrwt>
<rscale>  0 0.30827546E+04</rscale>
<asrwt>0</asrwt>
<pdfrwt beam="1">  1        2 0.39509325E+00 0.30827546E+04</pdfrwt>
<pdfrwt beam="2">  1       -2 0.14232841E+00 0.30827546E+04</pdfrwt>
<totfact> 0.92911148E-01</totfact>
</mgrwt>
</event>
<event>
 6    1  0.1637818E-005  0.3045998E+04  0.7818608E-02  0.8230716E-01
         -1   -1    0    0    0  501 -0.00000000000E+00  0.00000000000E+00  0.98051176158E+03  0.98051176158E+03  0.00000000000E+00 0.  1.
          1   -1    0    0  501    0  0.00000000000E+00 -0.00000000000E+00 -0.23656283920E+04  0.23656283920E+04  0.00000000000E+00 0. -1.
         23    2    1    2    0    0 -0.45550818190E+03 -0.57754731787E+03 -0.21564336475E+04  0.22803172090E+04  0.92692447254E+02 0.  0.
         13    1    3    3    0    0 -0.18450484648E+03 -0.16797675376E+03 -0.77566897981E+03  0.81481322671E+03  0.00000000000E+00 0.  1.
        -13    1    3    3    0    0 -0.27100333542E+03 -0.40957056411E+03 -0.13807646677E+04  0.14655039823E+04  0.00000000000E+00 0. -1.
         22    1    1    2    0    0  0.45550818190E+03  0.57754731787E+03  0.77131701710E+03  0.10658229445E+04  0.00000000000E+00 0.  1.
<mgrwt>
<rscale>  0 0.30459983E+04</rscale>
<asrwt>0</asrwt>
<pdfrwt beam="1">  1        1 0.36394282E+00 0.30459983E+04</pdfrwt>
<pdfrwt beam="2">  1       -1 0.15084797E+00 0.30459983E+04</pdfrwt>
<totfact> 0.48858066E-01</totfact>
</mgrwt>
</event>
<event>
 6    1  0.1637818E-005  0.3126324E+04  0.7818608E-02  0.8208550E-01
         -2   -1    0    0    0  501 -0.00000000000E+00  0.00000000000E+00  0.23630029565E+04  0.23630029565E+04  0.00000000000E+00 0.  1.
          2   -1    0    0  501    0  0.00000000000E+00 -0.00000000000E+00 -0.10340553218E+04  0.10340553218E+04  0.00000000000E+00 0. -1.
         23    2    1    2    0    0  0.99763289202E+03 -0.76400391127E+03  0.16728477904E+04  0.20942763776E+04  0.92738624303E+02 0.  0.
         11    1    3    3    0    0  0.53738685134E+03 -0.42392828623E+03  0.83571736697E+03  0.10802422586E+04  0.00000000000E+00 0.  1.
        -11    1    3    3    0    0  0.46024604068E+03 -0.34007562504E+03  0.83713042344E+03  0.10140341190E+04  0.00000000000E+00 0. -1.
         22    1    1    2    0    0 -0.99763289202E+03  0.76400391127E+03 -0.34390015566E+03  0.13027819007E+04  0.00000000000E+00 0. -1.
<mgrwt>
<rscale>  0 0.31263242E+04</rscale>
<asrwt>0</asrwt>
<pdfrwt beam="1">  1        2 0.15908543E+00 0.31263242E+04</pdfrwt>
<pdfrwt beam="2">  1       -2 0.36353892E+00 0.31263242E+04</pdfrwt>
<totfact> 0.25902194E-01</totfact>
</mgrwt>
</event>
<event>
 6    1  0.1637818E-005  0.1608980E+04  0.7818608E-02  0.8815050E-01
         -1   -1    0    0    0  501 -0.00000000000E+00  0.00000000000E+00  0.20961195980E+03  0.20961195980E+03  0.00000000000E+00 0.  1.
          1   -1    0    0  501    0  0.00000000000E+00 -0.00000000000E+00 -0.30876285969E+04  0.30876285969E+04  0.00000000000E+00 0. -1.
         23    2    1    2    0    0  0.39460721491E+03  0.64961705421E+03 -0.91922742993E+03  0.11961521889E+04  0.89910065481E+02 0.  0.
         11    1    3    3    0    0  0.15947994389E+03  0.26832128774E+03 -0.30962914044E+03  0.43965938017E+03  0.00000000000E+00 0. -1.
        -11    1    3    3    0    0  0.23512727101E+03  0.38129576646E+03 -0.60959828948E+03  0.75649280872E+03  0.00000000000E+00 0.  1.
         22    1    1    2    0    0 -0.39460721491E+03 -0.64961705421E+03 -0.19587892071E+04  0.21010883678E+04  0.00000000000E+00 0. -1.
<mgrwt>
<rscale>  0 0.16089797E+04</rscale>
<asrwt>0</asrwt>
<pdfrwt beam="1">  1        1 0.47501979E+00 0.16089797E+04</pdfrwt>
<pdfrwt beam="2">  1       -1 0.32247994E-01 0.16089797E+04</pdfrwt>
<totfact> 0.44631717E+00</totfact>
</mgrwt>
</event>
<event>
 6    1  0.1637818E-005  0.3868425E+04  0.7818608E-02  0.8031628E-01
         -2   -1    0    0    0  501 -0.00000000000E+00  0.00000000000E+00  0.14741373561E+04  0.14741373561E+04  0.00000000000E+00 0.  1.
          2   -1    0    0  501    0  0.00000000000E+00 -0.00000000000E+00 -0.25378759805E+04  0.25378759805E+04  0.00000000000E+00 0. -1.
         23    2    1    2    0    0  0.14818081366E+03  0.17608787356E+04  0.28057251017E+03  0.17916926612E+04  0.93755979091E+02 0.  0.
         13    1    3    3    0    0  0.21520748867E+02  0.41064269757E+03  0.27556656555E+02  0.41212854429E+03  0.00000000000E+00 0. -1.
        -13    1    3    3    0    0  0.12666006479E+03  0.13502360381E+04  0.25301585362E+03  0.13795641169E+04  0.00000000000E+00 0.  1.
         22    1    1    2    0    0 -0.14818081366E+03 -0.17608787356E+04 -0.13443111345E+04  0.22203206754E+04  0.00000000000E+00 0. -1.
<mgrwt>
<rscale>  0 0.38684249E+04</rscale>
<asrwt>0</asrwt>
<pdfrwt beam="1">  1        2 0.39044245E+00 0.38684249E+04</pdfrwt>
<pdfrwt beam="2">  1       -2 0.22679037E+00 0.38684249E+04</pdfrwt>
<totfact> 0.23626413E-01</totfact>
</mgrwt>
</event>
<event>
 6    1  0.1637818E-005  0.1959136E+04  0.7818608E-02  0.8625968E-01
          2   -1    0    0  501    0  0.00000000000E+00  0.00000000000E+00  0.12982946395E+04  0.12982946395E+04  0.00000000000E+00 0. -1.
         -2   -1    0    0    0  501 -0.00000000000E+00 -0.00000000000E+00 -0.73908739314E+03  0.73908739314E+03  0.00000000000E+00 0.  1.
         23    2    1    2    0    0  0.80654155498E+03  0.31034213174E+03  0.75515633074E+03  0.11512570063E+04  0.91159706302E+02 0.  0.
         11    1    3    3    0    0  0.68611606912E+03  0.23469685096E+03  0.60431104385E+03  0.94394370058E+03  0.00000000000E+00 0. -1.
        -11    1    3    3    0    0  0.12042548586E+03  0.75645280788E+02  0.15084528689E+03  0.20731330571E+03  0.00000000000E+00 0.  1.
         22    1    1    2    0    0 -0.80654155498E+03 -0.31034213174E+03 -0.19594908438E+03  0.88612502634E+03  0.00000000000E+00 0.  1.
<mgrwt>
<rscale>  0 0.19591357E+04</rscale>
<asrwt>0</asrwt>
<pdfrwt beam="1">  1        2 0.19973764E+00 0.19591357E+04</pdfrwt>
<pdfrwt beam="2">  1       -2 0.11370575E+00 0.19591357E+04</pdfrwt>
<totfact> 0.93638128E+00</totfact>
</mgrwt>
</event>
<event>
 6    1  0.1637818E-005  0.4369897E+04  0.7818608E-02  0.7933818E-01
          2   -1    0    0  501    0  0.00000000000E+00  0.00000000000E+00  0.28716140113E+04  0.28716140113E+04  0.00000000000E+00 0. -1.
         -2   -1    0    0    0  501 -0.00000000000E+00 -0.00000000000E+00 -0.16624798546E+04  0.16624798546E+04  0.00000000000E+00 0.  1.
         23    2    1    2    0    0  0.11420476388E+03 -0.21042234452E+04  0.98363713438E+01  0.21094053884E+04  0.93248608764E+02 0.  0.
         11    1    3    3    0    0  0.32564151147E+02 -0.44582291269E+03 -0.35119339069E+02  0.44838807009E+03  0.00000000000E+00 0. -1.
        -11    1    3    3    0    0  0.81640612735E+02 -0.16584005325E+04  0.44955710413E+02  0.16610173183E+04  0.00000000000E+00 0.  1.
         22    1    1    2    0    0 -0.11420476388E+03  0.21042234452E+04  0.11992977853E+04  0.24246884775E+04  0.00000000000E+00 0.  1.
<mgrwt>
<rscale>  0 0.43698972E+04</rscale>
<asrwt>0</asrwt>
<pdfrwt beam="1">  1        2 0.44178677E+00 0.43698972E+04</pdfrwt>
<pdfrwt beam="2">  1       -2 0.25576613E+00 0.43698972E+04</pdfrwt>
<totfact> 0.94814263E-02</totfact>
</mgrwt>
</event>
<event>
 6    1  0.1822422E-005  0.4656296E+04  0.7818608E-02  0.7883831E-01
          2   -1    0    0  501    0  0.00000000000E+00  0.00000000000E+00  0.21469241429E+04  0.21469241429E+04  0.00000000000E+00 0. -1.
         -2   -1    0    0    0  501 -0.00000000000E+00 -0.00000000000E+00 -0.25246696638E+04  0.25246696638E+04  0.00000000000E+00 0.  1.
         23    2    1    2    0    0 -0.18351701310E+04  0.15936792902E+03 -0.16158923432E+04  0.24520769448E+04  0.91245447060E+02 0.  0.
         13    1    3    3    0    0 -0.31581355887E+03 -0.15079811459E+01 -0.30206105367E+03  0.43701413949E+03  0.00000000000E+00 0.  1.
        -13    1    3    3    0    0 -0.15193565722E+04  0.16087591017E+03 -0.13138312895E+04  0.20150628053E+04  0.00000000000E+00 0. -1.
         22    1    1    2    0    0  0.18351701310E+04 -0.15936792902E+03  0.12381468224E+04  0.22195168619E+04  0.00000000000E+00 0. -1.
<mgrwt>
<rscale>  0 0.46562965E+04</rscale>
<asrwt>0</asrwt>
<pdfrwt beam="1">  1        2 0.33029602E+00 0.46562965E+04</pdfrwt>
<pdfrwt beam="2">  1       -2 0.38841071E+00 0.46562965E+04</pdfrwt>
<totfact> 0.36558001E-02</totfact>
</mgrwt>
</event>
<event>
 6    1  0.1637818E-005  0.2959005E+04  0.7818608E-02  0.8255535E-01
         -2   -1    0    0    0  501 -0.00000000000E+00  0.00000000000E+00  0.16720604528E+04  0.16720604528E+04  0.00000000000E+00 0.  1.
          2   -1    0    0  501    0  0.00000000000E+00 -0.00000000000E+00 -0.13091203147E+04  0.13091203147E+04  0.00000000000E+00 0. -1.
         23    2    1    2    0    0 -0.19602266718E+03  0.14618378189E+04  0.27862495139E+03  0.15038508296E+04  0.92416228996E+02 0.  0.
         11    1    3    3    0    0 -0.95491899420E+02  0.99640806388E+03  0.21005201037E+03  0.10227754297E+04  0.00000000000E+00 0.  1.
        -11    1    3    3    0    0 -0.10053076776E+03  0.46542975499E+03  0.68572941024E+02  0.48107539985E+03  0.00000000000E+00 0. -1.
         22    1    1    2    0    0  0.19602266718E+03 -0.14618378189E+04  0.84315186693E+02  0.14773299379E+04  0.00000000000E+00 0. -1.
<mgrwt>
<rscale>  0 0.29590054E+04</rscale>
<asrwt>0</asrwt>
<pdfrwt beam="1">  1        2 0.20140313E+00 0.29590054E+04</pdfrwt>
<pdfrwt beam="2">  1       -2 0.25724007E+00 0.29590054E+04</pdfrwt>
<totfact> 0.81360696E-01</totfact>
</mgrwt>
</event>
<event>
 6    1  0.1637818E-005  0.2778843E+04  0.7818608E-02  0.8309867E-01
         -1   -1    0    0    0  501 -0.00000000000E+00  0.00000000000E+00  0.21732642846E+04  0.21732642846E+04  0.00000000000E+00 0.  1.
          1   -1    0    0  501    0  0.00000000000E+00 -0.00000000000E+00 -0.88829166067E+03  0.88829166067E+03  0.00000000000E+00 0. -1.
         23    2    1    2    0    0  0.68374551362E+02 -0.12868829164E+04  0.12111522755E+04  0.17707452838E+04  0.88917411067E+02 0.  0.
         11    1    3    3    0    0  0.13351302474E+01 -0.58650758701E+03  0.59567236048E+03  0.83595364299E+03  0.00000000000E+00 0.  1.
        -11    1    3    3    0    0  0.67039421115E+02 -0.70037532938E+03  0.61547991502E+03  0.93479164084E+03  0.00000000000E+00 0. -1.
         22    1    1    2    0    0 -0.68374551362E+02  0.12868829164E+04  0.73820348411E+02  0.12908106614E+04  0.00000000000E+00 0. -1.
<mgrwt>
<rscale>  0 0.27788433E+04</rscale>
<asrwt>0</asrwt>
<pdfrwt beam="1">  1        1 0.13666026E+00 0.27788433E+04</pdfrwt>
<pdfrwt beam="2">  1       -1 0.33434835E+00 0.27788433E+04</pdfrwt>
<totfact> 0.31805778E-01</totfact>
</mgrwt>
</event>
<event>
 6    1  0.1637818E-005  0.1709259E+04  0.7818608E-02  0.8756101E-01
          2   -1    0    0  501    0  0.00000000000E+00  0.00000000000E+00  0.34871583726E+04  0.34871583726E+04  0.00000000000E+00 0. -1.
         -2   -1    0    0    0  501 -0.00000000000E+00 -0.00000000000E+00 -0.20945184188E+03  0.20945184188E+03  0.00000000000E+00 0.  1.
         23    2    1    2    0    0 -0.14360714712E+03 -0.67002526651E+03  0.27391128321E+04  0.28250368999E+04  0.92398638534E+02 0.  0.
         11    1    3    3    0    0 -0.99280448776E+02 -0.25013328865E+03  0.10900817386E+04  0.11228096306E+04  0.00000000000E+00 0. -1.
        -11    1    3    3    0    0 -0.44326698348E+02 -0.41989197787E+03  0.16490310935E+04  0.17022272694E+04  0.00000000000E+00 0.  1.
         22    1    1    2    0    0  0.14360714712E+03  0.67002526651E+03  0.53859369863E+03  0.87157331457E+03  0.00000000000E+00 0.  1.
<mgrwt>
<rscale>  0 0.17092592E+04</rscale>
<asrwt>0</asrwt>
<pdfrwt beam="1">  1        2 0.53648586E+00 0.17092592E+04</pdfrwt>
<pdfrwt beam="2">  1       -2 0.32223363E-01 0.17092592E+04</pdfrwt>
<totfact> 0.71439068E+00</totfact>
</mgrwt>
</event>
<event>
 6    1  0.1637818E-005  0.1037566E+04  0.7818608E-02  0.9268276E-01
         -2   -1    0    0    0  501 -0.00000000000E+00  0.00000000000E+00  0.22592937373E+03  0.22592937373E+03  0.00000000000E+00 0.  1.
          2   -1    0    0  501    0  0.00000000000E+00 -0.00000000000E+00 -0.11912384531E+04  0.11912384531E+04  0.00000000000E+00 0. -1.
         23    2    1    2    0    0 -0.26927869024E+03  0.41255895293E+02  0.11051771530E+03  0.30738570674E+03  0.89770515192E+02 0.  0.
         11    1    3    3    0    0 -0.12987320043E+03  0.16812813741E+02  0.53654400104E+01  0.13106680298E+03  0.00000000000E+00 0. -1.
        -11    1    3    3    0    0 -0.13940548981E+03  0.24443081552E+02  0.10515227529E+03  0.17631890376E+03  0.00000000000E+00 0.  1.
         22    1    1    2    0    0  0.26927869024E+03 -0.41255895293E+02 -0.10758267947E+04  0.11097821201E+04  0.00000000000E+00 0. -1.
<mgrwt>
<rscale>  0 0.10375659E+04</rscale>
<asrwt>0</asrwt>
<pdfrwt beam="1">  1        2 0.18326745E+00 0.10375659E+04</pdfrwt>
<pdfrwt beam="2">  1       -2 0.34758365E-01 0.10375659E+04</pdfrwt>
<totfact> 0.14811567E+02</totfact>
</mgrwt>
</event>
<event>
 6    1  0.1637818E-005  0.4449138E+04  0.7818608E-02  0.7919602E-01
          1   -1    0    0  501    0  0.00000000000E+00  0.00000000000E+00  0.22991480321E+04  0.22991480321E+04  0.00000000000E+00 0. -1.
         -1   -1    0    0    0  501 -0.00000000000E+00 -0.00000000000E+00 -0.21524092440E+04  0.21524092440E+04  0.00000000000E+00 0.  1.
         23    2    1    2    0    0 -0.21744820133E+04 -0.39984826874E+02  0.53687973143E+03  0.22419915340E+04  0.91188704930E+02 0.  0.
         11    1    3    3    0    0 -0.88213002541E+03 -0.23271960850E+02  0.26346358491E+03  0.92092780741E+03  0.00000000000E+00 0. -1.
        -11    1    3    3    0    0 -0.12923519879E+04 -0.16712866024E+02  0.27341614652E+03  0.13210637266E+04  0.00000000000E+00 0.  1.
         22    1    1    2    0    0  0.21744820133E+04  0.39984826874E+02 -0.39014094331E+03  0.22095657420E+04  0.00000000000E+00 0.  1.
<mgrwt>
<rscale>  0 0.44491381E+04</rscale>
<asrwt>0</asrwt>
<pdfrwt beam="1">  1        1 0.35371508E+00 0.44491381E+04</pdfrwt>
<pdfrwt beam="2">  1       -1 0.33113988E+00 0.44491381E+04</pdfrwt>
<totfact> 0.29097010E-02</totfact>
</mgrwt>
</event>
<event>
 6    1  0.1637818E-005  0.1544024E+04  0.7818608E-02  0.8855694E-01
          2   -1    0    0  501    0  0.00000000000E+00  0.00000000000E+00  0.11336048397E+04  0.11336048397E+04  0.00000000000E+00 0. -1.
         -2   -1    0    0    0  501 -0.00000000000E+00 -0.00000000000E+00 -0.52575842054E+03  0.52575842054E+03  0.00000000000E+00 0.  1.
         23    2    1    2    0    0  0.50617654612E+03 -0.35810145213E+03 -0.18511591911E+03  0.65276472269E+03  0.85921672593E+02 0.  0.
         13    1    3    3    0    0  0.31747477530E+03 -0.17309289744E+03 -0.10104933624E+03  0.37544953383E+03  0.00000000000E+00 0.  1.
        -13    1    3    3    0    0  0.18870177082E+03 -0.18500855469E+03 -0.84066582867E+02  0.27731518887E+03  0.00000000000E+00 0. -1.
         22    1    1    2    0    0 -0.50617654612E+03  0.35810145213E+03  0.79296233826E+03  0.10065985375E+04  0.00000000000E+00 0. -1.
<mgrwt>
<rscale>  0 0.15440237E+04</rscale>
<asrwt>0</asrwt>
<pdfrwt beam="1">  1        2 0.17440074E+00 0.15440237E+04</pdfrwt>
<pdfrwt beam="2">  1       -2 0.80885911E-01 0.15440237E+04</pdfrwt>
<totfact> 0.26981189E+01</totfact>
</mgrwt>
</event>
<event>
 6    1  0.1637818E-005  0.1948221E+04  0.7818608E-02  0.8631219E-01
         -1   -1    0    0    0  501 -0.00000000000E+00  0.00000000000E+00  0.87288982634E+03  0.87288982634E+03  0.00000000000E+00 0.  1.
          1   -1    0    0  501    0  0.00000000000E+00 -0.00000000000E+00 -0.10870690824E+04  0.10870690824E+04  0.00000000000E+00 0. -1.
         23    2    1    2    0    0 -0.84304032945E+03  0.11923005894E+03 -0.57890547380E+03  0.10336986765E+04  0.92025008311E+02 0.  0.
         11    1    3    3    0    0 -0.16472793628E+03  0.60681455141E+02 -0.12007348822E+03  0.21268562378E+03  0.00000000000E+00 0. -1.
        -11    1    3    3    0    0 -0.67831239318E+03  0.58548603796E+02 -0.45883198558E+03  0.82101305272E+03  0.00000000000E+00 0.  1.
         22    1    1    2    0    0  0.84304032945E+03 -0.11923005894E+03  0.36472621770E+03  0.92626023229E+03  0.00000000000E+00 0.  1.
<mgrwt>
<rscale>  0 0.19482213E+04</rscale>
<asrwt>0</asrwt>
<pdfrwt beam="1">  1        1 0.16724140E+00 0.19482213E+04</pdfrwt>
<pdfrwt beam="2">  1       -1 0.13429074E+00 0.19482213E+04</pdfrwt>
<totfact> 0.56420857E+00</totfact>
</mgrwt>
</event>
<event>
 6    1  0.1637818E-005  0.1377794E+04  0.7818608E-02  0.8970051E-01
         -1   -1    0    0    0  501 -0.00000000000E+00  0.00000000000E+00  0.96842959975E+03  0.96842959975E+03  0.00000000000E+00 0.  1.
          1   -1    0    0  501    0  0.00000000000E+00 -0.00000000000E+00 -0.49005030135E+03  0.49005030135E+03  0.00000000000E+00 0. -1.
         23    2    1    2    0    0 -0.10166874326E+02  0.53665239234E+03 -0.21195176028E+03  0.58403371859E+03  0.89848095296E+02 0.  0.
         11    1    3    3    0    0  0.48844156033E+01  0.24449792561E+03 -0.49827460676E+02  0.24957137051E+03  0.00000000000E+00 0.  1.
        -11    1    3    3    0    0 -0.15051289930E+02  0.29215446673E+03 -0.16212429960E+03  0.33446234808E+03  0.00000000000E+00 0. -1.
         22    1    1    2    0    0  0.10166874326E+02 -0.53665239234E+03  0.69033105868E+03  0.87444618252E+03  0.00000000000E+00 0.  1.
<mgrwt>
<rscale>  0 0.13777942E+04</rscale>
<asrwt>0</asrwt>
<pdfrwt beam="1">  1        1 0.75392354E-01 0.13777942E+04</pdfrwt>
<pdfrwt beam="2">  1       -1 0.14898917E+00 0.13777942E+04</pdfrwt>
<totfact> 0.15816515E+01</totfact>
</mgrwt>
</event>
<event>
 6    1  0.1637818E-005  0.4399610E+04  0.7818608E-02  0.7928452E-01
         -2   -1    0    0    0  501 -0.00000000000E+00  0.00000000000E+00  0.24700604357E+04  0.24700604357E+04  0.00000000000E+00 0.  1.
          2   -1    0    0  501    0  0.00000000000E+00 -0.00000000000E+00 -0.19591193132E+04  0.19591193132E+04  0.00000000000E+00 0. -1.
         23    2    1    2    0    0  0.11242081492E+04  0.71679075011E+03  0.20158416093E+04  0.24186180321E+04  0.91993745677E+02 0.  0.
         13    1    3    3    0    0  0.25700189630E+03  0.20898100109E+03  0.52044051546E+03  0.61691276827E+03  0.00000000000E+00 0.  1.
        -13    1    3    3    0    0  0.86720625288E+03  0.50780974902E+03  0.14954010939E+04  0.18017052638E+04  0.00000000000E+00 0. -1.
         22    1    1    2    0    0 -0.11242081492E+04 -0.71679075011E+03 -0.15049004868E+04  0.20105617168E+04  0.00000000000E+00 0. -1.
<mgrwt>
<rscale>  0 0.43996105E+04</rscale>
<asrwt>0</asrwt>
<pdfrwt beam="1">  1        2 0.30140297E+00 0.43996105E+04</pdfrwt>
<pdfrwt beam="2">  1       -2 0.38000930E+00 0.43996105E+04</pdfrwt>
<totfact> 0.53832808E-02</totfact>
</mgrwt>
</event>
<event>
 6    1  0.1637818E-005  0.3362721E+04  0.7818608E-02  0.8147117E-01
         -1   -1    0    0    0  501 -0.00000000000E+00  0.00000000000E+00  0.11084432638E+04  0.11084432638E+04  0.00000000000E+00 0.  1.
          1   -1    0    0  501    0  0.00000000000E+00 -0.00000000000E+00 -0.25503995824E+04  0.25503995824E+04  0.00000000000E+00 0. -1.
         23    2    1    2    0    0  0.31319895254E+03 -0.42799007399E+02 -0.25167193270E+04  0.25385567832E+04  0.10231828485E+03 0.  0.
         13    1    3    3    0    0  0.92509798132E+02 -0.39590363407E+02 -0.11193994065E+04  0.11239130264E+04  0.00000000000E+00 0. -1.
        -13    1    3    3    0    0  0.22068915441E+03 -0.32086439922E+01 -0.13973199205E+04  0.14146437568E+04  0.00000000000E+00 0.  1.
         22    1    1    2    0    0 -0.31319895254E+03  0.42799007399E+02  0.10747630084E+04  0.11202860630E+04  0.00000000000E+00 0.  1.
<mgrwt>
<rscale>  0 0.33627211E+04</rscale>
<asrwt>0</asrwt>
<pdfrwt beam="1">  1        1 0.39236916E+00 0.33627211E+04</pdfrwt>
<pdfrwt beam="2">  1       -1 0.17052973E+00 0.33627211E+04</pdfrwt>
<totfact> 0.25142951E-01</totfact>
</mgrwt>
</event>
<event>
 6    1  0.1637818E-005  0.1309600E+04  0.7818608E-02  0.9021986E-01
         -2   -1    0    0    0  501 -0.00000000000E+00  0.00000000000E+00  0.21521209833E+03  0.21521209833E+03  0.00000000000E+00 0.  1.
          2   -1    0    0  501    0  0.00000000000E+00 -0.00000000000E+00 -0.19922826616E+04  0.19922826616E+04  0.00000000000E+00 0. -1.
         23    2    1    2    0    0 -0.53954603212E+03 -0.11755372984E+03 -0.30973107622E+03  0.63968929673E+03  0.91325005325E+02 0.  0.
         11    1    3    3    0    0 -0.37858131835E+03 -0.10210237656E+03 -0.26012774790E+03  0.47054771823E+03  0.00000000000E+00 0. -1.
        -11    1    3    3    0    0 -0.16096471377E+03 -0.15451353276E+02 -0.49603328320E+02  0.16914157850E+03  0.00000000000E+00 0.  1.
         22    1    1    2    0    0  0.53954603212E+03  0.11755372984E+03 -0.14673394871E+04  0.15678054632E+04  0.00000000000E+00 0.  1.
<mgrwt>
<rscale>  0 0.13096004E+04</rscale>
<asrwt>0</asrwt>
<pdfrwt beam="1">  1        2 0.30650501E+00 0.13096004E+04</pdfrwt>
<pdfrwt beam="2">  1       -2 0.33109555E-01 0.13096004E+04</pdfrwt>
<totfact> 0.56335759E+01</totfact>
</mgrwt>
</event>
<event>
 6    1  0.1637818E-005  0.3291038E+04  0.7818608E-02  0.8165180E-01
          2   -1    0    0  501    0  0.00000000000E+00  0.00000000000E+00  0.21808285853E+04  0.21808285853E+04  0.00000000000E+00 0. -1.
         -2   -1    0    0    0  501 -0.00000000000E+00 -0.00000000000E+00 -0.12416072094E+04  0.12416072094E+04  0.00000000000E+00 0.  1.
         23    2    1    2    0    0 -0.68842271312E+02  0.12419848614E+04  0.15882351106E+04  0.20194088947E+04  0.90861779065E+02 0.  0.
         11    1    3    3    0    0 -0.31964672423E+02  0.71869544677E+03  0.84630962622E+03  0.11107586907E+04  0.00000000000E+00 0.  1.
        -11    1    3    3    0    0 -0.36877598890E+02  0.52328941467E+03  0.74192548439E+03  0.90865020398E+03  0.00000000000E+00 0. -1.
         22    1    1    2    0    0  0.68842271312E+02 -0.12419848614E+04 -0.64901373467E+03  0.14030269000E+04  0.00000000000E+00 0.  1.
<mgrwt>
<rscale>  0 0.32910378E+04</rscale>
<asrwt>0</asrwt>
<pdfrwt beam="1">  1        2 0.33551209E+00 0.32910378E+04</pdfrwt>
<pdfrwt beam="2">  1       -2 0.19101649E+00 0.32910378E+04</pdfrwt>
<totfact> 0.67513750E-01</totfact>
</mgrwt>
</event>
<event>
 6    1  0.1637818E-005  0.3081048E+04  0.7818608E-02  0.8220958E-01
          2   -1    0    0  501    0  0.00000000000E+00  0.00000000000E+00  0.38039639511E+04  0.38039639511E+04  0.00000000000E+00 0. -1.
         -2   -1    0    0    0  501 -0.00000000000E+00 -0.00000000000E+00 -0.62387918956E+03  0.62387918956E+03  0.00000000000E+00 0.  1.
         23    2    1    2    0    0  0.10426247042E+04 -0.11319538407E+04  0.15729411589E+04  0.22026922849E+04  0.96559003831E+02 0.  0.
         13    1    3    3    0    0  0.45963728073E+03 -0.51767084820E+03  0.64155664172E+03  0.94384557076E+03  0.00000000000E+00 0.  1.
        -13    1    3    3    0    0  0.58298742348E+03 -0.61428299253E+03  0.93138451723E+03  0.12588467142E+04  0.00000000000E+00 0. -1.
         22    1    1    2    0    0 -0.10426247042E+04  0.11319538407E+04  0.16071436026E+04  0.22251508557E+04  0.00000000000E+00 0.  1.
<mgrwt>
<rscale>  0 0.30810478E+04</rscale>
<asrwt>0</asrwt>
<pdfrwt beam="1">  1        2 0.58522521E+00 0.30810478E+04</pdfrwt>
<pdfrwt beam="2">  1       -2 0.95981416E-01 0.30810478E+04</pdfrwt>
<totfact> 0.37693396E-01</totfact>
</mgrwt>
</event>
<event>
 6    1  0.1637818E-005  0.2166602E+04  0.7818608E-02  0.8532459E-01
         -2   -1    0    0    0  501 -0.00000000000E+00  0.00000000000E+00  0.13539007630E+04  0.13539007630E+04  0.00000000000E+00 0.  1.
          2   -1    0    0  501    0  0.00000000000E+00 -0.00000000000E+00 -0.86678489147E+03  0.86678489147E+03  0.00000000000E+00 0. -1.
         23    2    1    2    0    0  0.32062236316E+03  0.42529638335E+02 -0.81289373273E+03  0.88104673256E+03  0.10411366074E+03 0.  0.
         11    1    3    3    0    0  0.16242775925E+03 -0.30705951896E+02 -0.38275033734E+03  0.41692139930E+03  0.00000000000E+00 0. -1.
        -11    1    3    3    0    0  0.15819460391E+03  0.73235590231E+02 -0.43014339539E+03  0.46412533326E+03  0.00000000000E+00 0.  1.
         22    1    1    2    0    0 -0.32062236316E+03 -0.42529638335E+02  0.13000096042E+04  0.13396389219E+04  0.00000000000E+00 0.  1.
<mgrwt>
<rscale>  0 0.21666017E+04</rscale>
<asrwt>0</asrwt>
<pdfrwt beam="1">  1        2 0.13335152E+00 0.21666017E+04</pdfrwt>
<pdfrwt beam="2">  1       -2 0.20829243E+00 0.21666017E+04</pdfrwt>
<totfact> 0.33247389E+00</totfact>
</mgrwt>
</event>
<event>
 6    1  0.1637818E-005  0.5010100E+04  0.7818608E-02  0.7826951E-01
          2   -1    0    0  501    0  0.00000000000E+00  0.00000000000E+00  0.45524119732E+04  0.45524119732E+04  0.00000000000E+00 0. -1.
         -2   -1    0    0    0  501 -0.00000000000E+00 -0.00000000000E+00 -0.13784506283E+04  0.13784506283E+04  0.00000000000E+00 0.  1.
         23    2    1    2    0    0  0.81876501339E+02  0.10385562887E+04 -0.11082320942E+04  0.15237679149E+04  0.91582518937E+02 0.  0.
         13    1    3    3    0    0  0.51114151202E+02  0.37815725567E+03 -0.35009716868E+03  0.51786445522E+03  0.00000000000E+00 0. -1.
        -13    1    3    3    0    0  0.30762350137E+02  0.66039903305E+03 -0.75813492549E+03  0.10059034597E+04  0.00000000000E+00 0.  1.
         22    1    1    2    0    0 -0.81876501339E+02 -0.10385562887E+04  0.42821934391E+04  0.44070946865E+04  0.00000000000E+00 0. -1.
<mgrwt>
<rscale>  0 0.50100999E+04</rscale>
<asrwt>0</asrwt>
<pdfrwt beam="1">  1        2 0.70037107E+00 0.50100999E+04</pdfrwt>
<pdfrwt beam="2">  1       -2 0.21206933E+00 0.50100999E+04</pdfrwt>
<totfact> 0.87299963E-03</totfact>
</mgrwt>
</event>
<event>
 6    1  0.1637818E-005  0.6061779E+04  0.7818608E-02  0.7682789E-01
          1   -1    0    0  501    0  0.00000000000E+00  0.00000000000E+00  0.30294213843E+04  0.30294213843E+04  0.00000000000E+00 0. -1.
         -1   -1    0    0    0  501 -0.00000000000E+00 -0.00000000000E+00 -0.30323583714E+04  0.30323583714E+04  0.00000000000E+00 0.  1.
         23    2    1    2    0    0 -0.38185041773E+03  0.31633391444E+03 -0.29908530976E+04  0.30329978932E+04  0.89426404090E+02 0.  0.
         11    1    3    3    0    0 -0.17589042441E+03  0.19725473835E+03 -0.16965576225E+04  0.17170191146E+04  0.00000000000E+00 0.  1.
        -11    1    3    3    0    0 -0.20595999333E+03  0.11907917610E+03 -0.12942954750E+04  0.13159787786E+04  0.00000000000E+00 0. -1.
         22    1    1    2    0    0  0.38185041773E+03 -0.31633391444E+03  0.29879161105E+04  0.30287818625E+04  0.00000000000E+00 0. -1.
<mgrwt>
<rscale>  0 0.60617790E+04</rscale>
<asrwt>0</asrwt>
<pdfrwt beam="1">  1        1 0.46606483E+00 0.60617790E+04</pdfrwt>
<pdfrwt beam="2">  1       -1 0.46651667E+00 0.60617790E+04</pdfrwt>
<totfact> 0.94813614E-04</totfact>
</mgrwt>
</event>
<event>
 6    1  0.1637818E-005  0.1846614E+04  0.7818608E-02  0.8681896E-01
          2   -1    0    0  501    0  0.00000000000E+00  0.00000000000E+00  0.14600530381E+04  0.14600530381E+04  0.00000000000E+00 0.  1.
         -2   -1    0    0    0  501 -0.00000000000E+00 -0.00000000000E+00 -0.58388031571E+03  0.58388031571E+03  0.00000000000E+00 0. -1.
         23    2    1    2    0    0 -0.88035905333E+03  0.15097400504E+03  0.19060132578E+03  0.91795229145E+03  0.92099571188E+02 0.  0.
         11    1    3    3    0    0 -0.26561867131E+03  0.82750126089E+01  0.35702367836E+02  0.26813506569E+03  0.00000000000E+00 0.  1.
        -11    1    3    3    0    0 -0.61474038201E+03  0.14269899243E+03  0.15489895794E+03  0.64981722576E+03  0.00000000000E+00 0. -1.
         22    1    1    2    0    0  0.88035905333E+03 -0.15097400504E+03  0.68557139663E+03  0.11259810624E+04  0.00000000000E+00 0.  1.
<mgrwt>
<rscale>  0 0.18466144E+04</rscale>
<asrwt>0</asrwt>
<pdfrwt beam="1">  1        2 0.22462354E+00 0.18466144E+04</pdfrwt>
<pdfrwt beam="2">  1       -2 0.89827741E-01 0.18466144E+04</pdfrwt>
<totfact> 0.13352408E+01</totfact>
</mgrwt>
</event>
<event>
 6    1  0.1637818E-005  0.2096736E+04  0.7818608E-02  0.8562683E-01
          2   -1    0    0  501    0  0.00000000000E+00  0.00000000000E+00  0.29618488407E+04  0.29618488407E+04  0.00000000000E+00 0. -1.
         -2   -1    0    0    0  501 -0.00000000000E+00 -0.00000000000E+00 -0.37107745142E+03  0.37107745142E+03  0.00000000000E+00 0.  1.
         23    2    1    2    0    0 -0.27788150368E+03 -0.33692712560E+03  0.28093528487E+04  0.28445454239E+04  0.90759142419E+02 0.  0.
         11    1    3    3    0    0 -0.48848338248E+02 -0.94704533355E+02  0.49769838540E+03  0.50897818383E+03  0.00000000000E+00 0. -1.
        -11    1    3    3    0    0 -0.22903316544E+03 -0.24222259224E+03  0.23116544633E+04  0.23355672400E+04  0.00000000000E+00 0.  1.
         22    1    1    2    0    0  0.27788150368E+03  0.33692712560E+03 -0.21858145943E+03  0.48838086824E+03  0.00000000000E+00 0.  1.
<mgrwt>
<rscale>  0 0.20967359E+04</rscale>
<asrwt>0</asrwt>
<pdfrwt beam="1">  1        2 0.45566904E+00 0.20967359E+04</pdfrwt>
<pdfrwt beam="2">  1       -2 0.57088841E-01 0.20967359E+04</pdfrwt>
<totfact> 0.48845970E+00</totfact>
</mgrwt>
</event>
<event>
 6    1  0.1637818E-005  0.2336779E+04  0.7818608E-02  0.8463559E-01
          1   -1    0    0  501    0  0.00000000000E+00  0.00000000000E+00  0.14918971075E+04  0.14918971075E+04  0.00000000000E+00 0. -1.
         -1   -1    0    0    0  501 -0.00000000000E+00 -0.00000000000E+00 -0.91503207488E+03  0.91503207488E+03  0.00000000000E+00 0.  1.
         23    2    1    2    0    0 -0.41748852876E+03 -0.10868559149E+04  0.20090142712E+03  0.11834500922E+04  0.68119644287E+02 0.  0.
         11    1    3    3    0    0 -0.14616698880E+03 -0.30084812418E+03  0.69335032603E+02  0.34158707409E+03  0.00000000000E+00 0. -1.
        -11    1    3    3    0    0 -0.27132153996E+03 -0.78600779074E+03  0.13156639452E+03  0.84186301814E+03  0.00000000000E+00 0.  1.
         22    1    1    2    0    0  0.41748852876E+03  0.10868559149E+04  0.37596360553E+03  0.12234790902E+04  0.00000000000E+00 0. -1.
<mgrwt>
<rscale>  0 0.23367787E+04</rscale>
<asrwt>0</asrwt>
<pdfrwt beam="1">  1        1 0.22952263E+00 0.23367787E+04</pdfrwt>
<pdfrwt beam="2">  1       -1 0.14077417E+00 0.23367787E+04</pdfrwt>
<totfact> 0.24669669E+00</totfact>
</mgrwt>
</event>
<event>
 6    1  0.1637818E-005  0.2279184E+04  0.7818608E-02  0.8486174E-01
          2   -1    0    0  501    0  0.00000000000E+00  0.00000000000E+00  0.29506581404E+04  0.29506581404E+04  0.00000000000E+00 0. -1.
         -2   -1    0    0    0  501 -0.00000000000E+00 -0.00000000000E+00 -0.44012908083E+03  0.44012908083E+03  0.00000000000E+00 0.  1.
         23    2    1    2    0    0  0.56914497982E+03  0.98486395135E+03  0.12269311444E+04  0.16757051187E+04  0.93512570603E+02 0.  0.
         13    1    3    3    0    0  0.41517162934E+03  0.79121341067E+03  0.97890582309E+03  0.13253840023E+04  0.00000000000E+00 0.  1.
        -13    1    3    3    0    0  0.15397335048E+03  0.19365054068E+03  0.24802532132E+03  0.35032111638E+03  0.00000000000E+00 0. -1.
         22    1    1    2    0    0 -0.56914497982E+03 -0.98486395135E+03  0.12835979151E+04  0.17150821025E+04  0.00000000000E+00 0. -1.
<mgrwt>
<rscale>  0 0.22791845E+04</rscale>
<asrwt>0</asrwt>
<pdfrwt beam="1">  1        2 0.45394740E+00 0.22791845E+04</pdfrwt>
<pdfrwt beam="2">  1       -2 0.67712168E-01 0.22791845E+04</pdfrwt>
<totfact> 0.33950098E+00</totfact>
</mgrwt>
</event>
<event>
 6    1  0.1637818E-005  0.2905134E+04  0.7818608E-02  0.8271351E-01
          2   -1    0    0  501    0  0.00000000000E+00  0.00000000000E+00  0.17002967850E+04  0.17002967850E+04  0.00000000000E+00 0.  1.
         -2   -1    0    0    0  501 -0.00000000000E+00 -0.00000000000E+00 -0.12409312877E+04  0.12409312877E+04  0.00000000000E+00 0. -1.
         23    2    1    2    0    0 -0.12001480016E+04 -0.77472543036E+03  0.48842538860E+03  0.15124526546E+04  0.91645806401E+02 0.  0.
         13    1    3    3    0    0 -0.21364111289E+03 -0.11783279209E+03  0.11569407115E+03  0.27002261036E+03  0.00000000000E+00 0.  1.
        -13    1    3    3    0    0 -0.98650688872E+03 -0.65689263827E+03  0.37273131745E+03  0.12424300442E+04  0.00000000000E+00 0. -1.
         22    1    1    2    0    0  0.12001480016E+04  0.77472543036E+03 -0.29059891207E+02  0.14287754181E+04  0.00000000000E+00 0. -1.
<mgrwt>
<rscale>  0 0.29051344E+04</rscale>
<asrwt>0</asrwt>
<pdfrwt beam="1">  1        2 0.26158412E+00 0.29051344E+04</pdfrwt>
<pdfrwt beam="2">  1       -2 0.19091251E+00 0.29051344E+04</pdfrwt>
<totfact> 0.12926957E+00</totfact>
</mgrwt>
</event>
<event>
 6    1  0.1637818E-005  0.1050101E+04  0.7818608E-02  0.9255239E-01
          1   -1    0    0  501    0  0.00000000000E+00  0.00000000000E+00  0.27088596535E+03  0.27088596535E+03  0.00000000000E+00 0. -1.
         -1   -1    0    0    0  501 -0.00000000000E+00 -0.00000000000E+00 -0.10176912628E+04  0.10176912628E+04  0.00000000000E+00 0.  1.
         23    2    1    2    0    0 -0.63065992739E+01 -0.51429182834E+03 -0.27316398911E+03  0.58938344466E+03  0.90655512819E+02 0.  0.
         13    1    3    3    0    0  0.19816192824E+02 -0.35210703369E+03 -0.22447688394E+03  0.41804535172E+03  0.00000000000E+00 0. -1.
        -13    1    3    3    0    0 -0.26122792098E+02 -0.16218479465E+03 -0.48687105165E+02  0.17133809294E+03  0.00000000000E+00 0.  1.
         22    1    1    2    0    0  0.63065992739E+01  0.51429182834E+03 -0.47364130833E+03  0.69919378347E+03  0.00000000000E+00 0.  1.
<mgrwt>
<rscale>  0 0.10501015E+04</rscale>
<asrwt>0</asrwt>
<pdfrwt beam="1">  1        1 0.41674765E-01 0.10501015E+04</pdfrwt>
<pdfrwt beam="2">  1       -1 0.15656788E+00 0.10501015E+04</pdfrwt>
<totfact> 0.31086504E+01</totfact>
</mgrwt>
</event>
<event>
 6    1  0.1637818E-005  0.1138416E+04  0.7818608E-02  0.9168537E-01
         -2   -1    0    0    0  501 -0.00000000000E+00  0.00000000000E+00  0.91823306185E+02  0.91823306185E+02  0.00000000000E+00 0.  1.
          2   -1    0    0  501    0  0.00000000000E+00 -0.00000000000E+00 -0.35284900438E+04  0.35284900438E+04  0.00000000000E+00 0. -1.
         23    2    1    2    0    0  0.37844810535E+03 -0.31682446881E+03 -0.26085335260E+04  0.26562566459E+04  0.87472854085E+02 0.  0.
         13    1    3    3    0    0  0.21114684766E+03 -0.23182286095E+03 -0.16450143522E+04  0.16746334074E+04  0.00000000000E+00 0.  1.
        -13    1    3    3    0    0  0.16730125769E+03 -0.85001607858E+02 -0.96351917377E+03  0.98162323851E+03  0.00000000000E+00 0. -1.
         22    1    1    2    0    0 -0.37844810535E+03  0.31682446881E+03 -0.82813321155E+03  0.96405670401E+03  0.00000000000E+00 0.  1.
<mgrwt>
<rscale>  0 0.11384158E+04</rscale>
<asrwt>0</asrwt>
<pdfrwt beam="1">  1        2 0.54284468E+00 0.11384158E+04</pdfrwt>
<pdfrwt beam="2">  1       -2 0.14126661E-01 0.11384158E+04</pdfrwt>
<totfact> 0.30797814E+01</totfact>
</mgrwt>
</event>
<event>
 6    1  0.1637818E-005  0.1067411E+04  0.7818608E-02  0.9237551E-01
         -2   -1    0    0    0  501 -0.00000000000E+00  0.00000000000E+00  0.19041478141E+03  0.19041478141E+03  0.00000000000E+00 0. -1.
          2   -1    0    0  501    0  0.00000000000E+00 -0.00000000000E+00 -0.14958992239E+04  0.14958992239E+04  0.00000000000E+00 0.  1.
         23    2    1    2    0    0  0.39389425583E+03  0.34951280405E+03 -0.75102688735E+03  0.92163429105E+03  0.89757985336E+02 0.  0.
         13    1    3    3    0    0  0.29209220749E+03  0.28855536917E+03 -0.63126029965E+03  0.75304158230E+03  0.00000000000E+00 0.  1.
        -13    1    3    3    0    0  0.10180204833E+03  0.60957434886E+02 -0.11976658770E+03  0.16859270875E+03  0.00000000000E+00 0. -1.
         22    1    1    2    0    0 -0.39389425583E+03 -0.34951280405E+03 -0.55445755518E+03  0.76467971431E+03  0.00000000000E+00 0. -1.
<mgrwt>
<rscale>  0 0.10674106E+04</rscale>
<asrwt>0</asrwt>
<pdfrwt beam="1">  1        2 0.23013835E+00 0.10674106E+04</pdfrwt>
<pdfrwt beam="2">  1       -2 0.29294581E-01 0.10674106E+04</pdfrwt>
<totfact> 0.13596932E+02</totfact>
</mgrwt>
</event>
<event>
 6    1  0.1637818E-005  0.2468861E+04  0.7818608E-02  0.8414164E-01
         -1   -1    0    0    0  501 -0.00000000000E+00  0.00000000000E+00  0.38813144753E+03  0.38813144753E+03  0.00000000000E+00 0.  1.
          1   -1    0    0  501    0  0.00000000000E+00 -0.00000000000E+00 -0.39260364994E+04  0.39260364994E+04  0.00000000000E+00 0. -1.
         23    2    1    2    0    0  0.11107293754E+04  0.50244945879E+03 -0.14518429137E+04  0.18980076774E+04  0.91706561306E+02 0.  0.
         13    1    3    3    0    0  0.59902516392E+03  0.30753065002E+03 -0.75213640600E+03  0.10095124670E+04  0.00000000000E+00 0.  1.
        -13    1    3    3    0    0  0.51170421144E+03  0.19491880877E+03 -0.69970650768E+03  0.88849521041E+03  0.00000000000E+00 0. -1.
         22    1    1    2    0    0 -0.11107293754E+04 -0.50244945879E+03 -0.20860621382E+04  0.24161602696E+04  0.00000000000E+00 0.  1.
<mgrwt>
<rscale>  0 0.24688607E+04</rscale>
<asrwt>0</asrwt>
<pdfrwt beam="1">  1        1 0.60400560E+00 0.24688607E+04</pdfrwt>
<pdfrwt beam="2">  1       -1 0.59712532E-01 0.24688607E+04</pdfrwt>
<totfact> 0.28269668E-01</totfact>
</mgrwt>
</event>
<event>
 6    1  0.1637818E-005  0.2200922E+04  0.7818608E-02  0.8518044E-01
          1   -1    0    0  501    0  0.00000000000E+00  0.00000000000E+00  0.10381202464E+04  0.10381202464E+04  0.00000000000E+00 0. -1.
         -1   -1    0    0    0  501 -0.00000000000E+00 -0.00000000000E+00 -0.11665458932E+04  0.11665458932E+04  0.00000000000E+00 0.  1.
         23    2    1    2    0    0  0.86992086503E+03 -0.20417397327E+03 -0.70445834805E+03  0.11415278628E+04  0.91514887757E+02 0.  0.
         11    1    3    3    0    0  0.27969744597E+03 -0.10657872906E+03 -0.25605128158E+03  0.39389331750E+03  0.00000000000E+00 0.  1.
        -11    1    3    3    0    0  0.59022341906E+03 -0.97595244207E+02 -0.44840706647E+03  0.74763454532E+03  0.00000000000E+00 0. -1.
         22    1    1    2    0    0 -0.86992086503E+03  0.20417397327E+03  0.57603270122E+03  0.10631382768E+04  0.00000000000E+00 0. -1.
<mgrwt>
<rscale>  0 0.22009225E+04</rscale>
<asrwt>0</asrwt>
<pdfrwt beam="1">  1        1 0.15971081E+00 0.22009225E+04</pdfrwt>
<pdfrwt beam="2">  1       -1 0.17946860E+00 0.22009225E+04</pdfrwt>
<totfact> 0.27052427E+00</totfact>
</mgrwt>
</event>
<event>
 6    1  0.1637818E-005  0.3114777E+04  0.7818608E-02  0.8211694E-01
         -2   -1    0    0    0  501 -0.00000000000E+00  0.00000000000E+00  0.11204779658E+04  0.11204779658E+04  0.00000000000E+00 0.  1.
          2   -1    0    0  501    0  0.00000000000E+00 -0.00000000000E+00 -0.21646641530E+04  0.21646641530E+04  0.00000000000E+00 0. -1.
         23    2    1    2    0    0  0.75166357416E+03  0.73097599064E+03  0.69005547656E+03  0.12585888440E+04  0.92440737248E+02 0.  0.
         11    1    3    3    0    0  0.44253984769E+03  0.38523749489E+03  0.42419388399E+03  0.72400959626E+03  0.00000000000E+00 0. -1.
        -11    1    3    3    0    0  0.30912372647E+03  0.34573849575E+03  0.26586159256E+03  0.53457924774E+03  0.00000000000E+00 0.  1.
         22    1    1    2    0    0 -0.75166357416E+03 -0.73097599064E+03 -0.17342416637E+04  0.20265532748E+04  0.00000000000E+00 0. -1.
<mgrwt>
<rscale>  0 0.31147767E+04</rscale>
<asrwt>0</asrwt>
<pdfrwt beam="1">  1        2 0.33302526E+00 0.31147767E+04</pdfrwt>
<pdfrwt beam="2">  1       -2 0.17238122E+00 0.31147767E+04</pdfrwt>
<totfact> 0.93972278E-01</totfact>
</mgrwt>
</event>
<event>
 6    1  0.1637818E-005  0.2578401E+04  0.7818608E-02  0.8375575E-01
         -1   -1    0    0    0  501 -0.00000000000E+00  0.00000000000E+00  0.12660480275E+04  0.12660480275E+04  0.00000000000E+00 0.  1.
          1   -1    0    0  501    0  0.00000000000E+00 -0.00000000000E+00 -0.13127759646E+04  0.13127759646E+04  0.00000000000E+00 0. -1.
         23    2    1    2    0    0  0.69766460497E+03  0.78764677911E+03 -0.76563336718E+03  0.13044816648E+04  0.91403562423E+02 0.  0.
         11    1    3    3    0    0  0.48706119005E+03  0.48521889515E+03 -0.50787039797E+03  0.85475044322E+03  0.00000000000E+00 0.  1.
        -11    1    3    3    0    0  0.21060341492E+03  0.30242788397E+03 -0.25776296921E+03  0.44973122159E+03  0.00000000000E+00 0. -1.
         22    1    1    2    0    0 -0.69766460497E+03 -0.78764677911E+03  0.71890543008E+03  0.12743423273E+04  0.00000000000E+00 0.  1.
<mgrwt>
<rscale>  0 0.25784006E+04</rscale>
<asrwt>0</asrwt>
<pdfrwt beam="1">  1        1 0.20196553E+00 0.25784006E+04</pdfrwt>
<pdfrwt beam="2">  1       -1 0.19477662E+00 0.25784006E+04</pdfrwt>
<totfact> 0.12787330E+00</totfact>
</mgrwt>
</event>
<event>
 6    1  0.1637818E-005  0.1247787E+04  0.7818608E-02  0.9072028E-01
         -1   -1    0    0    0  501 -0.00000000000E+00  0.00000000000E+00  0.17743509270E+04  0.17743509270E+04  0.00000000000E+00 0.  1.
          1   -1    0    0  501    0  0.00000000000E+00 -0.00000000000E+00 -0.21937193561E+03  0.21937193561E+03  0.00000000000E+00 0. -1.
         23    2    1    2    0    0  0.86717580558E+02 -0.90912107222E+01  0.17632774894E+04  0.17679113190E+04  0.93596678505E+02 0.  0.
         13    1    3    3    0    0  0.10107563554E+03  0.26178865302E+01  0.11750292456E+04  0.11793713858E+04  0.00000000000E+00 0. -1.
        -13    1    3    3    0    0 -0.14358054980E+02 -0.11709097252E+02  0.58824824381E+03  0.58853993326E+03  0.00000000000E+00 0.  1.
         22    1    1    2    0    0 -0.86717580558E+02  0.90912107222E+01 -0.20829849810E+03  0.22581154355E+03  0.00000000000E+00 0. -1.
<mgrwt>
<rscale>  0 0.12477865E+04</rscale>
<asrwt>0</asrwt>
<pdfrwt beam="1">  1        1 0.33749530E-01 0.12477865E+04</pdfrwt>
<pdfrwt beam="2">  1       -1 0.27297706E+00 0.12477865E+04</pdfrwt>
<totfact> 0.64501730E+00</totfact>
</mgrwt>
</event>
<event>
 6    1  0.1637818E-005  0.3561766E+04  0.7818608E-02  0.8099306E-01
          1   -1    0    0  501    0  0.00000000000E+00  0.00000000000E+00  0.13864510506E+04  0.13864510506E+04  0.00000000000E+00 0. -1.
         -1   -1    0    0    0  501 -0.00000000000E+00 -0.00000000000E+00 -0.22875265193E+04  0.22875265193E+04  0.00000000000E+00 0.  1.
         23    2    1    2    0    0  0.15072226785E+04 -0.23217893840E+03  0.49561739365E+03  0.16060369968E+04  0.89949831926E+02 0.  0.
         11    1    3    3    0    0  0.10097277163E+04 -0.19750576051E+03  0.34182626706E+03  0.10841604048E+04  0.00000000000E+00 0.  1.
        -11    1    3    3    0    0  0.49749496218E+03 -0.34673177884E+02  0.15379112659E+03  0.52187659200E+03  0.00000000000E+00 0. -1.
         22    1    1    2    0    0 -0.15072226785E+04  0.23217893840E+03 -0.13966928623E+04  0.20679405731E+04  0.00000000000E+00 0.  1.
<mgrwt>
<rscale>  0 0.35617656E+04</rscale>
<asrwt>0</asrwt>
<pdfrwt beam="1">  1        1 0.21330016E+00 0.35617656E+04</pdfrwt>
<pdfrwt beam="2">  1       -1 0.35192715E+00 0.35617656E+04</pdfrwt>
<totfact> 0.96120912E-02</totfact>
</mgrwt>
</event>
<event>
 6    1  0.1637818E-005  0.2794756E+04  0.7818608E-02  0.8304898E-01
          1   -1    0    0  501    0  0.00000000000E+00  0.00000000000E+00  0.20430355568E+04  0.20430355568E+04  0.00000000000E+00 0.  1.
         -1   -1    0    0    0  501 -0.00000000000E+00 -0.00000000000E+00 -0.95576674133E+03  0.95576674133E+03  0.00000000000E+00 0. -1.
         23    2    1    2    0    0  0.10508743933E+04 -0.13297666578E+03  0.15199350760E+04  0.18545908329E+04  0.85350678503E+02 0.  0.
         11    1    3    3    0    0  0.39082677463E+03 -0.30715920967E+02  0.62736100966E+03  0.73977758280E+03  0.00000000000E+00 0. -1.
        -11    1    3    3    0    0  0.66004761866E+03 -0.10226074481E+03  0.89257406632E+03  0.11148132501E+04  0.00000000000E+00 0.  1.
         22    1    1    2    0    0 -0.10508743933E+04  0.13297666578E+03 -0.43266626050E+03  0.11442114652E+04  0.00000000000E+00 0. -1.
<mgrwt>
<rscale>  0 0.27947561E+04</rscale>
<asrwt>0</asrwt>
<pdfrwt beam="1">  1        1 0.31431316E+00 0.27947561E+04</pdfrwt>
<pdfrwt beam="2">  1       -1 0.14704104E+00 0.27947561E+04</pdfrwt>
<totfact> 0.88812189E-01</totfact>
</mgrwt>
</event>
<event>
 6    1  0.1637818E-005  0.4856318E+03  0.7818608E-02  0.1017599E+00
          3   -1    0    0  501    0  0.00000000000E+00  0.00000000000E+00  0.15312877710E+04  0.15312877710E+04  0.00000000000E+00 0. -1.
         -3   -1    0    0    0  501 -0.00000000000E+00 -0.00000000000E+00 -0.38503258320E+02  0.38503258320E+02  0.00000000000E+00 0.  1.
         23    2    1    2    0    0  0.58981692953E+02 -0.20174760634E+03  0.11072567301E+04  0.11306867047E+04  0.90851643055E+02 0.  0.
         11    1    3    3    0    0  0.69092788532E+02 -0.14497988141E+03  0.63812549416E+03  0.65802517105E+03  0.00000000000E+00 0.  1.
        -11    1    3    3    0    0 -0.10111095579E+02 -0.56767724929E+02  0.46913123594E+03  0.47266153364E+03  0.00000000000E+00 0. -1.
         22    1    1    2    0    0 -0.58981692953E+02  0.20174760634E+03  0.38552778259E+03  0.43910432464E+03  0.00000000000E+00 0.  1.
<mgrwt>
<rscale>  0 0.48563183E+03</rscale>
<asrwt>0</asrwt>
<pdfrwt beam="1">  1        3 0.23558269E+00 0.48563183E+03</pdfrwt>
<pdfrwt beam="2">  1       -3 0.59235794E-02 0.48563183E+03</pdfrwt>
<totfact> 0.44142017E+01</totfact>
</mgrwt>
</event>
<event>
 6    1  0.1637818E-005  0.2910116E+04  0.7818608E-02  0.8269874E-01
         -2   -1    0    0    0  501 -0.00000000000E+00  0.00000000000E+00  0.10060738852E+04  0.10060738852E+04  0.00000000000E+00 0.  1.
          2   -1    0    0  501    0  0.00000000000E+00 -0.00000000000E+00 -0.21044114377E+04  0.21044114377E+04  0.00000000000E+00 0. -1.
         23    2    1    2    0    0 -0.14255255435E+04 -0.28036942111E+03 -0.50123132110E+03  0.15397320198E+04  0.93871018857E+02 0.  0.
         13    1    3    3    0    0 -0.47660650411E+03 -0.10036130676E+03 -0.21473607585E+03  0.53229478105E+03  0.00000000000E+00 0. -1.
        -13    1    3    3    0    0 -0.94891903937E+03 -0.18000811434E+03 -0.28649524525E+03  0.10074372388E+04  0.00000000000E+00 0.  1.
         22    1    1    2    0    0  0.14255255435E+04  0.28036942111E+03 -0.59710623140E+03  0.15707533030E+04  0.00000000000E+00 0. -1.
<mgrwt>
<rscale>  0 0.29101157E+04</rscale>
<asrwt>0</asrwt>
<pdfrwt beam="1">  1        2 0.32375561E+00 0.29101157E+04</pdfrwt>
<pdfrwt beam="2">  1       -2 0.15478060E+00 0.29101157E+04</pdfrwt>
<totfact> 0.13884497E+00</totfact>
</mgrwt>
</event>
<event>
 6    1  0.1637818E-005  0.2361081E+04  0.7818608E-02  0.8454220E-01
         -1   -1    0    0    0  501 -0.00000000000E+00  0.00000000000E+00  0.12502685502E+04  0.12502685502E+04  0.00000000000E+00 0.  1.
          1   -1    0    0  501    0  0.00000000000E+00 -0.00000000000E+00 -0.11147010261E+04  0.11147010261E+04  0.00000000000E+00 0. -1.
         23    2    1    2    0    0 -0.48823856509E+03  0.10724662724E+04  0.33759492217E+02  0.11822076910E+04  0.88963585238E+02 0.  0.
         13    1    3    3    0    0 -0.13805620402E+03  0.28636933076E+03 -0.29755353744E+02  0.31929968704E+03  0.00000000000E+00 0.  1.
        -13    1    3    3    0    0 -0.35018236107E+03  0.78609694163E+03  0.63514845961E+02  0.86290800396E+03  0.00000000000E+00 0. -1.
         22    1    1    2    0    0  0.48823856509E+03 -0.10724662724E+04  0.10180803186E+03  0.11827618853E+04  0.00000000000E+00 0.  1.
<mgrwt>
<rscale>  0 0.23610808E+04</rscale>
<asrwt>0</asrwt>
<pdfrwt beam="1">  1        1 0.17149247E+00 0.23610808E+04</pdfrwt>
<pdfrwt beam="2">  1       -1 0.19234901E+00 0.23610808E+04</pdfrwt>
<totfact> 0.18906538E+00</totfact>
</mgrwt>
</event>
<event>
 6    1  0.1637818E-005  0.1777438E+04  0.7818608E-02  0.8718391E-01
          2   -1    0    0  501    0  0.00000000000E+00  0.00000000000E+00  0.53176792597E+03  0.53176792597E+03  0.00000000000E+00 0. -1.
         -2   -1    0    0    0  501 -0.00000000000E+00 -0.00000000000E+00 -0.14852742722E+04  0.14852742722E+04  0.00000000000E+00 0.  1.
         23    2    1    2    0    0  0.19654047841E+03  0.86432772063E+03 -0.47641500808E+03  0.10104108291E+04  0.90929727407E+02 0.  0.
         13    1    3    3    0    0  0.16595541127E+03  0.53194614030E+03 -0.30164052838E+03  0.63363625454E+03  0.00000000000E+00 0.  1.
        -13    1    3    3    0    0  0.30585067136E+02  0.33238158033E+03 -0.17477447971E+03  0.37677457455E+03  0.00000000000E+00 0. -1.
         22    1    1    2    0    0 -0.19654047841E+03 -0.86432772063E+03 -0.47709133818E+03  0.10066313691E+04  0.00000000000E+00 0. -1.
<mgrwt>
<rscale>  0 0.17774377E+04</rscale>
<asrwt>0</asrwt>
<pdfrwt beam="1">  1        2 0.81810451E-01 0.17774377E+04</pdfrwt>
<pdfrwt beam="2">  1       -2 0.22850373E+00 0.17774377E+04</pdfrwt>
<totfact> 0.47312153E+00</totfact>
</mgrwt>
</event>
<event>
 6    1  0.1637818E-005  0.2422389E+04  0.7818608E-02  0.8431169E-01
          1   -1    0    0  501    0  0.00000000000E+00  0.00000000000E+00  0.17742997075E+04  0.17742997075E+04  0.00000000000E+00 0. -1.
         -1   -1    0    0    0  501 -0.00000000000E+00 -0.00000000000E+00 -0.82680041617E+03  0.82680041617E+03  0.00000000000E+00 0.  1.
         23    2    1    2    0    0 -0.63130803676E+03 -0.54823095279E+03  0.14127922195E+04  0.16442278627E+04  0.91631840937E+02 0.  0.
         11    1    3    3    0    0 -0.40002640063E+03 -0.40310396015E+03  0.93781703935E+03  0.10963643205E+04  0.00000000000E+00 0. -1.
        -11    1    3    3    0    0 -0.23128163613E+03 -0.14512699264E+03  0.47497518012E+03  0.54786354226E+03  0.00000000000E+00 0.  1.
         22    1    1    2    0    0  0.63130803676E+03  0.54823095279E+03 -0.46529292811E+03  0.95687226097E+03  0.00000000000E+00 0.  1.
<mgrwt>
<rscale>  0 0.24223887E+04</rscale>
<asrwt>0</asrwt>
<pdfrwt beam="1">  1        1 0.27296918E+00 0.24223887E+04</pdfrwt>
<pdfrwt beam="2">  1       -1 0.12720006E+00 0.24223887E+04</pdfrwt>
<totfact> 0.20321347E+00</totfact>
</mgrwt>
</event>
<event>
 6    1  0.1637818E-005  0.2701099E+03  0.7818608E-02  0.1101217E+00
          1   -1    0    0  501    0  0.00000000000E+00  0.00000000000E+00  0.12092360842E+04  0.12092360842E+04  0.00000000000E+00 0. -1.
         -1   -1    0    0    0  501 -0.00000000000E+00 -0.00000000000E+00 -0.15083765728E+02  0.15083765728E+02  0.00000000000E+00 0.  1.
         23    2    1    2    0    0  0.99716803397E+02  0.67360345166E+02  0.71885773992E+03  0.73402831076E+03  0.86949719787E+02 0.  0.
         11    1    3    3    0    0 -0.26002353835E+00  0.27937931534E+02  0.31089545917E+03  0.31214833359E+03  0.00000000000E+00 0.  1.
        -11    1    3    3    0    0  0.99976826935E+02  0.39422413632E+02  0.40796228076E+03  0.42187997717E+03  0.00000000000E+00 0. -1.
         22    1    1    2    0    0 -0.99716803397E+02 -0.67360345166E+02  0.47529457853E+03  0.49029153914E+03  0.00000000000E+00 0.  1.
<mgrwt>
<rscale>  0 0.27010986E+03</rscale>
<asrwt>0</asrwt>
<pdfrwt beam="1">  1        1 0.18603624E+00 0.27010986E+03</pdfrwt>
<pdfrwt beam="2">  1       -1 0.23205803E-02 0.27010986E+03</pdfrwt>
<totfact> 0.62129497E+03</totfact>
</mgrwt>
</event>
<event>
 6    1  0.1637818E-005  0.6101169E+03  0.7818608E-02  0.9884636E-01
         -3   -1    0    0    0  501 -0.00000000000E+00  0.00000000000E+00  0.10949044376E+04  0.10949044376E+04  0.00000000000E+00 0.  1.
          3   -1    0    0  501    0  0.00000000000E+00 -0.00000000000E+00 -0.84994332360E+02  0.84994332360E+02  0.00000000000E+00 0. -1.
         23    2    1    2    0    0 -0.17370152905E+03  0.13396033088E+03  0.90678112280E+03  0.93750822051E+03  0.92477388703E+02 0.  0.
         11    1    3    3    0    0 -0.17656272676E+03  0.12000459913E+03  0.74166779513E+03  0.77178145782E+03  0.00000000000E+00 0.  1.
        -11    1    3    3    0    0  0.28611977056E+01  0.13955731749E+02  0.16511332766E+03  0.16572676269E+03  0.00000000000E+00 0. -1.
         22    1    1    2    0    0  0.17370152905E+03 -0.13396033088E+03  0.10312898245E+03  0.24239054946E+03  0.00000000000E+00 0. -1.
<mgrwt>
<rscale>  0 0.61011695E+03</rscale>
<asrwt>0</asrwt>
<pdfrwt beam="1">  1        3 0.13076052E-01 0.61011695E+03</pdfrwt>
<pdfrwt beam="2">  1       -3 0.16844683E+00 0.61011695E+03</pdfrwt>
<totfact> 0.30533681E+01</totfact>
</mgrwt>
</event>
<event>
 6    1  0.1637818E-005  0.2736269E+04  0.7818608E-02  0.8323332E-01
          2   -1    0    0  501    0  0.00000000000E+00  0.00000000000E+00  0.22058811804E+04  0.22058811804E+04  0.00000000000E+00 0. -1.
         -2   -1    0    0    0  501 -0.00000000000E+00 -0.00000000000E+00 -0.84854597984E+03  0.84854597984E+03  0.00000000000E+00 0.  1.
         23    2    1    2    0    0 -0.13531706487E+04  0.19042263678E+03  0.70218148127E+03  0.15389872964E+04  0.89952657707E+02 0.  0.
         11    1    3    3    0    0 -0.10932912134E+04  0.15562317537E+03  0.60632875616E+03  0.12598169750E+04  0.00000000000E+00 0. -1.
        -11    1    3    3    0    0 -0.25987943530E+03  0.34799461408E+02  0.95852725107E+02  0.27917032133E+03  0.00000000000E+00 0.  1.
         22    1    1    2    0    0  0.13531706487E+04 -0.19042263678E+03  0.65515371929E+03  0.15154398639E+04  0.00000000000E+00 0.  1.
<mgrwt>
<rscale>  0 0.27362687E+04</rscale>
<asrwt>0</asrwt>
<pdfrwt beam="1">  1        2 0.33936633E+00 0.27362687E+04</pdfrwt>
<pdfrwt beam="2">  1       -2 0.13054554E+00 0.27362687E+04</pdfrwt>
<totfact> 0.19260538E+00</totfact>
</mgrwt>
</event>
<event>
 6    1  0.1637818E-005  0.1790690E+04  0.7818608E-02  0.8711266E-01
          1   -1    0    0  501    0  0.00000000000E+00  0.00000000000E+00  0.85399130404E+03  0.85399130404E+03  0.00000000000E+00 0. -1.
         -1   -1    0    0    0  501 -0.00000000000E+00 -0.00000000000E+00 -0.93870147141E+03  0.93870147141E+03  0.00000000000E+00 0.  1.
         23    2    1    2    0    0 -0.20309606457E+03 -0.60271700226E+03 -0.66942294481E+03  0.92874553843E+03  0.99626301050E+02 0.  0.
         13    1    3    3    0    0 -0.10826260874E+03 -0.37026760043E+03 -0.47054617593E+03  0.60846741249E+03  0.00000000000E+00 0.  1.
        -13    1    3    3    0    0 -0.94833455831E+02 -0.23244940184E+03 -0.19887676887E+03  0.32027812594E+03  0.00000000000E+00 0. -1.
         22    1    1    2    0    0  0.20309606457E+03  0.60271700226E+03  0.58471277744E+03  0.86394723702E+03  0.00000000000E+00 0. -1.
<mgrwt>
<rscale>  0 0.17906903E+04</rscale>
<asrwt>0</asrwt>
<pdfrwt beam="1">  1        1 0.13138328E+00 0.17906903E+04</pdfrwt>
<pdfrwt beam="2">  1       -1 0.14441561E+00 0.17906903E+04</pdfrwt>
<totfact> 0.72487665E+00</totfact>
</mgrwt>
</event>
<event>
 6    1  0.1637818E-005  0.1954878E+04  0.7818608E-02  0.8628012E-01
          1   -1    0    0  501    0  0.00000000000E+00  0.00000000000E+00  0.11436872310E+04  0.11436872310E+04  0.00000000000E+00 0. -1.
         -1   -1    0    0    0  501 -0.00000000000E+00 -0.00000000000E+00 -0.83535702945E+03  0.83535702945E+03  0.00000000000E+00 0.  1.
         23    2    1    2    0    0 -0.34733123607E+02 -0.43734333679E+03 -0.72736702922E+03  0.85425790833E+03  0.90654258794E+02 0.  0.
         11    1    3    3    0    0 -0.41851420380E+02 -0.27646232631E+03 -0.53261259528E+03  0.60154728485E+03  0.00000000000E+00 0.  1.
        -11    1    3    3    0    0  0.71182967722E+01 -0.16088101047E+03 -0.19475443394E+03  0.25271062348E+03  0.00000000000E+00 0. -1.
         22    1    1    2    0    0  0.34733123607E+02  0.43734333679E+03  0.10356972307E+04  0.11247863521E+04  0.00000000000E+00 0. -1.
<mgrwt>
<rscale>  0 0.19548782E+04</rscale>
<asrwt>0</asrwt>
<pdfrwt beam="1">  1        1 0.17595188E+00 0.19548782E+04</pdfrwt>
<pdfrwt beam="2">  1       -1 0.12851647E+00 0.19548782E+04</pdfrwt>
<totfact> 0.57171865E+00</totfact>
</mgrwt>
</event>
<event>
 6    1  0.1637818E-005  0.6582242E+04  0.7818608E-02  0.7622124E-01
         -1   -1    0    0    0  501 -0.00000000000E+00  0.00000000000E+00  0.28506555781E+04  0.28506555781E+04  0.00000000000E+00 0.  1.
          1   -1    0    0  501    0  0.00000000000E+00 -0.00000000000E+00 -0.37996443929E+04  0.37996443929E+04  0.00000000000E+00 0. -1.
         23    2    1    2    0    0  0.28395347567E+04 -0.12780460852E+04  0.59990863155E+03  0.31724496681E+04  0.90482597164E+02 0.  0.
         11    1    3    3    0    0  0.18494122709E+04 -0.79132137188E+03  0.36534100606E+03  0.20445022162E+04  0.00000000000E+00 0.  1.
        -11    1    3    3    0    0  0.99012248573E+03 -0.48672471331E+03  0.23456762548E+03  0.11279474519E+04  0.00000000000E+00 0. -1.
         22    1    1    2    0    0 -0.28395347567E+04  0.12780460852E+04 -0.15488974463E+04  0.34778503029E+04  0.00000000000E+00 0. -1.
<mgrwt>
<rscale>  0 0.65822420E+04</rscale>
<asrwt>0</asrwt>
<pdfrwt beam="1">  1        1 0.58456067E+00 0.65822420E+04</pdfrwt>
<pdfrwt beam="2">  1       -1 0.43856240E+00 0.65822420E+04</pdfrwt>
<totfact> 0.35428018E-04</totfact>
</mgrwt>
</event>
<event>
 6    1  0.1637818E-005  0.1577103E+04  0.7818608E-02  0.8834739E-01
          1   -1    0    0  501    0  0.00000000000E+00  0.00000000000E+00  0.12134536773E+04  0.12134536773E+04  0.00000000000E+00 0. -1.
         -1   -1    0    0    0  501 -0.00000000000E+00 -0.00000000000E+00 -0.51243296971E+03  0.51243296971E+03  0.00000000000E+00 0.  1.
         23    2    1    2    0    0 -0.63264685949E+03 -0.44512712603E+03  0.50357846566E+03  0.92753606860E+03  0.91387528295E+02 0.  0.
         11    1    3    3    0    0 -0.22934721176E+03 -0.19208772872E+03  0.23858694849E+03  0.38265071679E+03  0.00000000000E+00 0. -1.
        -11    1    3    3    0    0 -0.40329964773E+03 -0.25303939731E+03  0.26499151717E+03  0.54488535181E+03  0.00000000000E+00 0.  1.
         22    1    1    2    0    0  0.63264685949E+03  0.44512712603E+03  0.19744224195E+03  0.79835057842E+03  0.00000000000E+00 0.  1.
<mgrwt>
<rscale>  0 0.15771033E+04</rscale>
<asrwt>0</asrwt>
<pdfrwt beam="1">  1        1 0.18668518E+00 0.15771033E+04</pdfrwt>
<pdfrwt beam="2">  1       -1 0.78835842E-01 0.15771033E+04</pdfrwt>
<totfact> 0.16162943E+01</totfact>
</mgrwt>
</event>
<event>
 6    1  0.1637818E-005  0.2174729E+04  0.7818608E-02  0.8529021E-01
          2   -1    0    0  501    0  0.00000000000E+00  0.00000000000E+00  0.16602549811E+04  0.16602549811E+04  0.00000000000E+00 0. -1.
         -2   -1    0    0    0  501 -0.00000000000E+00 -0.00000000000E+00 -0.71215671060E+03  0.71215671060E+03  0.00000000000E+00 0.  1.
         23    2    1    2    0    0  0.29538056168E+03  0.10433334817E+04  0.42165456587E+03  0.11670331601E+04  0.91539027380E+02 0.  0.
         11    1    3    3    0    0  0.29925144682E+03  0.99609218487E+03  0.41174643307E+03  0.11186090445E+04  0.00000000000E+00 0. -1.
        -11    1    3    3    0    0 -0.38708851426E+01  0.47241296839E+02  0.99081328052E+01  0.48424115629E+02  0.00000000000E+00 0.  1.
         22    1    1    2    0    0 -0.29538056168E+03 -0.10433334817E+04  0.52644370458E+03  0.12053785316E+04  0.00000000000E+00 0. -1.
<mgrwt>
<rscale>  0 0.21747292E+04</rscale>
<asrwt>0</asrwt>
<pdfrwt beam="1">  1        2 0.25542384E+00 0.21747292E+04</pdfrwt>
<pdfrwt beam="2">  1       -2 0.10956257E+00 0.21747292E+04</pdfrwt>
<totfact> 0.62712711E+00</totfact>
</mgrwt>
</event>
<event>
 6    1  0.1637818E-005  0.2088997E+04  0.7818608E-02  0.8566106E-01
         -3   -1    0    0    0  501 -0.00000000000E+00  0.00000000000E+00  0.97983914719E+03  0.97983914719E+03  0.00000000000E+00 0.  1.
          3   -1    0    0  501    0  0.00000000000E+00 -0.00000000000E+00 -0.11134248554E+04  0.11134248554E+04  0.00000000000E+00 0. -1.
         23    2    1    2    0    0 -0.39155726479E+03 -0.83691847696E+03 -0.55063674201E+03  0.10795178837E+04  0.91697388081E+02 0.  0.
         13    1    3    3    0    0 -0.31266093347E+03 -0.73385615827E+03 -0.45534415254E+03  0.91849878476E+03  0.00000000000E+00 0. -1.
        -13    1    3    3    0    0 -0.78896331317E+02 -0.10306231868E+03 -0.95292589472E+02  0.16101909898E+03  0.00000000000E+00 0.  1.
         22    1    1    2    0    0  0.39155726479E+03  0.83691847696E+03  0.41705103381E+03  0.10137461188E+04  0.00000000000E+00 0. -1.
<mgrwt>
<rscale>  0 0.20889971E+04</rscale>
<asrwt>0</asrwt>
<pdfrwt beam="1">  1        3 0.17129613E+00 0.20889971E+04</pdfrwt>
<pdfrwt beam="2">  1       -3 0.15074448E+00 0.20889971E+04</pdfrwt>
<totfact> 0.17450271E-01</totfact>
</mgrwt>
</event>
<event>
 6    1  0.1637818E-005  0.3442304E+04  0.7818608E-02  0.8127601E-01
          1   -1    0    0  501    0  0.00000000000E+00  0.00000000000E+00  0.31951590159E+04  0.31951590159E+04  0.00000000000E+00 0. -1.
         -1   -1    0    0    0  501 -0.00000000000E+00 -0.00000000000E+00 -0.92714122602E+03  0.92714122602E+03  0.00000000000E+00 0.  1.
         23    2    1    2    0    0 -0.10679925241E+04 -0.12518139452E+04  0.53468856347E+03  0.17323051808E+04  0.85692440623E+02 0.  0.
         13    1    3    3    0    0 -0.74081293767E+03 -0.85769811954E+03  0.32689980705E+03  0.11795394681E+04  0.00000000000E+00 0.  1.
        -13    1    3    3    0    0 -0.32717958648E+03 -0.39411582568E+03  0.20778875641E+03  0.55276571271E+03  0.00000000000E+00 0. -1.
         22    1    1    2    0    0  0.10679925241E+04  0.12518139452E+04  0.17333292264E+04  0.23899950611E+04  0.00000000000E+00 0. -1.
<mgrwt>
<rscale>  0 0.34423037E+04</rscale>
<asrwt>0</asrwt>
<pdfrwt beam="1">  1        1 0.49156292E+00 0.34423037E+04</pdfrwt>
<pdfrwt beam="2">  1       -1 0.14263711E+00 0.34423037E+04</pdfrwt>
<totfact> 0.14009119E-01</totfact>
</mgrwt>
</event>
<event>
 6    1  0.1637818E-005  0.3438896E+04  0.7818608E-02  0.8128425E-01
         -2   -1    0    0    0  501 -0.00000000000E+00  0.00000000000E+00  0.15953089056E+04  0.15953089056E+04  0.00000000000E+00 0. -1.
          2   -1    0    0  501    0  0.00000000000E+00 -0.00000000000E+00 -0.18532469619E+04  0.18532469619E+04  0.00000000000E+00 0.  1.
         23    2    1    2    0    0 -0.10120024540E+03 -0.16720220861E+04 -0.51352462966E+03  0.17540872657E+04  0.84942593474E+02 0.  0.
         11    1    3    3    0    0  0.23878559739E+01 -0.63677582586E+03 -0.20070061757E+03  0.66766001240E+03  0.00000000000E+00 0.  1.
        -11    1    3    3    0    0 -0.10358810138E+03 -0.10352462603E+04 -0.31282401209E+03  0.10864272533E+04  0.00000000000E+00 0. -1.
         22    1    1    2    0    0  0.10120024540E+03  0.16720220861E+04  0.25558657339E+03  0.16944686019E+04  0.00000000000E+00 0. -1.
<mgrwt>
<rscale>  0 0.34388960E+04</rscale>
<asrwt>0</asrwt>
<pdfrwt beam="1">  1        2 0.28511492E+00 0.34388960E+04</pdfrwt>
<pdfrwt beam="2">  1       -2 0.24543214E+00 0.34388960E+04</pdfrwt>
<totfact> 0.45645930E-01</totfact>
</mgrwt>
</event>
<event>
 6    1  0.1637818E-005  0.1918126E+04  0.7818608E-02  0.8645886E-01
         -2   -1    0    0    0  501 -0.00000000000E+00  0.00000000000E+00  0.14262005217E+04  0.14262005217E+04  0.00000000000E+00 0.  1.
          2   -1    0    0  501    0  0.00000000000E+00 -0.00000000000E+00 -0.64493160785E+03  0.64493160785E+03  0.00000000000E+00 0. -1.
         23    2    1    2    0    0 -0.17427817408E+03 -0.58808244403E+03 -0.40039099088E+03  0.73976667507E+03  0.10357579367E+03 0.  0.
         11    1    3    3    0    0 -0.84730457098E+02 -0.21234325411E+03 -0.95913591201E+02  0.24792806397E+03  0.00000000000E+00 0.  1.
        -11    1    3    3    0    0 -0.89547716986E+02 -0.37573918992E+03 -0.30447739968E+03  0.49183861110E+03  0.00000000000E+00 0. -1.
         22    1    1    2    0    0  0.17427817408E+03  0.58808244403E+03  0.11816599047E+04  0.13313654545E+04  0.00000000000E+00 0.  1.
<mgrwt>
<rscale>  0 0.19181260E+04</rscale>
<asrwt>0</asrwt>
<pdfrwt beam="1">  1        2 0.99220248E-01 0.19181260E+04</pdfrwt>
<pdfrwt beam="2">  1       -2 0.21941546E+00 0.19181260E+04</pdfrwt>
<totfact> 0.42298124E+00</totfact>
</mgrwt>
</event>
<event>
 6    1  0.1637818E-005  0.4312469E+04  0.7818608E-02  0.7944317E-01
          2   -1    0    0  501    0  0.00000000000E+00  0.00000000000E+00  0.25004942870E+04  0.25004942870E+04  0.00000000000E+00 0. -1.
         -2   -1    0    0    0  501 -0.00000000000E+00 -0.00000000000E+00 -0.18593709265E+04  0.18593709265E+04  0.00000000000E+00 0.  1.
         23    2    1    2    0    0  0.62258283740E+03  0.17944376693E+04  0.13505348260E+04  0.23323345564E+04  0.90687531500E+02 0.  0.
         11    1    3    3    0    0  0.47321650226E+03  0.14481487064E+04  0.10535199983E+04  0.18522885630E+04  0.00000000000E+00 0.  1.
        -11    1    3    3    0    0  0.14936633515E+03  0.34628896287E+03  0.29701482774E+03  0.48004599340E+03  0.00000000000E+00 0. -1.
         22    1    1    2    0    0 -0.62258283740E+03 -0.17944376693E+04 -0.70941146552E+03  0.20275306572E+04  0.00000000000E+00 0.  1.
<mgrwt>
<rscale>  0 0.43124686E+04</rscale>
<asrwt>0</asrwt>
<pdfrwt beam="1">  1        2 0.38469143E+00 0.43124686E+04</pdfrwt>
<pdfrwt beam="2">  1       -2 0.28605707E+00 0.43124686E+04</pdfrwt>
<totfact> 0.10350352E-01</totfact>
</mgrwt>
</event>
<event>
 6    1  0.1637818E-005  0.3614161E+04  0.7818608E-02  0.8087256E-01
         -2   -1    0    0    0  501 -0.00000000000E+00  0.00000000000E+00  0.74631435361E+03  0.74631435361E+03  0.00000000000E+00 0.  1.
          2   -1    0    0  501    0  0.00000000000E+00 -0.00000000000E+00 -0.43755566238E+04  0.43755566238E+04  0.00000000000E+00 0. -1.
         23    2    1    2    0    0  0.89090007298E+01 -0.10767350814E+04  0.23893285687E+03  0.11066229627E+04  0.89931449339E+02 0.  0.
         13    1    3    3    0    0 -0.26832117354E+02 -0.11414040742E+03  0.24369484079E+02  0.11975753371E+03  0.00000000000E+00 0. -1.
        -13    1    3    3    0    0  0.35741118084E+02 -0.96259467403E+03  0.21456337279E+03  0.98686542899E+03  0.00000000000E+00 0.  1.
         22    1    1    2    0    0 -0.89090007298E+01  0.10767350814E+04 -0.38681751271E+04  0.40152480147E+04  0.00000000000E+00 0. -1.
<mgrwt>
<rscale>  0 0.36141614E+04</rscale>
<asrwt>0</asrwt>
<pdfrwt beam="1">  1        2 0.67316256E+00 0.36141614E+04</pdfrwt>
<pdfrwt beam="2">  1       -2 0.11481759E+00 0.36141614E+04</pdfrwt>
<totfact> 0.77585335E-02</totfact>
</mgrwt>
</event>
<event>
 6    1  0.1637818E-005  0.1890697E+04  0.7818608E-02  0.8659501E-01
         -1   -1    0    0    0  501 -0.00000000000E+00  0.00000000000E+00  0.17406411322E+04  0.17406411322E+04  0.00000000000E+00 0.  1.
          1   -1    0    0  501    0  0.00000000000E+00 -0.00000000000E+00 -0.51342236006E+03  0.51342236006E+03  0.00000000000E+00 0. -1.
         23    2    1    2    0    0  0.50031581519E+02 -0.92180507277E+03  0.38483532967E+03  0.10043284742E+04  0.91376702402E+02 0.  0.
         11    1    3    3    0    0  0.32555684747E+02 -0.76738028753E+03  0.28311448048E+03  0.81858792281E+03  0.00000000000E+00 0.  1.
        -11    1    3    3    0    0  0.17475896772E+02 -0.15442478524E+03  0.10172084919E+03  0.18574055137E+03  0.00000000000E+00 0. -1.
         22    1    1    2    0    0 -0.50031581519E+02  0.92180507277E+03  0.84238344251E+03  0.12497350181E+04  0.00000000000E+00 0.  1.
<mgrwt>
<rscale>  0 0.18906973E+04</rscale>
<asrwt>0</asrwt>
<pdfrwt beam="1">  1        1 0.78988056E-01 0.18906973E+04</pdfrwt>
<pdfrwt beam="2">  1       -1 0.26779094E+00 0.18906973E+04</pdfrwt>
<totfact> 0.21369234E+00</totfact>
</mgrwt>
</event>
<event>
 6    1  0.1637818E-005  0.1417327E+04  0.7818608E-02  0.8941371E-01
          2   -1    0    0  501    0  0.00000000000E+00  0.00000000000E+00  0.21777359946E+04  0.21777359946E+04  0.00000000000E+00 0. -1.
         -2   -1    0    0    0  501 -0.00000000000E+00 -0.00000000000E+00 -0.23060829444E+03  0.23060829444E+03  0.00000000000E+00 0.  1.
         23    2    1    2    0    0  0.60635743161E+03 -0.30240378907E+03  0.64424087900E+03  0.93979689272E+03  0.95155151592E+02 0.  0.
         13    1    3    3    0    0  0.47914362443E+03 -0.20897678841E+03  0.53405996262E+03  0.74730847352E+03  0.00000000000E+00 0. -1.
        -13    1    3    3    0    0  0.12721380718E+03 -0.93427000663E+02  0.11018091638E+03  0.19248841920E+03  0.00000000000E+00 0.  1.
         22    1    1    2    0    0 -0.60635743161E+03  0.30240378907E+03  0.13028868212E+04  0.14685473964E+04  0.00000000000E+00 0. -1.
<mgrwt>
<rscale>  0 0.14173270E+04</rscale>
<asrwt>0</asrwt>
<pdfrwt beam="1">  1        2 0.33503629E+00 0.14173270E+04</pdfrwt>
<pdfrwt beam="2">  1       -2 0.35478200E-01 0.14173270E+04</pdfrwt>
<totfact> 0.38614901E+01</totfact>
</mgrwt>
</event>
<event>
 6    1  0.1637818E-005  0.7029886E+03  0.7818608E-02  0.9712135E-01
         -2   -1    0    0    0  501 -0.00000000000E+00  0.00000000000E+00  0.14978190783E+04  0.14978190783E+04  0.00000000000E+00 0. -1.
          2   -1    0    0  501    0  0.00000000000E+00 -0.00000000000E+00 -0.82485420404E+02  0.82485420404E+02  0.00000000000E+00 0.  1.
         23    2    1    2    0    0  0.13560740516E+03  0.31175441027E+03  0.85920791745E+03  0.92849469527E+03  0.91016334168E+02 0.  0.
         11    1    3    3    0    0  0.12733468987E+03  0.19028629980E+03  0.59699833745E+03  0.63939816550E+03  0.00000000000E+00 0. -1.
        -11    1    3    3    0    0  0.82727152944E+01  0.12146811047E+03  0.26220958000E+03  0.28909652977E+03  0.00000000000E+00 0.  1.
         22    1    1    2    0    0 -0.13560740516E+03 -0.31175441027E+03  0.55612574043E+03  0.65180980342E+03  0.00000000000E+00 0.  1.
<mgrwt>
<rscale>  0 0.70298858E+03</rscale>
<asrwt>0</asrwt>
<pdfrwt beam="1">  1        2 0.12690066E-01 0.70298858E+03</pdfrwt>
<pdfrwt beam="2">  1       -2 0.23043369E+00 0.70298858E+03</pdfrwt>
<totfact> 0.42964407E+01</totfact>
</mgrwt>
</event>
<event>
 6    1  0.1637818E-005  0.1016143E+04  0.7818608E-02  0.9291015E-01
          1   -1    0    0  501    0  0.00000000000E+00  0.00000000000E+00  0.16475358443E+04  0.16475358443E+04  0.00000000000E+00 0. -1.
         -1   -1    0    0    0  501 -0.00000000000E+00 -0.00000000000E+00 -0.15668036697E+03  0.15668036697E+03  0.00000000000E+00 0.  1.
         23    2    1    2    0    0 -0.18701056233E+03  0.24665735898E+03  0.14571336036E+04  0.14928483132E+04  0.97698231478E+02 0.  0.
         13    1    3    3    0    0 -0.16561964932E+02  0.74503628697E+02  0.48584505617E+03  0.49180332245E+03  0.00000000000E+00 0. -1.
        -13    1    3    3    0    0 -0.17044859739E+03  0.17215373028E+03  0.97128854740E+03  0.10010449908E+04  0.00000000000E+00 0.  1.
         22    1    1    2    0    0  0.18701056233E+03 -0.24665735898E+03  0.33721873727E+02  0.31136789804E+03  0.00000000000E+00 0.  1.
<mgrwt>
<rscale>  0 0.10161427E+04</rscale>
<asrwt>0</asrwt>
<pdfrwt beam="1">  1        1 0.25346704E+00 0.10161427E+04</pdfrwt>
<pdfrwt beam="2">  1       -1 0.24104673E-01 0.10161427E+04</pdfrwt>
<totfact> 0.77383005E+01</totfact>
</mgrwt>
</event>
<event>
 6    1  0.1637818E-005  0.2150964E+04  0.7818608E-02  0.8539120E-01
          1   -1    0    0  501    0  0.00000000000E+00  0.00000000000E+00  0.14699550246E+04  0.14699550246E+04  0.00000000000E+00 0. -1.
         -1   -1    0    0    0  501 -0.00000000000E+00 -0.00000000000E+00 -0.78686849125E+03  0.78686849125E+03  0.00000000000E+00 0.  1.
         23    2    1    2    0    0 -0.10148840311E+04 -0.31217474346E+03  0.50837961377E+03  0.11807356129E+04  0.90796964492E+02 0.  0.
         13    1    3    3    0    0 -0.65677302636E+03 -0.18264420733E+03  0.28207281846E+03  0.73774981501E+03  0.00000000000E+00 0. -1.
        -13    1    3    3    0    0 -0.35811100477E+03 -0.12953053613E+03  0.22630679531E+03  0.44298579789E+03  0.00000000000E+00 0.  1.
         22    1    1    2    0    0  0.10148840311E+04  0.31217474346E+03  0.17470691956E+03  0.10760879029E+04  0.00000000000E+00 0. -1.
<mgrwt>
<rscale>  0 0.21509638E+04</rscale>
<asrwt>0</asrwt>
<pdfrwt beam="1">  1        1 0.22614693E+00 0.21509638E+04</pdfrwt>
<pdfrwt beam="2">  1       -1 0.12105669E+00 0.21509638E+04</pdfrwt>
<totfact> 0.38078716E+00</totfact>
</mgrwt>
</event>
<event>
 6    1  0.1637818E-005  0.3839536E+04  0.7818608E-02  0.8037723E-01
          1   -1    0    0  501    0  0.00000000000E+00  0.00000000000E+00  0.23153947191E+04  0.23153947191E+04  0.00000000000E+00 0. -1.
         -1   -1    0    0    0  501 -0.00000000000E+00 -0.00000000000E+00 -0.15917409541E+04  0.15917409541E+04  0.00000000000E+00 0.  1.
         23    2    1    2    0    0  0.11465646993E+04 -0.14320757050E+04  0.93460943049E+03  0.20605296711E+04  0.82681941649E+02 0.  0.
         13    1    3    3    0    0  0.60722284620E+03 -0.81151655913E+03  0.54323125233E+03  0.11499473484E+04  0.00000000000E+00 0.  1.
        -13    1    3    3    0    0  0.53934185308E+03 -0.62055914584E+03  0.39137817815E+03  0.91058232264E+03  0.00000000000E+00 0. -1.
         22    1    1    2    0    0 -0.11465646993E+04  0.14320757050E+04 -0.21095566542E+03  0.18466060021E+04  0.00000000000E+00 0.  1.
<mgrwt>
<rscale>  0 0.38395357E+04</rscale>
<asrwt>0</asrwt>
<pdfrwt beam="1">  1        1 0.35621457E+00 0.38395357E+04</pdfrwt>
<pdfrwt beam="2">  1       -1 0.24488322E+00 0.38395357E+04</pdfrwt>
<totfact> 0.10849039E-01</totfact>
</mgrwt>
</event>
<event>
 6    1  0.1637818E-005  0.1808691E+04  0.7818608E-02  0.8701691E-01
         -2   -1    0    0    0  501 -0.00000000000E+00  0.00000000000E+00  0.36238844250E+03  0.36238844250E+03  0.00000000000E+00 0.  1.
          2   -1    0    0  501    0  0.00000000000E+00 -0.00000000000E+00 -0.22568074441E+04  0.22568074441E+04  0.00000000000E+00 0. -1.
         23    2    1    2    0    0 -0.84258344270E+03 -0.42642937839E+02 -0.14118095873E+04  0.16472508651E+04  0.91999041344E+02 0.  0.
         11    1    3    3    0    0 -0.40938685922E+03  0.22589943517E+02 -0.71281291937E+03  0.82231998886E+03  0.00000000000E+00 0. -1.
        -11    1    3    3    0    0 -0.43319658348E+03 -0.65232881356E+02 -0.69899666797E+03  0.82493087624E+03  0.00000000000E+00 0.  1.
         22    1    1    2    0    0  0.84258344270E+03  0.42642937839E+02 -0.48260941426E+03  0.97194502149E+03  0.00000000000E+00 0.  1.
<mgrwt>
<rscale>  0 0.18086912E+04</rscale>
<asrwt>0</asrwt>
<pdfrwt beam="1">  1        2 0.34720114E+00 0.18086912E+04</pdfrwt>
<pdfrwt beam="2">  1       -2 0.55752069E-01 0.18086912E+04</pdfrwt>
<totfact> 0.13680976E+01</totfact>
</mgrwt>
</event>
<event>
 6    1  0.1637818E-005  0.4209055E+04  0.7818608E-02  0.7963652E-01
         -1   -1    0    0    0  501 -0.00000000000E+00  0.00000000000E+00  0.22556203886E+04  0.22556203886E+04  0.00000000000E+00 0.  1.
          1   -1    0    0  501    0  0.00000000000E+00 -0.00000000000E+00 -0.19635552966E+04  0.19635552966E+04  0.00000000000E+00 0. -1.
         23    2    1    2    0    0 -0.34497889907E+03  0.77184953682E+03  0.20768578803E+04  0.22442712709E+04  0.93020073258E+02 0.  0.
         13    1    3    3    0    0 -0.10568290740E+02  0.55688253013E+02  0.95104812660E+02  0.11071492981E+03  0.00000000000E+00 0.  1.
        -13    1    3    3    0    0 -0.33441060833E+03  0.71616128381E+03  0.19817530676E+04  0.21335563411E+04  0.00000000000E+00 0. -1.
         22    1    1    2    0    0  0.34497889907E+03 -0.77184953682E+03 -0.17847927883E+04  0.19749044143E+04  0.00000000000E+00 0. -1.
<mgrwt>
<rscale>  0 0.42090547E+04</rscale>
<asrwt>0</asrwt>
<pdfrwt beam="1">  1        1 0.30208543E+00 0.42090547E+04</pdfrwt>
<pdfrwt beam="2">  1       -1 0.34701852E+00 0.42090547E+04</pdfrwt>
<totfact> 0.39460495E-02</totfact>
</mgrwt>
</event>
<event>
 6    1  0.1637818E-005  0.2228122E+04  0.7818608E-02  0.8506813E-01
         -1   -1    0    0    0  501 -0.00000000000E+00  0.00000000000E+00  0.93508728167E+03  0.93508728167E+03  0.00000000000E+00 0.  1.
          1   -1    0    0  501    0  0.00000000000E+00 -0.00000000000E+00 -0.13272904660E+04  0.13272904660E+04  0.00000000000E+00 0. -1.
         23    2    1    2    0    0 -0.38229192138E+03 -0.82570452457E+03 -0.84565434420E+03  0.12457396462E+04  0.93813225171E+02 0.  0.
         13    1    3    3    0    0 -0.11692023757E+03 -0.16785218551E+03 -0.21158777779E+03  0.29430271124E+03  0.00000000000E+00 0. -1.
        -13    1    3    3    0    0 -0.26537168381E+03 -0.65785233907E+03 -0.63406656640E+03  0.95143693496E+03  0.00000000000E+00 0.  1.
         22    1    1    2    0    0  0.38229192138E+03  0.82570452457E+03  0.45345115984E+03  0.10166381015E+04  0.00000000000E+00 0.  1.
<mgrwt>
<rscale>  0 0.22281225E+04</rscale>
<asrwt>0</asrwt>
<pdfrwt beam="1">  1        1 0.20419853E+00 0.22281225E+04</pdfrwt>
<pdfrwt beam="2">  1       -1 0.14385958E+00 0.22281225E+04</pdfrwt>
<totfact> 0.30693723E+00</totfact>
</mgrwt>
</event>
<event>
 6    1  0.1637818E-005  0.1816921E+04  0.7818608E-02  0.8697352E-01
         -2   -1    0    0    0  501 -0.00000000000E+00  0.00000000000E+00  0.68860803742E+03  0.68860803742E+03  0.00000000000E+00 0. -1.
          2   -1    0    0  501    0  0.00000000000E+00 -0.00000000000E+00 -0.11985056424E+04  0.11985056424E+04  0.00000000000E+00 0.  1.
         23    2    1    2    0    0 -0.12302578039E+03 -0.71408756295E+03  0.30972372252E+03  0.79311390343E+03  0.89691077158E+02 0.  0.
         11    1    3    3    0    0 -0.72140390082E+02 -0.56516283869E+03  0.27165413161E+03  0.63119667088E+03  0.00000000000E+00 0. -1.
        -11    1    3    3    0    0 -0.50885390310E+02 -0.14892472426E+03  0.38069590916E+02  0.16191723255E+03  0.00000000000E+00 0.  1.
         22    1    1    2    0    0  0.12302578039E+03  0.71408756295E+03 -0.81962132746E+03  0.10939997763E+04  0.00000000000E+00 0.  1.
<mgrwt>
<rscale>  0 0.18169212E+04</rscale>
<asrwt>0</asrwt>
<pdfrwt beam="1">  1        2 0.18438548E+00 0.18169212E+04</pdfrwt>
<pdfrwt beam="2">  1       -2 0.10593970E+00 0.18169212E+04</pdfrwt>
<totfact> 0.12877152E+01</totfact>
</mgrwt>
</event>
<event>
 6    1  0.1637818E-005  0.1748206E+04  0.7818608E-02  0.8734338E-01
          2   -1    0    0  501    0  0.00000000000E+00  0.00000000000E+00  0.19131894698E+04  0.19131894698E+04  0.00000000000E+00 0. -1.
         -2   -1    0    0    0  501 -0.00000000000E+00 -0.00000000000E+00 -0.39936241618E+03  0.39936241618E+03  0.00000000000E+00 0.  1.
         23    2    1    2    0    0  0.29281790848E+03  0.58323131216E+03  0.15239169080E+04  0.16598629125E+04  0.83192876004E+02 0.  0.
         11    1    3    3    0    0  0.70694638479E+02  0.20444115724E+03  0.43742519841E+03  0.48799049467E+03  0.00000000000E+00 0.  1.
        -11    1    3    3    0    0  0.22212327000E+03  0.37879015492E+03  0.10864917096E+04  0.11718724178E+04  0.00000000000E+00 0. -1.
         22    1    1    2    0    0 -0.29281790848E+03 -0.58323131216E+03 -0.10089854384E+02  0.65268897353E+03  0.00000000000E+00 0.  1.
<mgrwt>
<rscale>  0 0.17482059E+04</rscale>
<asrwt>0</asrwt>
<pdfrwt beam="1">  1        2 0.29433684E+00 0.17482059E+04</pdfrwt>
<pdfrwt beam="2">  1       -2 0.61440373E-01 0.17482059E+04</pdfrwt>
<totfact> 0.17430539E+01</totfact>
</mgrwt>
</event>
<event>
 6    1  0.1637818E-005  0.1471277E+04  0.7818608E-02  0.8903781E-01
          2   -1    0    0  501    0  0.00000000000E+00  0.00000000000E+00  0.91033442912E+03  0.91033442912E+03  0.00000000000E+00 0. -1.
         -2   -1    0    0    0  501 -0.00000000000E+00 -0.00000000000E+00 -0.59446703975E+03  0.59446703975E+03  0.00000000000E+00 0.  1.
         23    2    1    2    0    0  0.67253996913E+03 -0.18908376167E+03 -0.67997044978E+02  0.70767250629E+03  0.90078293893E+02 0.  0.
         11    1    3    3    0    0  0.54080452304E+03 -0.17241350723E+03 -0.84450808483E+02  0.57387096866E+03  0.00000000000E+00 0.  1.
        -11    1    3    3    0    0  0.13173544609E+03 -0.16670254445E+02  0.16453763505E+02  0.13380153764E+03  0.00000000000E+00 0. -1.
         22    1    1    2    0    0 -0.67253996913E+03  0.18908376167E+03  0.38386443435E+03  0.79712896257E+03  0.00000000000E+00 0. -1.
<mgrwt>
<rscale>  0 0.14712767E+04</rscale>
<asrwt>0</asrwt>
<pdfrwt beam="1">  1        2 0.14005145E+00 0.14712767E+04</pdfrwt>
<pdfrwt beam="2">  1       -2 0.91456467E-01 0.14712767E+04</pdfrwt>
<totfact> 0.28456167E+01</totfact>
</mgrwt>
</event>
<event>
 6    1  0.1637818E-005  0.2596093E+04  0.7818608E-02  0.8369529E-01
          2   -1    0    0  501    0  0.00000000000E+00  0.00000000000E+00  0.34625813216E+04  0.34625813216E+04  0.00000000000E+00 0.  1.
         -2   -1    0    0    0  501 -0.00000000000E+00 -0.00000000000E+00 -0.48660952852E+03  0.48660952852E+03  0.00000000000E+00 0. -1.
         23    2    1    2    0    0  0.10079504872E+04 -0.45959736682E+03  0.25143772477E+04  0.27490810849E+04  0.90332403742E+02 0.  0.
         11    1    3    3    0    0  0.28761765638E+03 -0.15720730039E+03  0.82883467161E+03  0.89129398316E+03  0.00000000000E+00 0. -1.
        -11    1    3    3    0    0  0.72033283084E+03 -0.30239006643E+03  0.16855425761E+04  0.18577871017E+04  0.00000000000E+00 0.  1.
         22    1    1    2    0    0 -0.10079504872E+04  0.45959736682E+03  0.46159454534E+03  0.12001097652E+04  0.00000000000E+00 0. -1.
<mgrwt>
<rscale>  0 0.25960933E+04</rscale>
<asrwt>0</asrwt>
<pdfrwt beam="1">  1        2 0.53270480E+00 0.25960933E+04</pdfrwt>
<pdfrwt beam="2">  1       -2 0.74863006E-01 0.25960933E+04</pdfrwt>
<totfact> 0.12255664E+00</totfact>
</mgrwt>
</event>
<event>
 6    1  0.1637818E-005  0.1987505E+04  0.7818608E-02  0.8612485E-01
         -2   -1    0    0    0  501 -0.00000000000E+00  0.00000000000E+00  0.84871156033E+03  0.84871156033E+03  0.00000000000E+00 0.  1.
          2   -1    0    0  501    0  0.00000000000E+00 -0.00000000000E+00 -0.11635803430E+04  0.11635803430E+04  0.00000000000E+00 0. -1.
         23    2    1    2    0    0 -0.85537478317E+03  0.50120951901E+03 -0.17283002949E+03  0.10107670614E+04  0.94354818057E+02 0.  0.
         13    1    3    3    0    0 -0.69381328761E+03  0.42440521569E+03 -0.17467077678E+03  0.83186930790E+03  0.00000000000E+00 0. -1.
        -13    1    3    3    0    0 -0.16156149556E+03  0.76804303321E+02  0.18407472925E+01  0.17889775350E+03  0.00000000000E+00 0.  1.
         22    1    1    2    0    0  0.85537478317E+03 -0.50120951901E+03 -0.14203875321E+03  0.10015248420E+04  0.00000000000E+00 0. -1.
<mgrwt>
<rscale>  0 0.19875051E+04</rscale>
<asrwt>0</asrwt>
<pdfrwt beam="1">  1        2 0.17901236E+00 0.19875051E+04</pdfrwt>
<pdfrwt beam="2">  1       -2 0.13057101E+00 0.19875051E+04</pdfrwt>
<totfact> 0.79581595E+00</totfact>
</mgrwt>
</event>
<event>
 6    1  0.1637818E-005  0.5637023E+04  0.7818608E-02  0.7737111E-01
         -2   -1    0    0    0  501 -0.00000000000E+00  0.00000000000E+00  0.25704970199E+04  0.25704970199E+04  0.00000000000E+00 0.  1.
          2   -1    0    0  501    0  0.00000000000E+00 -0.00000000000E+00 -0.30904554386E+04  0.30904554386E+04  0.00000000000E+00 0. -1.
         23    2    1    2    0    0  0.23946972584E+04  0.70525969157E+03 -0.15724413266E+04  0.29517668865E+04  0.91596042280E+02 0.  0.
         11    1    3    3    0    0  0.76098425058E+03  0.25491269844E+03 -0.54210228322E+03  0.96847942618E+03  0.00000000000E+00 0. -1.
        -11    1    3    3    0    0  0.16337130078E+04  0.45034699313E+03 -0.10303390434E+04  0.19832874603E+04  0.00000000000E+00 0.  1.
         22    1    1    2    0    0 -0.23946972584E+04 -0.70525969157E+03  0.10524829079E+04  0.27091855719E+04  0.00000000000E+00 0.  1.
<mgrwt>
<rscale>  0 0.56370228E+04</rscale>
<asrwt>0</asrwt>
<pdfrwt beam="1">  1        2 0.47545468E+00 0.56370228E+04</pdfrwt>
<pdfrwt beam="2">  1       -2 0.39546108E+00 0.56370228E+04</pdfrwt>
<totfact> 0.83987515E-03</totfact>
</mgrwt>
</event>
<event>
 6    1  0.1637818E-005  0.4280739E+04  0.7818608E-02  0.7950189E-01
         -1   -1    0    0    0  501 -0.00000000000E+00  0.00000000000E+00  0.17763938696E+04  0.17763938696E+04  0.00000000000E+00 0.  1.
          1   -1    0    0  501    0  0.00000000000E+00 -0.00000000000E+00 -0.25789217126E+04  0.25789217126E+04  0.00000000000E+00 0. -1.
         23    2    1    2    0    0  0.29476984450E+03  0.11476323770E+04 -0.22137811291E+04  0.25126042181E+04  0.91671888155E+02 0.  0.
         11    1    3    3    0    0  0.23073923082E+03  0.72451261684E+03 -0.13993675336E+04  0.15926043509E+04  0.00000000000E+00 0.  1.
        -11    1    3    3    0    0  0.64030613678E+02  0.42311976015E+03 -0.81441359556E+03  0.91999986714E+03  0.00000000000E+00 0. -1.
         22    1    1    2    0    0 -0.29476984450E+03 -0.11476323770E+04  0.14112532861E+04  0.18427113641E+04  0.00000000000E+00 0.  1.
<mgrwt>
<rscale>  0 0.42807386E+04</rscale>
<asrwt>0</asrwt>
<pdfrwt beam="1">  1        1 0.39675718E+00 0.42807386E+04</pdfrwt>
<pdfrwt beam="2">  1       -1 0.27329137E+00 0.42807386E+04</pdfrwt>
<totfact> 0.44917428E-02</totfact>
</mgrwt>
</event>
<event>
 6    1  0.1637818E-005  0.2038069E+04  0.7818608E-02  0.8589026E-01
         -1   -1    0    0    0  501 -0.00000000000E+00  0.00000000000E+00  0.78930900592E+03  0.78930900592E+03  0.00000000000E+00 0.  1.
          1   -1    0    0  501    0  0.00000000000E+00 -0.00000000000E+00 -0.13156213913E+04  0.13156213913E+04  0.00000000000E+00 0. -1.
         23    2    1    2    0    0 -0.46462396270E+03  0.90411702079E+03 -0.29056098246E+03  0.10614354342E+04  0.94427127422E+02 0.  0.
         13    1    3    3    0    0 -0.12040546403E+03  0.16976143795E+03 -0.34643787098E+02  0.21098960535E+03  0.00000000000E+00 0.  1.
        -13    1    3    3    0    0 -0.34421849868E+03  0.73435558284E+03 -0.25591719536E+03  0.85044582882E+03  0.00000000000E+00 0. -1.
         22    1    1    2    0    0  0.46462396270E+03 -0.90411702079E+03 -0.23575140297E+03  0.10434949631E+04  0.00000000000E+00 0.  1.
<mgrwt>
<rscale>  0 0.20380695E+04</rscale>
<asrwt>0</asrwt>
<pdfrwt beam="1">  1        1 0.20240329E+00 0.20380695E+04</pdfrwt>
<pdfrwt beam="2">  1       -1 0.12143216E+00 0.20380695E+04</pdfrwt>
<totfact> 0.49015783E+00</totfact>
</mgrwt>
</event>
<event>
 6    1  0.1637818E-005  0.1999518E+04  0.7818608E-02  0.8606846E-01
          1   -1    0    0  501    0  0.00000000000E+00  0.00000000000E+00  0.21426020236E+04  0.21426020236E+04  0.00000000000E+00 0. -1.
         -1   -1    0    0    0  501 -0.00000000000E+00 -0.00000000000E+00 -0.46649742698E+03  0.46649742698E+03  0.00000000000E+00 0.  1.
         23    2    1    2    0    0 -0.53520748498E+03  0.80984817270E+03  0.11397437959E+04  0.15000530028E+04  0.94031782730E+02 0.  0.
         13    1    3    3    0    0 -0.74441360384E+02  0.14252268290E+03  0.23887085213E+03  0.28794707027E+03  0.00000000000E+00 0. -1.
        -13    1    3    3    0    0 -0.46076612460E+03  0.66732548979E+03  0.90087294380E+03  0.12121059326E+04  0.00000000000E+00 0.  1.
         22    1    1    2    0    0  0.53520748498E+03 -0.80984817270E+03  0.53636080073E+03  0.11090464478E+04  0.00000000000E+00 0. -1.
<mgrwt>
<rscale>  0 0.19995183E+04</rscale>
<asrwt>0</asrwt>
<pdfrwt beam="1">  1        1 0.32963107E+00 0.19995183E+04</pdfrwt>
<pdfrwt beam="2">  1       -1 0.71768836E-01 0.19995183E+04</pdfrwt>
<totfact> 0.43338516E+00</totfact>
</mgrwt>
</event>
<event>
 6    1  0.1637818E-005  0.7955208E+03  0.7818608E-02  0.9566523E-01
         -2   -1    0    0    0  501 -0.00000000000E+00  0.00000000000E+00  0.46025265600E+03  0.46025265600E+03  0.00000000000E+00 0.  1.
          2   -1    0    0  501    0  0.00000000000E+00 -0.00000000000E+00 -0.34375320328E+03  0.34375320328E+03  0.00000000000E+00 0. -1.
         23    2    1    2    0    0  0.27426205242E+03  0.17004475652E+03  0.28434322873E+03  0.44026635667E+03  0.94066468386E+02 0.  0.
         13    1    3    3    0    0  0.13600005322E+03  0.30861143302E+02  0.12989626010E+03  0.19058190635E+03  0.00000000000E+00 0.  1.
        -13    1    3    3    0    0  0.13826199920E+03  0.13918361322E+03  0.15444696863E+03  0.24968445032E+03  0.00000000000E+00 0. -1.
         22    1    1    2    0    0 -0.27426205242E+03 -0.17004475652E+03 -0.16784377600E+03  0.36373950261E+03  0.00000000000E+00 0. -1.
<mgrwt>
<rscale>  0 0.79552077E+03</rscale>
<asrwt>0</asrwt>
<pdfrwt beam="1">  1        2 0.52885108E-01 0.79552077E+03</pdfrwt>
<pdfrwt beam="2">  1       -2 0.70808102E-01 0.79552077E+03</pdfrwt>
<totfact> 0.17227939E+02</totfact>
</mgrwt>
</event>
<event>
 6    1  0.1637818E-005  0.1351765E+04  0.7818608E-02  0.8989493E-01
          3   -1    0    0  501    0  0.00000000000E+00  0.00000000000E+00  0.80159984993E+03  0.80159984993E+03  0.00000000000E+00 0. -1.
         -3   -1    0    0    0  501 -0.00000000000E+00 -0.00000000000E+00 -0.56988194792E+03  0.56988194792E+03  0.00000000000E+00 0.  1.
         23    2    1    2    0    0  0.27204950059E+03  0.21395983235E+03  0.70166631623E+03  0.78783699777E+03  0.92529860525E+02 0.  0.
         13    1    3    3    0    0  0.21219735804E+03  0.14620081399E+03  0.59239372145E+03  0.64601293949E+03  0.00000000000E+00 0. -1.
        -13    1    3    3    0    0  0.59852142554E+02  0.67759018362E+02  0.10927259478E+03  0.14182405828E+03  0.00000000000E+00 0.  1.
         22    1    1    2    0    0 -0.27204950059E+03 -0.21395983235E+03 -0.46994841422E+03  0.58364480008E+03  0.00000000000E+00 0.  1.
<mgrwt>
<rscale>  0 0.13517652E+04</rscale>
<asrwt>0</asrwt>
<pdfrwt beam="1">  1        3 0.12332305E+00 0.13517652E+04</pdfrwt>
<pdfrwt beam="2">  1       -3 0.87674146E-01 0.13517652E+04</pdfrwt>
<totfact> 0.16045552E+00</totfact>
</mgrwt>
</event>
<event>
 6    1  0.1637818E-005  0.4187039E+03  0.7818608E-02  0.1037489E+00
          2   -1    0    0  501    0  0.00000000000E+00  0.00000000000E+00  0.16684080886E+04  0.16684080886E+04  0.00000000000E+00 0. -1.
         -2   -1    0    0    0  501 -0.00000000000E+00 -0.00000000000E+00 -0.26269491899E+02  0.26269491899E+02  0.00000000000E+00 0.  1.
         23    2    1    2    0    0 -0.76319290958E+02 -0.14051177473E+03  0.13438061178E+04  0.13561949946E+04  0.88779434856E+02 0.  0.
         13    1    3    3    0    0 -0.29070928885E+02 -0.87845829696E+01  0.99164780728E+02  0.10371085546E+03  0.00000000000E+00 0. -1.
        -13    1    3    3    0    0 -0.47248362073E+02 -0.13172719176E+03  0.12446413371E+04  0.12524841391E+04  0.00000000000E+00 0.  1.
         22    1    1    2    0    0  0.76319290958E+02  0.14051177473E+03  0.29833247892E+03  0.33848258595E+03  0.00000000000E+00 0.  1.
<mgrwt>
<rscale>  0 0.41870387E+03</rscale>
<asrwt>0</asrwt>
<pdfrwt beam="1">  1        2 0.25667808E+00 0.41870387E+03</pdfrwt>
<pdfrwt beam="2">  1       -2 0.40414616E-02 0.41870387E+03</pdfrwt>
<totfact> 0.29973904E+03</totfact>
</mgrwt>
</event>
<event>
 6    1  0.1637818E-005  0.5205896E+04  0.7818608E-02  0.7797508E-01
          2   -1    0    0  501    0  0.00000000000E+00  0.00000000000E+00  0.13563106863E+04  0.13563106863E+04  0.00000000000E+00 0. -1.
         -2   -1    0    0    0  501 -0.00000000000E+00 -0.00000000000E+00 -0.49954171528E+04  0.49954171528E+04  0.00000000000E+00 0.  1.
         23    2    1    2    0    0  0.47246751398E+03  0.23853366221E+04 -0.29502461374E+04  0.38243606505E+04  0.93411785747E+02 0.  0.
         11    1    3    3    0    0  0.45161332703E+02  0.12350310696E+03 -0.15073796836E+03  0.20003624298E+03  0.00000000000E+00 0. -1.
        -11    1    3    3    0    0  0.42730618128E+03  0.22618335151E+04 -0.27995081690E+04  0.36243244076E+04  0.00000000000E+00 0.  1.
         22    1    1    2    0    0 -0.47246751398E+03 -0.23853366221E+04 -0.68886032915E+03  0.25273671885E+04  0.00000000000E+00 0. -1.
<mgrwt>
<rscale>  0 0.52058958E+04</rscale>
<asrwt>0</asrwt>
<pdfrwt beam="1">  1        2 0.20866318E+00 0.52058958E+04</pdfrwt>
<pdfrwt beam="2">  1       -2 0.76852571E+00 0.52058958E+04</pdfrwt>
<totfact> 0.12918101E-03</totfact>
</mgrwt>
</event>
<event>
 6    1  0.2260671E-005  0.2979702E+04  0.7818608E-02  0.8249551E-01
          1   -1    0    0  501    0  0.00000000000E+00  0.00000000000E+00  0.17244067294E+04  0.17244067294E+04  0.00000000000E+00 0. -1.
         -1   -1    0    0    0  501 -0.00000000000E+00 -0.00000000000E+00 -0.12872001860E+04  0.12872001860E+04  0.00000000000E+00 0.  1.
         23    2    1    2    0    0 -0.11911569135E+04  0.11156153945E+03  0.11138512010E+04  0.16371438339E+04  0.90965187255E+02 0.  0.
         11    1    3    3    0    0 -0.64234111691E+03  0.16351960656E+02  0.57959998499E+03  0.86533556479E+03  0.00000000000E+00 0.  1.
        -11    1    3    3    0    0 -0.54881579659E+03  0.95209578798E+02  0.53425121599E+03  0.77180826911E+03  0.00000000000E+00 0. -1.
         22    1    1    2    0    0  0.11911569135E+04 -0.11156153945E+03 -0.67664465758E+03  0.13744630815E+04  0.00000000000E+00 0. -1.
<mgrwt>
<rscale>  0 0.29797024E+04</rscale>
<asrwt>0</asrwt>
<pdfrwt beam="1">  1        1 0.26529334E+00 0.29797024E+04</pdfrwt>
<pdfrwt beam="2">  1       -1 0.19803080E+00 0.29797024E+04</pdfrwt>
<totfact> 0.60730205E-01</totfact>
</mgrwt>
</event>
<event>
 6    1  0.1637818E-005  0.2377862E+04  0.7818608E-02  0.8447838E-01
          2   -1    0    0  501    0  0.00000000000E+00  0.00000000000E+00  0.31321504936E+04  0.31321504936E+04  0.00000000000E+00 0. -1.
         -2   -1    0    0    0  501 -0.00000000000E+00 -0.00000000000E+00 -0.45130561341E+03  0.45130561341E+03  0.00000000000E+00 0.  1.
         23    2    1    2    0    0 -0.70265569537E+03  0.65464498738E+03  0.23942804229E+04  0.25812563894E+04  0.89558464275E+02 0.  0.
         13    1    3    3    0    0 -0.97651243908E+02  0.13715228893E+03  0.42512201645E+03  0.45724746546E+03  0.00000000000E+00 0. -1.
        -13    1    3    3    0    0 -0.60500445146E+03  0.51749269845E+03  0.19691584065E+04  0.21240089240E+04  0.00000000000E+00 0.  1.
         22    1    1    2    0    0  0.70265569537E+03 -0.65464498738E+03  0.28656445723E+03  0.10021997176E+04  0.00000000000E+00 0.  1.
<mgrwt>
<rscale>  0 0.23778621E+04</rscale>
<asrwt>0</asrwt>
<pdfrwt beam="1">  1        2 0.48186929E+00 0.23778621E+04</pdfrwt>
<pdfrwt beam="2">  1       -2 0.69431635E-01 0.23778621E+04</pdfrwt>
<totfact> 0.24484132E+00</totfact>
</mgrwt>
</event>
<event>
 6    1  0.1637818E-005  0.1036403E+04  0.7818608E-02  0.9269496E-01
          2   -1    0    0  501    0  0.00000000000E+00  0.00000000000E+00  0.22252563385E+04  0.22252563385E+04  0.00000000000E+00 0. -1.
         -2   -1    0    0    0  501 -0.00000000000E+00 -0.00000000000E+00 -0.12067495698E+03  0.12067495698E+03  0.00000000000E+00 0.  1.
         23    2    1    2    0    0 -0.18576278757E+02 -0.39586802102E+03  0.18024276693E+04  0.18475805816E+04  0.88045070022E+02 0.  0.
         11    1    3    3    0    0 -0.25621646215E+02 -0.35163363760E+03  0.14465629671E+04  0.14889080233E+04  0.00000000000E+00 0. -1.
        -11    1    3    3    0    0  0.70453674589E+01 -0.44234383425E+02  0.35586470216E+03  0.35867255836E+03  0.00000000000E+00 0.  1.
         22    1    1    2    0    0  0.18576278757E+02  0.39586802102E+03  0.30215371226E+03  0.49835071389E+03  0.00000000000E+00 0.  1.
<mgrwt>
<rscale>  0 0.10364028E+04</rscale>
<asrwt>0</asrwt>
<pdfrwt beam="1">  1        2 0.34234710E+00 0.10364028E+04</pdfrwt>
<pdfrwt beam="2">  1       -2 0.18565380E-01 0.10364028E+04</pdfrwt>
<totfact> 0.12198919E+02</totfact>
</mgrwt>
</event>
<event>
 6    1  0.1637818E-005  0.8914097E+03  0.7818608E-02  0.9436384E-01
          1   -1    0    0  501    0  0.00000000000E+00  0.00000000000E+00  0.46550044316E+04  0.46550044316E+04  0.00000000000E+00 0. -1.
         -1   -1    0    0    0  501 -0.00000000000E+00 -0.00000000000E+00 -0.42675105999E+02  0.42675105999E+02  0.00000000000E+00 0.  1.
         23    2    1    2    0    0  0.31895415953E+03 -0.72913092930E+02  0.38895588274E+04  0.39043036695E+04  0.88719766036E+02 0.  0.
         11    1    3    3    0    0  0.14478261146E+03 -0.46426187516E+01  0.21010680961E+04  0.21060557217E+04  0.00000000000E+00 0. -1.
        -11    1    3    3    0    0  0.17417154807E+03 -0.68270474178E+02  0.17884907313E+04  0.17982479478E+04  0.00000000000E+00 0.  1.
         22    1    1    2    0    0 -0.31895415953E+03  0.72913092930E+02  0.72277049818E+03  0.79337586807E+03  0.00000000000E+00 0.  1.
<mgrwt>
<rscale>  0 0.89140969E+03</rscale>
<asrwt>0</asrwt>
<pdfrwt beam="1">  1        1 0.71615412E+00 0.89140969E+03</pdfrwt>
<pdfrwt beam="2">  1       -1 0.65654046E-02 0.89140969E+03</pdfrwt>
<totfact> 0.29719653E+00</totfact>
</mgrwt>
</event>
<event>
 6    1  0.1637818E-005  0.1426694E+04  0.7818608E-02  0.8934719E-01
         -2   -1    0    0    0  501 -0.00000000000E+00  0.00000000000E+00  0.33669743114E+03  0.33669743114E+03  0.00000000000E+00 0. -1.
          2   -1    0    0  501    0  0.00000000000E+00 -0.00000000000E+00 -0.15113398348E+04  0.15113398348E+04  0.00000000000E+00 0.  1.
         23    2    1    2    0    0 -0.70045736155E+03 -0.32178469901E+02 -0.43911304262E+03  0.83182891612E+03  0.86273473413E+02 0.  0.
         13    1    3    3    0    0 -0.48285135737E+03 -0.56274774514E+02 -0.32688941937E+03  0.58580626154E+03  0.00000000000E+00 0.  1.
        -13    1    3    3    0    0 -0.21760600418E+03  0.24096304613E+02 -0.11222362325E+03  0.24602265458E+03  0.00000000000E+00 0. -1.
         22    1    1    2    0    0  0.70045736155E+03  0.32178469901E+02 -0.73552936101E+03  0.10162083498E+04  0.00000000000E+00 0. -1.
<mgrwt>
<rscale>  0 0.14266944E+04</rscale>
<asrwt>0</asrwt>
<pdfrwt beam="1">  1        2 0.23251382E+00 0.14266944E+04</pdfrwt>
<pdfrwt beam="2">  1       -2 0.51799605E-01 0.14266944E+04</pdfrwt>
<totfact> 0.42756906E+01</totfact>
</mgrwt>
</event>
<event>
 6    1  0.1637818E-005  0.1891846E+04  0.7818608E-02  0.8658926E-01
          2   -1    0    0  501    0  0.00000000000E+00  0.00000000000E+00  0.14366944622E+04  0.14366944622E+04  0.00000000000E+00 0. -1.
         -2   -1    0    0    0  501 -0.00000000000E+00 -0.00000000000E+00 -0.62279771522E+03  0.62279771522E+03  0.00000000000E+00 0.  1.
         23    2    1    2    0    0 -0.75179096549E+03 -0.19963741871E+03  0.98966815606E+03  0.12620334995E+04  0.90778522173E+02 0.  0.
         13    1    3    3    0    0 -0.28474577881E+03 -0.11854692110E+03  0.41551902275E+03  0.51748390248E+03  0.00000000000E+00 0. -1.
        -13    1    3    3    0    0 -0.46704518668E+03 -0.81090497611E+02  0.57414913331E+03  0.74454959706E+03  0.00000000000E+00 0.  1.
         22    1    1    2    0    0  0.75179096549E+03  0.19963741871E+03 -0.17577140906E+03  0.79745867791E+03  0.00000000000E+00 0.  1.
<mgrwt>
<rscale>  0 0.18918457E+04</rscale>
<asrwt>0</asrwt>
<pdfrwt beam="1">  1        2 0.22102992E+00 0.18918457E+04</pdfrwt>
<pdfrwt beam="2">  1       -2 0.95815033E-01 0.18918457E+04</pdfrwt>
<totfact> 0.11806391E+01</totfact>
</mgrwt>
</event>
<event>
 6    1  0.1637818E-005  0.3066850E+04  0.7818608E-02  0.8224895E-01
          2   -1    0    0  501    0  0.00000000000E+00  0.00000000000E+00  0.35854531233E+04  0.35854531233E+04  0.00000000000E+00 0. -1.
         -2   -1    0    0    0  501 -0.00000000000E+00 -0.00000000000E+00 -0.65581444184E+03  0.65581444184E+03  0.00000000000E+00 0.  1.
         23    2    1    2    0    0 -0.55393897145E+03 -0.12779375402E+04  0.58352753514E+03  0.15128595583E+04  0.90922595208E+02 0.  0.
         13    1    3    3    0    0 -0.26728590533E+03 -0.65772171640E+03  0.25136462961E+03  0.75314260830E+03  0.00000000000E+00 0. -1.
        -13    1    3    3    0    0 -0.28665306612E+03 -0.62021582378E+03  0.33216290553E+03  0.75971695005E+03  0.00000000000E+00 0.  1.
         22    1    1    2    0    0  0.55393897145E+03  0.12779375402E+04  0.23461111463E+04  0.27284080068E+04  0.00000000000E+00 0. -1.
<mgrwt>
<rscale>  0 0.30668498E+04</rscale>
<asrwt>0</asrwt>
<pdfrwt beam="1">  1        2 0.55160816E+00 0.30668498E+04</pdfrwt>
<pdfrwt beam="2">  1       -2 0.10089453E+00 0.30668498E+04</pdfrwt>
<totfact> 0.48639686E-01</totfact>
</mgrwt>
</event>
<event>
 6    1  0.1637818E-005  0.3728643E+04  0.7818608E-02  0.8061644E-01
         -2   -1    0    0    0  501 -0.00000000000E+00  0.00000000000E+00  0.13507258163E+04  0.13507258163E+04  0.00000000000E+00 0. -1.
          2   -1    0    0  501    0  0.00000000000E+00 -0.00000000000E+00 -0.25732049739E+04  0.25732049739E+04  0.00000000000E+00 0.  1.
         23    2    1    2    0    0  0.17736791263E+04 -0.39969410423E+03 -0.10396552960E+04  0.20966055361E+04  0.95805111807E+02 0.  0.
         13    1    3    3    0    0  0.13278651051E+04 -0.29646692098E+03 -0.72947612030E+03  0.15437790589E+04  0.00000000000E+00 0. -1.
        -13    1    3    3    0    0  0.44581402116E+03 -0.10322718326E+03 -0.31017917567E+03  0.55282647716E+03  0.00000000000E+00 0.  1.
         22    1    1    2    0    0 -0.17736791263E+04  0.39969410423E+03 -0.18282386165E+03  0.18273252541E+04  0.00000000000E+00 0. -1.
<mgrwt>
<rscale>  0 0.37286429E+04</rscale>
<asrwt>0</asrwt>
<pdfrwt beam="1">  1        2 0.39587769E+00 0.37286429E+04</pdfrwt>
<pdfrwt beam="2">  1       -2 0.20780397E+00 0.37286429E+04</pdfrwt>
<totfact> 0.30103528E-01</totfact>
</mgrwt>
</event>
<event>
 6    1  0.1637818E-005  0.2949389E+04  0.7818608E-02  0.8258333E-01
         -1   -1    0    0    0  501 -0.00000000000E+00  0.00000000000E+00  0.82682566453E+03  0.82682566453E+03  0.00000000000E+00 0.  1.
          1   -1    0    0  501    0  0.00000000000E+00 -0.00000000000E+00 -0.26302076375E+04  0.26302076375E+04  0.00000000000E+00 0. -1.
         23    2    1    2    0    0 -0.61511449216E+03 -0.83521512339E+03 -0.21289438614E+04  0.23698623477E+04  0.88856294456E+02 0.  0.
         13    1    3    3    0    0 -0.14237182673E+03 -0.18228502734E+03 -0.56181723968E+03  0.60756578166E+03  0.00000000000E+00 0. -1.
        -13    1    3    3    0    0 -0.47274266543E+03 -0.65293009606E+03 -0.15671266217E+04  0.17622965660E+04  0.00000000000E+00 0.  1.
         22    1    1    2    0    0  0.61511449216E+03  0.83521512339E+03  0.32556188843E+03  0.10871709544E+04  0.00000000000E+00 0.  1.
<mgrwt>
<rscale>  0 0.29493885E+04</rscale>
<asrwt>0</asrwt>
<pdfrwt beam="1">  1        1 0.40464732E+00 0.29493885E+04</pdfrwt>
<pdfrwt beam="2">  1       -1 0.12720395E+00 0.29493885E+04</pdfrwt>
<totfact> 0.50293318E-01</totfact>
</mgrwt>
</event>
<event>
 6    1  0.1637818E-005  0.4656319E+03  0.7818608E-02  0.1023160E+00
          2   -1    0    0  501    0  0.00000000000E+00  0.00000000000E+00  0.32771915323E+03  0.32771915323E+03  0.00000000000E+00 0. -1.
         -2   -1    0    0    0  501 -0.00000000000E+00 -0.00000000000E+00 -0.16539546612E+03  0.16539546612E+03  0.00000000000E+00 0.  1.
         23    2    1    2    0    0  0.41114358996E+02 -0.13158625870E+02  0.31647478022E+03  0.33303307931E+03  0.94293188763E+02 0.  0.
         13    1    3    3    0    0  0.25751849952E+02  0.30169883827E+02  0.24403359735E+03  0.24723627626E+03  0.00000000000E+00 0.  1.
        -13    1    3    3    0    0  0.15362509044E+02 -0.43328509697E+02  0.72441182876E+02  0.85796803047E+02  0.00000000000E+00 0. -1.
         22    1    1    2    0    0 -0.41114358996E+02  0.13158625870E+02 -0.15415109312E+03  0.16008154004E+03  0.00000000000E+00 0.  1.
<mgrwt>
<rscale>  0 0.46563188E+03</rscale>
<asrwt>0</asrwt>
<pdfrwt beam="1">  1        2 0.50418331E-01 0.46563188E+03</pdfrwt>
<pdfrwt beam="2">  1       -2 0.25445456E-01 0.46563188E+03</pdfrwt>
<totfact> 0.13769836E+03</totfact>
</mgrwt>
</event>
<event>
 6    1  0.1637818E-005  0.3051591E+04  0.7818608E-02  0.8229150E-01
         -2   -1    0    0    0  501 -0.00000000000E+00  0.00000000000E+00  0.12715537604E+04  0.12715537604E+04  0.00000000000E+00 0.  1.
          2   -1    0    0  501    0  0.00000000000E+00 -0.00000000000E+00 -0.18308721628E+04  0.18308721628E+04  0.00000000000E+00 0. -1.
         23    2    1    2    0    0 -0.10598971761E+03  0.13911307201E+04 -0.90465217637E+03  0.16651597975E+04  0.88786768931E+02 0.  0.
         11    1    3    3    0    0  0.11956130854E+02  0.32156597980E+03 -0.21851896169E+03  0.38897064806E+03  0.00000000000E+00 0. -1.
        -11    1    3    3    0    0 -0.11794584846E+03  0.10695647403E+04 -0.68613321468E+03  0.12761891494E+04  0.00000000000E+00 0.  1.
         22    1    1    2    0    0  0.10598971761E+03 -0.13911307201E+04  0.34533377401E+03  0.14372661257E+04  0.00000000000E+00 0.  1.
<mgrwt>
<rscale>  0 0.30515913E+04</rscale>
<asrwt>0</asrwt>
<pdfrwt beam="1">  1        2 0.28167264E+00 0.30515913E+04</pdfrwt>
<pdfrwt beam="2">  1       -2 0.19562366E+00 0.30515913E+04</pdfrwt>
<totfact> 0.10052300E+00</totfact>
</mgrwt>
</event>
<event>
 6    1  0.1637818E-005  0.8474558E+03  0.7818608E-02  0.9493758E-01
         -2   -1    0    0    0  501 -0.00000000000E+00  0.00000000000E+00  0.97604189651E+02  0.97604189651E+02  0.00000000000E+00 0.  1.
          2   -1    0    0  501    0  0.00000000000E+00 -0.00000000000E+00 -0.18395249085E+04  0.18395249085E+04  0.00000000000E+00 0. -1.
         23    2    1    2    0    0 -0.11847687107E+02 -0.37622200619E+03 -0.13011776871E+04  0.13575276958E+04  0.90192603240E+02 0.  0.
         13    1    3    3    0    0  0.72115378317E+01  0.42266975406E+00 -0.56824233501E+02  0.57281571562E+02  0.00000000000E+00 0.  1.
        -13    1    3    3    0    0 -0.19059224939E+02 -0.37664467595E+03 -0.12443534536E+04  0.13002461242E+04  0.00000000000E+00 0. -1.
         22    1    1    2    0    0  0.11847687107E+02  0.37622200619E+03 -0.44074303174E+03  0.57960140240E+03  0.00000000000E+00 0. -1.
<mgrwt>
<rscale>  0 0.84745581E+03</rscale>
<asrwt>0</asrwt>
<pdfrwt beam="1">  1        2 0.28300382E+00 0.84745581E+03</pdfrwt>
<pdfrwt beam="2">  1       -2 0.15016030E-01 0.84745581E+03</pdfrwt>
<totfact> 0.29053596E+02</totfact>
</mgrwt>
</event>
<event>
 6    1  0.1637818E-005  0.1177956E+04  0.7818608E-02  0.9132374E-01
         -3   -1    0    0    0  501 -0.00000000000E+00  0.00000000000E+00  0.11740704374E+04  0.11740704374E+04  0.00000000000E+00 0.  1.
          3   -1    0    0  501    0  0.00000000000E+00 -0.00000000000E+00 -0.29546346038E+03  0.29546346038E+03  0.00000000000E+00 0. -1.
         23    2    1    2    0    0 -0.25514702421E+03  0.37287650477E+03  0.90621316198E+03  0.10168761980E+04  0.93155865324E+02 0.  0.
         11    1    3    3    0    0 -0.19704974697E+03  0.21828126958E+03  0.53261838328E+03  0.60840583300E+03  0.00000000000E+00 0.  1.
        -11    1    3    3    0    0 -0.58097277240E+02  0.15459523520E+03  0.37359477870E+03  0.40847036495E+03  0.00000000000E+00 0. -1.
         22    1    1    2    0    0  0.25514702421E+03 -0.37287650477E+03 -0.27606184955E+02  0.45265769984E+03  0.00000000000E+00 0. -1.
<mgrwt>
<rscale>  0 0.11779557E+04</rscale>
<asrwt>0</asrwt>
<pdfrwt beam="1">  1        3 0.45455918E-01 0.11779557E+04</pdfrwt>
<pdfrwt beam="2">  1       -3 0.18062622E+00 0.11779557E+04</pdfrwt>
<totfact> 0.24424164E+00</totfact>
</mgrwt>
</event>
<event>
 6    1  0.1637818E-005  0.3342961E+04  0.7818608E-02  0.8152049E-01
         -2   -1    0    0    0  501 -0.00000000000E+00  0.00000000000E+00  0.21821679707E+04  0.21821679707E+04  0.00000000000E+00 0. -1.
          2   -1    0    0  501    0  0.00000000000E+00 -0.00000000000E+00 -0.12803080149E+04  0.12803080149E+04  0.00000000000E+00 0.  1.
         23    2    1    2    0    0 -0.14968482565E+04  0.37330984394E+03 -0.21177536775E+03  0.15598203214E+04  0.90970798522E+02 0.  0.
         11    1    3    3    0    0 -0.97513292124E+03  0.19916179933E+03 -0.12787831406E+03  0.10034453147E+04  0.00000000000E+00 0.  1.
        -11    1    3    3    0    0 -0.52171533525E+03  0.17414804461E+03 -0.83897053688E+02  0.55637500671E+03  0.00000000000E+00 0. -1.
         22    1    1    2    0    0  0.14968482565E+04 -0.37330984394E+03  0.11136353235E+04  0.19026556641E+04  0.00000000000E+00 0. -1.
<mgrwt>
<rscale>  0 0.33429610E+04</rscale>
<asrwt>0</asrwt>
<pdfrwt beam="1">  1        2 0.19697046E+00 0.33429610E+04</pdfrwt>
<pdfrwt beam="2">  1       -2 0.33571815E+00 0.33429610E+04</pdfrwt>
<totfact> 0.27011449E-01</totfact>
</mgrwt>
</event>
<event>
 6    1  0.1637818E-005  0.1771640E+04  0.7818608E-02  0.8721528E-01
         -1   -1    0    0    0  501 -0.00000000000E+00  0.00000000000E+00  0.18164940889E+04  0.18164940889E+04  0.00000000000E+00 0.  1.
          1   -1    0    0  501    0  0.00000000000E+00 -0.00000000000E+00 -0.43197349808E+03  0.43197349808E+03  0.00000000000E+00 0. -1.
         23    2    1    2    0    0 -0.33549560014E+03 -0.79410158536E+03  0.44885943351E+03  0.97621901579E+03  0.91510382822E+02 0.  0.
         13    1    3    3    0    0 -0.13952211576E+03 -0.25737955521E+03  0.18940235266E+03  0.34868884040E+03  0.00000000000E+00 0.  1.
        -13    1    3    3    0    0 -0.19597348438E+03 -0.53672203015E+03  0.25945708085E+03  0.62753017540E+03  0.00000000000E+00 0. -1.
         22    1    1    2    0    0  0.33549560014E+03  0.79410158536E+03  0.93566115730E+03  0.12722485712E+04  0.00000000000E+00 0. -1.
<mgrwt>
<rscale>  0 0.17716403E+04</rscale>
<asrwt>0</asrwt>
<pdfrwt beam="1">  1        1 0.66457462E-01 0.17716403E+04</pdfrwt>
<pdfrwt beam="2">  1       -1 0.27946062E+00 0.17716403E+04</pdfrwt>
<totfact> 0.22982279E+00</totfact>
</mgrwt>
</event>
<event>
 6    1  0.1637818E-005  0.1498031E+04  0.7818608E-02  0.8885763E-01
          2   -1    0    0  501    0  0.00000000000E+00  0.00000000000E+00  0.25683238551E+04  0.25683238551E+04  0.00000000000E+00 0. -1.
         -2   -1    0    0    0  501 -0.00000000000E+00 -0.00000000000E+00 -0.21843992115E+03  0.21843992115E+03  0.00000000000E+00 0.  1.
         23    2    1    2    0    0  0.23859420030E+03  0.46192426091E+03  0.21752207805E+04  0.22383037208E+04  0.90093770380E+02 0.  0.
         11    1    3    3    0    0  0.46084927463E+02  0.71453689970E+02  0.51402655040E+03  0.52101127134E+03  0.00000000000E+00 0.  1.
        -11    1    3    3    0    0  0.19250927284E+03  0.39047057094E+03  0.16611942301E+04  0.17172924495E+04  0.00000000000E+00 0. -1.
         22    1    1    2    0    0 -0.23859420030E+03 -0.46192426091E+03  0.17466315345E+03  0.54846005544E+03  0.00000000000E+00 0.  1.
<mgrwt>
<rscale>  0 0.14980313E+04</rscale>
<asrwt>0</asrwt>
<pdfrwt beam="1">  1        2 0.39512673E+00 0.14980313E+04</pdfrwt>
<pdfrwt beam="2">  1       -2 0.33606143E-01 0.14980313E+04</pdfrwt>
<totfact> 0.25494511E+01</totfact>
</mgrwt>
</event>
<event>
 6    1  0.1637818E-005  0.9735964E+03  0.7818608E-02  0.9337987E-01
          1   -1    0    0  501    0  0.00000000000E+00  0.00000000000E+00  0.82609006805E+03  0.82609006805E+03  0.00000000000E+00 0. -1.
         -1   -1    0    0    0  501 -0.00000000000E+00 -0.00000000000E+00 -0.28686035839E+03  0.28686035839E+03  0.00000000000E+00 0.  1.
         23    2    1    2    0    0 -0.40318396590E+03 -0.13213030160E+03  0.53461304450E+03  0.68864270726E+03  0.91662118423E+02 0.  0.
         13    1    3    3    0    0 -0.22514931492E+03 -0.83636675737E+02  0.37140576426E+03  0.44230029309E+03  0.00000000000E+00 0. -1.
        -13    1    3    3    0    0 -0.17803465098E+03 -0.48493625861E+02  0.16320728024E+03  0.24634241417E+03  0.00000000000E+00 0.  1.
         22    1    1    2    0    0  0.40318396590E+03  0.13213030160E+03  0.46166651536E+01  0.42430771918E+03  0.00000000000E+00 0.  1.
<mgrwt>
<rscale>  0 0.97359641E+03</rscale>
<asrwt>0</asrwt>
<pdfrwt beam="1">  1        1 0.12709078E+00 0.97359641E+03</pdfrwt>
<pdfrwt beam="2">  1       -1 0.44132363E-01 0.97359641E+03</pdfrwt>
<totfact> 0.10695730E+02</totfact>
</mgrwt>
</event>
<event>
 6    1  0.1637818E-005  0.2186998E+04  0.7818608E-02  0.8523859E-01
         -1   -1    0    0    0  501 -0.00000000000E+00  0.00000000000E+00  0.46917737615E+03  0.46917737615E+03  0.00000000000E+00 0. -1.
          1   -1    0    0  501    0  0.00000000000E+00 -0.00000000000E+00 -0.25485888929E+04  0.25485888929E+04  0.00000000000E+00 0.  1.
         23    2    1    2    0    0  0.36040585052E+03  0.10303658007E+02 -0.24632374885E+04  0.24911535849E+04  0.91152161835E+02 0.  0.
         13    1    3    3    0    0  0.10206774785E+03  0.84712689056E+01 -0.10053166358E+04  0.10105202253E+04  0.00000000000E+00 0. -1.
        -13    1    3    3    0    0  0.25833810266E+03  0.18323891018E+01 -0.14579208527E+04  0.14806333596E+04  0.00000000000E+00 0.  1.
         22    1    1    2    0    0 -0.36040585052E+03 -0.10303658007E+02  0.38382597175E+03  0.52661268409E+03  0.00000000000E+00 0. -1.
<mgrwt>
<rscale>  0 0.21869982E+04</rscale>
<asrwt>0</asrwt>
<pdfrwt beam="1">  1        1 0.39209060E+00 0.21869982E+04</pdfrwt>
<pdfrwt beam="2">  1       -1 0.72181134E-01 0.21869982E+04</pdfrwt>
<totfact> 0.22155521E+00</totfact>
</mgrwt>
</event>
<event>
 6    1  0.1637818E-005  0.3063765E+04  0.7818608E-02  0.8225753E-01
         -2   -1    0    0    0  501 -0.00000000000E+00  0.00000000000E+00  0.10744165925E+04  0.10744165925E+04  0.00000000000E+00 0.  1.
          2   -1    0    0  501    0  0.00000000000E+00 -0.00000000000E+00 -0.21841285108E+04  0.21841285108E+04  0.00000000000E+00 0. -1.
         23    2    1    2    0    0 -0.15187685156E+02  0.10321551786E+04 -0.17571901387E+04  0.20400201654E+04  0.91597561833E+02 0.  0.
         11    1    3    3    0    0 -0.25674915368E+02  0.88495106058E+03 -0.14438230925E+04  0.16936418462E+04  0.00000000000E+00 0. -1.
        -11    1    3    3    0    0  0.10487230213E+02  0.14720411799E+03 -0.31336704621E+03  0.34637831918E+03  0.00000000000E+00 0.  1.
         22    1    1    2    0    0  0.15187685156E+02 -0.10321551786E+04  0.64747822032E+03  0.12185249379E+04  0.00000000000E+00 0.  1.
<mgrwt>
<rscale>  0 0.30637649E+04</rscale>
<asrwt>0</asrwt>
<pdfrwt beam="1">  1        2 0.33601977E+00 0.30637649E+04</pdfrwt>
<pdfrwt beam="2">  1       -2 0.16529486E+00 0.30637649E+04</pdfrwt>
<totfact> 0.10340840E+00</totfact>
</mgrwt>
</event>
<event>
 6    1  0.1637818E-005  0.1904670E+04  0.7818608E-02  0.8652535E-01
         -3   -1    0    0    0  501 -0.00000000000E+00  0.00000000000E+00  0.11054862207E+04  0.11054862207E+04  0.00000000000E+00 0.  1.
          3   -1    0    0  501    0  0.00000000000E+00 -0.00000000000E+00 -0.82040065916E+03  0.82040065916E+03  0.00000000000E+00 0. -1.
         23    2    1    2    0    0  0.83467260201E+03 -0.42736118342E+02 -0.31425208951E+03  0.89743642001E+03  0.90183279160E+02 0.  0.
         11    1    3    3    0    0  0.63065713115E+03 -0.55833467683E+02 -0.20406939527E+03  0.66519930192E+03  0.00000000000E+00 0.  1.
        -11    1    3    3    0    0  0.20401547086E+03  0.13097349340E+02 -0.11018269424E+03  0.23223711809E+03  0.00000000000E+00 0. -1.
         22    1    1    2    0    0 -0.83467260201E+03  0.42736118342E+02  0.59933765100E+03  0.10284504598E+04  0.00000000000E+00 0.  1.
<mgrwt>
<rscale>  0 0.19046697E+04</rscale>
<asrwt>0</asrwt>
<pdfrwt beam="1">  1        3 0.12621549E+00 0.19046697E+04</pdfrwt>
<pdfrwt beam="2">  1       -3 0.17007480E+00 0.19046697E+04</pdfrwt>
<totfact> 0.28295499E-01</totfact>
</mgrwt>
</event>
<event>
 6    1  0.1637818E-005  0.2928437E+04  0.7818608E-02  0.8264467E-01
         -2   -1    0    0    0  501 -0.00000000000E+00  0.00000000000E+00  0.20672028830E+04  0.20672028830E+04  0.00000000000E+00 0.  1.
          2   -1    0    0  501    0  0.00000000000E+00 -0.00000000000E+00 -0.10371188748E+04  0.10371188748E+04  0.00000000000E+00 0. -1.
         23    2    1    2    0    0  0.74493802040E+03 -0.79650061591E+03  0.15490931323E+04  0.18965484529E+04  0.88660115701E+02 0.  0.
         11    1    3    3    0    0  0.57026416589E+03 -0.56994330746E+03  0.10937161022E+04  0.13587683779E+04  0.00000000000E+00 0. -1.
        -11    1    3    3    0    0  0.17467385450E+03 -0.22655730845E+03  0.45537703007E+03  0.53778007491E+03  0.00000000000E+00 0.  1.
         22    1    1    2    0    0 -0.74493802040E+03  0.79650061591E+03 -0.51900912406E+03  0.12077733050E+04  0.00000000000E+00 0. -1.
<mgrwt>
<rscale>  0 0.29284365E+04</rscale>
<asrwt>0</asrwt>
<pdfrwt beam="1">  1        2 0.15955675E+00 0.29284365E+04</pdfrwt>
<pdfrwt beam="2">  1       -2 0.31803121E+00 0.29284365E+04</pdfrwt>
<totfact> 0.50566038E-01</totfact>
</mgrwt>
</event>
<event>
 6    1  0.1637818E-005  0.7210081E+04  0.7818608E-02  0.7556149E-01
         -2   -1    0    0    0  501 -0.00000000000E+00  0.00000000000E+00  0.47415125024E+04  0.47415125024E+04  0.00000000000E+00 0.  1.
          2   -1    0    0  501    0  0.00000000000E+00 -0.00000000000E+00 -0.27409640499E+04  0.27409640499E+04  0.00000000000E+00 0. -1.
         23    2    1    2    0    0  0.11797690017E+04 -0.20396243359E+04  0.38310636387E+04  0.44987359174E+04  0.98254369857E+02 0.  0.
         13    1    3    3    0    0  0.46032332941E+03 -0.87019015668E+03  0.15408754240E+04  0.18285036365E+04  0.00000000000E+00 0. -1.
        -13    1    3    3    0    0  0.71944567233E+03 -0.11694341792E+04  0.22901882147E+04  0.26702322809E+04  0.00000000000E+00 0.  1.
         22    1    1    2    0    0 -0.11797690017E+04  0.20396243359E+04 -0.18305151862E+04  0.29837406349E+04  0.00000000000E+00 0. -1.
<mgrwt>
<rscale>  0 0.72100805E+04</rscale>
<asrwt>0</asrwt>
<pdfrwt beam="1">  1        2 0.42168678E+00 0.72100805E+04</pdfrwt>
<pdfrwt beam="2">  1       -2 0.72946346E+00 0.72100805E+04</pdfrwt>
<totfact> 0.27696433E-04</totfact>
</mgrwt>
</event>
<event>
 6    1  0.1637818E-005  0.1596858E+04  0.7818608E-02  0.8822481E-01
          1   -1    0    0  501    0  0.00000000000E+00  0.00000000000E+00  0.15453135314E+04  0.15453135314E+04  0.00000000000E+00 0. -1.
         -1   -1    0    0    0  501 -0.00000000000E+00 -0.00000000000E+00 -0.41253022251E+03  0.41253022251E+03  0.00000000000E+00 0.  1.
         23    2    1    2    0    0  0.10360690385E+03  0.64108806752E+03  0.11318050641E+04  0.13084369031E+04  0.96416417007E+02 0.  0.
         11    1    3    3    0    0  0.98134050886E+02  0.42925304033E+03  0.69149656484E+03  0.81979019496E+03  0.00000000000E+00 0. -1.
        -11    1    3    3    0    0  0.54728529686E+01  0.21183502720E+03  0.44030849930E+03  0.48864670819E+03  0.00000000000E+00 0.  1.
         22    1    1    2    0    0 -0.10360690385E+03 -0.64108806752E+03  0.97824475474E+00  0.64940685076E+03  0.00000000000E+00 0.  1.
<mgrwt>
<rscale>  0 0.15968576E+04</rscale>
<asrwt>0</asrwt>
<pdfrwt beam="1">  1        1 0.23774054E+00 0.15968576E+04</pdfrwt>
<pdfrwt beam="2">  1       -1 0.63466189E-01 0.15968576E+04</pdfrwt>
<totfact> 0.14706667E+01</totfact>
</mgrwt>
</event>
<event>
 6    1  0.1637818E-005  0.1247844E+04  0.7818608E-02  0.9071979E-01
         -1   -1    0    0    0  501 -0.00000000000E+00  0.00000000000E+00  0.59953148312E+03  0.59953148312E+03  0.00000000000E+00 0.  1.
          1   -1    0    0  501    0  0.00000000000E+00 -0.00000000000E+00 -0.64930518959E+03  0.64930518959E+03  0.00000000000E+00 0. -1.
         23    2    1    2    0    0 -0.27391021969E+03  0.17387730145E+03 -0.55439859051E+03  0.64891467944E+03  0.92045312912E+02 0.  0.
         11    1    3    3    0    0 -0.25614013135E+03  0.18218285783E+03 -0.49503259029E+03  0.58639204124E+03  0.00000000000E+00 0. -1.
        -11    1    3    3    0    0 -0.17770088337E+02 -0.83055563809E+01 -0.59366000220E+02  0.62522638207E+02  0.00000000000E+00 0.  1.
         22    1    1    2    0    0  0.27391021969E+03 -0.17387730145E+03  0.50462488404E+03  0.59992199326E+03  0.00000000000E+00 0.  1.
<mgrwt>
<rscale>  0 0.12478444E+04</rscale>
<asrwt>0</asrwt>
<pdfrwt beam="1">  1        1 0.99893106E-01 0.12478444E+04</pdfrwt>
<pdfrwt beam="2">  1       -1 0.92235613E-01 0.12478444E+04</pdfrwt>
<totfact> 0.34436616E+01</totfact>
</mgrwt>
</event>
<event>
 6    1  0.2291241E-005  0.4282367E+04  0.7818608E-02  0.7949887E-01
         -2   -1    0    0    0  501 -0.00000000000E+00  0.00000000000E+00  0.15449648017E+04  0.15449648017E+04  0.00000000000E+00 0.  1.
          2   -1    0    0  501    0  0.00000000000E+00 -0.00000000000E+00 -0.29674889106E+04  0.29674889106E+04  0.00000000000E+00 0. -1.
         23    2    1    2    0    0 -0.44688331241E+02 -0.20941324854E+04 -0.24850302469E+03  0.21112637115E+04  0.91064774265E+02 0.  0.
         13    1    3    3    0    0 -0.67033484158E+02 -0.10651001777E+04 -0.11591274456E+03  0.10734838801E+04  0.00000000000E+00 0. -1.
        -13    1    3    3    0    0  0.22345152917E+02 -0.10290323077E+04 -0.13259028013E+03  0.10377798314E+04  0.00000000000E+00 0.  1.
         22    1    1    2    0    0  0.44688331241E+02  0.20941324854E+04 -0.11740210843E+04  0.24011900007E+04  0.00000000000E+00 0.  1.
<mgrwt>
<rscale>  0 0.42823666E+04</rscale>
<asrwt>0</asrwt>
<pdfrwt beam="1">  1        2 0.45653675E+00 0.42823666E+04</pdfrwt>
<pdfrwt beam="2">  1       -2 0.23768690E+00 0.42823666E+04</pdfrwt>
<totfact> 0.10767179E-01</totfact>
</mgrwt>
</event>
<event>
 6    1  0.1637818E-005  0.5448639E+03  0.7818608E-02  0.1002690E+00
          2   -1    0    0  501    0  0.00000000000E+00  0.00000000000E+00  0.40769266645E+03  0.40769266645E+03  0.00000000000E+00 0. -1.
         -2   -1    0    0    0  501 -0.00000000000E+00 -0.00000000000E+00 -0.18204687710E+03  0.18204687710E+03  0.00000000000E+00 0.  1.
         23    2    1    2    0    0 -0.39769896313E+02  0.19452318377E+03  0.30555369645E+03  0.37571574279E+03  0.91533296061E+02 0.  0.
         11    1    3    3    0    0 -0.32554398406E+02  0.10546908432E+03  0.90141787064E+02  0.14250985361E+03  0.00000000000E+00 0. -1.
        -11    1    3    3    0    0 -0.72154979073E+01  0.89054099452E+02  0.21541190939E+03  0.23320588918E+03  0.00000000000E+00 0.  1.
         22    1    1    2    0    0  0.39769896313E+02 -0.19452318377E+03 -0.79907907102E+02  0.21402380076E+03  0.00000000000E+00 0.  1.
<mgrwt>
<rscale>  0 0.54486393E+03</rscale>
<asrwt>0</asrwt>
<pdfrwt beam="1">  1        2 0.62721948E-01 0.54486393E+03</pdfrwt>
<pdfrwt beam="2">  1       -2 0.28007212E-01 0.54486393E+03</pdfrwt>
<totfact> 0.90931796E+02</totfact>
</mgrwt>
</event>
<event>
 6    1  0.1637818E-005  0.9503125E+03  0.7818608E-02  0.9364785E-01
         -1   -1    0    0    0  501 -0.00000000000E+00  0.00000000000E+00  0.11697632399E+03  0.11697632399E+03  0.00000000000E+00 0. -1.
          1   -1    0    0  501    0  0.00000000000E+00 -0.00000000000E+00 -0.19300783475E+04  0.19300783475E+04  0.00000000000E+00 0.  1.
         23    2    1    2    0    0  0.41124508213E+03 -0.20585762081E+03 -0.11302057487E+04  0.12237399080E+04  0.93136729681E+02 0.  0.
         13    1    3    3    0    0  0.25476113100E+03 -0.11179777180E+03 -0.56511663885E+03  0.62988791952E+03  0.00000000000E+00 0. -1.
        -13    1    3    3    0    0  0.15648395114E+03 -0.94059849007E+02 -0.56508910980E+03  0.59385198844E+03  0.00000000000E+00 0.  1.
         22    1    1    2    0    0 -0.41124508213E+03  0.20585762081E+03 -0.68289627486E+03  0.82331476353E+03  0.00000000000E+00 0. -1.
<mgrwt>
<rscale>  0 0.95031252E+03</rscale>
<asrwt>0</asrwt>
<pdfrwt beam="1">  1        1 0.29693512E+00 0.95031252E+03</pdfrwt>
<pdfrwt beam="2">  1       -1 0.17996358E-01 0.95031252E+03</pdfrwt>
<totfact> 0.81933409E+01</totfact>
</mgrwt>
</event>
<event>
 6    1  0.1637818E-005  0.2338274E+04  0.7818608E-02  0.8462981E-01
          1   -1    0    0  501    0  0.00000000000E+00  0.00000000000E+00  0.18214299427E+04  0.18214299427E+04  0.00000000000E+00 0. -1.
         -1   -1    0    0    0  501 -0.00000000000E+00 -0.00000000000E+00 -0.75044392311E+03  0.75044392311E+03  0.00000000000E+00 0.  1.
         23    2    1    2    0    0 -0.86734189577E+03  0.27530029811E+03 -0.26662961657E+03  0.95407047592E+03  0.10529436019E+03 0.  0.
         13    1    3    3    0    0 -0.45397779418E+03  0.93505470611E+02 -0.15704790283E+03  0.48939059495E+03  0.00000000000E+00 0. -1.
        -13    1    3    3    0    0 -0.41336410158E+03  0.18179482750E+03 -0.10958171374E+03  0.46467988096E+03  0.00000000000E+00 0.  1.
         22    1    1    2    0    0  0.86734189577E+03 -0.27530029811E+03  0.13376156362E+04  0.16178033899E+04  0.00000000000E+00 0. -1.
<mgrwt>
<rscale>  0 0.23382737E+04</rscale>
<asrwt>0</asrwt>
<pdfrwt beam="1">  1        1 0.28021999E+00 0.23382737E+04</pdfrwt>
<pdfrwt beam="2">  1       -1 0.11545291E+00 0.23382737E+04</pdfrwt>
<totfact> 0.24130017E+00</totfact>
</mgrwt>
</event>
<event>
 6    1  0.1637818E-005  0.1142676E+04  0.7818608E-02  0.9164566E-01
          2   -1    0    0  501    0  0.00000000000E+00  0.00000000000E+00  0.51741330928E+03  0.51741330928E+03  0.00000000000E+00 0.  1.
         -2   -1    0    0    0  501 -0.00000000000E+00 -0.00000000000E+00 -0.63088323255E+03  0.63088323255E+03  0.00000000000E+00 0. -1.
         23    2    1    2    0    0  0.19642735920E+03  0.16336311179E+03  0.45230096270E+03  0.52751646069E+03  0.91794562509E+02 0.  0.
         13    1    3    3    0    0  0.15403413617E+03  0.76711825945E+02  0.32556567719E+03  0.36824479563E+03  0.00000000000E+00 0. -1.
        -13    1    3    3    0    0  0.42393223024E+02  0.86651285850E+02  0.12673528551E+03  0.15927166506E+03  0.00000000000E+00 0.  1.
         22    1    1    2    0    0 -0.19642735920E+03 -0.16336311179E+03 -0.56577088596E+03  0.62078008114E+03  0.00000000000E+00 0. -1.
<mgrwt>
<rscale>  0 0.11426765E+04</rscale>
<asrwt>0</asrwt>
<pdfrwt beam="1">  1        2 0.79602048E-01 0.11426765E+04</pdfrwt>
<pdfrwt beam="2">  1       -2 0.97058958E-01 0.11426765E+04</pdfrwt>
<totfact> 0.51946205E+01</totfact>
</mgrwt>
</event>
<event>
 6    1  0.1637818E-005  0.1603217E+04  0.7818608E-02  0.8818574E-01
          1   -1    0    0  501    0  0.00000000000E+00  0.00000000000E+00  0.15347615428E+04  0.15347615428E+04  0.00000000000E+00 0. -1.
         -1   -1    0    0    0  501 -0.00000000000E+00 -0.00000000000E+00 -0.41868161637E+03  0.41868161637E+03  0.00000000000E+00 0.  1.
         23    2    1    2    0    0  0.70866031580E+03 -0.27625216516E+03  0.26211514724E+03  0.80986520116E+03  0.93073044908E+02 0.  0.
         11    1    3    3    0    0  0.95513288073E+02 -0.45609924165E+01  0.33881999158E+02  0.10144742834E+03  0.00000000000E+00 0. -1.
        -11    1    3    3    0    0  0.61314702773E+03 -0.27169117275E+03  0.22823314808E+03  0.70841777282E+03  0.00000000000E+00 0.  1.
         22    1    1    2    0    0 -0.70866031580E+03  0.27625216516E+03  0.85396477917E+03  0.11435779580E+04  0.00000000000E+00 0. -1.
<mgrwt>
<rscale>  0 0.16032173E+04</rscale>
<asrwt>0</asrwt>
<pdfrwt beam="1">  1        1 0.23611716E+00 0.16032173E+04</pdfrwt>
<pdfrwt beam="2">  1       -1 0.64412557E-01 0.16032173E+04</pdfrwt>
<totfact> 0.14509276E+01</totfact>
</mgrwt>
</event>
<event>
 6    1  0.1637818E-005  0.2967536E+04  0.7818608E-02  0.8253062E-01
          2   -1    0    0  501    0  0.00000000000E+00  0.00000000000E+00  0.19447528165E+04  0.19447528165E+04  0.00000000000E+00 0.  1.
         -2   -1    0    0    0  501 -0.00000000000E+00 -0.00000000000E+00 -0.11320551820E+04  0.11320551820E+04  0.00000000000E+00 0. -1.
         23    2    1    2    0    0 -0.81371511031E+03  0.11307688490E+04 -0.11838794269E+03  0.14011914486E+04  0.92473239125E+02 0.  0.
         11    1    3    3    0    0 -0.37900686250E+03  0.55435718227E+03 -0.13618386435E+02  0.67167220265E+03  0.00000000000E+00 0. -1.
        -11    1    3    3    0    0 -0.43470824781E+03  0.57641166671E+03 -0.10476955625E+03  0.72951924591E+03  0.00000000000E+00 0.  1.
         22    1    1    2    0    0  0.81371511031E+03 -0.11307688490E+04  0.93108557718E+03  0.16756165500E+04  0.00000000000E+00 0.  1.
<mgrwt>
<rscale>  0 0.29675360E+04</rscale>
<asrwt>0</asrwt>
<pdfrwt beam="1">  1        2 0.29919274E+00 0.29675360E+04</pdfrwt>
<pdfrwt beam="2">  1       -2 0.17416234E+00 0.29675360E+04</pdfrwt>
<totfact> 0.12259506E+00</totfact>
</mgrwt>
</event>
<event>
 6    1  0.1637818E-005  0.1904268E+04  0.7818608E-02  0.8652735E-01
          1   -1    0    0  501    0  0.00000000000E+00  0.00000000000E+00  0.23522887689E+04  0.23522887689E+04  0.00000000000E+00 0. -1.
         -1   -1    0    0    0  501 -0.00000000000E+00 -0.00000000000E+00 -0.38539437738E+03  0.38539437738E+03  0.00000000000E+00 0.  1.
         23    2    1    2    0    0 -0.56506652977E+03  0.84299122652E+02  0.20768150532E+04  0.21558850051E+04  0.90955290581E+02 0.  0.
         13    1    3    3    0    0 -0.85363258979E+02  0.31657387197E+02  0.44448297642E+03  0.45371157410E+03  0.00000000000E+00 0.  1.
        -13    1    3    3    0    0 -0.47970327079E+03  0.52641735455E+02  0.16323320768E+04  0.17021734310E+04  0.00000000000E+00 0. -1.
         22    1    1    2    0    0  0.56506652977E+03 -0.84299122652E+02 -0.10992066174E+03  0.58179814113E+03  0.00000000000E+00 0.  1.
<mgrwt>
<rscale>  0 0.19042677E+04</rscale>
<asrwt>0</asrwt>
<pdfrwt beam="1">  1        1 0.36189057E+00 0.19042677E+04</pdfrwt>
<pdfrwt beam="2">  1       -1 0.59291444E-01 0.19042677E+04</pdfrwt>
<totfact> 0.46232546E+00</totfact>
</mgrwt>
</event>
<event>
 6    1  0.1637818E-005  0.1610929E+04  0.7818608E-02  0.8813862E-01
         -2   -1    0    0    0  501 -0.00000000000E+00  0.00000000000E+00  0.19146445699E+04  0.19146445699E+04  0.00000000000E+00 0.  1.
          2   -1    0    0  501    0  0.00000000000E+00 -0.00000000000E+00 -0.33884762643E+03  0.33884762643E+03  0.00000000000E+00 0. -1.
         23    2    1    2    0    0  0.33364046504E+03  0.25687613186E+03 -0.16572748306E+03  0.46178668613E+03  0.92087120828E+02 0.  0.
         13    1    3    3    0    0  0.94664048331E+02  0.10869867067E+03 -0.92333611192E+02  0.17117879193E+03  0.00000000000E+00 0. -1.
        -13    1    3    3    0    0  0.23897641670E+03  0.14817746119E+03 -0.73393871869E+02  0.29060789420E+03  0.00000000000E+00 0.  1.
         22    1    1    2    0    0 -0.33364046504E+03 -0.25687613186E+03  0.17415244265E+04  0.17917055101E+04  0.00000000000E+00 0.  1.
<mgrwt>
<rscale>  0 0.16109286E+04</rscale>
<asrwt>0</asrwt>
<pdfrwt beam="1">  1        2 0.52130405E-01 0.16109286E+04</pdfrwt>
<pdfrwt beam="2">  1       -2 0.29456070E+00 0.16109286E+04</pdfrwt>
<totfact> 0.31583923E+00</totfact>
</mgrwt>
</event>
<event>
 6    1  0.1637818E-005  0.3731924E+04  0.7818608E-02  0.8060924E-01
         -2   -1    0    0    0  501 -0.00000000000E+00  0.00000000000E+00  0.90169634743E+03  0.90169634743E+03  0.00000000000E+00 0.  1.
          2   -1    0    0  501    0  0.00000000000E+00 -0.00000000000E+00 -0.38614036756E+04  0.38614036756E+04  0.00000000000E+00 0. -1.
         23    2    1    2    0    0 -0.32195943536E+03 -0.16799319044E+04 -0.24289035807E+04  0.29721277453E+04  0.90231084166E+02 0.  0.
         11    1    3    3    0    0 -0.56495545061E+02 -0.15809182178E+03 -0.25113217129E+03  0.30207968846E+03  0.00000000000E+00 0.  1.
        -11    1    3    3    0    0 -0.26546389030E+03 -0.15218400826E+04 -0.21777714094E+04  0.26700480568E+04  0.00000000000E+00 0. -1.
         22    1    1    2    0    0  0.32195943536E+03  0.16799319044E+04 -0.53080374754E+03  0.17909722778E+04  0.00000000000E+00 0. -1.
<mgrwt>
<rscale>  0 0.37319237E+04</rscale>
<asrwt>0</asrwt>
<pdfrwt beam="1">  1        2 0.59406209E+00 0.37319237E+04</pdfrwt>
<pdfrwt beam="2">  1       -2 0.13872252E+00 0.37319237E+04</pdfrwt>
<totfact> 0.13030093E-01</totfact>
</mgrwt>
</event>
<event>
 6    1  0.1637818E-005  0.3724494E+04  0.7818608E-02  0.8062555E-01
         -4   -1    0    0    0  501 -0.00000000000E+00  0.00000000000E+00  0.20288237507E+04  0.20288237507E+04  0.00000000000E+00 0.  1.
          4   -1    0    0  501    0  0.00000000000E+00 -0.00000000000E+00 -0.17093474675E+04  0.17093474675E+04  0.00000000000E+00 0. -1.
         23    2    1    2    0    0  0.26760423068E+03  0.10726578866E+04 -0.13426670156E+04  0.17419429468E+04  0.96971898285E+02 0.  0.
         13    1    3    3    0    0  0.22069898918E+03  0.75150841631E+03 -0.90098532530E+03  0.11938373005E+04  0.00000000000E+00 0.  1.
        -13    1    3    3    0    0  0.46905241495E+02  0.32114947030E+03 -0.44168169033E+03  0.54810564632E+03  0.00000000000E+00 0. -1.
         22    1    1    2    0    0 -0.26760423068E+03 -0.10726578866E+04  0.16621432988E+04  0.19962282714E+04  0.00000000000E+00 0.  1.
<mgrwt>
<rscale>  0 0.37244945E+04</rscale>
<asrwt>0</asrwt>
<pdfrwt beam="1">  1        4 0.26297653E+00 0.37244945E+04</pdfrwt>
<pdfrwt beam="2">  1       -4 0.31212673E+00 0.37244945E+04</pdfrwt>
<totfact> 0.21560446E-03</totfact>
</mgrwt>
</event>
<event>
 6    1  0.1637818E-005  0.1480587E+04  0.7818608E-02  0.8897466E-01
         -1   -1    0    0    0  501 -0.00000000000E+00  0.00000000000E+00  0.91214524776E+03  0.91214524776E+03  0.00000000000E+00 0.  1.
          1   -1    0    0  501    0  0.00000000000E+00 -0.00000000000E+00 -0.60081940476E+03  0.60081940476E+03  0.00000000000E+00 0. -1.
         23    2    1    2    0    0 -0.22506962204E+03 -0.31062992079E+03  0.79917399488E+03  0.89236566627E+03  0.10242131513E+03 0.  0.
         13    1    3    3    0    0 -0.16357936660E+03 -0.19625541220E+03  0.42034749838E+03  0.49190081865E+03  0.00000000000E+00 0. -1.
        -13    1    3    3    0    0 -0.61490255439E+02 -0.11437450859E+03  0.37882649650E+03  0.40046484762E+03  0.00000000000E+00 0.  1.
         22    1    1    2    0    0  0.22506962204E+03  0.31062992079E+03 -0.48784815187E+03  0.62059898625E+03  0.00000000000E+00 0. -1.
<mgrwt>
<rscale>  0 0.14805871E+04</rscale>
<asrwt>0</asrwt>
<pdfrwt beam="1">  1        1 0.92433754E-01 0.14805871E+04</pdfrwt>
<pdfrwt beam="2">  1       -1 0.14033004E+00 0.14805871E+04</pdfrwt>
<totfact> 0.13797962E+01</totfact>
</mgrwt>
</event>
<event>
 6    1  0.1637818E-005  0.2461127E+04  0.7818608E-02  0.8416967E-01
         -4   -1    0    0    0  501 -0.00000000000E+00  0.00000000000E+00  0.10396285671E+04  0.10396285671E+04  0.00000000000E+00 0.  1.
          4   -1    0    0  501    0  0.00000000000E+00 -0.00000000000E+00 -0.14565648219E+04  0.14565648219E+04  0.00000000000E+00 0. -1.
         23    2    1    2    0    0 -0.97766897617E+03 -0.28745495288E+03 -0.90528081441E+03  0.13661724219E+04  0.91797367380E+02 0.  0.
         13    1    3    3    0    0 -0.36689484357E+03 -0.63847071501E+02 -0.34688757436E+03  0.50893935201E+03  0.00000000000E+00 0. -1.
        -13    1    3    3    0    0 -0.61077413260E+03 -0.22360788138E+03 -0.55839324004E+03  0.85723306994E+03  0.00000000000E+00 0.  1.
         22    1    1    2    0    0  0.97766897617E+03  0.28745495288E+03  0.48834455961E+03  0.11300209670E+04  0.00000000000E+00 0.  1.
<mgrwt>
<rscale>  0 0.24611269E+04</rscale>
<asrwt>0</asrwt>
<pdfrwt beam="1">  1        4 0.22408690E+00 0.24611269E+04</pdfrwt>
<pdfrwt beam="2">  1       -4 0.15994286E+00 0.24611269E+04</pdfrwt>
<totfact> 0.41073125E-02</totfact>
</mgrwt>
</event>
<event>
 6    1  0.1637818E-005  0.1305690E+04  0.7818608E-02  0.9025065E-01
         -2   -1    0    0    0  501 -0.00000000000E+00  0.00000000000E+00  0.26548378499E+03  0.26548378499E+03  0.00000000000E+00 0.  1.
          2   -1    0    0  501    0  0.00000000000E+00 -0.00000000000E+00 -0.16053959784E+04  0.16053959784E+04  0.00000000000E+00 0. -1.
         23    2    1    2    0    0 -0.35900530669E+03  0.17395066289E+03 -0.14080137108E+04  0.14661805417E+04  0.89661182535E+02 0.  0.
         13    1    3    3    0    0 -0.24371961251E+03  0.74251962333E+02 -0.81517241206E+03  0.85406010609E+03  0.00000000000E+00 0. -1.
        -13    1    3    3    0    0 -0.11528569418E+03  0.99698700561E+02 -0.59284129877E+03  0.61212043562E+03  0.00000000000E+00 0.  1.
         22    1    1    2    0    0  0.35900530669E+03 -0.17395066289E+03  0.68101517418E+02  0.40469922168E+03  0.00000000000E+00 0.  1.
<mgrwt>
<rscale>  0 0.13056900E+04</rscale>
<asrwt>0</asrwt>
<pdfrwt beam="1">  1        2 0.24698399E+00 0.13056900E+04</pdfrwt>
<pdfrwt beam="2">  1       -2 0.40843661E-01 0.13056900E+04</pdfrwt>
<totfact> 0.61578355E+01</totfact>
</mgrwt>
</event>
<event>
 6    1  0.1637818E-005  0.1615269E+04  0.7818608E-02  0.8811222E-01
          1   -1    0    0  501    0  0.00000000000E+00  0.00000000000E+00  0.14517827403E+04  0.14517827403E+04  0.00000000000E+00 0. -1.
         -1   -1    0    0    0  501 -0.00000000000E+00 -0.00000000000E+00 -0.44929129424E+03  0.44929129424E+03  0.00000000000E+00 0.  1.
         23    2    1    2    0    0  0.62344850489E+02  0.60245662416E+03 -0.12130248392E+03  0.62445597833E+03  0.91597553955E+02 0.  0.
         11    1    3    3    0    0  0.10674721148E+02  0.47245455381E+03 -0.89046465784E+02  0.48089138915E+03  0.00000000000E+00 0. -1.
        -11    1    3    3    0    0  0.51670129341E+02  0.13000207036E+03 -0.32256018134E+02  0.14356458919E+03  0.00000000000E+00 0.  1.
         22    1    1    2    0    0 -0.62344850489E+02 -0.60245662416E+03  0.11237939300E+04  0.12766180562E+04  0.00000000000E+00 0. -1.
<mgrwt>
<rscale>  0 0.16152688E+04</rscale>
<asrwt>0</asrwt>
<pdfrwt beam="1">  1        1 0.22335119E+00 0.16152688E+04</pdfrwt>
<pdfrwt beam="2">  1       -1 0.69121738E-01 0.16152688E+04</pdfrwt>
<totfact> 0.14340218E+01</totfact>
</mgrwt>
</event>
<event>
 6    1  0.1637818E-005  0.1381133E+04  0.7818608E-02  0.8967590E-01
         -2   -1    0    0    0  501 -0.00000000000E+00  0.00000000000E+00  0.22701404433E+03  0.22701404433E+03  0.00000000000E+00 0. -1.
          2   -1    0    0  501    0  0.00000000000E+00 -0.00000000000E+00 -0.21006731713E+04  0.21006731713E+04  0.00000000000E+00 0.  1.
         23    2    1    2    0    0 -0.22035763196E+03  0.53241815183E+03 -0.15735199837E+04  0.16779872235E+04  0.87460899126E+02 0.  0.
         13    1    3    3    0    0 -0.10664316220E+03  0.15520391791E+03 -0.47606846680E+03  0.51195918320E+03  0.00000000000E+00 0. -1.
        -13    1    3    3    0    0 -0.11371446977E+03  0.37721423392E+03 -0.10974515169E+04  0.11660280404E+04  0.00000000000E+00 0.  1.
         22    1    1    2    0    0  0.22035763196E+03 -0.53241815183E+03 -0.30013914321E+03  0.64969999203E+03  0.00000000000E+00 0. -1.
<mgrwt>
<rscale>  0 0.13811333E+04</rscale>
<asrwt>0</asrwt>
<pdfrwt beam="1">  1        2 0.32318049E+00 0.13811333E+04</pdfrwt>
<pdfrwt beam="2">  1       -2 0.34925237E-01 0.13811333E+04</pdfrwt>
<totfact> 0.44062117E+01</totfact>
</mgrwt>
</event>
<event>
 6    1  0.1637818E-005  0.2004743E+04  0.7818608E-02  0.8604406E-01
         -2   -1    0    0    0  501 -0.00000000000E+00  0.00000000000E+00  0.10806346037E+04  0.10806346037E+04  0.00000000000E+00 0.  1.
          2   -1    0    0  501    0  0.00000000000E+00 -0.00000000000E+00 -0.92977674349E+03  0.92977674349E+03  0.00000000000E+00 0. -1.
         23    2    1    2    0    0 -0.38671739455E+03 -0.17794406086E+03 -0.83164870664E+03  0.93964826138E+03  0.10042336285E+03 0.  0.
         13    1    3    3    0    0 -0.14321212439E+03 -0.11566414105E+03 -0.30840666669E+03  0.35916928899E+03  0.00000000000E+00 0.  1.
        -13    1    3    3    0    0 -0.24350527016E+03 -0.62279919815E+02 -0.52324203995E+03  0.58047897238E+03  0.00000000000E+00 0. -1.
         22    1    1    2    0    0  0.38671739455E+03  0.17794406086E+03  0.98250656688E+03  0.10707630858E+04  0.00000000000E+00 0.  1.
<mgrwt>
<rscale>  0 0.20047433E+04</rscale>
<asrwt>0</asrwt>
<pdfrwt beam="1">  1        2 0.14304258E+00 0.20047433E+04</pdfrwt>
<pdfrwt beam="2">  1       -2 0.16625148E+00 0.20047433E+04</pdfrwt>
<totfact> 0.58947162E+00</totfact>
</mgrwt>
</event>
<event>
 6    1  0.1637818E-005  0.5468735E+04  0.7818608E-02  0.7760006E-01
          1   -1    0    0  501    0  0.00000000000E+00  0.00000000000E+00  0.22057032338E+04  0.22057032338E+04  0.00000000000E+00 0. -1.
         -1   -1    0    0    0  501 -0.00000000000E+00 -0.00000000000E+00 -0.33897424772E+04  0.33897424772E+04  0.00000000000E+00 0.  1.
         23    2    1    2    0    0  0.67524186683E+03  0.15576815353E+04 -0.27843955980E+04  0.32623225238E+04  0.86983096214E+02 0.  0.
         13    1    3    3    0    0  0.26238358204E+03  0.56097795607E+03 -0.10891691972E+04  0.12529289490E+04  0.00000000000E+00 0. -1.
        -13    1    3    3    0    0  0.41285828480E+03  0.99670357924E+03 -0.16952264009E+04  0.20093935748E+04  0.00000000000E+00 0.  1.
         22    1    1    2    0    0 -0.67524186683E+03 -0.15576815353E+04  0.16003563547E+04  0.23331231871E+04  0.00000000000E+00 0. -1.
<mgrwt>
<rscale>  0 0.54687351E+04</rscale>
<asrwt>0</asrwt>
<pdfrwt beam="1">  1        1 0.33933896E+00 0.54687351E+04</pdfrwt>
<pdfrwt beam="2">  1       -1 0.52149884E+00 0.54687351E+04</pdfrwt>
<totfact> 0.16585880E-03</totfact>
</mgrwt>
</event>
<event>
 6    1  0.1637818E-005  0.1190390E+04  0.7818608E-02  0.9121310E-01
          1   -1    0    0  501    0  0.00000000000E+00  0.00000000000E+00  0.15581411027E+04  0.15581411027E+04  0.00000000000E+00 0. -1.
         -1   -1    0    0    0  501 -0.00000000000E+00 -0.00000000000E+00 -0.22735895498E+03  0.22735895498E+03  0.00000000000E+00 0.  1.
         23    2    1    2    0    0 -0.16744956112E+03 -0.37126680002E+03  0.13132518938E+04  0.13778412516E+04  0.89093129802E+02 0.  0.
         13    1    3    3    0    0 -0.42493537426E+02 -0.15411827601E+03  0.63441666596E+03  0.65424968458E+03  0.00000000000E+00 0. -1.
        -13    1    3    3    0    0 -0.12495602369E+03 -0.21714852400E+03  0.67883522787E+03  0.72359156706E+03  0.00000000000E+00 0.  1.
         22    1    1    2    0    0  0.16744956112E+03  0.37126680002E+03  0.17530253849E+02  0.40765880600E+03  0.00000000000E+00 0.  1.
<mgrwt>
<rscale>  0 0.11903904E+04</rscale>
<asrwt>0</asrwt>
<pdfrwt beam="1">  1        1 0.23971401E+00 0.11903904E+04</pdfrwt>
<pdfrwt beam="2">  1       -1 0.34978302E-01 0.11903904E+04</pdfrwt>
<totfact> 0.45873776E+01</totfact>
</mgrwt>
</event>
<event>
 6    1  0.1637818E-005  0.2241518E+04  0.7818608E-02  0.8501344E-01
          2   -1    0    0  501    0  0.00000000000E+00  0.00000000000E+00  0.11981174080E+04  0.11981174080E+04  0.00000000000E+00 0. -1.
         -2   -1    0    0    0  501 -0.00000000000E+00 -0.00000000000E+00 -0.10483949014E+04  0.10483949014E+04  0.00000000000E+00 0.  1.
         23    2    1    2    0    0 -0.11051235883E+04 -0.23933415437E+02  0.24797762192E+03  0.11367713390E+04  0.94261457649E+02 0.  0.
         13    1    3    3    0    0 -0.79391964310E+03 -0.49877618084E+02  0.15022157009E+03  0.80954474651E+03  0.00000000000E+00 0.  1.
        -13    1    3    3    0    0 -0.31120394522E+03  0.25944202646E+02  0.97756051834E+02  0.32722659250E+03  0.00000000000E+00 0. -1.
         22    1    1    2    0    0  0.11051235883E+04  0.23933415437E+02 -0.98255115309E+02  0.11097409705E+04  0.00000000000E+00 0. -1.
<mgrwt>
<rscale>  0 0.22415175E+04</rscale>
<asrwt>0</asrwt>
<pdfrwt beam="1">  1        2 0.18432575E+00 0.22415175E+04</pdfrwt>
<pdfrwt beam="2">  1       -2 0.16129152E+00 0.22415175E+04</pdfrwt>
<totfact> 0.42630707E+00</totfact>
</mgrwt>
</event>
<event>
 6    1  0.1637818E-005  0.4378387E+04  0.7818608E-02  0.7932280E-01
         -2   -1    0    0    0  501 -0.00000000000E+00  0.00000000000E+00  0.20784123593E+04  0.20784123593E+04  0.00000000000E+00 0. -1.
          2   -1    0    0  501    0  0.00000000000E+00 -0.00000000000E+00 -0.23058794317E+04  0.23058794317E+04  0.00000000000E+00 0.  1.
         23    2    1    2    0    0 -0.19986710257E+04 -0.43333163665E+03 -0.89329911213E+03  0.22335257690E+04  0.90509009219E+02 0.  0.
         11    1    3    3    0    0 -0.17048349779E+04 -0.39503770463E+03 -0.78544622331E+03  0.19181873891E+04  0.00000000000E+00 0.  1.
        -11    1    3    3    0    0 -0.29383604780E+03 -0.38293932021E+02 -0.10785288882E+03  0.31533837991E+03  0.00000000000E+00 0. -1.
         22    1    1    2    0    0  0.19986710257E+04  0.43333163665E+03  0.66583203970E+03  0.21507660220E+04  0.00000000000E+00 0.  1.
<mgrwt>
<rscale>  0 0.43783871E+04</rscale>
<asrwt>0</asrwt>
<pdfrwt beam="1">  1        2 0.35475068E+00 0.43783871E+04</pdfrwt>
<pdfrwt beam="2">  1       -2 0.31975575E+00 0.43783871E+04</pdfrwt>
<totfact> 0.82714401E-02</totfact>
</mgrwt>
</event>
<event>
 6    1  0.1637818E-005  0.2841025E+04  0.7818608E-02  0.8290644E-01
         -2   -1    0    0    0  501 -0.00000000000E+00  0.00000000000E+00  0.17186354199E+04  0.17186354199E+04  0.00000000000E+00 0.  1.
          2   -1    0    0  501    0  0.00000000000E+00 -0.00000000000E+00 -0.11741031231E+04  0.11741031231E+04  0.00000000000E+00 0. -1.
         23    2    1    2    0    0  0.73698155592E+03  0.10746953916E+04 -0.29932969350E+03  0.13402518097E+04  0.92545391777E+02 0.  0.
         11    1    3    3    0    0  0.64208547009E+03  0.87787257078E+03 -0.23912708864E+03  0.11136048518E+04  0.00000000000E+00 0. -1.
        -11    1    3    3    0    0  0.94896085827E+02  0.19682282078E+03 -0.60202604863E+02  0.22664695788E+03  0.00000000000E+00 0.  1.
         22    1    1    2    0    0 -0.73698155592E+03 -0.10746953916E+04  0.84386199029E+03  0.15524867333E+04  0.00000000000E+00 0.  1.
<mgrwt>
<rscale>  0 0.28410246E+04</rscale>
<asrwt>0</asrwt>
<pdfrwt beam="1">  1        2 0.18063125E+00 0.28410246E+04</pdfrwt>
<pdfrwt beam="2">  1       -2 0.26440545E+00 0.28410246E+04</pdfrwt>
<totfact> 0.89273927E-01</totfact>
</mgrwt>
</event>
<event>
 6    1  0.1637818E-005  0.2550746E+04  0.7818608E-02  0.8385127E-01
          2   -1    0    0  501    0  0.00000000000E+00  0.00000000000E+00  0.12427850159E+04  0.12427850159E+04  0.00000000000E+00 0. -1.
         -2   -1    0    0    0  501 -0.00000000000E+00 -0.00000000000E+00 -0.13088150655E+04  0.13088150655E+04  0.00000000000E+00 0.  1.
         23    2    1    2    0    0 -0.31246403437E+02  0.72760349903E+03  0.10123242935E+04  0.12503578753E+04  0.90615404860E+02 0.  0.
         13    1    3    3    0    0  0.29762742939E+02  0.31353266432E+03  0.41415306972E+03  0.52029925776E+03  0.00000000000E+00 0. -1.
        -13    1    3    3    0    0 -0.61009146376E+02  0.41407083471E+03  0.59817122376E+03  0.73005861753E+03  0.00000000000E+00 0.  1.
         22    1    1    2    0    0  0.31246403437E+02 -0.72760349903E+03 -0.10783543431E+04  0.13012422061E+04  0.00000000000E+00 0.  1.
<mgrwt>
<rscale>  0 0.25507456E+04</rscale>
<asrwt>0</asrwt>
<pdfrwt beam="1">  1        2 0.19119770E+00 0.25507456E+04</pdfrwt>
<pdfrwt beam="2">  1       -2 0.20135616E+00 0.25507456E+04</pdfrwt>
<totfact> 0.20671946E+00</totfact>
</mgrwt>
</event>
<event>
 6    1  0.1637818E-005  0.3280223E+04  0.7818608E-02  0.8167946E-01
          3   -1    0    0  501    0  0.00000000000E+00  0.00000000000E+00  0.44488846940E+04  0.44488846940E+04  0.00000000000E+00 0. -1.
         -3   -1    0    0    0  501 -0.00000000000E+00 -0.00000000000E+00 -0.60463824481E+03  0.60463824481E+03  0.00000000000E+00 0.  1.
         23    2    1    2    0    0  0.44626130699E+03 -0.11708585597E+04  0.29623694148E+03  0.12907539600E+04  0.90722316808E+02 0.  0.
         11    1    3    3    0    0  0.19055603320E+03 -0.56972951483E+03  0.18088240968E+03  0.62739283387E+03  0.00000000000E+00 0. -1.
        -11    1    3    3    0    0  0.25570527379E+03 -0.60112904490E+03  0.11535453181E+03  0.66336112614E+03  0.00000000000E+00 0.  1.
         22    1    1    2    0    0 -0.44626130699E+03  0.11708585597E+04  0.35480095077E+04  0.37627689788E+04  0.00000000000E+00 0. -1.
<mgrwt>
<rscale>  0 0.32802231E+04</rscale>
<asrwt>0</asrwt>
<pdfrwt beam="1">  1        3 0.68444378E+00 0.32802231E+04</pdfrwt>
<pdfrwt beam="2">  1       -3 0.93021271E-01 0.32802231E+04</pdfrwt>
<totfact> 0.91195869E-04</totfact>
</mgrwt>
</event>
<event>
 6    1  0.1637818E-005  0.2284431E+04  0.7818608E-02  0.8484085E-01
          1   -1    0    0  501    0  0.00000000000E+00  0.00000000000E+00  0.13806620575E+04  0.13806620575E+04  0.00000000000E+00 0. -1.
         -1   -1    0    0    0  501 -0.00000000000E+00 -0.00000000000E+00 -0.94494960415E+03  0.94494960415E+03  0.00000000000E+00 0.  1.
         23    2    1    2    0    0 -0.37383686828E+03 -0.50916025235E+03 -0.74862015017E+03  0.98335912118E+03  0.86976234241E+02 0.  0.
         13    1    3    3    0    0 -0.29043811117E+03 -0.44916161755E+03 -0.62860871824E+03  0.82537832281E+03  0.00000000000E+00 0.  1.
        -13    1    3    3    0    0 -0.83398757103E+02 -0.59998634795E+02 -0.12001143193E+03  0.15798079838E+03  0.00000000000E+00 0. -1.
         22    1    1    2    0    0  0.37383686828E+03  0.50916025235E+03  0.11843326035E+04  0.13422525405E+04  0.00000000000E+00 0. -1.
<mgrwt>
<rscale>  0 0.22844308E+04</rscale>
<asrwt>0</asrwt>
<pdfrwt beam="1">  1        1 0.21240955E+00 0.22844308E+04</pdfrwt>
<pdfrwt beam="2">  1       -1 0.14537686E+00 0.22844308E+04</pdfrwt>
<totfact> 0.27228209E+00</totfact>
</mgrwt>
</event>
<event>
 6    1  0.1637818E-005  0.1970902E+04  0.7818608E-02  0.8620347E-01
          1   -1    0    0  501    0  0.00000000000E+00  0.00000000000E+00  0.16739830815E+04  0.16739830815E+04  0.00000000000E+00 0. -1.
         -1   -1    0    0    0  501 -0.00000000000E+00 -0.00000000000E+00 -0.58012138113E+03  0.58012138113E+03  0.00000000000E+00 0.  1.
         23    2    1    2    0    0  0.61935902522E+03 -0.64593569582E+03  0.10156932020E+04  0.13558011512E+04  0.75667402168E+02 0.  0.
         13    1    3    3    0    0  0.38804446196E+03 -0.40349853598E+03  0.57918772592E+03  0.80551101473E+03  0.00000000000E+00 0.  1.
        -13    1    3    3    0    0  0.23131456325E+03 -0.24243715984E+03  0.43650547608E+03  0.55029013646E+03  0.00000000000E+00 0. -1.
         22    1    1    2    0    0 -0.61935902522E+03  0.64593569582E+03  0.78168498392E+02  0.89830331146E+03  0.00000000000E+00 0.  1.
<mgrwt>
<rscale>  0 0.19709017E+04</rscale>
<asrwt>0</asrwt>
<pdfrwt beam="1">  1        1 0.25753586E+00 0.19709017E+04</pdfrwt>
<pdfrwt beam="2">  1       -1 0.89249444E-01 0.19709017E+04</pdfrwt>
<totfact> 0.56811097E+00</totfact>
</mgrwt>
</event>
<event>
 6    1  0.1637818E-005  0.2367428E+04  0.7818608E-02  0.8451800E-01
         -2   -1    0    0    0  501 -0.00000000000E+00  0.00000000000E+00  0.11333373554E+04  0.11333373554E+04  0.00000000000E+00 0. -1.
          2   -1    0    0  501    0  0.00000000000E+00 -0.00000000000E+00 -0.12363300887E+04  0.12363300887E+04  0.00000000000E+00 0.  1.
         23    2    1    2    0    0  0.71425941139E+03 -0.17279373018E+03  0.87497797676E+03  0.11463723491E+04  0.92514447302E+02 0.  0.
         11    1    3    3    0    0  0.52196070924E+03 -0.93415007407E+02  0.58593163594E+03  0.79024377732E+03  0.00000000000E+00 0.  1.
        -11    1    3    3    0    0  0.19229870215E+03 -0.79378722774E+02  0.28904634082E+03  0.35612857175E+03  0.00000000000E+00 0. -1.
         22    1    1    2    0    0 -0.71425941139E+03  0.17279373018E+03 -0.97797071000E+03  0.12232950950E+04  0.00000000000E+00 0.  1.
<mgrwt>
<rscale>  0 0.23674282E+04</rscale>
<asrwt>0</asrwt>
<pdfrwt beam="1">  1        2 0.19020463E+00 0.23674282E+04</pdfrwt>
<pdfrwt beam="2">  1       -2 0.17435959E+00 0.23674282E+04</pdfrwt>
<totfact> 0.32257210E+00</totfact>
</mgrwt>
</event>
<event>
 6    1  0.1637818E-005  0.1159741E+04  0.7818608E-02  0.9148844E-01
          1   -1    0    0  501    0  0.00000000000E+00  0.00000000000E+00  0.44968604667E+03  0.44968604667E+03  0.00000000000E+00 0. -1.
         -1   -1    0    0    0  501 -0.00000000000E+00 -0.00000000000E+00 -0.74774345747E+03  0.74774345747E+03  0.00000000000E+00 0.  1.
         23    2    1    2    0    0 -0.15429744790E+03 -0.31878957265E+03  0.31936307863E+03  0.48564122464E+03  0.91761260991E+02 0.  0.
         11    1    3    3    0    0 -0.14483195533E+02 -0.10475819632E+03  0.12952039462E+03  0.16721116970E+03  0.00000000000E+00 0.  1.
        -11    1    3    3    0    0 -0.13981425237E+03 -0.21403137633E+03  0.18984268402E+03  0.31843005494E+03  0.00000000000E+00 0. -1.
         22    1    1    2    0    0  0.15429744790E+03  0.31878957265E+03 -0.61742048943E+03  0.71178827950E+03  0.00000000000E+00 0.  1.
<mgrwt>
<rscale>  0 0.11597410E+04</rscale>
<asrwt>0</asrwt>
<pdfrwt beam="1">  1        1 0.69182469E-01 0.11597410E+04</pdfrwt>
<pdfrwt beam="2">  1       -1 0.11503746E+00 0.11597410E+04</pdfrwt>
<totfact> 0.34904522E+01</totfact>
</mgrwt>
</event>
<event>
 6    1  0.1637818E-005  0.2796037E+04  0.7818608E-02  0.8304500E-01
          2   -1    0    0  501    0  0.00000000000E+00  0.00000000000E+00  0.15322201240E+04  0.15322201240E+04  0.00000000000E+00 0. -1.
         -2   -1    0    0    0  501 -0.00000000000E+00 -0.00000000000E+00 -0.12755711053E+04  0.12755711053E+04  0.00000000000E+00 0.  1.
         23    2    1    2    0    0  0.79649613944E+03  0.10577513868E+04 -0.31734910072E+03  0.13646287514E+04  0.90868481330E+02 0.  0.
         11    1    3    3    0    0  0.35602073966E+03  0.39938598656E+03 -0.12173870168E+03  0.54870779548E+03  0.00000000000E+00 0. -1.
        -11    1    3    3    0    0  0.44047539978E+03  0.65836540024E+03 -0.19561039904E+03  0.81592095588E+03  0.00000000000E+00 0.  1.
         22    1    1    2    0    0 -0.79649613944E+03 -0.10577513868E+04  0.57399811940E+03  0.14431624779E+04  0.00000000000E+00 0. -1.
<mgrwt>
<rscale>  0 0.27960370E+04</rscale>
<asrwt>0</asrwt>
<pdfrwt beam="1">  1        2 0.23572617E+00 0.27960370E+04</pdfrwt>
<pdfrwt beam="2">  1       -2 0.19624171E+00 0.27960370E+04</pdfrwt>
<totfact> 0.14923191E+00</totfact>
</mgrwt>
</event>
<event>
 6    1  0.1637818E-005  0.5588947E+03  0.7818608E-02  0.9994559E-01
         -1   -1    0    0    0  501 -0.00000000000E+00  0.00000000000E+00  0.39892475658E+02  0.39892475658E+02  0.00000000000E+00 0.  1.
          1   -1    0    0  501    0  0.00000000000E+00 -0.00000000000E+00 -0.19575328742E+04  0.19575328742E+04  0.00000000000E+00 0. -1.
         23    2    1    2    0    0 -0.35343609865E+01 -0.26800430531E+03 -0.11437591163E+04  0.11784436417E+04  0.93304346453E+02 0.  0.
         11    1    3    3    0    0 -0.33608901759E+02 -0.23823923301E+03 -0.93678383232E+03  0.96718738563E+03  0.00000000000E+00 0. -1.
        -11    1    3    3    0    0  0.30074540773E+02 -0.29765072292E+02 -0.20697528398E+03  0.21125625602E+03  0.00000000000E+00 0.  1.
         22    1    1    2    0    0  0.35343609865E+01  0.26800430531E+03 -0.77388128228E+03  0.81898170824E+03  0.00000000000E+00 0. -1.
<mgrwt>
<rscale>  0 0.55889474E+03</rscale>
<asrwt>0</asrwt>
<pdfrwt beam="1">  1        1 0.30115886E+00 0.55889474E+03</pdfrwt>
<pdfrwt beam="2">  1       -1 0.61373048E-02 0.55889474E+03</pdfrwt>
<totfact> 0.44969229E+02</totfact>
</mgrwt>
</event>
<event>
 6    1  0.1637818E-005  0.2054267E+04  0.7818608E-02  0.8581661E-01
          2   -1    0    0  501    0  0.00000000000E+00  0.00000000000E+00  0.99237447882E+03  0.99237447882E+03  0.00000000000E+00 0. -1.
         -2   -1    0    0    0  501 -0.00000000000E+00 -0.00000000000E+00 -0.10631099968E+04  0.10631099968E+04  0.00000000000E+00 0.  1.
         23    2    1    2    0    0  0.18863916536E+03  0.89620882849E+03 -0.49663041578E+03  0.10454540490E+04  0.86933305592E+02 0.  0.
         11    1    3    3    0    0  0.10440453282E+03  0.42272997966E+03 -0.28234422835E+03  0.51895973395E+03  0.00000000000E+00 0.  1.
        -11    1    3    3    0    0  0.84234632534E+02  0.47347884883E+03 -0.21428618743E+03  0.52649431500E+03  0.00000000000E+00 0. -1.
         22    1    1    2    0    0 -0.18863916536E+03 -0.89620882849E+03  0.42589489776E+03  0.10100304267E+04  0.00000000000E+00 0. -1.
<mgrwt>
<rscale>  0 0.20542670E+04</rscale>
<asrwt>0</asrwt>
<pdfrwt beam="1">  1        2 0.15267300E+00 0.20542670E+04</pdfrwt>
<pdfrwt beam="2">  1       -2 0.16355539E+00 0.20542670E+04</pdfrwt>
<totfact> 0.55881877E+00</totfact>
</mgrwt>
</event>
<event>
 6    1  0.1637818E-005  0.2513402E+04  0.7818608E-02  0.8398226E-01
         -1   -1    0    0    0  501 -0.00000000000E+00  0.00000000000E+00  0.80824645064E+03  0.80824645064E+03  0.00000000000E+00 0.  1.
          1   -1    0    0  501    0  0.00000000000E+00 -0.00000000000E+00 -0.19539807498E+04  0.19539807498E+04  0.00000000000E+00 0. -1.
         23    2    1    2    0    0  0.33638513220E+03 -0.86019910495E+03  0.36033400047E+03  0.99549598702E+03  0.89856613270E+02 0.  0.
         13    1    3    3    0    0  0.10212876105E+03 -0.37826665686E+03  0.13905033612E+03  0.41575346481E+03  0.00000000000E+00 0. -1.
        -13    1    3    3    0    0  0.23425637115E+03 -0.48193244808E+03  0.22128366435E+03  0.57974252220E+03  0.00000000000E+00 0.  1.
         22    1    1    2    0    0 -0.33638513220E+03  0.86019910495E+03 -0.15060682996E+04  0.17667312134E+04  0.00000000000E+00 0. -1.
<mgrwt>
<rscale>  0 0.25134025E+04</rscale>
<asrwt>0</asrwt>
<pdfrwt beam="1">  1        1 0.30061242E+00 0.25134025E+04</pdfrwt>
<pdfrwt beam="2">  1       -1 0.12434561E+00 0.25134025E+04</pdfrwt>
<totfact> 0.16109045E+00</totfact>
</mgrwt>
</event>
<event>
 6    1  0.1637818E-005  0.1995328E+04  0.7818608E-02  0.8608808E-01
          1   -1    0    0  501    0  0.00000000000E+00  0.00000000000E+00  0.18680060448E+04  0.18680060448E+04  0.00000000000E+00 0. -1.
         -1   -1    0    0    0  501 -0.00000000000E+00 -0.00000000000E+00 -0.53283213224E+03  0.53283213224E+03  0.00000000000E+00 0.  1.
         23    2    1    2    0    0  0.72684660968E+03  0.67828295592E+03  0.60216949990E+03  0.11656583394E+04  0.88190108774E+02 0.  0.
         11    1    3    3    0    0  0.45097980939E+03  0.36177589183E+03  0.35521836225E+03  0.67856073366E+03  0.00000000000E+00 0. -1.
        -11    1    3    3    0    0  0.27586680029E+03  0.31650706409E+03  0.24695113765E+03  0.48709760573E+03  0.00000000000E+00 0.  1.
         22    1    1    2    0    0 -0.72684660968E+03 -0.67828295592E+03  0.73300441262E+03  0.12351798376E+04  0.00000000000E+00 0. -1.
<mgrwt>
<rscale>  0 0.19953282E+04</rscale>
<asrwt>0</asrwt>
<pdfrwt beam="1">  1        1 0.28738554E+00 0.19953282E+04</pdfrwt>
<pdfrwt beam="2">  1       -1 0.81974175E-01 0.19953282E+04</pdfrwt>
<totfact> 0.50322162E+00</totfact>
</mgrwt>
</event>
<event>
 6    1  0.1637818E-005  0.9337774E+03  0.7818608E-02  0.9384316E-01
          1   -1    0    0  501    0  0.00000000000E+00  0.00000000000E+00  0.38165159937E+03  0.38165159937E+03  0.00000000000E+00 0. -1.
         -1   -1    0    0    0  501 -0.00000000000E+00 -0.00000000000E+00 -0.57116244203E+03  0.57116244203E+03  0.00000000000E+00 0.  1.
         23    2    1    2    0    0 -0.18160460248E+03 -0.27454246891E+03 -0.42646352418E+03  0.54722758679E+03  0.96088997376E+02 0.  0.
         13    1    3    3    0    0 -0.81125140500E+02 -0.65073479005E+02 -0.18446932580E+03  0.21176585714E+03  0.00000000000E+00 0.  1.
        -13    1    3    3    0    0 -0.10047946198E+03 -0.20946898990E+03 -0.24199419838E+03  0.33546172965E+03  0.00000000000E+00 0. -1.
         22    1    1    2    0    0  0.18160460248E+03  0.27454246891E+03  0.23695268152E+03  0.40558645460E+03  0.00000000000E+00 0. -1.
<mgrwt>
<rscale>  0 0.93377740E+03</rscale>
<asrwt>0</asrwt>
<pdfrwt beam="1">  1        1 0.58715631E-01 0.93377740E+03</pdfrwt>
<pdfrwt beam="2">  1       -1 0.87871145E-01 0.93377740E+03</pdfrwt>
<totfact> 0.81882533E+01</totfact>
</mgrwt>
</event>
<event>
 6    1  0.1637818E-005  0.2683964E+04  0.7818608E-02  0.8340227E-01
          1   -1    0    0  501    0  0.00000000000E+00  0.00000000000E+00  0.15940876483E+04  0.15940876483E+04  0.00000000000E+00 0. -1.
         -1   -1    0    0    0  501 -0.00000000000E+00 -0.00000000000E+00 -0.11297473738E+04  0.11297473738E+04  0.00000000000E+00 0.  1.
         23    2    1    2    0    0  0.10854275287E+04 -0.25063492354E+03 -0.52417201857E+03  0.12344971362E+04  0.90863024295E+02 0.  0.
         11    1    3    3    0    0  0.53624955271E+03 -0.10127943935E+03 -0.21270290462E+03  0.58571634197E+03  0.00000000000E+00 0. -1.
        -11    1    3    3    0    0  0.54917797600E+03 -0.14935548419E+03 -0.31146911395E+03  0.64878079420E+03  0.00000000000E+00 0.  1.
         22    1    1    2    0    0 -0.10854275287E+04  0.25063492354E+03  0.98851229306E+03  0.14893378859E+04  0.00000000000E+00 0. -1.
<mgrwt>
<rscale>  0 0.26839645E+04</rscale>
<asrwt>0</asrwt>
<pdfrwt beam="1">  1        1 0.24524425E+00 0.26839645E+04</pdfrwt>
<pdfrwt beam="2">  1       -1 0.17380729E+00 0.26839645E+04</pdfrwt>
<totfact> 0.11365321E+00</totfact>
</mgrwt>
</event>
<event>
 6    1  0.1637818E-005  0.3563725E+04  0.7818608E-02  0.8098852E-01
          2   -1    0    0  501    0  0.00000000000E+00  0.00000000000E+00  0.22487180642E+04  0.22487180642E+04  0.00000000000E+00 0. -1.
         -2   -1    0    0    0  501 -0.00000000000E+00 -0.00000000000E+00 -0.14119304620E+04  0.14119304620E+04  0.00000000000E+00 0.  1.
         23    2    1    2    0    0  0.25561865364E+03  0.17123008717E+04 -0.91057619536E+01  0.17337726208E+04  0.92571131822E+02 0.  0.
         11    1    3    3    0    0  0.11934945637E+03  0.10527596952E+04 -0.30814714535E+02  0.10599513268E+04  0.00000000000E+00 0. -1.
        -11    1    3    3    0    0  0.13626919727E+03  0.65954117655E+03  0.21708952581E+02  0.67382129405E+03  0.00000000000E+00 0.  1.
         22    1    1    2    0    0 -0.25561865364E+03 -0.17123008717E+04  0.84589336410E+03  0.19268759054E+04  0.00000000000E+00 0. -1.
<mgrwt>
<rscale>  0 0.35637248E+04</rscale>
<asrwt>0</asrwt>
<pdfrwt beam="1">  1        2 0.34595663E+00 0.35637248E+04</pdfrwt>
<pdfrwt beam="2">  1       -2 0.21722007E+00 0.35637248E+04</pdfrwt>
<totfact> 0.40788713E-01</totfact>
</mgrwt>
</event>
<event>
 6    1  0.1637818E-005  0.1620906E+04  0.7818608E-02  0.8807807E-01
          2   -1    0    0  501    0  0.00000000000E+00  0.00000000000E+00  0.93931563405E+03  0.93931563405E+03  0.00000000000E+00 0. -1.
         -2   -1    0    0    0  501 -0.00000000000E+00 -0.00000000000E+00 -0.69926831656E+03  0.69926831656E+03  0.00000000000E+00 0.  1.
         23    2    1    2    0    0  0.79711636759E+03  0.18106998423E+02  0.25221932758E+03  0.84116904938E+03  0.90710603337E+02 0.  0.
         13    1    3    3    0    0  0.29523642319E+03 -0.19731777777E+02  0.13026668725E+03  0.32330063167E+03  0.00000000000E+00 0.  1.
        -13    1    3    3    0    0  0.50187994440E+03  0.37838776200E+02  0.12195264032E+03  0.51786841771E+03  0.00000000000E+00 0. -1.
         22    1    1    2    0    0 -0.79711636759E+03 -0.18106998423E+02 -0.12172010085E+02  0.79741490123E+03  0.00000000000E+00 0.  1.
<mgrwt>
<rscale>  0 0.16209055E+04</rscale>
<asrwt>0</asrwt>
<pdfrwt beam="1">  1        2 0.14451010E+00 0.16209055E+04</pdfrwt>
<pdfrwt beam="2">  1       -2 0.10757974E+00 0.16209055E+04</pdfrwt>
<totfact> 0.18320521E+01</totfact>
</mgrwt>
</event>
<event>
 6    1  0.1637818E-005  0.3187544E+04  0.7818608E-02  0.8192114E-01
          2   -1    0    0  501    0  0.00000000000E+00  0.00000000000E+00  0.84593786357E+03  0.84593786357E+03  0.00000000000E+00 0. -1.
         -2   -1    0    0    0  501 -0.00000000000E+00 -0.00000000000E+00 -0.30027140135E+04  0.30027140135E+04  0.00000000000E+00 0.  1.
         23    2    1    2    0    0  0.26276418460E+03  0.74248483821E+03  0.59174499711E+03  0.98950913014E+03  0.92937749810E+02 0.  0.
         11    1    3    3    0    0  0.11257297522E+03  0.34517199407E+03  0.32970457115E+03  0.49042989762E+03  0.00000000000E+00 0. -1.
        -11    1    3    3    0    0  0.15019120938E+03  0.39731284414E+03  0.26204042595E+03  0.49907923252E+03  0.00000000000E+00 0.  1.
         22    1    1    2    0    0 -0.26276418460E+03 -0.74248483821E+03 -0.27485211471E+04  0.28591427470E+04  0.00000000000E+00 0.  1.
<mgrwt>
<rscale>  0 0.31875442E+04</rscale>
<asrwt>0</asrwt>
<pdfrwt beam="1">  1        2 0.13014429E+00 0.31875442E+04</pdfrwt>
<pdfrwt beam="2">  1       -2 0.46195600E+00 0.31875442E+04</pdfrwt>
<totfact> 0.77821297E-02</totfact>
</mgrwt>
</event>
<event>
 6    1  0.1637818E-005  0.1994306E+04  0.7818608E-02  0.8609287E-01
         -2   -1    0    0    0  501 -0.00000000000E+00  0.00000000000E+00  0.33066661696E+03  0.33066661696E+03  0.00000000000E+00 0.  1.
          2   -1    0    0  501    0  0.00000000000E+00 -0.00000000000E+00 -0.30069983458E+04  0.30069983458E+04  0.00000000000E+00 0. -1.
         23    2    1    2    0    0 -0.72244873827E+03  0.64228734748E+03 -0.94167052501E+03  0.13518364938E+04  0.79077886107E+02 0.  0.
         13    1    3    3    0    0 -0.20024379314E+03  0.15081196000E+03 -0.20579623370E+03  0.32433611235E+03  0.00000000000E+00 0. -1.
        -13    1    3    3    0    0 -0.52220494513E+03  0.49147538749E+03 -0.73587429131E+03  0.10275003814E+04  0.00000000000E+00 0.  1.
         22    1    1    2    0    0  0.72244873827E+03 -0.64228734748E+03 -0.17346612038E+04  0.19858284690E+04  0.00000000000E+00 0. -1.
<mgrwt>
<rscale>  0 0.19943059E+04</rscale>
<asrwt>0</asrwt>
<pdfrwt beam="1">  1        2 0.46261513E+00 0.19943059E+04</pdfrwt>
<pdfrwt beam="2">  1       -2 0.50871787E-01 0.19943059E+04</pdfrwt>
<totfact> 0.58664570E+00</totfact>
</mgrwt>
</event>
<event>
 6    1  0.1637818E-005  0.1722067E+04  0.7818608E-02  0.8748878E-01
         -2   -1    0    0    0  501 -0.00000000000E+00  0.00000000000E+00  0.17779197444E+04  0.17779197444E+04  0.00000000000E+00 0.  1.
          2   -1    0    0  501    0  0.00000000000E+00 -0.00000000000E+00 -0.41699205066E+03  0.41699205066E+03  0.00000000000E+00 0. -1.
         23    2    1    2    0    0  0.20611422648E+03 -0.74020565660E+03  0.11708524871E+04  0.14033841122E+04  0.90575557493E+02 0.  0.
         13    1    3    3    0    0  0.76681673034E+02 -0.43856893221E+03  0.69086304336E+03  0.82189691078E+03  0.00000000000E+00 0.  1.
        -13    1    3    3    0    0  0.12943255345E+03 -0.30163672439E+03  0.47998944371E+03  0.58148720146E+03  0.00000000000E+00 0. -1.
         22    1    1    2    0    0 -0.20611422648E+03  0.74020565660E+03  0.19007520663E+03  0.79152768277E+03  0.00000000000E+00 0. -1.
<mgrwt>
<rscale>  0 0.17220667E+04</rscale>
<asrwt>0</asrwt>
<pdfrwt beam="1">  1        2 0.64152624E-01 0.17220667E+04</pdfrwt>
<pdfrwt beam="2">  1       -2 0.27352611E+00 0.17220667E+04</pdfrwt>
<totfact> 0.33266058E+00</totfact>
</mgrwt>
</event>
<event>
 6    1  0.1637818E-005  0.5131786E+04  0.7818608E-02  0.7808493E-01
          2   -1    0    0  501    0  0.00000000000E+00  0.00000000000E+00  0.24081351866E+04  0.24081351866E+04  0.00000000000E+00 0. -1.
         -2   -1    0    0    0  501 -0.00000000000E+00 -0.00000000000E+00 -0.27339853737E+04  0.27339853737E+04  0.00000000000E+00 0.  1.
         23    2    1    2    0    0  0.11259397874E+04  0.16806224978E+04  0.14173521083E+04  0.24717298346E+04  0.91263306499E+02 0.  0.
         13    1    3    3    0    0  0.54971263174E+03  0.90222990835E+03  0.74336927078E+03  0.12918206755E+04  0.00000000000E+00 0. -1.
        -13    1    3    3    0    0  0.57622715565E+03  0.77839258948E+03  0.67398283755E+03  0.11799091590E+04  0.00000000000E+00 0.  1.
         22    1    1    2    0    0 -0.11259397874E+04 -0.16806224978E+04 -0.17432022954E+04  0.26703907257E+04  0.00000000000E+00 0.  1.
<mgrwt>
<rscale>  0 0.51317858E+04</rscale>
<asrwt>0</asrwt>
<pdfrwt beam="1">  1        2 0.37048234E+00 0.51317858E+04</pdfrwt>
<pdfrwt beam="2">  1       -2 0.42061313E+00 0.51317858E+04</pdfrwt>
<totfact> 0.15415600E-02</totfact>
</mgrwt>
</event>
<event>
 6    1  0.1637818E-005  0.1783997E+04  0.7818608E-02  0.8714856E-01
          1   -1    0    0  501    0  0.00000000000E+00  0.00000000000E+00  0.42727370480E+03  0.42727370480E+03  0.00000000000E+00 0. -1.
         -1   -1    0    0    0  501 -0.00000000000E+00 -0.00000000000E+00 -0.18621813712E+04  0.18621813712E+04  0.00000000000E+00 0.  1.
         23    2    1    2    0    0  0.63868891697E+03 -0.50390458940E+03 -0.25723604318E+03  0.85810822075E+03  0.91301526479E+02 0.  0.
         11    1    3    3    0    0  0.20045108985E+03 -0.12579945352E+03 -0.40732293983E+02  0.24013592339E+03  0.00000000000E+00 0.  1.
        -11    1    3    3    0    0  0.43823782711E+03 -0.37810513587E+03 -0.21650374919E+03  0.61797229736E+03  0.00000000000E+00 0. -1.
         22    1    1    2    0    0 -0.63868891697E+03  0.50390458940E+03 -0.11776716232E+04  0.14313468552E+04  0.00000000000E+00 0.  1.
<mgrwt>
<rscale>  0 0.17839968E+04</rscale>
<asrwt>0</asrwt>
<pdfrwt beam="1">  1        1 0.65734418E-01 0.17839968E+04</pdfrwt>
<pdfrwt beam="2">  1       -1 0.28648943E+00 0.17839968E+04</pdfrwt>
<totfact> 0.20983781E+00</totfact>
</mgrwt>
</event>
<event>
 6    1  0.1637818E-005  0.2521783E+04  0.7818608E-02  0.8395266E-01
          1   -1    0    0  501    0  0.00000000000E+00  0.00000000000E+00  0.15152220083E+04  0.15152220083E+04  0.00000000000E+00 0. -1.
         -1   -1    0    0    0  501 -0.00000000000E+00 -0.00000000000E+00 -0.10492507213E+04  0.10492507213E+04  0.00000000000E+00 0.  1.
         23    2    1    2    0    0 -0.10561693467E+04  0.66666041267E+03  0.70104491904E+02  0.12542665190E+04  0.91323963138E+02 0.  0.
         13    1    3    3    0    0 -0.24683206192E+03  0.20252170230E+03  0.13308684421E+02  0.31955942761E+03  0.00000000000E+00 0. -1.
        -13    1    3    3    0    0 -0.80933728480E+03  0.46413871037E+03  0.56795807483E+02  0.93470709144E+03  0.00000000000E+00 0.  1.
         22    1    1    2    0    0  0.10561693467E+04 -0.66666041267E+03  0.39586679515E+03  0.13102062106E+04  0.00000000000E+00 0. -1.
<mgrwt>
<rscale>  0 0.25217833E+04</rscale>
<asrwt>0</asrwt>
<pdfrwt beam="1">  1        1 0.23311108E+00 0.25217833E+04</pdfrwt>
<pdfrwt beam="2">  1       -1 0.16142319E+00 0.25217833E+04</pdfrwt>
<totfact> 0.16140454E+00</totfact>
</mgrwt>
</event>
<event>
 6    1  0.1637818E-005  0.1678403E+04  0.7818608E-02  0.8773778E-01
         -1   -1    0    0    0  501 -0.00000000000E+00  0.00000000000E+00  0.24023513784E+03  0.24023513784E+03  0.00000000000E+00 0.  1.
          1   -1    0    0  501    0  0.00000000000E+00 -0.00000000000E+00 -0.29315420062E+04  0.29315420062E+04  0.00000000000E+00 0. -1.
         23    2    1    2    0    0 -0.10685667609E+03 -0.14398291742E+03 -0.28938265920E+04  0.29012893103E+04  0.10534651194E+03 0.  0.
         11    1    3    3    0    0  0.12314434991E+02 -0.61706807321E+01 -0.62752013079E+03  0.62767128113E+03  0.00000000000E+00 0.  1.
        -11    1    3    3    0    0 -0.11917111108E+03 -0.13781223669E+03 -0.22663064612E+04  0.22736180291E+04  0.00000000000E+00 0. -1.
         22    1    1    2    0    0  0.10685667609E+03  0.14398291742E+03  0.20251972366E+03  0.27048783375E+03  0.00000000000E+00 0.  1.
<mgrwt>
<rscale>  0 0.16784033E+04</rscale>
<asrwt>0</asrwt>
<pdfrwt beam="1">  1        1 0.45100647E+00 0.16784033E+04</pdfrwt>
<pdfrwt beam="2">  1       -1 0.36959251E-01 0.16784033E+04</pdfrwt>
<totfact> 0.45122892E+00</totfact>
</mgrwt>
</event>
<event>
 6    1  0.1637818E-005  0.7344597E+04  0.7818608E-02  0.7542905E-01
         -1   -1    0    0    0  501 -0.00000000000E+00  0.00000000000E+00  0.46500740570E+04  0.46500740570E+04  0.00000000000E+00 0.  1.
          1   -1    0    0  501    0  0.00000000000E+00 -0.00000000000E+00 -0.29001206146E+04  0.29001206146E+04  0.00000000000E+00 0. -1.
         23    2    1    2    0    0 -0.33349447553E+04  0.98300162133E+03 -0.33849352867E+03  0.34943643670E+04  0.88632679879E+02 0.  0.
         11    1    3    3    0    0 -0.10033833661E+04  0.26092742200E+03 -0.12400842830E+03  0.10441452913E+04  0.00000000000E+00 0. -1.
        -11    1    3    3    0    0 -0.23315613892E+04  0.72207419933E+03 -0.21448510038E+03  0.24502190757E+04  0.00000000000E+00 0.  1.
         22    1    1    2    0    0  0.33349447553E+04 -0.98300162133E+03  0.20884469711E+04  0.40558303046E+04  0.00000000000E+00 0.  1.
<mgrwt>
<rscale>  0 0.73445968E+04</rscale>
<asrwt>0</asrwt>
<pdfrwt beam="1">  1        1 0.44617240E+00 0.73445968E+04</pdfrwt>
<pdfrwt beam="2">  1       -1 0.71539601E+00 0.73445968E+04</pdfrwt>
<totfact> 0.77204121E-05</totfact>
</mgrwt>
</event>
<event>
 6    1  0.1675930E-005  0.2628009E+04  0.7818608E-02  0.8358749E-01
          2   -1    0    0  501    0  0.00000000000E+00  0.00000000000E+00  0.95853723549E+03  0.95853723549E+03  0.00000000000E+00 0. -1.
         -2   -1    0    0    0  501 -0.00000000000E+00 -0.00000000000E+00 -0.18012943163E+04  0.18012943163E+04  0.00000000000E+00 0.  1.
         23    2    1    2    0    0 -0.78190877062E+03 -0.52613209124E+03 -0.13810737725E+04  0.16744831453E+04  0.91283820604E+02 0.  0.
         13    1    3    3    0    0 -0.45457804459E+03 -0.31208944384E+03 -0.88593218976E+03  0.10435117941E+04  0.00000000000E+00 0. -1.
        -13    1    3    3    0    0 -0.32733072603E+03 -0.21404264741E+03 -0.49514158271E+03  0.63097135120E+03  0.00000000000E+00 0.  1.
         22    1    1    2    0    0  0.78190877062E+03  0.52613209124E+03  0.53831669164E+03  0.10853484065E+04  0.00000000000E+00 0. -1.
<mgrwt>
<rscale>  0 0.26280089E+04</rscale>
<asrwt>0</asrwt>
<pdfrwt beam="1">  1        2 0.14746727E+00 0.26280089E+04</pdfrwt>
<pdfrwt beam="2">  1       -2 0.27712220E+00 0.26280089E+04</pdfrwt>
<totfact> 0.10371287E+00</totfact>
</mgrwt>
</event>
<event>
 6    1  0.1637818E-005  0.4298695E+03  0.7818608E-02  0.1033901E+00
         -1   -1    0    0    0  501 -0.00000000000E+00  0.00000000000E+00  0.53825182000E+02  0.53825182000E+02  0.00000000000E+00 0.  1.
          1   -1    0    0  501    0  0.00000000000E+00 -0.00000000000E+00 -0.85827738426E+03  0.85827738426E+03  0.00000000000E+00 0. -1.
         23    2    1    2    0    0  0.19230414536E+03  0.77765564889E+02 -0.45436808676E+03  0.50517842673E+03  0.75673754763E+02 0.  0.
         13    1    3    3    0    0  0.94863496277E+02  0.35368080218E+00 -0.22601109645E+03  0.24511267559E+03  0.00000000000E+00 0. -1.
        -13    1    3    3    0    0  0.97440649087E+02  0.77411884087E+02 -0.22835699031E+03  0.26006575114E+03  0.00000000000E+00 0.  1.
         22    1    1    2    0    0 -0.19230414536E+03 -0.77765564889E+02 -0.35008411550E+03  0.40692413953E+03  0.00000000000E+00 0. -1.
<mgrwt>
<rscale>  0 0.42986945E+03</rscale>
<asrwt>0</asrwt>
<pdfrwt beam="1">  1        1 0.13204266E+00 0.42986945E+03</pdfrwt>
<pdfrwt beam="2">  1       -1 0.82807980E-02 0.42986945E+03</pdfrwt>
<totfact> 0.16855725E+03</totfact>
</mgrwt>
</event>
<event>
 6    1  0.1637818E-005  0.5113670E+04  0.7818608E-02  0.7811208E-01
         -2   -1    0    0    0  501 -0.00000000000E+00  0.00000000000E+00  0.14748403803E+04  0.14748403803E+04  0.00000000000E+00 0.  1.
          2   -1    0    0  501    0  0.00000000000E+00 -0.00000000000E+00 -0.44326195665E+04  0.44326195665E+04  0.00000000000E+00 0. -1.
         23    2    1    2    0    0  0.59487352195E+03 -0.16388067286E+04  0.67992326003E+03  0.18735485586E+04  0.91249992851E+02 0.  0.
         13    1    3    3    0    0  0.28743732569E+03 -0.84391637398E+03  0.39268248096E+03  0.97417380036E+03  0.00000000000E+00 0. -1.
        -13    1    3    3    0    0  0.30743619627E+03 -0.79489035461E+03  0.28724077908E+03  0.89937475825E+03  0.00000000000E+00 0.  1.
         22    1    1    2    0    0 -0.59487352195E+03  0.16388067286E+04 -0.36377024462E+04  0.40339113882E+04  0.00000000000E+00 0. -1.
<mgrwt>
<rscale>  0 0.51136704E+04</rscale>
<asrwt>0</asrwt>
<pdfrwt beam="1">  1        2 0.68194146E+00 0.51136704E+04</pdfrwt>
<pdfrwt beam="2">  1       -2 0.22689853E+00 0.51136704E+04</pdfrwt>
<totfact> 0.91388943E-03</totfact>
</mgrwt>
</event>
<event>
 6    1  0.1637818E-005  0.2106409E+04  0.7818608E-02  0.8558425E-01
         -2   -1    0    0    0  501 -0.00000000000E+00  0.00000000000E+00  0.51007902280E+03  0.51007902280E+03  0.00000000000E+00 0.  1.
          2   -1    0    0  501    0  0.00000000000E+00 -0.00000000000E+00 -0.21746437528E+04  0.21746437528E+04  0.00000000000E+00 0. -1.
         23    2    1    2    0    0  0.64002720042E+03  0.20897726852E+03  0.19520130138E+03  0.70683602265E+03  0.90594143415E+02 0.  0.
         13    1    3    3    0    0  0.16844279868E+03  0.97795829666E+02  0.51716216917E+02  0.20152311981E+03  0.00000000000E+00 0.  1.
        -13    1    3    3    0    0  0.47158440174E+03  0.11118143885E+03  0.14348508446E+03  0.50531290284E+03  0.00000000000E+00 0. -1.
         22    1    1    2    0    0 -0.64002720042E+03 -0.20897726852E+03 -0.18597660314E+04  0.19778867529E+04  0.00000000000E+00 0. -1.
<mgrwt>
<rscale>  0 0.21064094E+04</rscale>
<asrwt>0</asrwt>
<pdfrwt beam="1">  1        2 0.33456058E+00 0.21064094E+04</pdfrwt>
<pdfrwt beam="2">  1       -2 0.78473696E-01 0.21064094E+04</pdfrwt>
<totfact> 0.70939266E+00</totfact>
</mgrwt>
</event>
<event>
 6    1  0.1637818E-005  0.1003235E+04  0.7818608E-02  0.9305004E-01
          1   -1    0    0  501    0  0.00000000000E+00  0.00000000000E+00  0.77055487751E+03  0.77055487751E+03  0.00000000000E+00 0. -1.
         -1   -1    0    0    0  501 -0.00000000000E+00 -0.00000000000E+00 -0.32654383726E+03  0.32654383726E+03  0.00000000000E+00 0.  1.
         23    2    1    2    0    0  0.35039146618E+03 -0.32613349514E+03  0.76086146503E+02  0.49335542192E+03  0.92050173431E+02 0.  0.
         11    1    3    3    0    0  0.17156594657E+03 -0.15412815739E+03  0.83072105594E+02  0.24513534558E+03  0.00000000000E+00 0. -1.
        -11    1    3    3    0    0  0.17882551961E+03 -0.17200533774E+03 -0.69859590904E+01  0.24822007634E+03  0.00000000000E+00 0.  1.
         22    1    1    2    0    0 -0.35039146618E+03  0.32613349514E+03  0.36792489374E+03  0.60374329285E+03  0.00000000000E+00 0. -1.
<mgrwt>
<rscale>  0 0.10032347E+04</rscale>
<asrwt>0</asrwt>
<pdfrwt beam="1">  1        1 0.11854690E+00 0.10032347E+04</pdfrwt>
<pdfrwt beam="2">  1       -1 0.50237514E-01 0.10032347E+04</pdfrwt>
<totfact> 0.93565458E+01</totfact>
</mgrwt>
</event>
<event>
 6    1  0.1637818E-005  0.1497330E+04  0.7818608E-02  0.8886230E-01
          1   -1    0    0  501    0  0.00000000000E+00  0.00000000000E+00  0.66283280181E+03  0.66283280181E+03  0.00000000000E+00 0. -1.
         -1   -1    0    0    0  501 -0.00000000000E+00 -0.00000000000E+00 -0.84561202971E+03  0.84561202971E+03  0.00000000000E+00 0.  1.
         23    2    1    2    0    0 -0.60889667662E+03 -0.42886066384E+03 -0.52480506486E+02  0.75236653623E+03  0.92868560329E+02 0.  0.
         11    1    3    3    0    0 -0.50305276610E+03 -0.31358021553E+03 -0.23826378296E+02  0.59326413456E+03  0.00000000000E+00 0.  1.
        -11    1    3    3    0    0 -0.10584391052E+03 -0.11528044831E+03 -0.28654128190E+02  0.15910240168E+03  0.00000000000E+00 0. -1.
         22    1    1    2    0    0  0.60889667662E+03  0.42886066384E+03 -0.13029872142E+03  0.75607829528E+03  0.00000000000E+00 0.  1.
<mgrwt>
<rscale>  0 0.14973301E+04</rscale>
<asrwt>0</asrwt>
<pdfrwt beam="1">  1        1 0.10197428E+00 0.14973301E+04</pdfrwt>
<pdfrwt beam="2">  1       -1 0.13009416E+00 0.14973301E+04</pdfrwt>
<totfact> 0.14492728E+01</totfact>
</mgrwt>
</event>
<event>
 6    1  0.1637818E-005  0.4421243E+04  0.7818608E-02  0.7924572E-01
         -2   -1    0    0    0  501 -0.00000000000E+00  0.00000000000E+00  0.26503405061E+04  0.26503405061E+04  0.00000000000E+00 0.  1.
          2   -1    0    0  501    0  0.00000000000E+00 -0.00000000000E+00 -0.18438560362E+04  0.18438560362E+04  0.00000000000E+00 0. -1.
         23    2    1    2    0    0 -0.16153909470E+04  0.61793744026E+03  0.18013570560E+04  0.24989256197E+04  0.91691971578E+02 0.  0.
         11    1    3    3    0    0 -0.10382750062E+04  0.38360020304E+03  0.12128667017E+04  0.16420139282E+04  0.00000000000E+00 0.  1.
        -11    1    3    3    0    0 -0.57711594080E+03  0.23433723721E+03  0.58849035434E+03  0.85691169150E+03  0.00000000000E+00 0. -1.
         22    1    1    2    0    0  0.16153909470E+04 -0.61793744026E+03 -0.99487258616E+03  0.19952709226E+04  0.00000000000E+00 0. -1.
<mgrwt>
<rscale>  0 0.44212425E+04</rscale>
<asrwt>0</asrwt>
<pdfrwt beam="1">  1        2 0.28367016E+00 0.44212425E+04</pdfrwt>
<pdfrwt beam="2">  1       -2 0.40774469E+00 0.44212425E+04</pdfrwt>
<totfact> 0.41084479E-02</totfact>
</mgrwt>
</event>
<event>
 6    1  0.1637818E-005  0.2014760E+04  0.7818608E-02  0.8599751E-01
         -1   -1    0    0    0  501 -0.00000000000E+00  0.00000000000E+00  0.11192410110E+04  0.11192410110E+04  0.00000000000E+00 0.  1.
          1   -1    0    0  501    0  0.00000000000E+00 -0.00000000000E+00 -0.90669909628E+03  0.90669909628E+03  0.00000000000E+00 0. -1.
         23    2    1    2    0    0  0.76434346358E+03  0.26008082728E+03  0.70864161155E+03  0.10783231614E+04  0.93514382668E+02 0.  0.
         13    1    3    3    0    0  0.16586307680E+03  0.16722166880E+02  0.14350869345E+03  0.21996576144E+03  0.00000000000E+00 0. -1.
        -13    1    3    3    0    0  0.59848038678E+03  0.24335866040E+03  0.56513291810E+03  0.85835739996E+03  0.00000000000E+00 0.  1.
         22    1    1    2    0    0 -0.76434346358E+03 -0.26008082728E+03 -0.49609969680E+03  0.94761694592E+03  0.00000000000E+00 0. -1.
<mgrwt>
<rscale>  0 0.20147603E+04</rscale>
<asrwt>0</asrwt>
<pdfrwt beam="1">  1        1 0.13949217E+00 0.20147603E+04</pdfrwt>
<pdfrwt beam="2">  1       -1 0.17219092E+00 0.20147603E+04</pdfrwt>
<totfact> 0.39473111E+00</totfact>
</mgrwt>
</event>
<event>
 6    1  0.1637818E-005  0.7848389E+03  0.7818608E-02  0.9582225E-01
         -1   -1    0    0    0  501 -0.00000000000E+00  0.00000000000E+00  0.79040117456E+02  0.79040117456E+02  0.00000000000E+00 0.  1.
          1   -1    0    0  501    0  0.00000000000E+00 -0.00000000000E+00 -0.19482896652E+04  0.19482896652E+04  0.00000000000E+00 0. -1.
         23    2    1    2    0    0 -0.48009003431E+02 -0.33891027026E+03 -0.48022200133E+03  0.59674858594E+03  0.91272496203E+02 0.  0.
         11    1    3    3    0    0 -0.23729229565E+02 -0.17972709864E+03 -0.33007704022E+03  0.37658433159E+03  0.00000000000E+00 0. -1.
        -11    1    3    3    0    0 -0.24279773866E+02 -0.15918317162E+03 -0.15014496112E+03  0.22016425435E+03  0.00000000000E+00 0.  1.
         22    1    1    2    0    0  0.48009003431E+02  0.33891027026E+03 -0.13890275464E+04  0.14305811967E+04  0.00000000000E+00 0. -1.
<mgrwt>
<rscale>  0 0.78483895E+03</rscale>
<asrwt>0</asrwt>
<pdfrwt beam="1">  1        1 0.29973681E+00 0.78483895E+03</pdfrwt>
<pdfrwt beam="2">  1       -1 0.12160020E-01 0.78483895E+03</pdfrwt>
<totfact> 0.15300549E+02</totfact>
</mgrwt>
</event>
<event>
 6    1  0.1637818E-005  0.5191528E+04  0.7818608E-02  0.7799623E-01
          2   -1    0    0  501    0  0.00000000000E+00  0.00000000000E+00  0.34639734103E+04  0.34639734103E+04  0.00000000000E+00 0. -1.
         -2   -1    0    0    0  501 -0.00000000000E+00 -0.00000000000E+00 -0.19451625899E+04  0.19451625899E+04  0.00000000000E+00 0.  1.
         23    2    1    2    0    0  0.22571112317E+04 -0.11328890166E+04  0.13798897119E+03  0.25308278833E+04  0.89778521151E+02 0.  0.
         13    1    3    3    0    0  0.11580333847E+04 -0.59254268641E+03  0.11485312872E+03  0.13058864408E+04  0.00000000000E+00 0.  1.
        -13    1    3    3    0    0  0.10990778470E+04 -0.54034633018E+03  0.23135842476E+02  0.12249414425E+04  0.00000000000E+00 0. -1.
         22    1    1    2    0    0 -0.22571112317E+04  0.11328890166E+04  0.13808218492E+04  0.28783081168E+04  0.00000000000E+00 0. -1.
<mgrwt>
<rscale>  0 0.51915283E+04</rscale>
<asrwt>0</asrwt>
<pdfrwt beam="1">  1        2 0.53291899E+00 0.51915283E+04</pdfrwt>
<pdfrwt beam="2">  1       -2 0.29925578E+00 0.51915283E+04</pdfrwt>
<totfact> 0.19802239E-02</totfact>
</mgrwt>
</event>
<event>
 6    1  0.1637818E-005  0.1416229E+04  0.7818608E-02  0.8942154E-01
          2   -1    0    0  501    0  0.00000000000E+00  0.00000000000E+00  0.46680945958E+03  0.46680945958E+03  0.00000000000E+00 0. -1.
         -2   -1    0    0    0  501 -0.00000000000E+00 -0.00000000000E+00 -0.10741564421E+04  0.10741564421E+04  0.00000000000E+00 0.  1.
         23    2    1    2    0    0 -0.57819830901E+03  0.18223223291E+03  0.87284670872E+02  0.61899247195E+03  0.89505280896E+02 0.  0.
         13    1    3    3    0    0 -0.44062924293E+03  0.99429512288E+02  0.75714169007E+02  0.45800981761E+03  0.00000000000E+00 0. -1.
        -13    1    3    3    0    0 -0.13756906607E+03  0.82802720625E+02  0.11570501865E+02  0.16098265434E+03  0.00000000000E+00 0.  1.
         22    1    1    2    0    0  0.57819830901E+03 -0.18223223291E+03 -0.69463165342E+03  0.92197342976E+03  0.00000000000E+00 0.  1.
<mgrwt>
<rscale>  0 0.14162293E+04</rscale>
<asrwt>0</asrwt>
<pdfrwt beam="1">  1        2 0.71816841E-01 0.14162293E+04</pdfrwt>
<pdfrwt beam="2">  1       -2 0.16525484E+00 0.14162293E+04</pdfrwt>
<totfact> 0.14927683E+01</totfact>
</mgrwt>
</event>
<event>
 6    1  0.1637818E-005  0.2415583E+04  0.7818608E-02  0.8433692E-01
         -2   -1    0    0    0  501 -0.00000000000E+00  0.00000000000E+00  0.50489494901E+03  0.50489494901E+03  0.00000000000E+00 0.  1.
          2   -1    0    0  501    0  0.00000000000E+00 -0.00000000000E+00 -0.28892359651E+04  0.28892359651E+04  0.00000000000E+00 0. -1.
         23    2    1    2    0    0 -0.17504570511E+03 -0.14472806477E+02 -0.28704802108E+04  0.28772346212E+04  0.89285853430E+02 0.  0.
         11    1    3    3    0    0 -0.96552413818E+02 -0.24634761786E+02 -0.21719673477E+04  0.21742519172E+04  0.00000000000E+00 0. -1.
        -11    1    3    3    0    0 -0.78493291297E+02  0.10161955309E+02 -0.69851286312E+03  0.70298270395E+03  0.00000000000E+00 0.  1.
         22    1    1    2    0    0  0.17504570511E+03  0.14472806477E+02  0.48613919472E+03  0.51689629293E+03  0.00000000000E+00 0.  1.
<mgrwt>
<rscale>  0 0.24155833E+04</rscale>
<asrwt>0</asrwt>
<pdfrwt beam="1">  1        2 0.44449783E+00 0.24155833E+04</pdfrwt>
<pdfrwt beam="2">  1       -2 0.77676148E-01 0.24155833E+04</pdfrwt>
<totfact> 0.27062093E+00</totfact>
</mgrwt>
</event>
<event>
 6    1  0.1637818E-005  0.4067010E+04  0.7818608E-02  0.7991163E-01
          2   -1    0    0  501    0  0.00000000000E+00  0.00000000000E+00  0.20102113174E+04  0.20102113174E+04  0.00000000000E+00 0. -1.
         -2   -1    0    0    0  501 -0.00000000000E+00 -0.00000000000E+00 -0.20570689093E+04  0.20570689093E+04  0.00000000000E+00 0.  1.
         23    2    1    2    0    0  0.82520157453E+03 -0.87381651953E+03 -0.16625952298E+04  0.20535471107E+04  0.91213426428E+02 0.  0.
         11    1    3    3    0    0  0.88804768387E+02 -0.58311760714E+02 -0.16018946895E+03  0.19221658172E+03  0.00000000000E+00 0. -1.
        -11    1    3    3    0    0  0.73639680614E+03 -0.81550475882E+03 -0.15024057608E+04  0.18613305289E+04  0.00000000000E+00 0.  1.
         22    1    1    2    0    0 -0.82520157453E+03  0.87381651953E+03  0.16157376378E+04  0.20137331161E+04  0.00000000000E+00 0. -1.
<mgrwt>
<rscale>  0 0.40670103E+04</rscale>
<asrwt>0</asrwt>
<pdfrwt beam="1">  1        2 0.30926328E+00 0.40670103E+04</pdfrwt>
<pdfrwt beam="2">  1       -2 0.31647214E+00 0.40670103E+04</pdfrwt>
<totfact> 0.13025696E-01</totfact>
</mgrwt>
</event>
<event>
 6    1  0.1637818E-005  0.1161728E+04  0.7818608E-02  0.9147032E-01
         -1   -1    0    0    0  501 -0.00000000000E+00  0.00000000000E+00  0.35369662112E+03  0.35369662112E+03  0.00000000000E+00 0.  1.
          1   -1    0    0  501    0  0.00000000000E+00 -0.00000000000E+00 -0.95393285280E+03  0.95393285280E+03  0.00000000000E+00 0. -1.
         23    2    1    2    0    0  0.24554740956E+03  0.20497546410E+03 -0.84256464737E+03  0.90634213015E+03  0.96085382153E+02 0.  0.
         11    1    3    3    0    0  0.61072140331E+02  0.18387060339E+02 -0.98280849089E+02  0.11716234724E+03  0.00000000000E+00 0. -1.
        -11    1    3    3    0    0  0.18447526923E+03  0.18658840376E+03 -0.74428379828E+03  0.78917978291E+03  0.00000000000E+00 0.  1.
         22    1    1    2    0    0 -0.24554740956E+03 -0.20497546410E+03  0.24232841568E+03  0.40128734378E+03  0.00000000000E+00 0.  1.
<mgrwt>
<rscale>  0 0.11617277E+04</rscale>
<asrwt>0</asrwt>
<pdfrwt beam="1">  1        1 0.14675890E+00 0.11617277E+04</pdfrwt>
<pdfrwt beam="2">  1       -1 0.54414865E-01 0.11617277E+04</pdfrwt>
<totfact> 0.55694757E+01</totfact>
</mgrwt>
</event>
<event>
 6    1  0.1637818E-005  0.5278195E+04  0.7818608E-02  0.7786969E-01
          1   -1    0    0  501    0  0.00000000000E+00  0.00000000000E+00  0.23459301673E+04  0.23459301673E+04  0.00000000000E+00 0. -1.
         -1   -1    0    0    0  501 -0.00000000000E+00 -0.00000000000E+00 -0.29689015359E+04  0.29689015359E+04  0.00000000000E+00 0.  1.
         23    2    1    2    0    0  0.94483560603E+03  0.84118654095E+03 -0.26430645865E+04  0.29313288758E+04  0.81175428159E+02 0.  0.
         11    1    3    3    0    0  0.75571473090E+03  0.63601415826E+03 -0.20150371703E+04  0.22441019499E+04  0.00000000000E+00 0. -1.
        -11    1    3    3    0    0  0.18912087513E+03  0.20517238269E+03 -0.62802741625E+03  0.68722692584E+03  0.00000000000E+00 0.  1.
         22    1    1    2    0    0 -0.94483560603E+03 -0.84118654095E+03  0.20200932179E+04  0.23835028274E+04  0.00000000000E+00 0. -1.
<mgrwt>
<rscale>  0 0.52781950E+04</rscale>
<asrwt>0</asrwt>
<pdfrwt beam="1">  1        1 0.36091233E+00 0.52781950E+04</pdfrwt>
<pdfrwt beam="2">  1       -1 0.45675408E+00 0.52781950E+04</pdfrwt>
<totfact> 0.35661623E-03</totfact>
</mgrwt>
</event>
<event>
 6    1  0.1637818E-005  0.1687238E+04  0.7818608E-02  0.8768677E-01
         -2   -1    0    0    0  501 -0.00000000000E+00  0.00000000000E+00  0.24072593424E+03  0.24072593424E+03  0.00000000000E+00 0.  1.
          2   -1    0    0  501    0  0.00000000000E+00 -0.00000000000E+00 -0.29564440873E+04  0.29564440873E+04  0.00000000000E+00 0. -1.
         23    2    1    2    0    0  0.31140660211E+03  0.66675928603E+03 -0.21337575194E+04  0.22589695118E+04  0.92087384161E+02 0.  0.
         13    1    3    3    0    0  0.64232905302E+02  0.69575426350E+02 -0.30505830566E+03  0.31941693118E+03  0.00000000000E+00 0. -1.
        -13    1    3    3    0    0  0.24717369681E+03  0.59718385968E+03 -0.18286992138E+04  0.19395525806E+04  0.00000000000E+00 0.  1.
         22    1    1    2    0    0 -0.31140660211E+03 -0.66675928603E+03 -0.58196063367E+03  0.93820050975E+03  0.00000000000E+00 0.  1.
<mgrwt>
<rscale>  0 0.16872377E+04</rscale>
<asrwt>0</asrwt>
<pdfrwt beam="1">  1        2 0.45483755E+00 0.16872377E+04</pdfrwt>
<pdfrwt beam="2">  1       -2 0.37034759E-01 0.16872377E+04</pdfrwt>
<totfact> 0.12188701E+01</totfact>
</mgrwt>
</event>
<event>
 6    1  0.1637818E-005  0.3154587E+04  0.7818608E-02  0.8200915E-01
         -2   -1    0    0    0  501 -0.00000000000E+00  0.00000000000E+00  0.10225669877E+04  0.10225669877E+04  0.00000000000E+00 0. -1.
          2   -1    0    0  501    0  0.00000000000E+00 -0.00000000000E+00 -0.24329502900E+04  0.24329502900E+04  0.00000000000E+00 0.  1.
         23    2    1    2    0    0  0.13492625286E+04  0.54783279122E+03 -0.13658538649E+04  0.19985982652E+04  0.90598604747E+02 0.  0.
         11    1    3    3    0    0  0.19225290004E+03  0.93501943832E+02 -0.16257342795E+03  0.26857756896E+03  0.00000000000E+00 0.  1.
        -11    1    3    3    0    0  0.11570096286E+04  0.45433084739E+03 -0.12032804370E+04  0.17300206963E+04  0.00000000000E+00 0. -1.
         22    1    1    2    0    0 -0.13492625286E+04 -0.54783279122E+03 -0.44529437418E+02  0.14569190125E+04  0.00000000000E+00 0.  1.
<mgrwt>
<rscale>  0 0.31545869E+04</rscale>
<asrwt>0</asrwt>
<pdfrwt beam="1">  1        2 0.37430004E+00 0.31545869E+04</pdfrwt>
<pdfrwt beam="2">  1       -2 0.15731800E+00 0.31545869E+04</pdfrwt>
<totfact> 0.84826086E-01</totfact>
</mgrwt>
</event>
<event>
 6    1  0.1637818E-005  0.2355512E+04  0.7818608E-02  0.8456349E-01
          2   -1    0    0  501    0  0.00000000000E+00  0.00000000000E+00  0.20878942459E+04  0.20878942459E+04  0.00000000000E+00 0. -1.
         -2   -1    0    0    0  501 -0.00000000000E+00 -0.00000000000E+00 -0.66435802572E+03  0.66435802572E+03  0.00000000000E+00 0.  1.
         23    2    1    2    0    0 -0.29333662982E+03 -0.32564538502E+03  0.19879137015E+04  0.20376802061E+04  0.90820936406E+02 0.  0.
         13    1    3    3    0    0 -0.18843689440E+03 -0.14371089517E+03  0.10011469989E+04  0.10288131987E+04  0.00000000000E+00 0. -1.
        -13    1    3    3    0    0 -0.10489973543E+03 -0.18193448986E+03  0.98676670269E+03  0.10088670074E+04  0.00000000000E+00 0.  1.
         22    1    1    2    0    0  0.29333662982E+03  0.32564538502E+03 -0.56437748141E+03  0.71457206544E+03  0.00000000000E+00 0.  1.
<mgrwt>
<rscale>  0 0.23555121E+04</rscale>
<asrwt>0</asrwt>
<pdfrwt beam="1">  1        2 0.32121450E+00 0.23555121E+04</pdfrwt>
<pdfrwt beam="2">  1       -2 0.10220893E+00 0.23555121E+04</pdfrwt>
<totfact> 0.42230429E+00</totfact>
</mgrwt>
</event>
<event>
 6    1  0.1637818E-005  0.6202525E+03  0.7818608E-02  0.9864257E-01
         -1   -1    0    0    0  501 -0.00000000000E+00  0.00000000000E+00  0.92036100179E+02  0.92036100179E+02  0.00000000000E+00 0.  1.
          1   -1    0    0  501    0  0.00000000000E+00 -0.00000000000E+00 -0.10450062899E+04  0.10450062899E+04  0.00000000000E+00 0. -1.
         23    2    1    2    0    0 -0.10601325400E+02 -0.10523790332E+03 -0.10076291264E+04  0.10179835653E+04  0.98927642414E+02 0.  0.
         11    1    3    3    0    0  0.14800495493E+02  0.13849825472E+02 -0.86629857562E+02  0.88969683340E+02  0.00000000000E+00 0. -1.
        -11    1    3    3    0    0 -0.25401820893E+02 -0.11908772879E+03 -0.92099926888E+03  0.92901388199E+03  0.00000000000E+00 0.  1.
         22    1    1    2    0    0  0.10601325400E+02  0.10523790332E+03  0.54658936697E+02  0.11905882477E+03  0.00000000000E+00 0.  1.
<mgrwt>
<rscale>  0 0.62025254E+03</rscale>
<asrwt>0</asrwt>
<pdfrwt beam="1">  1        1 0.16077019E+00 0.62025254E+03</pdfrwt>
<pdfrwt beam="2">  1       -1 0.14159401E-01 0.62025254E+03</pdfrwt>
<totfact> 0.51209847E+02</totfact>
</mgrwt>
</event>
<event>
 6    1  0.1637818E-005  0.3339468E+04  0.7818608E-02  0.8152925E-01
         -1   -1    0    0    0  501 -0.00000000000E+00  0.00000000000E+00  0.10910796813E+04  0.10910796813E+04  0.00000000000E+00 0.  1.
          1   -1    0    0  501    0  0.00000000000E+00 -0.00000000000E+00 -0.25552772599E+04  0.25552772599E+04  0.00000000000E+00 0. -1.
         23    2    1    2    0    0  0.38309718374E+03 -0.13909886195E+04  0.18193645916E+03  0.14574371021E+04  0.97001234201E+02 0.  0.
         13    1    3    3    0    0  0.16922967040E+03 -0.73138640052E+03  0.13207215013E+03  0.76223867722E+03  0.00000000000E+00 0.  1.
        -13    1    3    3    0    0  0.21386751334E+03 -0.65960221902E+03  0.49864309032E+02  0.69519842485E+03  0.00000000000E+00 0. -1.
         22    1    1    2    0    0 -0.38309718374E+03  0.13909886195E+04 -0.16461340377E+04  0.21889198391E+04  0.00000000000E+00 0. -1.
<mgrwt>
<rscale>  0 0.33394677E+04</rscale>
<asrwt>0</asrwt>
<pdfrwt beam="1">  1        1 0.39311958E+00 0.33394677E+04</pdfrwt>
<pdfrwt beam="2">  1       -1 0.16785841E+00 0.33394677E+04</pdfrwt>
<totfact> 0.26155229E-01</totfact>
</mgrwt>
</event>
<event>
 6    1  0.1637818E-005  0.1593032E+04  0.7818608E-02  0.8824840E-01
         -1   -1    0    0    0  501 -0.00000000000E+00  0.00000000000E+00  0.51101476061E+03  0.51101476061E+03  0.00000000000E+00 0. -1.
          1   -1    0    0  501    0  0.00000000000E+00 -0.00000000000E+00 -0.12415256581E+04  0.12415256581E+04  0.00000000000E+00 0.  1.
         23    2    1    2    0    0  0.59749179417E+03 -0.28999070498E+03 -0.84505110433E+03  0.10785890020E+04  0.90287392077E+02 0.  0.
         11    1    3    3    0    0  0.35635724000E+03 -0.20726035713E+03 -0.57141824911E+03  0.70460354353E+03  0.00000000000E+00 0.  1.
        -11    1    3    3    0    0  0.24113455417E+03 -0.82730347846E+02 -0.27363285522E+03  0.37398545844E+03  0.00000000000E+00 0. -1.
         22    1    1    2    0    0 -0.59749179417E+03  0.28999070498E+03  0.11454020688E+03  0.67395141670E+03  0.00000000000E+00 0. -1.
<mgrwt>
<rscale>  0 0.15930322E+04</rscale>
<asrwt>0</asrwt>
<pdfrwt beam="1">  1        1 0.19100395E+00 0.15930322E+04</pdfrwt>
<pdfrwt beam="2">  1       -1 0.78617656E-01 0.15930322E+04</pdfrwt>
<totfact> 0.15491295E+01</totfact>
</mgrwt>
</event>
<event>
 6    1  0.1637818E-005  0.4161901E+04  0.7818608E-02  0.7972659E-01
          2   -1    0    0  501    0  0.00000000000E+00  0.00000000000E+00  0.24875473575E+04  0.24875473575E+04  0.00000000000E+00 0. -1.
         -2   -1    0    0    0  501 -0.00000000000E+00 -0.00000000000E+00 -0.17408128747E+04  0.17408128747E+04  0.00000000000E+00 0.  1.
         23    2    1    2    0    0 -0.89708891222E+03  0.81732599723E+02 -0.15312045851E+04  0.17787775879E+04  0.89518106956E+02 0.  0.
         13    1    3    3    0    0 -0.72323248896E+03  0.34470821317E+02 -0.11912953607E+04  0.13940724899E+04  0.00000000000E+00 0.  1.
        -13    1    3    3    0    0 -0.17385642326E+03  0.47261778406E+02 -0.33990922436E+03  0.38470509798E+03  0.00000000000E+00 0. -1.
         22    1    1    2    0    0  0.89708891222E+03 -0.81732599723E+02  0.22779390679E+04  0.24495826443E+04  0.00000000000E+00 0. -1.
<mgrwt>
<rscale>  0 0.41619008E+04</rscale>
<asrwt>0</asrwt>
<pdfrwt beam="1">  1        2 0.38269960E+00 0.41619008E+04</pdfrwt>
<pdfrwt beam="2">  1       -2 0.26781736E+00 0.41619008E+04</pdfrwt>
<totfact> 0.13774345E-01</totfact>
</mgrwt>
</event>
<event>
 6    1  0.1637818E-005  0.1362244E+04  0.7818608E-02  0.8981611E-01
         -2   -1    0    0    0  501 -0.00000000000E+00  0.00000000000E+00  0.42421230343E+03  0.42421230343E+03  0.00000000000E+00 0.  1.
          2   -1    0    0  501    0  0.00000000000E+00 -0.00000000000E+00 -0.10936205316E+04  0.10936205316E+04  0.00000000000E+00 0. -1.
         23    2    1    2    0    0 -0.67731986620E+03  0.49315021111E+00 -0.29369812117E+03  0.74328746592E+03  0.86343652185E+02 0.  0.
         13    1    3    3    0    0 -0.45664194347E+03 -0.18394357728E+02 -0.23629125075E+03  0.51448398626E+03  0.00000000000E+00 0. -1.
        -13    1    3    3    0    0 -0.22067792273E+03  0.18887507939E+02 -0.57406870419E+02  0.22880347966E+03  0.00000000000E+00 0.  1.
         22    1    1    2    0    0  0.67731986620E+03 -0.49315021111E+00 -0.37571010705E+03  0.77454536916E+03  0.00000000000E+00 0.  1.
<mgrwt>
<rscale>  0 0.13622442E+04</rscale>
<asrwt>0</asrwt>
<pdfrwt beam="1">  1        2 0.16824931E+00 0.13622442E+04</pdfrwt>
<pdfrwt beam="2">  1       -2 0.65263431E-01 0.13622442E+04</pdfrwt>
<totfact> 0.46441086E+01</totfact>
</mgrwt>
</event>
<event>
 6    1  0.1637818E-005  0.1937063E+04  0.7818608E-02  0.8636625E-01
          2   -1    0    0  501    0  0.00000000000E+00  0.00000000000E+00  0.16594894488E+04  0.16594894488E+04  0.00000000000E+00 0.  1.
         -2   -1    0    0    0  501 -0.00000000000E+00 -0.00000000000E+00 -0.56526603585E+03  0.56526603585E+03  0.00000000000E+00 0. -1.
         23    2    1    2    0    0 -0.92558798674E+03 -0.16101177992E+03  0.80851107600E+03  0.12427832580E+04  0.90455247969E+02 0.  0.
         13    1    3    3    0    0 -0.27860211651E+03 -0.39987078902E+02  0.19011904307E+03  0.33965181634E+03  0.00000000000E+00 0.  1.
        -13    1    3    3    0    0 -0.64698587023E+03 -0.12102470102E+03  0.61839203293E+03  0.90313144167E+03  0.00000000000E+00 0. -1.
         22    1    1    2    0    0  0.92558798674E+03  0.16101177992E+03  0.28571233700E+03  0.98197222669E+03  0.00000000000E+00 0.  1.
<mgrwt>
<rscale>  0 0.19370627E+04</rscale>
<asrwt>0</asrwt>
<pdfrwt beam="1">  1        2 0.25530607E+00 0.19370627E+04</pdfrwt>
<pdfrwt beam="2">  1       -2 0.86964006E-01 0.19370627E+04</pdfrwt>
<totfact> 0.11031320E+01</totfact>
</mgrwt>
</event>
<event>
 6    1  0.1637818E-005  0.1967972E+04  0.7818608E-02  0.8621743E-01
          2   -1    0    0  501    0  0.00000000000E+00  0.00000000000E+00  0.31294493197E+04  0.31294493197E+04  0.00000000000E+00 0. -1.
         -2   -1    0    0    0  501 -0.00000000000E+00 -0.00000000000E+00 -0.30939249720E+03  0.30939249720E+03  0.00000000000E+00 0.  1.
         23    2    1    2    0    0 -0.13164870496E+03 -0.19678979882E+01  0.31132512751E+04  0.31174413794E+04  0.93658947301E+02 0.  0.
         11    1    3    3    0    0 -0.91721185223E+02  0.18258379053E+02  0.27273842954E+04  0.27289872186E+04  0.00000000000E+00 0. -1.
        -11    1    3    3    0    0 -0.39927519740E+02 -0.20226277041E+02  0.38586697966E+03  0.38845416088E+03  0.00000000000E+00 0.  1.
         22    1    1    2    0    0  0.13164870496E+03  0.19678979882E+01 -0.29319445260E+03  0.32140043743E+03  0.00000000000E+00 0.  1.
<mgrwt>
<rscale>  0 0.19679717E+04</rscale>
<asrwt>0</asrwt>
<pdfrwt beam="1">  1        2 0.48145372E+00 0.19679717E+04</pdfrwt>
<pdfrwt beam="2">  1       -2 0.47598848E-01 0.19679717E+04</pdfrwt>
<totfact> 0.56319778E+00</totfact>
</mgrwt>
</event>
<event>
 6    1  0.1637818E-005  0.3138926E+04  0.7818608E-02  0.8205136E-01
         -2   -1    0    0    0  501 -0.00000000000E+00  0.00000000000E+00  0.26582321087E+04  0.26582321087E+04  0.00000000000E+00 0.  1.
          2   -1    0    0  501    0  0.00000000000E+00 -0.00000000000E+00 -0.92663602320E+03  0.92663602320E+03  0.00000000000E+00 0. -1.
         23    2    1    2    0    0  0.31994111071E+03  0.71217676927E+03  0.24197407996E+04  0.25441466453E+04  0.89322733080E+02 0.  0.
         13    1    3    3    0    0  0.98381984197E+02  0.28624528972E+03  0.82878587555E+03  0.88232726820E+03  0.00000000000E+00 0.  1.
        -13    1    3    3    0    0  0.22155912651E+03  0.42593147955E+03  0.15909549241E+04  0.16618193771E+04  0.00000000000E+00 0. -1.
         22    1    1    2    0    0 -0.31994111071E+03 -0.71217676927E+03 -0.68814471412E+03  0.10407214866E+04  0.00000000000E+00 0. -1.
<mgrwt>
<rscale>  0 0.31389257E+04</rscale>
<asrwt>0</asrwt>
<pdfrwt beam="1">  1        2 0.14255939E+00 0.31389257E+04</pdfrwt>
<pdfrwt beam="2">  1       -2 0.40895878E+00 0.31389257E+04</pdfrwt>
<totfact> 0.15423222E-01</totfact>
</mgrwt>
</event>
<event>
 6    1  0.1637818E-005  0.2418298E+04  0.7818608E-02  0.8432685E-01
         -2   -1    0    0    0  501 -0.00000000000E+00  0.00000000000E+00  0.10165945891E+04  0.10165945891E+04  0.00000000000E+00 0.  1.
          2   -1    0    0  501    0  0.00000000000E+00 -0.00000000000E+00 -0.14381753911E+04  0.14381753911E+04  0.00000000000E+00 0. -1.
         23    2    1    2    0    0  0.11948897438E+04  0.16265630376E+03 -0.27882954315E+03  0.12404403317E+04  0.82022736557E+02 0.  0.
         13    1    3    3    0    0  0.38236737349E+03  0.85295575662E+02 -0.11072252066E+03  0.40711131171E+03  0.00000000000E+00 0. -1.
        -13    1    3    3    0    0  0.81252237035E+03  0.77360728100E+02 -0.16810702248E+03  0.83332902000E+03  0.00000000000E+00 0.  1.
         22    1    1    2    0    0 -0.11948897438E+04 -0.16265630376E+03 -0.14275125886E+03  0.12143296484E+04  0.00000000000E+00 0.  1.
<mgrwt>
<rscale>  0 0.24182980E+04</rscale>
<asrwt>0</asrwt>
<pdfrwt beam="1">  1        2 0.22125775E+00 0.24182980E+04</pdfrwt>
<pdfrwt beam="2">  1       -2 0.15639917E+00 0.24182980E+04</pdfrwt>
<totfact> 0.33114064E+00</totfact>
</mgrwt>
</event>
<event>
 6    1  0.1637818E-005  0.4416787E+04  0.7818608E-02  0.7925369E-01
         -2   -1    0    0    0  501 -0.00000000000E+00  0.00000000000E+00  0.30889506446E+04  0.30889506446E+04  0.00000000000E+00 0.  1.
          2   -1    0    0  501    0  0.00000000000E+00 -0.00000000000E+00 -0.15788541654E+04  0.15788541654E+04  0.00000000000E+00 0. -1.
         23    2    1    2    0    0 -0.66459481193E+03  0.53552690543E+03 -0.13960956546E+04  0.16388729770E+04  0.91357690686E+02 0.  0.
         11    1    3    3    0    0 -0.31644388336E+03  0.30780742776E+03 -0.68085753065E+03  0.81144877900E+03  0.00000000000E+00 0. -1.
        -11    1    3    3    0    0 -0.34815092857E+03  0.22771947767E+03 -0.71523812394E+03  0.82742419805E+03  0.00000000000E+00 0.  1.
         22    1    1    2    0    0  0.66459481193E+03 -0.53552690543E+03  0.29061921338E+04  0.30289318330E+04  0.00000000000E+00 0.  1.
<mgrwt>
<rscale>  0 0.44167873E+04</rscale>
<asrwt>0</asrwt>
<pdfrwt beam="1">  1        2 0.24290064E+00 0.44167873E+04</pdfrwt>
<pdfrwt beam="2">  1       -2 0.47522317E+00 0.44167873E+04</pdfrwt>
<totfact> 0.20773113E-02</totfact>
</mgrwt>
</event>
<event>
 6    1  0.1637818E-005  0.2965308E+04  0.7818608E-02  0.8253707E-01
         -2   -1    0    0    0  501 -0.00000000000E+00  0.00000000000E+00  0.11808723612E+04  0.11808723612E+04  0.00000000000E+00 0.  1.
          2   -1    0    0  501    0  0.00000000000E+00 -0.00000000000E+00 -0.18615580253E+04  0.18615580253E+04  0.00000000000E+00 0. -1.
         23    2    1    2    0    0  0.98351280391E+03  0.11004400501E+04 -0.46899119085E+03  0.15514306249E+04  0.93372948358E+02 0.  0.
         11    1    3    3    0    0  0.24332135769E+03  0.21563867406E+03 -0.11190955269E+03  0.34384454168E+03  0.00000000000E+00 0.  1.
        -11    1    3    3    0    0  0.74019144622E+03  0.88480137600E+03 -0.35708163816E+03  0.12075860832E+04  0.00000000000E+00 0. -1.
         22    1    1    2    0    0 -0.98351280391E+03 -0.11004400501E+04 -0.21169447318E+03  0.14909997616E+04  0.00000000000E+00 0. -1.
<mgrwt>
<rscale>  0 0.29653077E+04</rscale>
<asrwt>0</asrwt>
<pdfrwt beam="1">  1        2 0.28639354E+00 0.29653077E+04</pdfrwt>
<pdfrwt beam="2">  1       -2 0.18167267E+00 0.29653077E+04</pdfrwt>
<totfact> 0.12091386E+00</totfact>
</mgrwt>
</event>
<event>
 6    1  0.1637818E-005  0.1256939E+04  0.7818608E-02  0.9064428E-01
          1   -1    0    0  501    0  0.00000000000E+00  0.00000000000E+00  0.53576873727E+03  0.53576873727E+03  0.00000000000E+00 0. -1.
         -1   -1    0    0    0  501 -0.00000000000E+00 -0.00000000000E+00 -0.73720958864E+03  0.73720958864E+03  0.00000000000E+00 0.  1.
         23    2    1    2    0    0 -0.27055316965E+02  0.35935771536E+03  0.41646360835E+03  0.55766309533E+03  0.87614114397E+02 0.  0.
         11    1    3    3    0    0 -0.10126004414E+01  0.24245687818E+03  0.33200089797E+03  0.41110942507E+03  0.00000000000E+00 0.  1.
        -11    1    3    3    0    0 -0.26042716523E+02  0.11690083719E+03  0.84462710385E+02  0.14655367025E+03  0.00000000000E+00 0. -1.
         22    1    1    2    0    0  0.27055316965E+02 -0.35935771536E+03 -0.61790445972E+03  0.71531523059E+03  0.00000000000E+00 0.  1.
<mgrwt>
<rscale>  0 0.12569389E+04</rscale>
<asrwt>0</asrwt>
<pdfrwt beam="1">  1        1 0.82425959E-01 0.12569389E+04</pdfrwt>
<pdfrwt beam="2">  1       -1 0.11341686E+00 0.12569389E+04</pdfrwt>
<totfact> 0.28165929E+01</totfact>
</mgrwt>
</event>
<event>
 6    1  0.1637818E-005  0.2320514E+04  0.7818608E-02  0.8469876E-01
         -2   -1    0    0    0  501 -0.00000000000E+00  0.00000000000E+00  0.40746949732E+03  0.40746949732E+03  0.00000000000E+00 0.  1.
          2   -1    0    0  501    0  0.00000000000E+00 -0.00000000000E+00 -0.33037978930E+04  0.33037978930E+04  0.00000000000E+00 0. -1.
         23    2    1    2    0    0 -0.21500406601E+03 -0.74787045840E+03 -0.28229240106E+04  0.29296503647E+04  0.91729595543E+02 0.  0.
         11    1    3    3    0    0 -0.26952012712E+02 -0.23254591578E+03 -0.78194645016E+03  0.81623787271E+03  0.00000000000E+00 0.  1.
        -11    1    3    3    0    0 -0.18805205330E+03 -0.51532454262E+03 -0.20409775605E+04  0.21134124920E+04  0.00000000000E+00 0. -1.
         22    1    1    2    0    0  0.21500406601E+03  0.74787045840E+03 -0.73404385016E+02  0.78161702559E+03  0.00000000000E+00 0.  1.
<mgrwt>
<rscale>  0 0.23205145E+04</rscale>
<asrwt>0</asrwt>
<pdfrwt beam="1">  1        2 0.50827660E+00 0.23205145E+04</pdfrwt>
<pdfrwt beam="2">  1       -2 0.62687615E-01 0.23205145E+04</pdfrwt>
<totfact> 0.23688641E+00</totfact>
</mgrwt>
</event>
<event>
 6    1  0.1637818E-005  0.8553414E+03  0.7818608E-02  0.9483196E-01
          2   -1    0    0  501    0  0.00000000000E+00  0.00000000000E+00  0.11083927839E+04  0.11083927839E+04  0.00000000000E+00 0. -1.
         -2   -1    0    0    0  501 -0.00000000000E+00 -0.00000000000E+00 -0.16501573052E+03  0.16501573052E+03  0.00000000000E+00 0.  1.
         23    2    1    2    0    0 -0.17270109275E+02  0.26004777155E+03 -0.18151757321E+02  0.27718526938E+03  0.92623361552E+02 0.  0.
         11    1    3    3    0    0  0.29988168191E+01  0.10790664394E+02 -0.24592349208E+02  0.27022490262E+02  0.00000000000E+00 0.  1.
        -11    1    3    3    0    0 -0.20268926094E+02  0.24925710715E+03  0.64405918868E+01  0.25016277912E+03  0.00000000000E+00 0. -1.
         22    1    1    2    0    0  0.17270109275E+02 -0.26004777155E+03  0.96152881068E+03  0.99622324503E+03  0.00000000000E+00 0. -1.
<mgrwt>
<rscale>  0 0.85534144E+03</rscale>
<asrwt>0</asrwt>
<pdfrwt beam="1">  1        2 0.17052196E+00 0.85534144E+03</pdfrwt>
<pdfrwt beam="2">  1       -2 0.25387036E-01 0.85534144E+03</pdfrwt>
<totfact> 0.30107277E+02</totfact>
</mgrwt>
</event>
<event>
 6    1  0.1637818E-005  0.1023047E+04  0.7818608E-02  0.9283622E-01
          1   -1    0    0  501    0  0.00000000000E+00  0.00000000000E+00  0.82438028532E+03  0.82438028532E+03  0.00000000000E+00 0. -1.
         -1   -1    0    0    0  501 -0.00000000000E+00 -0.00000000000E+00 -0.31739779181E+03  0.31739779181E+03  0.00000000000E+00 0.  1.
         23    2    1    2    0    0  0.46707157500E+03  0.18558619944E+03  0.33346474808E+03  0.61007656164E+03  0.91632850288E+02 0.  0.
         13    1    3    3    0    0  0.20875893042E+03  0.56887067653E+02  0.97643799654E+02  0.23738311041E+03  0.00000000000E+00 0.  1.
        -13    1    3    3    0    0  0.25831264458E+03  0.12869913179E+03  0.23582094842E+03  0.37269345123E+03  0.00000000000E+00 0. -1.
         22    1    1    2    0    0 -0.46707157500E+03 -0.18558619944E+03  0.17351774544E+03  0.53170151549E+03  0.00000000000E+00 0.  1.
<mgrwt>
<rscale>  0 0.10230474E+04</rscale>
<asrwt>0</asrwt>
<pdfrwt beam="1">  1        1 0.12682773E+00 0.10230474E+04</pdfrwt>
<pdfrwt beam="2">  1       -1 0.48830430E-01 0.10230474E+04</pdfrwt>
<totfact> 0.88501922E+01</totfact>
</mgrwt>
</event>
<event>
 6    1  0.1637818E-005  0.6970416E+03  0.7818608E-02  0.9722305E-01
          1   -1    0    0  501    0  0.00000000000E+00  0.00000000000E+00  0.10867045898E+03  0.10867045898E+03  0.00000000000E+00 0. -1.
         -1   -1    0    0    0  501 -0.00000000000E+00 -0.00000000000E+00 -0.11177531979E+04  0.11177531979E+04  0.00000000000E+00 0.  1.
         23    2    1    2    0    0 -0.17097629192E+03  0.24205618899E+03 -0.21116230225E+03  0.37524734478E+03  0.91634932442E+02 0.  0.
         13    1    3    3    0    0 -0.15002782156E+03  0.24212250772E+03 -0.17755232537E+03  0.33564338848E+03  0.00000000000E+00 0.  1.
        -13    1    3    3    0    0 -0.20948470366E+02 -0.66318725937E-01 -0.33609976882E+02  0.39603956303E+02  0.00000000000E+00 0. -1.
         22    1    1    2    0    0  0.17097629192E+03 -0.24205618899E+03 -0.79792043668E+03  0.85117631211E+03  0.00000000000E+00 0.  1.
<mgrwt>
<rscale>  0 0.69704161E+03</rscale>
<asrwt>0</asrwt>
<pdfrwt beam="1">  1        1 0.16718534E-01 0.69704161E+03</pdfrwt>
<pdfrwt beam="2">  1       -1 0.17196202E+00 0.69704161E+03</pdfrwt>
<totfact> 0.81106373E+01</totfact>
</mgrwt>
</event>
<event>
 6    1  0.1637818E-005  0.3113290E+04  0.7818608E-02  0.8212100E-01
          1   -1    0    0  501    0  0.00000000000E+00  0.00000000000E+00  0.57063973430E+04  0.57063973430E+04  0.00000000000E+00 0. -1.
         -1   -1    0    0    0  501 -0.00000000000E+00 -0.00000000000E+00 -0.42463630847E+03  0.42463630847E+03  0.00000000000E+00 0.  1.
         23    2    1    2    0    0  0.14664905686E+04 -0.45149865603E+03  0.21426505719E+04  0.26369729593E+04  0.90715436070E+02 0.  0.
         11    1    3    3    0    0  0.44436167146E+03 -0.98382367024E+02  0.66780654402E+03  0.80814724242E+03  0.00000000000E+00 0. -1.
        -11    1    3    3    0    0  0.10221288972E+04 -0.35311628901E+03  0.14748440279E+04  0.18288257168E+04  0.00000000000E+00 0.  1.
         22    1    1    2    0    0 -0.14664905686E+04  0.45149865603E+03  0.31391104627E+04  0.34940606922E+04  0.00000000000E+00 0.  1.
<mgrwt>
<rscale>  0 0.31132899E+04</rscale>
<asrwt>0</asrwt>
<pdfrwt beam="1">  1        1 0.87790723E+00 0.31132899E+04</pdfrwt>
<pdfrwt beam="2">  1       -1 0.65328667E-01 0.31132899E+04</pdfrwt>
<totfact> 0.11674858E-03</totfact>
</mgrwt>
</event>
<event>
 6    1  0.1637818E-005  0.2042185E+04  0.7818608E-02  0.8587148E-01
          1   -1    0    0  501    0  0.00000000000E+00  0.00000000000E+00  0.16353831577E+04  0.16353831577E+04  0.00000000000E+00 0. -1.
         -1   -1    0    0    0  501 -0.00000000000E+00 -0.00000000000E+00 -0.63754492054E+03  0.63754492054E+03  0.00000000000E+00 0.  1.
         23    2    1    2    0    0 -0.42485525890E+03 -0.77865349606E+03  0.10578752650E+04  0.13838793154E+04  0.96013672672E+02 0.  0.
         11    1    3    3    0    0 -0.17360083186E+03 -0.39392017496E+03  0.56046663249E+03  0.70670587885E+03  0.00000000000E+00 0.  1.
        -11    1    3    3    0    0 -0.25125442704E+03 -0.38473332110E+03  0.49740863253E+03  0.67717343656E+03  0.00000000000E+00 0. -1.
         22    1    1    2    0    0  0.42485525890E+03  0.77865349606E+03 -0.60037027874E+02  0.88904876281E+03  0.00000000000E+00 0.  1.
<mgrwt>
<rscale>  0 0.20421853E+04</rscale>
<asrwt>0</asrwt>
<pdfrwt beam="1">  1        1 0.25159741E+00 0.20421853E+04</pdfrwt>
<pdfrwt beam="2">  1       -1 0.98083835E-01 0.20421853E+04</pdfrwt>
<totfact> 0.48578778E+00</totfact>
</mgrwt>
</event>
<event>
 6    1  0.1637818E-005  0.2364596E+04  0.7818608E-02  0.8452878E-01
         -2   -1    0    0    0  501 -0.00000000000E+00  0.00000000000E+00  0.48102657649E+03  0.48102657649E+03  0.00000000000E+00 0.  1.
          2   -1    0    0  501    0  0.00000000000E+00 -0.00000000000E+00 -0.29059280036E+04  0.29059280036E+04  0.00000000000E+00 0. -1.
         23    2    1    2    0    0  0.89961370530E+03  0.44137915963E+03 -0.21088037026E+04  0.23362223817E+04  0.82228823214E+02 0.  0.
         11    1    3    3    0    0  0.23017903490E+03  0.12204839332E+03 -0.63309993441E+03  0.68461209847E+03  0.00000000000E+00 0. -1.
        -11    1    3    3    0    0  0.66943467040E+03  0.31933076631E+03 -0.14757037681E+04  0.16516102832E+04  0.00000000000E+00 0.  1.
         22    1    1    2    0    0 -0.89961370530E+03 -0.44137915963E+03 -0.31609772454E+03  0.10507321984E+04  0.00000000000E+00 0.  1.
<mgrwt>
<rscale>  0 0.23645960E+04</rscale>
<asrwt>0</asrwt>
<pdfrwt beam="1">  1        2 0.44706585E+00 0.23645960E+04</pdfrwt>
<pdfrwt beam="2">  1       -2 0.74004089E-01 0.23645960E+04</pdfrwt>
<totfact> 0.29563713E+00</totfact>
</mgrwt>
</event>
<event>
 6    1  0.1646868E-005  0.2277901E+04  0.7818608E-02  0.8486686E-01
         -1   -1    0    0    0  501 -0.00000000000E+00  0.00000000000E+00  0.13741780479E+04  0.13741780479E+04  0.00000000000E+00 0.  1.
          1   -1    0    0  501    0  0.00000000000E+00 -0.00000000000E+00 -0.94398829860E+03  0.94398829860E+03  0.00000000000E+00 0. -1.
         23    2    1    2    0    0 -0.52493571323E+03  0.34507455400E+03  0.11801544682E+04  0.13398611639E+04  0.88484003077E+02 0.  0.
         11    1    3    3    0    0 -0.35877354699E+03  0.28041908767E+03  0.87660751781E+03  0.98782289052E+03  0.00000000000E+00 0. -1.
        -11    1    3    3    0    0 -0.16616216624E+03  0.64655466333E+02  0.30354695038E+03  0.35203827335E+03  0.00000000000E+00 0.  1.
         22    1    1    2    0    0  0.52493571323E+03 -0.34507455400E+03 -0.74996471888E+03  0.97830518266E+03  0.00000000000E+00 0. -1.
<mgrwt>
<rscale>  0 0.22779008E+04</rscale>
<asrwt>0</asrwt>
<pdfrwt beam="1">  1        1 0.14522897E+00 0.22779008E+04</pdfrwt>
<pdfrwt beam="2">  1       -1 0.21141201E+00 0.22779008E+04</pdfrwt>
<totfact> 0.19085378E+00</totfact>
</mgrwt>
</event>
<event>
 6    1  0.2503134E-005  0.4457441E+04  0.7818608E-02  0.7918130E-01
         -2   -1    0    0    0  501 -0.00000000000E+00  0.00000000000E+00  0.17905094875E+04  0.17905094875E+04  0.00000000000E+00 0.  1.
          2   -1    0    0  501    0  0.00000000000E+00 -0.00000000000E+00 -0.27741795122E+04  0.27741795122E+04  0.00000000000E+00 0. -1.
         23    2    1    2    0    0 -0.26239931004E+02 -0.54486883646E+03 -0.27040540501E+04  0.27598921197E+04  0.86750352194E+02 0.  0.
         13    1    3    3    0    0  0.24866619183E+02 -0.26607476212E+03 -0.12049399739E+04  0.12342181608E+04  0.00000000000E+00 0.  1.
        -13    1    3    3    0    0 -0.51106550187E+02 -0.27879407433E+03 -0.14991140763E+04  0.15256739589E+04  0.00000000000E+00 0. -1.
         22    1    1    2    0    0  0.26239931004E+02  0.54486883646E+03  0.17203840254E+04  0.18047968799E+04  0.00000000000E+00 0.  1.
<mgrwt>
<rscale>  0 0.44574409E+04</rscale>
<asrwt>0</asrwt>
<pdfrwt beam="1">  1        2 0.42679685E+00 0.44574409E+04</pdfrwt>
<pdfrwt beam="2">  1       -2 0.27546300E+00 0.44574409E+04</pdfrwt>
<totfact> 0.81784603E-02</totfact>
</mgrwt>
</event>
<event>
 6    1  0.1637818E-005  0.5209221E+03  0.7818608E-02  0.1008458E+00
          3   -1    0    0  501    0  0.00000000000E+00  0.00000000000E+00  0.26827019615E+03  0.26827019615E+03  0.00000000000E+00 0. -1.
         -3   -1    0    0    0  501 -0.00000000000E+00 -0.00000000000E+00 -0.25287926746E+03  0.25287926746E+03  0.00000000000E+00 0.  1.
         23    2    1    2    0    0  0.45073429609E+02  0.18404513172E+03  0.17490529107E+03  0.27346204695E+03  0.91024203962E+02 0.  0.
         11    1    3    3    0    0  0.30944624517E+02  0.14113733308E+02  0.56215878481E+02  0.65703822171E+02  0.00000000000E+00 0. -1.
        -11    1    3    3    0    0  0.14128805092E+02  0.16993139841E+03  0.11868941259E+03  0.20775822478E+03  0.00000000000E+00 0.  1.
         22    1    1    2    0    0 -0.45073429609E+02 -0.18404513172E+03 -0.15951436238E+03  0.24768741666E+03  0.00000000000E+00 0.  1.
<mgrwt>
<rscale>  0 0.52092215E+03</rscale>
<asrwt>0</asrwt>
<pdfrwt beam="1">  1        3 0.41272338E-01 0.52092215E+03</pdfrwt>
<pdfrwt beam="2">  1       -3 0.38904503E-01 0.52092215E+03</pdfrwt>
<totfact> 0.10009975E+02</totfact>
</mgrwt>
</event>
<event>
 6    1  0.1637818E-005  0.8414618E+03  0.7818608E-02  0.9501869E-01
          1   -1    0    0  501    0  0.00000000000E+00  0.00000000000E+00  0.52057933543E+03  0.52057933543E+03  0.00000000000E+00 0. -1.
         -1   -1    0    0    0  501 -0.00000000000E+00 -0.00000000000E+00 -0.34003364260E+03  0.34003364260E+03  0.00000000000E+00 0.  1.
         23    2    1    2    0    0  0.22942154729E+03  0.13246042138E+03  0.41926951888E+03  0.50400524575E+03  0.89746023274E+02 0.  0.
         13    1    3    3    0    0  0.50409741847E+02  0.42387222499E+02  0.45971797464E+02  0.80319517344E+02  0.00000000000E+00 0.  1.
        -13    1    3    3    0    0  0.17901180544E+03  0.90073198877E+02  0.37329772142E+03  0.42368572841E+03  0.00000000000E+00 0. -1.
         22    1    1    2    0    0 -0.22942154729E+03 -0.13246042138E+03 -0.23872382605E+03  0.35660773227E+03  0.00000000000E+00 0.  1.
<mgrwt>
<rscale>  0 0.84146179E+03</rscale>
<asrwt>0</asrwt>
<pdfrwt beam="1">  1        1 0.80089129E-01 0.84146179E+03</pdfrwt>
<pdfrwt beam="2">  1       -1 0.52312868E-01 0.84146179E+03</pdfrwt>
<totfact> 0.15582669E+02</totfact>
</mgrwt>
</event>
<event>
 6    1  0.1637818E-005  0.1169885E+04  0.7818608E-02  0.9139633E-01
          2   -1    0    0  501    0  0.00000000000E+00  0.00000000000E+00  0.85775040072E+03  0.85775040072E+03  0.00000000000E+00 0. -1.
         -2   -1    0    0    0  501 -0.00000000000E+00 -0.00000000000E+00 -0.39890099411E+03  0.39890099411E+03  0.00000000000E+00 0.  1.
         23    2    1    2    0    0  0.26823370781E+03 -0.40575856103E+03 -0.11183499215E+03  0.50680473394E+03  0.88060439578E+02 0.  0.
         11    1    3    3    0    0  0.21296741467E+03 -0.35434265212E+03 -0.12101194351E+03  0.43076411793E+03  0.00000000000E+00 0. -1.
        -11    1    3    3    0    0  0.55266293144E+02 -0.51415908904E+02  0.91769513621E+01  0.76040616007E+02  0.00000000000E+00 0.  1.
         22    1    1    2    0    0 -0.26823370781E+03  0.40575856103E+03  0.57068439877E+03  0.74984666089E+03  0.00000000000E+00 0. -1.
<mgrwt>
<rscale>  0 0.11698846E+04</rscale>
<asrwt>0</asrwt>
<pdfrwt beam="1">  1        2 0.13196160E+00 0.11698846E+04</pdfrwt>
<pdfrwt beam="2">  1       -2 0.61369384E-01 0.11698846E+04</pdfrwt>
<totfact> 0.76532081E+01</totfact>
</mgrwt>
</event>
<event>
 6    1  0.1637818E-005  0.2073696E+04  0.7818608E-02  0.8572920E-01
         -1   -1    0    0    0  501 -0.00000000000E+00  0.00000000000E+00  0.14688319849E+04  0.14688319849E+04  0.00000000000E+00 0.  1.
          1   -1    0    0  501    0  0.00000000000E+00 -0.00000000000E+00 -0.73191035835E+03  0.73191035835E+03  0.00000000000E+00 0. -1.
         23    2    1    2    0    0  0.56191270197E+03 -0.70054444466E+03 -0.17641784409E+03  0.91984523880E+03  0.92106482192E+02 0.  0.
         11    1    3    3    0    0  0.59718068871E+02 -0.83119732697E+02 -0.50306318763E+02  0.11404325241E+03  0.00000000000E+00 0. -1.
        -11    1    3    3    0    0  0.50219463310E+03 -0.61742471196E+03 -0.12611152533E+03  0.80580198639E+03  0.00000000000E+00 0.  1.
         22    1    1    2    0    0 -0.56191270197E+03  0.70054444466E+03  0.91333947068E+03  0.12808971045E+04  0.00000000000E+00 0.  1.
<mgrwt>
<rscale>  0 0.20736956E+04</rscale>
<asrwt>0</asrwt>
<pdfrwt beam="1">  1        1 0.11260159E+00 0.20736956E+04</pdfrwt>
<pdfrwt beam="2">  1       -1 0.22597415E+00 0.20736956E+04</pdfrwt>
<totfact> 0.23539406E+00</totfact>
</mgrwt>
</event>
<event>
 6    1  0.1637818E-005  0.5615917E+03  0.7818608E-02  0.9988460E-01
          4   -1    0    0  501    0  0.00000000000E+00  0.00000000000E+00  0.21219483585E+03  0.21219483585E+03  0.00000000000E+00 0. -1.
         -4   -1    0    0    0  501 -0.00000000000E+00 -0.00000000000E+00 -0.37157505348E+03  0.37157505348E+03  0.00000000000E+00 0.  1.
         23    2    1    2    0    0  0.23341605139E+03 -0.11230618247E+03  0.11479873018E+02  0.27346535787E+03  0.86924005927E+02 0.  0.
         13    1    3    3    0    0  0.18974997770E+03 -0.54425499075E+02  0.27228785191E+02  0.19927015765E+03  0.00000000000E+00 0.  1.
        -13    1    3    3    0    0  0.43666073687E+02 -0.57880683398E+02 -0.15748912173E+02  0.74195200225E+02  0.00000000000E+00 0. -1.
         22    1    1    2    0    0 -0.23341605139E+03  0.11230618247E+03 -0.17086009064E+03  0.31030453145E+03  0.00000000000E+00 0.  1.
<mgrwt>
<rscale>  0 0.56159169E+03</rscale>
<asrwt>0</asrwt>
<pdfrwt beam="1">  1        4 0.32645360E-01 0.56159169E+03</pdfrwt>
<pdfrwt beam="2">  1       -4 0.57165393E-01 0.56159169E+03</pdfrwt>
<totfact> 0.52106557E+01</totfact>
</mgrwt>
</event>
<event>
 6    1  0.1637818E-005  0.4737700E+04  0.7818608E-02  0.7870294E-01
          2   -1    0    0  501    0  0.00000000000E+00  0.00000000000E+00  0.27378388202E+04  0.27378388202E+04  0.00000000000E+00 0. -1.
         -2   -1    0    0    0  501 -0.00000000000E+00 -0.00000000000E+00 -0.20495914034E+04  0.20495914034E+04  0.00000000000E+00 0.  1.
         23    2    1    2    0    0  0.22831010483E+04  0.29617046002E+03  0.90427037827E+03  0.24750865515E+04  0.89895394814E+02 0.  0.
         13    1    3    3    0    0  0.82877061899E+03  0.77698839357E+02  0.36075668350E+03  0.90721730210E+03  0.00000000000E+00 0. -1.
        -13    1    3    3    0    0  0.14543304293E+04  0.21847162066E+03  0.54351369477E+03  0.15678692494E+04  0.00000000000E+00 0.  1.
         22    1    1    2    0    0 -0.22831010483E+04 -0.29617046002E+03 -0.21602296151E+03  0.23123436722E+04  0.00000000000E+00 0.  1.
<mgrwt>
<rscale>  0 0.47377002E+04</rscale>
<asrwt>0</asrwt>
<pdfrwt beam="1">  1        2 0.42120597E+00 0.47377002E+04</pdfrwt>
<pdfrwt beam="2">  1       -2 0.31532175E+00 0.47377002E+04</pdfrwt>
<totfact> 0.47942309E-02</totfact>
</mgrwt>
</event>
<event>
 6    1  0.1637818E-005  0.3014869E+04  0.7818608E-02  0.8239498E-01
          1   -1    0    0  501    0  0.00000000000E+00  0.00000000000E+00  0.39317279468E+04  0.39317279468E+04  0.00000000000E+00 0. -1.
         -1   -1    0    0    0  501 -0.00000000000E+00 -0.00000000000E+00 -0.57795415224E+03  0.57795415224E+03  0.00000000000E+00 0.  1.
         23    2    1    2    0    0  0.51043267381E+03 -0.10370390693E+04  0.31226467478E+04  0.33309491957E+04  0.91149803396E+02 0.  0.
         13    1    3    3    0    0  0.37771550655E+03 -0.77151057236E+03  0.22016085613E+04  0.23632557678E+04  0.00000000000E+00 0. -1.
        -13    1    3    3    0    0  0.13271716726E+03 -0.26552849694E+03  0.92103818658E+03  0.96769342786E+03  0.00000000000E+00 0.  1.
         22    1    1    2    0    0 -0.51043267381E+03  0.10370390693E+04  0.23112704671E+03  0.11787329034E+04  0.00000000000E+00 0. -1.
<mgrwt>
<rscale>  0 0.30148688E+04</rscale>
<asrwt>0</asrwt>
<pdfrwt beam="1">  1        1 0.60488121E+00 0.30148688E+04</pdfrwt>
<pdfrwt beam="2">  1       -1 0.88916026E-01 0.30148688E+04</pdfrwt>
<totfact> 0.11597461E-01</totfact>
</mgrwt>
</event>
<event>
 6    1  0.1637818E-005  0.2302414E+04  0.7818608E-02  0.8476970E-01
         -1   -1    0    0    0  501 -0.00000000000E+00  0.00000000000E+00  0.74467147823E+03  0.74467147823E+03  0.00000000000E+00 0.  1.
          1   -1    0    0  501    0  0.00000000000E+00 -0.00000000000E+00 -0.17796804666E+04  0.17796804666E+04  0.00000000000E+00 0. -1.
         23    2    1    2    0    0 -0.49425369239E+02 -0.99642321164E+03  0.10761816698E+03  0.10074805264E+04  0.90184574548E+02 0.  0.
         11    1    3    3    0    0 -0.17082474291E+01 -0.19906465545E+03 -0.13664957788E+02  0.19954043758E+03  0.00000000000E+00 0.  1.
        -11    1    3    3    0    0 -0.47717121810E+02 -0.79735855619E+03  0.12128312477E+03  0.80794008886E+03  0.00000000000E+00 0. -1.
         22    1    1    2    0    0  0.49425369239E+02  0.99642321164E+03 -0.11426271554E+04  0.15168714184E+04  0.00000000000E+00 0. -1.
<mgrwt>
<rscale>  0 0.23024138E+04</rscale>
<asrwt>0</asrwt>
<pdfrwt beam="1">  1        1 0.27379700E+00 0.23024138E+04</pdfrwt>
<pdfrwt beam="2">  1       -1 0.11456484E+00 0.23024138E+04</pdfrwt>
<totfact> 0.26324225E+00</totfact>
</mgrwt>
</event>
<event>
 6    1  0.1637818E-005  0.4975974E+04  0.7818608E-02  0.7832224E-01
         -2   -1    0    0    0  501 -0.00000000000E+00  0.00000000000E+00  0.17437640900E+04  0.17437640900E+04  0.00000000000E+00 0. -1.
          2   -1    0    0  501    0  0.00000000000E+00 -0.00000000000E+00 -0.35498375246E+04  0.35498375246E+04  0.00000000000E+00 0.  1.
         23    2    1    2    0    0  0.18263492685E+03 -0.10560278822E+04  0.14842842192E+04  0.18331097574E+04  0.92958779048E+02 0.  0.
         11    1    3    3    0    0  0.93065440965E+02 -0.75013415508E+03  0.10813792793E+04  0.13193724162E+04  0.00000000000E+00 0. -1.
        -11    1    3    3    0    0  0.89569485887E+02 -0.30589372708E+03  0.40290493996E+03  0.51373734117E+03  0.00000000000E+00 0.  1.
         22    1    1    2    0    0 -0.18263492685E+03  0.10560278822E+04 -0.32903576539E+04  0.34604918573E+04  0.00000000000E+00 0.  1.
<mgrwt>
<rscale>  0 0.49759740E+04</rscale>
<asrwt>0</asrwt>
<pdfrwt beam="1">  1        2 0.54612885E+00 0.49759740E+04</pdfrwt>
<pdfrwt beam="2">  1       -2 0.26827140E+00 0.49759740E+04</pdfrwt>
<totfact> 0.27099732E-02</totfact>
</mgrwt>
</event>
<event>
 6    1  0.1637818E-005  0.1139287E+04  0.7818608E-02  0.9167724E-01
          1   -1    0    0  501    0  0.00000000000E+00  0.00000000000E+00  0.29156319909E+04  0.29156319909E+04  0.00000000000E+00 0. -1.
         -1   -1    0    0    0  501 -0.00000000000E+00 -0.00000000000E+00 -0.11129441598E+03  0.11129441598E+03  0.00000000000E+00 0.  1.
         23    2    1    2    0    0  0.14379364291E+03  0.17478608371E+03  0.27895988400E+04  0.28001136711E+04  0.86879782048E+02 0.  0.
         11    1    3    3    0    0  0.11460254418E+03  0.17027098267E+03  0.21333643440E+04  0.21432147291E+04  0.00000000000E+00 0. -1.
        -11    1    3    3    0    0  0.29191098731E+02  0.45151010410E+01  0.65623449593E+03  0.65689894202E+03  0.00000000000E+00 0.  1.
         22    1    1    2    0    0 -0.14379364291E+03 -0.17478608371E+03  0.14738734982E+02  0.22681273578E+03  0.00000000000E+00 0.  1.
<mgrwt>
<rscale>  0 0.11392867E+04</rscale>
<asrwt>0</asrwt>
<pdfrwt beam="1">  1        1 0.44855871E+00 0.11392867E+04</pdfrwt>
<pdfrwt beam="2">  1       -1 0.17122220E-01 0.11392867E+04</pdfrwt>
<totfact> 0.18376412E+01</totfact>
</mgrwt>
</event>
<event>
 6    1  0.1637818E-005  0.2226129E+04  0.7818608E-02  0.8507631E-01
         -1   -1    0    0    0  501 -0.00000000000E+00  0.00000000000E+00  0.65829025548E+03  0.65829025548E+03  0.00000000000E+00 0.  1.
          1   -1    0    0  501    0  0.00000000000E+00 -0.00000000000E+00 -0.18820164120E+04  0.18820164120E+04  0.00000000000E+00 0. -1.
         23    2    1    2    0    0  0.26937723750E+03  0.99077039043E+03 -0.10979690349E+04  0.15058962479E+04  0.89428435507E+02 0.  0.
         13    1    3    3    0    0  0.14857569227E+03  0.38014935763E+03 -0.43904850704E+03  0.59945964165E+03  0.00000000000E+00 0. -1.
        -13    1    3    3    0    0  0.12080154523E+03  0.61062103280E+03 -0.65892052787E+03  0.90643660621E+03  0.00000000000E+00 0.  1.
         22    1    1    2    0    0 -0.26937723750E+03 -0.99077039043E+03 -0.12575712163E+03  0.10344104196E+04  0.00000000000E+00 0.  1.
<mgrwt>
<rscale>  0 0.22261294E+04</rscale>
<asrwt>0</asrwt>
<pdfrwt beam="1">  1        1 0.28954099E+00 0.22261294E+04</pdfrwt>
<pdfrwt beam="2">  1       -1 0.10127542E+00 0.22261294E+04</pdfrwt>
<totfact> 0.30171453E+00</totfact>
</mgrwt>
</event>
<event>
 6    1  0.1637818E-005  0.2381327E+04  0.7818608E-02  0.8446528E-01
          1   -1    0    0  501    0  0.00000000000E+00  0.00000000000E+00  0.13901773166E+04  0.13901773166E+04  0.00000000000E+00 0. -1.
         -1   -1    0    0    0  501 -0.00000000000E+00 -0.00000000000E+00 -0.10197832884E+04  0.10197832884E+04  0.00000000000E+00 0.  1.
         23    2    1    2    0    0 -0.89603356997E+03 -0.20793454144E+02  0.97600627367E+03  0.13282606845E+04  0.91540556228E+02 0.  0.
         13    1    3    3    0    0 -0.34509011961E+03 -0.13463412270E+02  0.44238799697E+03  0.56122686499E+03  0.00000000000E+00 0. -1.
        -13    1    3    3    0    0 -0.55094345036E+03 -0.73300418738E+01  0.53361827669E+03  0.76703381948E+03  0.00000000000E+00 0.  1.
         22    1    1    2    0    0  0.89603356997E+03  0.20793454144E+02 -0.60561224551E+03  0.10816999206E+04  0.00000000000E+00 0.  1.
<mgrwt>
<rscale>  0 0.23813270E+04</rscale>
<asrwt>0</asrwt>
<pdfrwt beam="1">  1        1 0.21387343E+00 0.23813270E+04</pdfrwt>
<pdfrwt beam="2">  1       -1 0.15688974E+00 0.23813270E+04</pdfrwt>
<totfact> 0.21625958E+00</totfact>
</mgrwt>
</event>
<event>
 6    1  0.1637818E-005  0.9937994E+03  0.7818608E-02  0.9315372E-01
         -1   -1    0    0    0  501 -0.00000000000E+00  0.00000000000E+00  0.57598734349E+03  0.57598734349E+03  0.00000000000E+00 0.  1.
          1   -1    0    0  501    0  0.00000000000E+00 -0.00000000000E+00 -0.42867138135E+03  0.42867138135E+03  0.00000000000E+00 0. -1.
         23    2    1    2    0    0 -0.43767819001E+03  0.22532307332E+03  0.94590587500E+02  0.50957019689E+03  0.91551739095E+02 0.  0.
         13    1    3    3    0    0 -0.32818720128E+03  0.17310507332E+03  0.30289666393E+02  0.37227633470E+03  0.00000000000E+00 0. -1.
        -13    1    3    3    0    0 -0.10949098874E+03  0.52217999999E+02  0.64300921107E+02  0.13729386218E+03  0.00000000000E+00 0.  1.
         22    1    1    2    0    0  0.43767819001E+03 -0.22532307332E+03  0.52725374637E+02  0.49508852796E+03  0.00000000000E+00 0. -1.
<mgrwt>
<rscale>  0 0.99379936E+03</rscale>
<asrwt>0</asrwt>
<pdfrwt beam="1">  1        1 0.65949443E-01 0.99379936E+03</pdfrwt>
<pdfrwt beam="2">  1       -1 0.88613437E-01 0.99379936E+03</pdfrwt>
<totfact> 0.68595465E+01</totfact>
</mgrwt>
</event>
<event>
 6    1  0.1637818E-005  0.2285456E+04  0.7818608E-02  0.8483678E-01
          2   -1    0    0  501    0  0.00000000000E+00  0.00000000000E+00  0.11097593464E+04  0.11097593464E+04  0.00000000000E+00 0. -1.
         -2   -1    0    0    0  501 -0.00000000000E+00 -0.00000000000E+00 -0.11766756150E+04  0.11766756150E+04  0.00000000000E+00 0.  1.
         23    2    1    2    0    0 -0.10385244942E+04 -0.43673553337E+03 -0.21319216186E+03  0.11503593970E+04  0.92762024308E+02 0.  0.
         11    1    3    3    0    0 -0.56532579168E+03 -0.19510437901E+03 -0.87973970443E+02  0.60448191778E+03  0.00000000000E+00 0. -1.
        -11    1    3    3    0    0 -0.47319870253E+03 -0.24163115436E+03 -0.12521819142E+03  0.54587747920E+03  0.00000000000E+00 0.  1.
         22    1    1    2    0    0  0.10385244942E+04  0.43673553337E+03  0.14627589331E+03  0.11360755645E+04  0.00000000000E+00 0.  1.
<mgrwt>
<rscale>  0 0.22854555E+04</rscale>
<asrwt>0</asrwt>
<pdfrwt beam="1">  1        2 0.17073221E+00 0.22854555E+04</pdfrwt>
<pdfrwt beam="2">  1       -2 0.18102702E+00 0.22854555E+04</pdfrwt>
<totfact> 0.34788451E+00</totfact>
</mgrwt>
</event>
<event>
 6    1  0.1637818E-005  0.1325820E+04  0.7818608E-02  0.9009336E-01
         -2   -1    0    0    0  501 -0.00000000000E+00  0.00000000000E+00  0.89793964848E+03  0.89793964848E+03  0.00000000000E+00 0.  1.
          2   -1    0    0  501    0  0.00000000000E+00 -0.00000000000E+00 -0.48939804081E+03  0.48939804081E+03  0.00000000000E+00 0. -1.
         23    2    1    2    0    0  0.66361670520E+02  0.55215724236E+03  0.57643699345E+03  0.80641570470E+03  0.93515719332E+02 0.  0.
         13    1    3    3    0    0  0.18569248092E+02  0.43187613025E+03  0.41213107409E+03  0.59725524785E+03  0.00000000000E+00 0. -1.
        -13    1    3    3    0    0  0.47792422428E+02  0.12028111211E+03  0.16430591937E+03  0.20916045685E+03  0.00000000000E+00 0.  1.
         22    1    1    2    0    0 -0.66361670520E+02 -0.55215724236E+03 -0.16789538578E+03  0.58092198459E+03  0.00000000000E+00 0. -1.
<mgrwt>
<rscale>  0 0.13258204E+04</rscale>
<asrwt>0</asrwt>
<pdfrwt beam="1">  1        2 0.75292007E-01 0.13258204E+04</pdfrwt>
<pdfrwt beam="2">  1       -2 0.13814456E+00 0.13258204E+04</pdfrwt>
<totfact> 0.22951380E+01</totfact>
</mgrwt>
</event>
<event>
 6    1  0.1637818E-005  0.3543681E+04  0.7818608E-02  0.8103515E-01
         -1   -1    0    0    0  501 -0.00000000000E+00  0.00000000000E+00  0.15467563043E+04  0.15467563043E+04  0.00000000000E+00 0.  1.
          1   -1    0    0  501    0  0.00000000000E+00 -0.00000000000E+00 -0.20296790251E+04  0.20296790251E+04  0.00000000000E+00 0. -1.
         23    2    1    2    0    0  0.10419052280E+04 -0.58621111240E+03  0.10765920277E+04  0.16114172065E+04  0.91679041764E+02 0.  0.
         11    1    3    3    0    0  0.20867105595E+03 -0.83257266455E+02  0.22916051264E+03  0.32092043027E+03  0.00000000000E+00 0. -1.
        -11    1    3    3    0    0  0.83323417206E+03 -0.50295384595E+03  0.84743151510E+03  0.12904967762E+04  0.00000000000E+00 0.  1.
         22    1    1    2    0    0 -0.10419052280E+04  0.58621111240E+03 -0.15595147486E+04  0.19650181229E+04  0.00000000000E+00 0. -1.
<mgrwt>
<rscale>  0 0.35436810E+04</rscale>
<asrwt>0</asrwt>
<pdfrwt beam="1">  1        1 0.31225831E+00 0.35436810E+04</pdfrwt>
<pdfrwt beam="2">  1       -1 0.23796251E+00 0.35436810E+04</pdfrwt>
<totfact> 0.19337857E-01</totfact>
</mgrwt>
</event>
<event>
 6    1  0.1637818E-005  0.2987785E+04  0.7818608E-02  0.8247228E-01
         -1   -1    0    0    0  501 -0.00000000000E+00  0.00000000000E+00  0.11125391523E+04  0.11125391523E+04  0.00000000000E+00 0.  1.
          1   -1    0    0  501    0  0.00000000000E+00 -0.00000000000E+00 -0.20059648863E+04  0.20059648863E+04  0.00000000000E+00 0. -1.
         23    2    1    2    0    0  0.70647104549E+03 -0.11443447421E+04 -0.11226823249E+04  0.17542515652E+04  0.91415121159E+02 0.  0.
         13    1    3    3    0    0  0.41739675794E+03 -0.72605238355E+03 -0.65166527950E+03  0.10611502032E+04  0.00000000000E+00 0. -1.
        -13    1    3    3    0    0  0.28907428755E+03 -0.41829235858E+03 -0.47101704538E+03  0.69310136200E+03  0.00000000000E+00 0.  1.
         22    1    1    2    0    0 -0.70647104549E+03  0.11443447421E+04  0.22925659086E+03  0.13642524735E+04  0.00000000000E+00 0.  1.
<mgrwt>
<rscale>  0 0.29877848E+04</rscale>
<asrwt>0</asrwt>
<pdfrwt beam="1">  1        1 0.30860998E+00 0.29877848E+04</pdfrwt>
<pdfrwt beam="2">  1       -1 0.17115987E+00 0.29877848E+04</pdfrwt>
<totfact> 0.60686394E-01</totfact>
</mgrwt>
</event>
<event>
 6    1  0.1637818E-005  0.3064931E+04  0.7818608E-02  0.8225429E-01
         -2   -1    0    0    0  501 -0.00000000000E+00  0.00000000000E+00  0.17195547055E+04  0.17195547055E+04  0.00000000000E+00 0.  1.
          2   -1    0    0  501    0  0.00000000000E+00 -0.00000000000E+00 -0.13657320570E+04  0.13657320570E+04  0.00000000000E+00 0. -1.
         23    2    1    2    0    0 -0.77340194145E+03 -0.11096433123E+04 -0.54527246892E+03  0.14611467212E+04  0.90381590665E+02 0.  0.
         13    1    3    3    0    0 -0.58942096298E+03 -0.84921381785E+03 -0.45741855385E+03  0.11304038718E+04  0.00000000000E+00 0. -1.
        -13    1    3    3    0    0 -0.18398097847E+03 -0.26042949444E+03 -0.87853915070E+02  0.33074284937E+03  0.00000000000E+00 0.  1.
         22    1    1    2    0    0  0.77340194145E+03  0.11096433123E+04  0.89909511747E+03  0.16241400413E+04  0.00000000000E+00 0.  1.
<mgrwt>
<rscale>  0 0.30649313E+04</rscale>
<asrwt>0</asrwt>
<pdfrwt beam="1">  1        2 0.21011262E+00 0.30649313E+04</pdfrwt>
<pdfrwt beam="2">  1       -2 0.26454688E+00 0.30649313E+04</pdfrwt>
<totfact> 0.67471248E-01</totfact>
</mgrwt>
</event>
<event>
 6    1  0.1637818E-005  0.2680500E+04  0.7818608E-02  0.8341360E-01
          2   -1    0    0  501    0  0.00000000000E+00  0.00000000000E+00  0.86838248443E+03  0.86838248443E+03  0.00000000000E+00 0. -1.
         -2   -1    0    0    0  501 -0.00000000000E+00 -0.00000000000E+00 -0.20685243554E+04  0.20685243554E+04  0.00000000000E+00 0.  1.
         23    2    1    2    0    0  0.92623605531E+03 -0.46361495673E+03 -0.15299975041E+04  0.18498664555E+04  0.90892698396E+02 0.  0.
         13    1    3    3    0    0  0.75780690407E+03 -0.33939404375E+03 -0.12343188471E+04  0.14876164281E+04  0.00000000000E+00 0. -1.
        -13    1    3    3    0    0  0.16842915124E+03 -0.12422091297E+03 -0.29567865697E+03  0.36225002746E+03  0.00000000000E+00 0.  1.
         22    1    1    2    0    0 -0.92623605531E+03  0.46361495673E+03  0.32985563315E+03  0.10870403842E+04  0.00000000000E+00 0. -1.
<mgrwt>
<rscale>  0 0.26805002E+04</rscale>
<asrwt>0</asrwt>
<pdfrwt beam="1">  1        2 0.13359731E+00 0.26805002E+04</pdfrwt>
<pdfrwt beam="2">  1       -2 0.31823451E+00 0.26805002E+04</pdfrwt>
<totfact> 0.66496425E-01</totfact>
</mgrwt>
</event>
<event>
 6    1  0.1637818E-005  0.1994585E+04  0.7818608E-02  0.8609157E-01
          1   -1    0    0  501    0  0.00000000000E+00  0.00000000000E+00  0.22102727302E+04  0.22102727302E+04  0.00000000000E+00 0. -1.
         -1   -1    0    0    0  501 -0.00000000000E+00 -0.00000000000E+00 -0.44998614713E+03  0.44998614713E+03  0.00000000000E+00 0.  1.
         23    2    1    2    0    0  0.19995125966E+02 -0.54714967832E+03  0.19903918225E+04  0.20663556893E+04  0.91616876226E+02 0.  0.
         11    1    3    3    0    0  0.33190554699E+02 -0.18473295998E+03  0.55584038269E+03  0.58667402401E+03  0.00000000000E+00 0.  1.
        -11    1    3    3    0    0 -0.13195428733E+02 -0.36241671834E+03  0.14345514398E+04  0.14796816653E+04  0.00000000000E+00 0. -1.
         22    1    1    2    0    0 -0.19995125966E+02  0.54714967832E+03 -0.23010523944E+03  0.59390318804E+03  0.00000000000E+00 0.  1.
<mgrwt>
<rscale>  0 0.19945848E+04</rscale>
<asrwt>0</asrwt>
<pdfrwt beam="1">  1        1 0.34004195E+00 0.19945848E+04</pdfrwt>
<pdfrwt beam="2">  1       -1 0.69228639E-01 0.19945848E+04</pdfrwt>
<totfact> 0.41996258E+00</totfact>
</mgrwt>
</event>
<event>
 6    1  0.1637818E-005  0.2432547E+04  0.7818608E-02  0.8427418E-01
          2   -1    0    0  501    0  0.00000000000E+00  0.00000000000E+00  0.26280784622E+04  0.26280784622E+04  0.00000000000E+00 0. -1.
         -2   -1    0    0    0  501 -0.00000000000E+00 -0.00000000000E+00 -0.56289084424E+03  0.56289084424E+03  0.00000000000E+00 0.  1.
         23    2    1    2    0    0  0.71765234101E+02 -0.60028052987E+03  0.24161497307E+04  0.24919261262E+04  0.80183127342E+02 0.  0.
         11    1    3    3    0    0  0.46612451776E+02 -0.55156124041E+03  0.22436982115E+04  0.23109682358E+04  0.00000000000E+00 0. -1.
        -11    1    3    3    0    0  0.25152782325E+02 -0.48719289466E+02  0.17245151923E+03  0.18095789043E+03  0.00000000000E+00 0.  1.
         22    1    1    2    0    0 -0.71765234101E+02  0.60028052987E+03 -0.35096211269E+03  0.69904318029E+03  0.00000000000E+00 0.  1.
<mgrwt>
<rscale>  0 0.24325471E+04</rscale>
<asrwt>0</asrwt>
<pdfrwt beam="1">  1        2 0.40431976E+00 0.24325471E+04</pdfrwt>
<pdfrwt beam="2">  1       -2 0.86598593E-01 0.24325471E+04</pdfrwt>
<totfact> 0.30335467E+00</totfact>
</mgrwt>
</event>
<event>
 6    1  0.1637818E-005  0.1152917E+04  0.7818608E-02  0.9155097E-01
         -1   -1    0    0    0  501 -0.00000000000E+00  0.00000000000E+00  0.15307922881E+03  0.15307922881E+03  0.00000000000E+00 0.  1.
          1   -1    0    0  501    0  0.00000000000E+00 -0.00000000000E+00 -0.21707984912E+04  0.21707984912E+04  0.00000000000E+00 0. -1.
         23    2    1    2    0    0 -0.31081337110E+03 -0.32151815054E+03 -0.17365223717E+04  0.17956253522E+04  0.93710112643E+02 0.  0.
         13    1    3    3    0    0 -0.15570296240E+03 -0.10887707601E+03 -0.84293072481E+03  0.86407744850E+03  0.00000000000E+00 0. -1.
        -13    1    3    3    0    0 -0.15511040870E+03 -0.21264107453E+03 -0.89359164691E+03  0.93154790370E+03  0.00000000000E+00 0.  1.
         22    1    1    2    0    0  0.31081337110E+03  0.32151815054E+03 -0.28119689068E+03  0.52825236782E+03  0.00000000000E+00 0.  1.
<mgrwt>
<rscale>  0 0.11529166E+04</rscale>
<asrwt>0</asrwt>
<pdfrwt beam="1">  1        1 0.33396903E+00 0.11529166E+04</pdfrwt>
<pdfrwt beam="2">  1       -1 0.23550649E-01 0.11529166E+04</pdfrwt>
<totfact> 0.35271282E+01</totfact>
</mgrwt>
</event>
<event>
 6    1  0.1637818E-005  0.1280692E+04  0.7818608E-02  0.9045018E-01
          2   -1    0    0  501    0  0.00000000000E+00  0.00000000000E+00  0.11473131164E+04  0.11473131164E+04  0.00000000000E+00 0.  1.
         -2   -1    0    0    0  501 -0.00000000000E+00 -0.00000000000E+00 -0.35739412255E+03  0.35739412255E+03  0.00000000000E+00 0. -1.
         23    2    1    2    0    0 -0.18304402617E+02  0.59491894033E+03  0.66449081778E+03  0.89643441850E+03  0.88221443144E+02 0.  0.
         11    1    3    3    0    0  0.58779052762E+01  0.10508357375E+03  0.17028603724E+03  0.20018601779E+03  0.00000000000E+00 0. -1.
        -11    1    3    3    0    0 -0.24182307893E+02  0.48983536658E+03  0.49420478055E+03  0.69624840070E+03  0.00000000000E+00 0.  1.
         22    1    1    2    0    0  0.18304402617E+02 -0.59491894033E+03  0.12542817605E+03  0.60827282042E+03  0.00000000000E+00 0. -1.
<mgrwt>
<rscale>  0 0.12806919E+04</rscale>
<asrwt>0</asrwt>
<pdfrwt beam="1">  1        2 0.17650971E+00 0.12806919E+04</pdfrwt>
<pdfrwt beam="2">  1       -2 0.54983711E-01 0.12806919E+04</pdfrwt>
<totfact> 0.62215974E+01</totfact>
</mgrwt>
</event>
<event>
 6    1  0.1637818E-005  0.1822745E+04  0.7818608E-02  0.8694297E-01
          2   -1    0    0  501    0  0.00000000000E+00  0.00000000000E+00  0.47919524222E+03  0.47919524222E+03  0.00000000000E+00 0. -1.
         -2   -1    0    0    0  501 -0.00000000000E+00 -0.00000000000E+00 -0.17333225309E+04  0.17333225309E+04  0.00000000000E+00 0.  1.
         23    2    1    2    0    0  0.36095666956E+03 -0.30210540242E+03 -0.15729033606E+04  0.16440324386E+04  0.85207311969E+02 0.  0.
         13    1    3    3    0    0  0.83012940743E+02 -0.11885863963E+03 -0.44473665018E+03  0.46777046995E+03  0.00000000000E+00 0. -1.
        -13    1    3    3    0    0  0.27794372881E+03 -0.18324676279E+03 -0.11281667104E+04  0.11762619687E+04  0.00000000000E+00 0.  1.
         22    1    1    2    0    0 -0.36095666956E+03  0.30210540242E+03  0.31877607194E+03  0.56848533447E+03  0.00000000000E+00 0. -1.
<mgrwt>
<rscale>  0 0.18227451E+04</rscale>
<asrwt>0</asrwt>
<pdfrwt beam="1">  1        2 0.73722344E-01 0.18227451E+04</pdfrwt>
<pdfrwt beam="2">  1       -2 0.26666501E+00 0.18227451E+04</pdfrwt>
<totfact> 0.30979438E+00</totfact>
</mgrwt>
</event>
<event>
 6    1  0.1637818E-005  0.1968882E+04  0.7818608E-02  0.8621309E-01
          2   -1    0    0  501    0  0.00000000000E+00  0.00000000000E+00  0.31360069144E+04  0.31360069144E+04  0.00000000000E+00 0. -1.
         -2   -1    0    0    0  501 -0.00000000000E+00 -0.00000000000E+00 -0.30903108070E+03  0.30903108070E+03  0.00000000000E+00 0.  1.
         23    2    1    2    0    0  0.85998391678E+03  0.34608405431E+02  0.58535530393E+03  0.10438648072E+04  0.79011549832E+02 0.  0.
         11    1    3    3    0    0  0.74998893811E+03  0.31913909872E+02  0.54067203485E+03  0.92510980656E+03  0.00000000000E+00 0. -1.
        -11    1    3    3    0    0  0.10999497866E+03  0.26944955589E+01  0.44683269085E+02  0.11875500063E+03  0.00000000000E+00 0.  1.
         22    1    1    2    0    0 -0.85998391678E+03 -0.34608405431E+02  0.22416205298E+04  0.24011731879E+04  0.00000000000E+00 0. -1.
<mgrwt>
<rscale>  0 0.19688815E+04</rscale>
<asrwt>0</asrwt>
<pdfrwt beam="1">  1        2 0.48246258E+00 0.19688815E+04</pdfrwt>
<pdfrwt beam="2">  1       -2 0.47543245E-01 0.19688815E+04</pdfrwt>
<totfact> 0.55904614E+00</totfact>
</mgrwt>
</event>
<event>
 6    1  0.1637818E-005  0.2738303E+04  0.7818608E-02  0.8322683E-01
         -1   -1    0    0    0  501 -0.00000000000E+00  0.00000000000E+00  0.82172399042E+03  0.82172399042E+03  0.00000000000E+00 0.  1.
          1   -1    0    0  501    0  0.00000000000E+00 -0.00000000000E+00 -0.22812712939E+04  0.22812712939E+04  0.00000000000E+00 0. -1.
         23    2    1    2    0    0 -0.80304822411E+03  0.55956886355E+03 -0.18128859256E+04  0.20623935617E+04  0.94382525145E+02 0.  0.
         11    1    3    3    0    0 -0.60195710046E+03  0.42457654337E+03 -0.14452324648E+04  0.16221326917E+04  0.00000000000E+00 0.  1.
        -11    1    3    3    0    0 -0.20109112365E+03  0.13499232019E+03 -0.36765346073E+03  0.44026087006E+03  0.00000000000E+00 0. -1.
         22    1    1    2    0    0  0.80304822411E+03 -0.55956886355E+03  0.35333862206E+03  0.10406017226E+04  0.00000000000E+00 0.  1.
<mgrwt>
<rscale>  0 0.27383027E+04</rscale>
<asrwt>0</asrwt>
<pdfrwt beam="1">  1        1 0.35096481E+00 0.27383027E+04</pdfrwt>
<pdfrwt beam="2">  1       -1 0.12641908E+00 0.27383027E+04</pdfrwt>
<totfact> 0.90741569E-01</totfact>
</mgrwt>
</event>
<event>
 6    1  0.1637818E-005  0.2226929E+04  0.7818608E-02  0.8507302E-01
          2   -1    0    0  501    0  0.00000000000E+00  0.00000000000E+00  0.10240909562E+04  0.10240909562E+04  0.00000000000E+00 0. -1.
         -2   -1    0    0    0  501 -0.00000000000E+00 -0.00000000000E+00 -0.12106381537E+04  0.12106381537E+04  0.00000000000E+00 0.  1.
         23    2    1    2    0    0 -0.10440766164E+04  0.37912472460E+03 -0.11415961937E+03  0.11215932245E+04  0.10539167352E+03 0.  0.
         13    1    3    3    0    0 -0.50176756942E+03  0.12644309206E+03 -0.56878553394E+02  0.52057057071E+03  0.00000000000E+00 0.  1.
        -13    1    3    3    0    0 -0.54230904702E+03  0.25268163254E+03 -0.57281065980E+02  0.60102265384E+03  0.00000000000E+00 0. -1.
         22    1    1    2    0    0  0.10440766164E+04 -0.37912472460E+03 -0.72387578058E+02  0.11131358854E+04  0.00000000000E+00 0.  1.
<mgrwt>
<rscale>  0 0.22269294E+04</rscale>
<asrwt>0</asrwt>
<pdfrwt beam="1">  1        2 0.15755246E+00 0.22269294E+04</pdfrwt>
<pdfrwt beam="2">  1       -2 0.18625202E+00 0.22269294E+04</pdfrwt>
<totfact> 0.36420172E+00</totfact>
</mgrwt>
</event>
<event>
 6    1  0.1890266E-005  0.2910693E+04  0.7818608E-02  0.8269703E-01
         -2   -1    0    0    0  501 -0.00000000000E+00  0.00000000000E+00  0.14361783184E+04  0.14361783184E+04  0.00000000000E+00 0.  1.
          2   -1    0    0  501    0  0.00000000000E+00 -0.00000000000E+00 -0.14747702792E+04  0.14747702792E+04  0.00000000000E+00 0. -1.
         23    2    1    2    0    0  0.47604643508E+03  0.57029434725E+03 -0.12693540936E+04  0.14733703290E+04  0.87775057082E+02 0.  0.
         11    1    3    3    0    0  0.20000549843E+03  0.30802731586E+03 -0.61990276074E+03  0.72052929121E+03  0.00000000000E+00 0. -1.
        -11    1    3    3    0    0  0.27604093665E+03  0.26226703139E+03 -0.64945133281E+03  0.75284103777E+03  0.00000000000E+00 0.  1.
         22    1    1    2    0    0 -0.47604643508E+03 -0.57029434725E+03  0.12307621328E+04  0.14375782686E+04  0.00000000000E+00 0.  1.
<mgrwt>
<rscale>  0 0.29106928E+04</rscale>
<asrwt>0</asrwt>
<pdfrwt beam="1">  1        2 0.22688774E+00 0.29106928E+04</pdfrwt>
<pdfrwt beam="2">  1       -2 0.22095051E+00 0.29106928E+04</pdfrwt>
<totfact> 0.11026974E+00</totfact>
</mgrwt>
</event>
<event>
 6    1  0.1637818E-005  0.3819772E+03  0.7818608E-02  0.1050205E+00
         -2   -1    0    0    0  501 -0.00000000000E+00  0.00000000000E+00  0.32147023239E+02  0.32147023239E+02  0.00000000000E+00 0.  1.
          2   -1    0    0  501    0  0.00000000000E+00 -0.00000000000E+00 -0.11346818042E+04  0.11346818042E+04  0.00000000000E+00 0. -1.
         23    2    1    2    0    0 -0.15626611942E+03 -0.87115894319E+02 -0.64627970706E+03  0.67675029130E+03  0.91132968219E+02 0.  0.
         11    1    3    3    0    0 -0.78008048943E+02 -0.88390708895E+02 -0.45621521062E+03  0.47120111579E+03  0.00000000000E+00 0. -1.
        -11    1    3    3    0    0 -0.78258070476E+02  0.12748145757E+01 -0.19006449644E+03  0.20554917551E+03  0.00000000000E+00 0.  1.
         22    1    1    2    0    0  0.15626611942E+03  0.87115894319E+02 -0.45625507387E+03  0.49007853611E+03  0.00000000000E+00 0. -1.
<mgrwt>
<rscale>  0 0.38197718E+03</rscale>
<asrwt>0</asrwt>
<pdfrwt beam="1">  1        2 0.17456644E+00 0.38197718E+03</pdfrwt>
<pdfrwt beam="2">  1       -2 0.49456957E-02 0.38197718E+03</pdfrwt>
<totfact> 0.43570088E+03</totfact>
</mgrwt>
</event>
<event>
 6    1  0.1637818E-005  0.5245783E+03  0.7818608E-02  0.1007556E+00
         -2   -1    0    0    0  501 -0.00000000000E+00  0.00000000000E+00  0.66839390499E+02  0.66839390499E+02  0.00000000000E+00 0.  1.
          2   -1    0    0  501    0  0.00000000000E+00 -0.00000000000E+00 -0.10292673445E+04  0.10292673445E+04  0.00000000000E+00 0. -1.
         23    2    1    2    0    0 -0.11603456516E+03  0.16189673079E+02 -0.96762500005E+03  0.97883297362E+03  0.89942891321E+02 0.  0.
         13    1    3    3    0    0 -0.34157050904E+02 -0.23165531542E+02 -0.54469497208E+03  0.54625631217E+03  0.00000000000E+00 0.  1.
        -13    1    3    3    0    0 -0.81877514260E+02  0.39355204621E+02 -0.42293002796E+03  0.43257666144E+03  0.00000000000E+00 0. -1.
         22    1    1    2    0    0  0.11603456516E+03 -0.16189673079E+02  0.51970460193E+01  0.11727376141E+03  0.00000000000E+00 0.  1.
<mgrwt>
<rscale>  0 0.52457831E+03</rscale>
<asrwt>0</asrwt>
<pdfrwt beam="1">  1        2 0.15834881E+00 0.52457831E+03</pdfrwt>
<pdfrwt beam="2">  1       -2 0.10282984E-01 0.52457831E+03</pdfrwt>
<totfact> 0.15945712E+03</totfact>
</mgrwt>
</event>
<event>
 6    1  0.1637818E-005  0.3574152E+04  0.7818608E-02  0.8096438E-01
         -2   -1    0    0    0  501 -0.00000000000E+00  0.00000000000E+00  0.16574547842E+04  0.16574547842E+04  0.00000000000E+00 0.  1.
          2   -1    0    0  501    0  0.00000000000E+00 -0.00000000000E+00 -0.19268344822E+04  0.19268344822E+04  0.00000000000E+00 0. -1.
         23    2    1    2    0    0 -0.14020823297E+04 -0.19844080350E+03  0.95655579519E+03  0.17112886136E+04  0.91083027049E+02 0.  0.
         13    1    3    3    0    0 -0.65320852922E+03 -0.13811609444E+03  0.44437635485E+03  0.80201482713E+03  0.00000000000E+00 0. -1.
        -13    1    3    3    0    0 -0.74887380049E+03 -0.60324709068E+02  0.51217944034E+03  0.90927378643E+03  0.00000000000E+00 0.  1.
         22    1    1    2    0    0  0.14020823297E+04  0.19844080350E+03 -0.12259354932E+04  0.18730006528E+04  0.00000000000E+00 0. -1.
<mgrwt>
<rscale>  0 0.35741522E+04</rscale>
<asrwt>0</asrwt>
<pdfrwt beam="1">  1        2 0.29643607E+00 0.35741522E+04</pdfrwt>
<pdfrwt beam="2">  1       -2 0.25499305E+00 0.35741522E+04</pdfrwt>
<totfact> 0.35885410E-01</totfact>
</mgrwt>
</event>
<event>
 6    1  0.1637818E-005  0.3389259E+04  0.7818608E-02  0.8140548E-01
          1   -1    0    0  501    0  0.00000000000E+00  0.00000000000E+00  0.16161175002E+04  0.16161175002E+04  0.00000000000E+00 0. -1.
         -1   -1    0    0    0  501 -0.00000000000E+00 -0.00000000000E+00 -0.17769554537E+04  0.17769554537E+04  0.00000000000E+00 0.  1.
         23    2    1    2    0    0  0.20081930740E+03  0.12156812333E+04 -0.12436023062E+04  0.17527717928E+04  0.86330797250E+02 0.  0.
         11    1    3    3    0    0  0.55261189032E+02  0.40105385759E+03 -0.46495904478E+03  0.61651026676E+03  0.00000000000E+00 0. -1.
        -11    1    3    3    0    0  0.14555811837E+03  0.81462737572E+03 -0.77864326142E+03  0.11362615261E+04  0.00000000000E+00 0.  1.
         22    1    1    2    0    0 -0.20081930740E+03 -0.12156812333E+04  0.10827643527E+04  0.16403011610E+04  0.00000000000E+00 0. -1.
<mgrwt>
<rscale>  0 0.33892588E+04</rscale>
<asrwt>0</asrwt>
<pdfrwt beam="1">  1        1 0.24863346E+00 0.33892588E+04</pdfrwt>
<pdfrwt beam="2">  1       -1 0.27337776E+00 0.33892588E+04</pdfrwt>
<totfact> 0.22004616E-01</totfact>
</mgrwt>
</event>
<event>
 6    1  0.1637818E-005  0.2770489E+04  0.7818608E-02  0.8312489E-01
          2   -1    0    0  501    0  0.00000000000E+00  0.00000000000E+00  0.96605967822E+03  0.96605967822E+03  0.00000000000E+00 0. -1.
         -2   -1    0    0    0  501 -0.00000000000E+00 -0.00000000000E+00 -0.19863186053E+04  0.19863186053E+04  0.00000000000E+00 0.  1.
         23    2    1    2    0    0 -0.75048431590E+03 -0.11124331514E+04 -0.87061248396E+03  0.16021456063E+04  0.90389277824E+02 0.  0.
         13    1    3    3    0    0 -0.68515149609E+03 -0.10303422861E+04 -0.82840813432E+03  0.14890593797E+04  0.00000000000E+00 0. -1.
        -13    1    3    3    0    0 -0.65332819815E+02 -0.82090865308E+02 -0.42204349641E+02  0.11308622657E+03  0.00000000000E+00 0.  1.
         22    1    1    2    0    0  0.75048431590E+03  0.11124331514E+04 -0.14964644314E+03  0.13502326773E+04  0.00000000000E+00 0.  1.
<mgrwt>
<rscale>  0 0.27704890E+04</rscale>
<asrwt>0</asrwt>
<pdfrwt beam="1">  1        2 0.14862457E+00 0.27704890E+04</pdfrwt>
<pdfrwt beam="2">  1       -2 0.30558748E+00 0.27704890E+04</pdfrwt>
<totfact> 0.67891321E-01</totfact>
</mgrwt>
</event>
<event>
 6    1  0.1637818E-005  0.3446709E+04  0.7818608E-02  0.8126537E-01
          2   -1    0    0  501    0  0.00000000000E+00  0.00000000000E+00  0.32303781700E+04  0.32303781700E+04  0.00000000000E+00 0. -1.
         -2   -1    0    0    0  501 -0.00000000000E+00 -0.00000000000E+00 -0.91938173997E+03  0.91938173997E+03  0.00000000000E+00 0.  1.
         23    2    1    2    0    0  0.41611246019E+02 -0.11185929219E+04  0.27320148285E+04  0.29538342800E+04  0.90831217317E+02 0.  0.
         11    1    3    3    0    0  0.63935515852E+02 -0.10005398453E+04  0.24608492358E+04  0.26572441916E+04  0.00000000000E+00 0.  1.
        -11    1    3    3    0    0 -0.22324269833E+02 -0.11805307661E+03  0.27116559263E+03  0.29659008842E+03  0.00000000000E+00 0. -1.
         22    1    1    2    0    0 -0.41611246019E+02  0.11185929219E+04 -0.42101839843E+03  0.11959256300E+04  0.00000000000E+00 0.  1.
<mgrwt>
<rscale>  0 0.34467090E+04</rscale>
<asrwt>0</asrwt>
<pdfrwt beam="1">  1        2 0.49698125E+00 0.34467090E+04</pdfrwt>
<pdfrwt beam="2">  1       -2 0.14144335E+00 0.34467090E+04</pdfrwt>
<totfact> 0.35708760E-01</totfact>
</mgrwt>
</event>
<event>
 6    1  0.1637818E-005  0.8413172E+03  0.7818608E-02  0.9502065E-01
          2   -1    0    0  501    0  0.00000000000E+00  0.00000000000E+00  0.13855941902E+04  0.13855941902E+04  0.00000000000E+00 0. -1.
         -2   -1    0    0    0  501 -0.00000000000E+00 -0.00000000000E+00 -0.12770959526E+03  0.12770959526E+03  0.00000000000E+00 0.  1.
         23    2    1    2    0    0 -0.38309184094E+03 -0.85717697324E+02  0.38856462247E+03  0.55945678683E+03  0.88896278163E+02 0.  0.
         13    1    3    3    0    0 -0.10132091485E+03  0.16462854498E+02  0.93031192968E+02  0.13853431426E+03  0.00000000000E+00 0. -1.
        -13    1    3    3    0    0 -0.28177092609E+03 -0.10218055182E+03  0.29553342950E+03  0.42092247257E+03  0.00000000000E+00 0.  1.
         22    1    1    2    0    0  0.38309184094E+03  0.85717697324E+02  0.86931997243E+03  0.95384699858E+03  0.00000000000E+00 0.  1.
<mgrwt>
<rscale>  0 0.84131724E+03</rscale>
<asrwt>0</asrwt>
<pdfrwt beam="1">  1        2 0.21316833E+00 0.84131724E+03</pdfrwt>
<pdfrwt beam="2">  1       -2 0.19647631E-01 0.84131724E+03</pdfrwt>
<totfact> 0.32666122E+02</totfact>
</mgrwt>
</event>
<event>
 6    1  0.1637818E-005  0.3289567E+04  0.7818608E-02  0.8165555E-01
          1   -1    0    0  501    0  0.00000000000E+00  0.00000000000E+00  0.10690269865E+04  0.10690269865E+04  0.00000000000E+00 0. -1.
         -1   -1    0    0    0  501 -0.00000000000E+00 -0.00000000000E+00 -0.25306303776E+04  0.25306303776E+04  0.00000000000E+00 0.  1.
         23    2    1    2    0    0 -0.59823019023E+03 -0.14005098278E+04 -0.55303920325E+02  0.15267402554E+04  0.92575080440E+02 0.  0.
         11    1    3    3    0    0 -0.16468973425E+03 -0.34933177560E+03 -0.51785581411E+02  0.38966285998E+03  0.00000000000E+00 0. -1.
        -11    1    3    3    0    0 -0.43354045598E+03 -0.10511780522E+04 -0.35183389149E+01  0.11370773954E+04  0.00000000000E+00 0.  1.
         22    1    1    2    0    0  0.59823019023E+03  0.14005098278E+04 -0.14062994707E+04  0.20729171087E+04  0.00000000000E+00 0.  1.
<mgrwt>
<rscale>  0 0.32895666E+04</rscale>
<asrwt>0</asrwt>
<pdfrwt beam="1">  1        1 0.16446569E+00 0.32895666E+04</pdfrwt>
<pdfrwt beam="2">  1       -1 0.38932775E+00 0.32895666E+04</pdfrwt>
<totfact> 0.93923525E-02</totfact>
</mgrwt>
</event>
<event>
 6    1  0.1637818E-005  0.1142963E+04  0.7818608E-02  0.9164300E-01
         -1   -1    0    0    0  501 -0.00000000000E+00  0.00000000000E+00  0.22325940273E+03  0.22325940273E+03  0.00000000000E+00 0.  1.
          1   -1    0    0  501    0  0.00000000000E+00 -0.00000000000E+00 -0.14628320196E+04  0.14628320196E+04  0.00000000000E+00 0. -1.
         23    2    1    2    0    0  0.39513889540E+03 -0.71188440810E+02 -0.31335982663E+02  0.41289139681E+03  0.91075907823E+02 0.  0.
         11    1    3    3    0    0  0.15882761485E+03  0.16012683511E+02 -0.61962310512E+01  0.15975296727E+03  0.00000000000E+00 0.  1.
        -11    1    3    3    0    0  0.23631128055E+03 -0.87201124321E+02 -0.25139751612E+02  0.25313842954E+03  0.00000000000E+00 0. -1.
         22    1    1    2    0    0 -0.39513889540E+03  0.71188440810E+02 -0.12082366342E+04  0.12732000256E+04  0.00000000000E+00 0.  1.
<mgrwt>
<rscale>  0 0.11429628E+04</rscale>
<asrwt>0</asrwt>
<pdfrwt beam="1">  1        1 0.22505108E+00 0.11429628E+04</pdfrwt>
<pdfrwt beam="2">  1       -1 0.34347600E-01 0.11429628E+04</pdfrwt>
<totfact> 0.55350636E+01</totfact>
</mgrwt>
</event>
<event>
 6    1  0.1637818E-005  0.2116099E+04  0.7818608E-02  0.8554185E-01
          2   -1    0    0  501    0  0.00000000000E+00  0.00000000000E+00  0.12299840912E+04  0.12299840912E+04  0.00000000000E+00 0. -1.
         -2   -1    0    0    0  501 -0.00000000000E+00 -0.00000000000E+00 -0.91014916146E+03  0.91014916146E+03  0.00000000000E+00 0.  1.
         23    2    1    2    0    0  0.83193910486E+03  0.38013759009E+02  0.81703229866E+03  0.11701987477E+04  0.90860398558E+02 0.  0.
         13    1    3    3    0    0  0.46969857121E+03  0.32725282277E+02  0.40023149370E+03  0.61795868830E+03  0.00000000000E+00 0.  1.
        -13    1    3    3    0    0  0.36224053365E+03  0.52884767321E+01  0.41680080496E+03  0.55224005941E+03  0.00000000000E+00 0. -1.
         22    1    1    2    0    0 -0.83193910486E+03 -0.38013759009E+02 -0.49719736897E+03  0.96993450489E+03  0.00000000000E+00 0.  1.
<mgrwt>
<rscale>  0 0.21160992E+04</rscale>
<asrwt>0</asrwt>
<pdfrwt beam="1">  1        2 0.18922832E+00 0.21160992E+04</pdfrwt>
<pdfrwt beam="2">  1       -2 0.14002295E+00 0.21160992E+04</pdfrwt>
<totfact> 0.60066420E+00</totfact>
</mgrwt>
</event>
<event>
 6    1  0.1637818E-005  0.2494734E+04  0.7818608E-02  0.8404864E-01
         -4   -1    0    0    0  501 -0.00000000000E+00  0.00000000000E+00  0.91213341808E+03  0.91213341808E+03  0.00000000000E+00 0.  1.
          4   -1    0    0  501    0  0.00000000000E+00 -0.00000000000E+00 -0.17058074944E+04  0.17058074944E+04  0.00000000000E+00 0. -1.
         23    2    1    2    0    0 -0.11570292384E+04 -0.27709406210E+03 -0.78905061989E+01  0.11921240951E+04  0.74831946798E+02 0.  0.
         11    1    3    3    0    0 -0.10292755612E+03 -0.15774901256E+02 -0.20068695475E+02  0.10604565930E+03  0.00000000000E+00 0. -1.
        -11    1    3    3    0    0 -0.10541016823E+04 -0.26131916085E+03  0.12178189276E+02  0.10860784358E+04  0.00000000000E+00 0.  1.
         22    1    1    2    0    0  0.11570292384E+04  0.27709406210E+03 -0.78578357016E+03  0.14258168174E+04  0.00000000000E+00 0. -1.
<mgrwt>
<rscale>  0 0.24947337E+04</rscale>
<asrwt>0</asrwt>
<pdfrwt beam="1">  1        4 0.26243192E+00 0.24947337E+04</pdfrwt>
<pdfrwt beam="2">  1       -4 0.14032822E+00 0.24947337E+04</pdfrwt>
<totfact> 0.33424097E-02</totfact>
</mgrwt>
</event>
<event>
 6    1  0.1637818E-005  0.1685438E+04  0.7818608E-02  0.8769714E-01
         -1   -1    0    0    0  501 -0.00000000000E+00  0.00000000000E+00  0.59377882709E+03  0.59377882709E+03  0.00000000000E+00 0.  1.
          1   -1    0    0  501    0  0.00000000000E+00 -0.00000000000E+00 -0.11960262353E+04  0.11960262353E+04  0.00000000000E+00 0. -1.
         23    2    1    2    0    0  0.72884247156E+03  0.12806693339E+03  0.12085481096E+03  0.75516053060E+03  0.89716519426E+02 0.  0.
         13    1    3    3    0    0  0.40546696911E+03  0.10601168788E+03  0.96879206018E+02  0.43014825533E+03  0.00000000000E+00 0. -1.
        -13    1    3    3    0    0  0.32337550245E+03  0.22055245517E+02  0.23975604938E+02  0.32501227527E+03  0.00000000000E+00 0.  1.
         22    1    1    2    0    0 -0.72884247156E+03 -0.12806693339E+03 -0.72310221912E+03  0.10346445318E+04  0.00000000000E+00 0. -1.
<mgrwt>
<rscale>  0 0.16854377E+04</rscale>
<asrwt>0</asrwt>
<pdfrwt beam="1">  1        1 0.18400403E+00 0.16854377E+04</pdfrwt>
<pdfrwt beam="2">  1       -1 0.91350589E-01 0.16854377E+04</pdfrwt>
<totfact> 0.11980186E+01</totfact>
</mgrwt>
</event>
<event>
 6    1  0.1637818E-005  0.9989177E+03  0.7818608E-02  0.9309733E-01
         -2   -1    0    0    0  501 -0.00000000000E+00  0.00000000000E+00  0.53574642578E+02  0.53574642578E+02  0.00000000000E+00 0.  1.
          2   -1    0    0  501    0  0.00000000000E+00 -0.00000000000E+00 -0.46562914299E+04  0.46562914299E+04  0.00000000000E+00 0. -1.
         23    2    1    2    0    0 -0.46225100438E+03 -0.60390086528E+02 -0.31074026581E+04  0.31435687512E+04  0.93542826143E+02 0.  0.
         11    1    3    3    0    0 -0.40261206139E+03 -0.51647189354E+02 -0.24488268530E+04  0.24822402905E+04  0.00000000000E+00 0.  1.
        -11    1    3    3    0    0 -0.59638942991E+02 -0.87428971745E+01 -0.65857580515E+03  0.66132846067E+03  0.00000000000E+00 0. -1.
         22    1    1    2    0    0  0.46225100438E+03  0.60390086528E+02 -0.14953141292E+04  0.15662973213E+04  0.00000000000E+00 0. -1.
<mgrwt>
<rscale>  0 0.99891771E+03</rscale>
<asrwt>0</asrwt>
<pdfrwt beam="1">  1        2 0.71635256E+00 0.99891771E+03</pdfrwt>
<pdfrwt beam="2">  1       -2 0.82422524E-02 0.99891771E+03</pdfrwt>
<totfact> 0.87433964E+00</totfact>
</mgrwt>
</event>
<event>
 6    1  0.1637818E-005  0.8385489E+03  0.7818608E-02  0.9505836E-01
         -1   -1    0    0    0  501 -0.00000000000E+00  0.00000000000E+00  0.17104902412E+03  0.17104902412E+03  0.00000000000E+00 0.  1.
          1   -1    0    0  501    0  0.00000000000E+00 -0.00000000000E+00 -0.10277232274E+04  0.10277232274E+04  0.00000000000E+00 0. -1.
         23    2    1    2    0    0 -0.41999050734E+01  0.12510245685E+03 -0.99796652087E+03  0.10100084231E+04  0.92258192136E+02 0.  0.
         11    1    3    3    0    0 -0.14580472871E+02  0.12527867913E+02 -0.45457439492E+03  0.45498067891E+03  0.00000000000E+00 0. -1.
        -11    1    3    3    0    0  0.10380567797E+02  0.11257458894E+03 -0.54339212595E+03  0.55502774417E+03  0.00000000000E+00 0.  1.
         22    1    1    2    0    0  0.41999050734E+01 -0.12510245685E+03  0.14129231760E+03  0.18876382843E+03  0.00000000000E+00 0.  1.
<mgrwt>
<rscale>  0 0.83854888E+03</rscale>
<asrwt>0</asrwt>
<pdfrwt beam="1">  1        1 0.15811126E+00 0.83854888E+03</pdfrwt>
<pdfrwt beam="2">  1       -1 0.26315235E-01 0.83854888E+03</pdfrwt>
<totfact> 0.18620121E+02</totfact>
</mgrwt>
</event>
<event>
 6    1  0.1637818E-005  0.3575898E+04  0.7818608E-02  0.8096035E-01
          2   -1    0    0  501    0  0.00000000000E+00  0.00000000000E+00  0.10019832757E+04  0.10019832757E+04  0.00000000000E+00 0. -1.
         -2   -1    0    0    0  501 -0.00000000000E+00 -0.00000000000E+00 -0.31904335575E+04  0.31904335575E+04  0.00000000000E+00 0.  1.
         23    2    1    2    0    0  0.29284124845E+03 -0.12978717521E+04  0.30326320810E+03  0.13677286739E+04  0.92119869282E+02 0.  0.
         11    1    3    3    0    0  0.21800863388E+03 -0.85949949614E+03  0.16430836531E+03  0.90181172493E+03  0.00000000000E+00 0.  1.
        -11    1    3    3    0    0  0.74832614564E+02 -0.43837225597E+03  0.13895484278E+03  0.46591694898E+03  0.00000000000E+00 0. -1.
         22    1    1    2    0    0 -0.29284124845E+03  0.12978717521E+04 -0.24917134899E+04  0.28246881594E+04  0.00000000000E+00 0.  1.
<mgrwt>
<rscale>  0 0.35758977E+04</rscale>
<asrwt>0</asrwt>
<pdfrwt beam="1">  1        2 0.15415127E+00 0.35758977E+04</pdfrwt>
<pdfrwt beam="2">  1       -2 0.49083593E+00 0.35758977E+04</pdfrwt>
<totfact> 0.38580466E-02</totfact>
</mgrwt>
</event>
<event>
 6    1  0.1697852E-005  0.1767569E+04  0.7818608E-02  0.8723739E-01
         -2   -1    0    0    0  501 -0.00000000000E+00  0.00000000000E+00  0.11136378381E+04  0.11136378381E+04  0.00000000000E+00 0.  1.
          2   -1    0    0  501    0  0.00000000000E+00 -0.00000000000E+00 -0.70137261348E+03  0.70137261348E+03  0.00000000000E+00 0. -1.
         23    2    1    2    0    0 -0.29439367204E+03 -0.45569433784E+03 -0.50645722183E+03  0.74806345323E+03  0.93675230699E+02 0.  0.
         11    1    3    3    0    0 -0.23032763048E+03 -0.33679535113E+03 -0.32377793036E+03  0.52087817586E+03  0.00000000000E+00 0. -1.
        -11    1    3    3    0    0 -0.64066041566E+02 -0.11889898671E+03 -0.18267929147E+03  0.22718527737E+03  0.00000000000E+00 0.  1.
         22    1    1    2    0    0  0.29439367204E+03  0.45569433784E+03  0.91872244649E+03  0.10669469984E+04  0.00000000000E+00 0.  1.
<mgrwt>
<rscale>  0 0.17675690E+04</rscale>
<asrwt>0</asrwt>
<pdfrwt beam="1">  1        2 0.10790348E+00 0.17675690E+04</pdfrwt>
<pdfrwt beam="2">  1       -2 0.17132890E+00 0.17675690E+04</pdfrwt>
<totfact> 0.80620989E+00</totfact>
</mgrwt>
</event>
<event>
 6    1  0.1637818E-005  0.3593752E+04  0.7818608E-02  0.8091924E-01
          3   -1    0    0  501    0  0.00000000000E+00  0.00000000000E+00  0.16798772850E+04  0.16798772850E+04  0.00000000000E+00 0. -1.
         -3   -1    0    0    0  501 -0.00000000000E+00 -0.00000000000E+00 -0.19220228686E+04  0.19220228686E+04  0.00000000000E+00 0.  1.
         23    2    1    2    0    0 -0.21756923812E+03 -0.11510265061E+04  0.12429308505E+04  0.17104323621E+04  0.92213747218E+02 0.  0.
         11    1    3    3    0    0 -0.81354945506E+02 -0.64910715869E+03  0.66154118293E+03  0.93037383204E+03  0.00000000000E+00 0.  1.
        -11    1    3    3    0    0 -0.13621429262E+03 -0.50191934737E+03  0.58138966756E+03  0.78005853006E+03  0.00000000000E+00 0. -1.
         22    1    1    2    0    0  0.21756923812E+03  0.11510265061E+04 -0.14850764341E+04  0.18914677915E+04  0.00000000000E+00 0.  1.
<mgrwt>
<rscale>  0 0.35937516E+04</rscale>
<asrwt>0</asrwt>
<pdfrwt beam="1">  1        3 0.25844266E+00 0.35937516E+04</pdfrwt>
<pdfrwt beam="2">  1       -3 0.29569583E+00 0.35937516E+04</pdfrwt>
<totfact> 0.55870705E-03</totfact>
</mgrwt>
</event>
<event>
 6    1  0.1637818E-005  0.2845864E+04  0.7818608E-02  0.8289169E-01
         -2   -1    0    0    0  501 -0.00000000000E+00  0.00000000000E+00  0.83298910865E+03  0.83298910865E+03  0.00000000000E+00 0.  1.
          2   -1    0    0  501    0  0.00000000000E+00 -0.00000000000E+00 -0.24306862571E+04  0.24306862571E+04  0.00000000000E+00 0. -1.
         23    2    1    2    0    0  0.50762795581E+03  0.33454509592E+03  0.67360780019E+03  0.91241342109E+03  0.95625413859E+02 0.  0.
         13    1    3    3    0    0  0.39942861422E+03  0.30196509905E+03  0.57475082095E+03  0.76227596386E+03  0.00000000000E+00 0.  1.
        -13    1    3    3    0    0  0.10819934159E+03  0.32579996869E+02  0.98856979246E+02  0.15013745723E+03  0.00000000000E+00 0. -1.
         22    1    1    2    0    0 -0.50762795581E+03 -0.33454509592E+03 -0.22713049486E+04  0.23512619446E+04  0.00000000000E+00 0. -1.
<mgrwt>
<rscale>  0 0.28458638E+04</rscale>
<asrwt>0</asrwt>
<pdfrwt beam="1">  1        2 0.37395173E+00 0.28458638E+04</pdfrwt>
<pdfrwt beam="2">  1       -2 0.12815217E+00 0.28458638E+04</pdfrwt>
<totfact> 0.14899599E+00</totfact>
</mgrwt>
</event>
<event>
 6    1  0.1637818E-005  0.2730267E+04  0.7818608E-02  0.8325251E-01
          2   -1    0    0  501    0  0.00000000000E+00  0.00000000000E+00  0.41436157014E+04  0.41436157014E+04  0.00000000000E+00 0. -1.
         -2   -1    0    0    0  501 -0.00000000000E+00 -0.00000000000E+00 -0.44974944458E+03  0.44974944458E+03  0.00000000000E+00 0.  1.
         23    2    1    2    0    0  0.35535188730E+03  0.13024061170E+04  0.21717295882E+04  0.25588045803E+04  0.92384082415E+02 0.  0.
         11    1    3    3    0    0  0.27935214303E+03  0.10294479057E+04  0.17841653802E+04  0.20787127541E+04  0.00000000000E+00 0. -1.
        -11    1    3    3    0    0  0.75999744272E+02  0.27295821131E+03  0.38756420796E+03  0.48009182616E+03  0.00000000000E+00 0.  1.
         22    1    1    2    0    0 -0.35535188730E+03 -0.13024061170E+04  0.15221366687E+04  0.20345605657E+04  0.00000000000E+00 0.  1.
<mgrwt>
<rscale>  0 0.27302666E+04</rscale>
<asrwt>0</asrwt>
<pdfrwt beam="1">  1        2 0.63747931E+00 0.27302666E+04</pdfrwt>
<pdfrwt beam="2">  1       -2 0.69192225E-01 0.27302666E+04</pdfrwt>
<totfact> 0.43448691E-01</totfact>
</mgrwt>
</event>
<event>
 6    1  0.1637818E-005  0.3131591E+04  0.7818608E-02  0.8207121E-01
         -4   -1    0    0    0  501 -0.00000000000E+00  0.00000000000E+00  0.15003546677E+04  0.15003546677E+04  0.00000000000E+00 0.  1.
          4   -1    0    0  501    0  0.00000000000E+00 -0.00000000000E+00 -0.16340902319E+04  0.16340902319E+04  0.00000000000E+00 0. -1.
         23    2    1    2    0    0 -0.65505571296E+03 -0.21374644689E+03  0.13389687732E+04  0.15085163661E+04  0.89435567054E+02 0.  0.
         13    1    3    3    0    0 -0.17230787744E+03 -0.84117370102E+02  0.43914595392E+03  0.47918149528E+03  0.00000000000E+00 0.  1.
        -13    1    3    3    0    0 -0.48274783553E+03 -0.12962907679E+03  0.89982281929E+03  0.10293348709E+04  0.00000000000E+00 0. -1.
         22    1    1    2    0    0  0.65505571296E+03  0.21374644689E+03 -0.14727043374E+04  0.16259285335E+04  0.00000000000E+00 0. -1.
<mgrwt>
<rscale>  0 0.31315906E+04</rscale>
<asrwt>0</asrwt>
<pdfrwt beam="1">  1        4 0.25139850E+00 0.31315906E+04</pdfrwt>
<pdfrwt beam="2">  1       -4 0.23082380E+00 0.31315906E+04</pdfrwt>
<totfact> 0.86476544E-03</totfact>
</mgrwt>
</event>
<event>
 6    1  0.2031910E-005  0.2060025E+04  0.7818608E-02  0.8579060E-01
         -2   -1    0    0    0  501 -0.00000000000E+00  0.00000000000E+00  0.86941669829E+03  0.86941669829E+03  0.00000000000E+00 0.  1.
          2   -1    0    0  501    0  0.00000000000E+00 -0.00000000000E+00 -0.12202733528E+04  0.12202733528E+04  0.00000000000E+00 0. -1.
         23    2    1    2    0    0  0.17709120336E+03 -0.10063501246E+04 -0.29090306791E+03  0.10661196822E+04  0.88795914380E+02 0.  0.
         13    1    3    3    0    0  0.10117701890E+03 -0.51968021870E+03 -0.10563170488E+03  0.53987255527E+03  0.00000000000E+00 0.  1.
        -13    1    3    3    0    0  0.75914184460E+02 -0.48666990586E+03 -0.18527136303E+03  0.52624712696E+03  0.00000000000E+00 0. -1.
         22    1    1    2    0    0 -0.17709120336E+03  0.10063501246E+04 -0.59953586616E+02  0.10235703689E+04  0.00000000000E+00 0.  1.
<mgrwt>
<rscale>  0 0.20600253E+04</rscale>
<asrwt>0</asrwt>
<pdfrwt beam="1">  1        2 0.18773436E+00 0.20600253E+04</pdfrwt>
<pdfrwt beam="2">  1       -2 0.13375642E+00 0.20600253E+04</pdfrwt>
<totfact> 0.68804900E+00</totfact>
</mgrwt>
</event>
<event>
 6    1  0.1637818E-005  0.2018901E+04  0.7818608E-02  0.8597834E-01
         -2   -1    0    0    0  501 -0.00000000000E+00  0.00000000000E+00  0.28505158529E+03  0.28505158529E+03  0.00000000000E+00 0. -1.
          2   -1    0    0  501    0  0.00000000000E+00 -0.00000000000E+00 -0.35747586044E+04  0.35747586044E+04  0.00000000000E+00 0.  1.
         23    2    1    2    0    0 -0.70466971781E+03 -0.24853102658E+02 -0.30236913932E+04  0.31061913197E+04  0.92400138448E+02 0.  0.
         11    1    3    3    0    0 -0.25923163560E+03 -0.46849238169E+01 -0.13121779210E+04  0.13375477134E+04  0.00000000000E+00 0.  1.
        -11    1    3    3    0    0 -0.44543808221E+03 -0.20168178841E+02 -0.17115134722E+04  0.17686436063E+04  0.00000000000E+00 0. -1.
         22    1    1    2    0    0  0.70466971781E+03  0.24853102658E+02 -0.26601562588E+03  0.75361886993E+03  0.00000000000E+00 0. -1.
<mgrwt>
<rscale>  0 0.20189013E+04</rscale>
<asrwt>0</asrwt>
<pdfrwt beam="1">  1        2 0.54996289E+00 0.20189013E+04</pdfrwt>
<pdfrwt beam="2">  1       -2 0.43854088E-01 0.20189013E+04</pdfrwt>
<totfact> 0.33121962E+00</totfact>
</mgrwt>
</event>
<event>
 6    1  0.1637818E-005  0.3186886E+04  0.7818608E-02  0.8192289E-01
         -2   -1    0    0    0  501 -0.00000000000E+00  0.00000000000E+00  0.73490857879E+03  0.73490857879E+03  0.00000000000E+00 0.  1.
          2   -1    0    0  501    0  0.00000000000E+00 -0.00000000000E+00 -0.34549350199E+04  0.34549350199E+04  0.00000000000E+00 0. -1.
         23    2    1    2    0    0 -0.87787444800E+03 -0.55485892151E+03 -0.29476696880E+04  0.31266627970E+04  0.93443498181E+02 0.  0.
         13    1    3    3    0    0 -0.65679894797E+03 -0.46072429826E+03 -0.22909729740E+04  0.24273872589E+04  0.00000000000E+00 0.  1.
        -13    1    3    3    0    0 -0.22107550002E+03 -0.94134623246E+02 -0.65669671398E+03  0.69927553808E+03  0.00000000000E+00 0. -1.
         22    1    1    2    0    0  0.87787444800E+03  0.55485892151E+03  0.22764324689E+03  0.10631808017E+04  0.00000000000E+00 0.  1.
<mgrwt>
<rscale>  0 0.31868865E+04</rscale>
<asrwt>0</asrwt>
<pdfrwt beam="1">  1        2 0.53152846E+00 0.31868865E+04</pdfrwt>
<pdfrwt beam="2">  1       -2 0.11306286E+00 0.31868865E+04</pdfrwt>
<totfact> 0.45222787E-01</totfact>
</mgrwt>
</event>
<event>
 6    1  0.1637818E-005  0.1999270E+04  0.7818608E-02  0.8606962E-01
          2   -1    0    0  501    0  0.00000000000E+00  0.00000000000E+00  0.10824925420E+04  0.10824925420E+04  0.00000000000E+00 0. -1.
         -2   -1    0    0    0  501 -0.00000000000E+00 -0.00000000000E+00 -0.92311942006E+03  0.92311942006E+03  0.00000000000E+00 0.  1.
         23    2    1    2    0    0 -0.70469567931E+03 -0.52010775060E+01  0.78800967525E+03  0.10612566434E+04  0.93184565259E+02 0.  0.
         11    1    3    3    0    0 -0.44589196316E+03 -0.83443412992E+01  0.43017218873E+03  0.61962680930E+03  0.00000000000E+00 0.  1.
        -11    1    3    3    0    0 -0.25880371615E+03  0.31432637931E+01  0.35783748652E+03  0.44162983409E+03  0.00000000000E+00 0. -1.
         22    1    1    2    0    0  0.70469567931E+03  0.52010775060E+01 -0.62863655334E+03  0.94435531864E+03  0.00000000000E+00 0.  1.
<mgrwt>
<rscale>  0 0.19992698E+04</rscale>
<asrwt>0</asrwt>
<pdfrwt beam="1">  1        2 0.16653731E+00 0.19992698E+04</pdfrwt>
<pdfrwt beam="2">  1       -2 0.14201837E+00 0.19992698E+04</pdfrwt>
<totfact> 0.71812001E+00</totfact>
</mgrwt>
</event>
<event>
 6    1  0.1637818E-005  0.3588887E+04  0.7818608E-02  0.8093042E-01
         -2   -1    0    0    0  501 -0.00000000000E+00  0.00000000000E+00  0.15953458682E+04  0.15953458682E+04  0.00000000000E+00 0.  1.
          2   -1    0    0  501    0  0.00000000000E+00 -0.00000000000E+00 -0.20183879200E+04  0.20183879200E+04  0.00000000000E+00 0. -1.
         23    2    1    2    0    0 -0.88606032367E+03  0.52091623648E+03  0.12682003206E+04  0.16346538543E+04  0.85466645441E+02 0.  0.
         11    1    3    3    0    0 -0.14765460335E+03  0.71577202870E+02  0.15964835306E+03  0.22893836397E+03  0.00000000000E+00 0.  1.
        -11    1    3    3    0    0 -0.73840572032E+03  0.44933903361E+03  0.11085519676E+04  0.14057154903E+04  0.00000000000E+00 0. -1.
         22    1    1    2    0    0  0.88606032367E+03 -0.52091623648E+03 -0.16912423724E+04  0.19790799339E+04  0.00000000000E+00 0. -1.
<mgrwt>
<rscale>  0 0.35888866E+04</rscale>
<asrwt>0</asrwt>
<pdfrwt beam="1">  1        2 0.31052122E+00 0.35888866E+04</pdfrwt>
<pdfrwt beam="2">  1       -2 0.24543782E+00 0.35888866E+04</pdfrwt>
<totfact> 0.36498998E-01</totfact>
</mgrwt>
</event>
<event>
 6    1  0.1637818E-005  0.1448190E+04  0.7818608E-02  0.8919656E-01
         -4   -1    0    0    0  501 -0.00000000000E+00  0.00000000000E+00  0.34371111896E+03  0.34371111896E+03  0.00000000000E+00 0. -1.
          4   -1    0    0  501    0  0.00000000000E+00 -0.00000000000E+00 -0.15254477412E+04  0.15254477412E+04  0.00000000000E+00 0.  1.
         23    2    1    2    0    0  0.46111600536E+03 -0.35941628341E+03 -0.48114442655E+02  0.59365610389E+03  0.91129220958E+02 0.  0.
         13    1    3    3    0    0  0.33915662025E+03 -0.21111847347E+03 -0.39709706017E+02  0.40146616751E+03  0.00000000000E+00 0.  1.
        -13    1    3    3    0    0  0.12195938511E+03 -0.14829780993E+03 -0.84047366384E+01  0.19218993638E+03  0.00000000000E+00 0. -1.
         22    1    1    2    0    0 -0.46111600536E+03  0.35941628341E+03 -0.11336221796E+04  0.12755027562E+04  0.00000000000E+00 0.  1.
<mgrwt>
<rscale>  0 0.14481897E+04</rscale>
<asrwt>0</asrwt>
<pdfrwt beam="1">  1        4 0.23468427E+00 0.14481897E+04</pdfrwt>
<pdfrwt beam="2">  1       -4 0.52878633E-01 0.14481897E+04</pdfrwt>
<totfact> 0.52492563E-01</totfact>
</mgrwt>
</event>
<event>
 6    1  0.1637818E-005  0.3955343E+03  0.7818608E-02  0.1045337E+00
          1   -1    0    0  501    0  0.00000000000E+00  0.00000000000E+00  0.27434300808E+03  0.27434300808E+03  0.00000000000E+00 0. -1.
         -1   -1    0    0    0  501 -0.00000000000E+00 -0.00000000000E+00 -0.14256545956E+03  0.14256545956E+03  0.00000000000E+00 0.  1.
         23    2    1    2    0    0  0.99604578944E+02 -0.74343187385E+01  0.23599894659E+03  0.27255320776E+03  0.92808442649E+02 0.  0.
         11    1    3    3    0    0 -0.11180759243E+01  0.15894636578E+02  0.10234458047E+03  0.10357752033E+03  0.00000000000E+00 0. -1.
        -11    1    3    3    0    0  0.10072265487E+03 -0.23328955316E+02  0.13365436611E+03  0.16897568743E+03  0.00000000000E+00 0.  1.
         22    1    1    2    0    0 -0.99604578944E+02  0.74343187385E+01 -0.10422139806E+03  0.14435525988E+03  0.00000000000E+00 0.  1.
<mgrwt>
<rscale>  0 0.39553426E+03</rscale>
<asrwt>0</asrwt>
<pdfrwt beam="1">  1        1 0.42206616E-01 0.39553426E+03</pdfrwt>
<pdfrwt beam="2">  1       -1 0.21933148E-01 0.39553426E+03</pdfrwt>
<totfact> 0.17082852E+03</totfact>
</mgrwt>
</event>
<event>
 6    1  0.1637818E-005  0.1891126E+04  0.7818608E-02  0.8659286E-01
         -2   -1    0    0    0  501 -0.00000000000E+00  0.00000000000E+00  0.12151259026E+04  0.12151259026E+04  0.00000000000E+00 0.  1.
          2   -1    0    0  501    0  0.00000000000E+00 -0.00000000000E+00 -0.73579982852E+03  0.73579982852E+03  0.00000000000E+00 0. -1.
         23    2    1    2    0    0 -0.25152375549E+03  0.53216312645E+03 -0.52218518110E+03  0.78925168606E+03  0.61474123533E+02 0.  0.
         11    1    3    3    0    0 -0.18020163056E+03  0.34537465223E+03 -0.31142027566E+03  0.49873727167E+03  0.00000000000E+00 0.  1.
        -11    1    3    3    0    0 -0.71322124930E+02  0.18678847422E+03 -0.21076490543E+03  0.29051441439E+03  0.00000000000E+00 0. -1.
         22    1    1    2    0    0  0.25152375549E+03 -0.53216312645E+03  0.10015112552E+04  0.11616740450E+04  0.00000000000E+00 0.  1.
<mgrwt>
<rscale>  0 0.18911260E+04</rscale>
<asrwt>0</asrwt>
<pdfrwt beam="1">  1        2 0.11319997E+00 0.18911260E+04</pdfrwt>
<pdfrwt beam="2">  1       -2 0.18694245E+00 0.18911260E+04</pdfrwt>
<totfact> 0.58519838E+00</totfact>
</mgrwt>
</event>
<event>
 6    1  0.1637818E-005  0.1270395E+04  0.7818608E-02  0.9053378E-01
          1   -1    0    0  501    0  0.00000000000E+00  0.00000000000E+00  0.82466497547E+03  0.82466497547E+03  0.00000000000E+00 0. -1.
         -1   -1    0    0    0  501 -0.00000000000E+00 -0.00000000000E+00 -0.48926001101E+03  0.48926001101E+03  0.00000000000E+00 0.  1.
         23    2    1    2    0    0 -0.11610171578E+02 -0.23392982521E+03 -0.43824592367E+03  0.50559729555E+03  0.93333683370E+02 0.  0.
         13    1    3    3    0    0  0.40037885538E+02 -0.75753839480E+02 -0.15380967349E+03  0.17606559043E+03  0.00000000000E+00 0.  1.
        -13    1    3    3    0    0 -0.51648057117E+02 -0.15817598573E+03 -0.28443625017E+03  0.32953170512E+03  0.00000000000E+00 0. -1.
         22    1    1    2    0    0  0.11610171578E+02  0.23392982521E+03  0.77365088813E+03  0.80832769092E+03  0.00000000000E+00 0. -1.
<mgrwt>
<rscale>  0 0.12703946E+04</rscale>
<asrwt>0</asrwt>
<pdfrwt beam="1">  1        1 0.12687153E+00 0.12703946E+04</pdfrwt>
<pdfrwt beam="2">  1       -1 0.75270771E-01 0.12703946E+04</pdfrwt>
<totfact> 0.36789958E+01</totfact>
</mgrwt>
</event>
<event>
 6    1  0.1637818E-005  0.1104562E+04  0.7818608E-02  0.9200757E-01
          1   -1    0    0  501    0  0.00000000000E+00  0.00000000000E+00  0.14271419697E+04  0.14271419697E+04  0.00000000000E+00 0. -1.
         -1   -1    0    0    0  501 -0.00000000000E+00 -0.00000000000E+00 -0.21372386641E+03  0.21372386641E+03  0.00000000000E+00 0.  1.
         23    2    1    2    0    0 -0.82445966189E+02 -0.52359074280E+03  0.38646976524E+03  0.65862953202E+03  0.59070954881E+02 0.  0.
         13    1    3    3    0    0 -0.60118253856E+02 -0.24068047169E+03  0.15604757824E+03  0.29307360948E+03  0.00000000000E+00 0. -1.
        -13    1    3    3    0    0 -0.22327712333E+02 -0.28291027111E+03  0.23042218700E+03  0.36555592253E+03  0.00000000000E+00 0.  1.
         22    1    1    2    0    0  0.82445966189E+02  0.52359074280E+03  0.82694833807E+03  0.98223630412E+03  0.00000000000E+00 0. -1.
<mgrwt>
<rscale>  0 0.11045620E+04</rscale>
<asrwt>0</asrwt>
<pdfrwt beam="1">  1        1 0.21956030E+00 0.11045620E+04</pdfrwt>
<pdfrwt beam="2">  1       -1 0.32880596E-01 0.11045620E+04</pdfrwt>
<totfact> 0.63526790E+01</totfact>
</mgrwt>
</event>
<event>
 6    1  0.1637818E-005  0.2455868E+04  0.7818608E-02  0.8418879E-01
          2   -1    0    0  501    0  0.00000000000E+00  0.00000000000E+00  0.14681079883E+04  0.14681079883E+04  0.00000000000E+00 0. -1.
         -2   -1    0    0    0  501 -0.00000000000E+00 -0.00000000000E+00 -0.10270511541E+04  0.10270511541E+04  0.00000000000E+00 0.  1.
         23    2    1    2    0    0 -0.10228556699E+03  0.10086066271E+04  0.92194279789E+03  0.13731070156E+04  0.87719371851E+02 0.  0.
         11    1    3    3    0    0 -0.11472744429E+03  0.84412211424E+03  0.79112481562E+03  0.11625760208E+04  0.00000000000E+00 0.  1.
        -11    1    3    3    0    0  0.12441877302E+02  0.16448451282E+03  0.13081798227E+03  0.21053099476E+03  0.00000000000E+00 0. -1.
         22    1    1    2    0    0  0.10228556699E+03 -0.10086066271E+04 -0.48088596367E+03  0.11220521269E+04  0.00000000000E+00 0.  1.
<mgrwt>
<rscale>  0 0.24558681E+04</rscale>
<asrwt>0</asrwt>
<pdfrwt beam="1">  1        2 0.22586277E+00 0.24558681E+04</pdfrwt>
<pdfrwt beam="2">  1       -2 0.15800787E+00 0.24558681E+04</pdfrwt>
<totfact> 0.30875711E+00</totfact>
</mgrwt>
</event>
<event>
 6    1  0.1637818E-005  0.3279167E+04  0.7818608E-02  0.8168217E-01
         -1   -1    0    0    0  501 -0.00000000000E+00  0.00000000000E+00  0.13852166129E+04  0.13852166129E+04  0.00000000000E+00 0.  1.
          1   -1    0    0  501    0  0.00000000000E+00 -0.00000000000E+00 -0.19406598964E+04  0.19406598964E+04  0.00000000000E+00 0. -1.
         23    2    1    2    0    0  0.12114053085E+04 -0.10848496974E+04 -0.47883004148E+03  0.16979111300E+04  0.96032856352E+02 0.  0.
         13    1    3    3    0    0  0.52587386214E+03 -0.50852609269E+03 -0.25567083817E+03  0.77492559857E+03  0.00000000000E+00 0. -1.
        -13    1    3    3    0    0  0.68553144632E+03 -0.57632360470E+03 -0.22315920331E+03  0.92298553144E+03  0.00000000000E+00 0.  1.
         22    1    1    2    0    0 -0.12114053085E+04  0.10848496974E+04 -0.76613242118E+02  0.16279653793E+04  0.00000000000E+00 0. -1.
<mgrwt>
<rscale>  0 0.32791672E+04</rscale>
<asrwt>0</asrwt>
<pdfrwt beam="1">  1        1 0.29856306E+00 0.32791672E+04</pdfrwt>
<pdfrwt beam="2">  1       -1 0.21311025E+00 0.32791672E+04</pdfrwt>
<totfact> 0.33278670E-01</totfact>
</mgrwt>
</event>
<event>
 6    1  0.1637818E-005  0.1222343E+04  0.7818608E-02  0.9093521E-01
         -2   -1    0    0    0  501 -0.00000000000E+00  0.00000000000E+00  0.46325758262E+03  0.46325758262E+03  0.00000000000E+00 0. -1.
          2   -1    0    0  501    0  0.00000000000E+00 -0.00000000000E+00 -0.80631316437E+03  0.80631316437E+03  0.00000000000E+00 0.  1.
         23    2    1    2    0    0 -0.15524428331E+03 -0.46764377562E+02  0.43537085398E+03  0.47443842444E+03  0.96209893393E+02 0.  0.
         11    1    3    3    0    0 -0.72466953467E+02 -0.69170136181E+02  0.19499814971E+03  0.21922647075E+03  0.00000000000E+00 0. -1.
        -11    1    3    3    0    0 -0.82777329838E+02  0.22405758619E+02  0.24037270427E+03  0.25521195370E+03  0.00000000000E+00 0.  1.
         22    1    1    2    0    0  0.15524428331E+03  0.46764377562E+02 -0.77842643573E+03  0.79513232254E+03  0.00000000000E+00 0.  1.
<mgrwt>
<rscale>  0 0.12223431E+04</rscale>
<asrwt>0</asrwt>
<pdfrwt beam="1">  1        2 0.12404818E+00 0.12223431E+04</pdfrwt>
<pdfrwt beam="2">  1       -2 0.71270397E-01 0.12223431E+04</pdfrwt>
<totfact> 0.60047003E+01</totfact>
</mgrwt>
</event>
<event>
 6    1  0.1637818E-005  0.9631753E+03  0.7818608E-02  0.9349882E-01
         -1   -1    0    0    0  501 -0.00000000000E+00  0.00000000000E+00  0.70277608918E+03  0.70277608918E+03  0.00000000000E+00 0.  1.
          1   -1    0    0  501    0  0.00000000000E+00 -0.00000000000E+00 -0.33001498740E+03  0.33001498740E+03  0.00000000000E+00 0. -1.
         23    2    1    2    0    0 -0.42548318448E+03  0.30661993957E+02 -0.41481154673E+02  0.43817124410E+03  0.91089268386E+02 0.  0.
         11    1    3    3    0    0 -0.12825495761E+03  0.37181953069E+02 -0.44807475258E+02  0.14085290776E+03  0.00000000000E+00 0. -1.
        -11    1    3    3    0    0 -0.29722822688E+03 -0.65199591128E+01  0.33263205852E+01  0.29731833635E+03  0.00000000000E+00 0.  1.
         22    1    1    2    0    0  0.42548318448E+03 -0.30661993957E+02  0.41424225645E+03  0.59461983248E+03  0.00000000000E+00 0.  1.
<mgrwt>
<rscale>  0 0.96317525E+03</rscale>
<asrwt>0</asrwt>
<pdfrwt beam="1">  1        1 0.50771537E-01 0.96317525E+03</pdfrwt>
<pdfrwt beam="2">  1       -1 0.10811940E+00 0.96317525E+03</pdfrwt>
<totfact> 0.61830094E+01</totfact>
</mgrwt>
</event>
<event>
 6    1  0.1637818E-005  0.1942249E+04  0.7818608E-02  0.8634107E-01
          3   -1    0    0  501    0  0.00000000000E+00  0.00000000000E+00  0.11157972984E+04  0.11157972984E+04  0.00000000000E+00 0. -1.
         -3   -1    0    0    0  501 -0.00000000000E+00 -0.00000000000E+00 -0.84520982380E+03  0.84520982380E+03  0.00000000000E+00 0.  1.
         23    2    1    2    0    0  0.52389414277E+03  0.11352036589E+03  0.95060029384E+03  0.10951148767E+04  0.91014989415E+02 0.  0.
         13    1    3    3    0    0  0.39281695411E+03  0.12449357858E+03  0.73015352569E+03  0.83840800427E+03  0.00000000000E+00 0. -1.
        -13    1    3    3    0    0  0.13107718866E+03 -0.10973212694E+02  0.22044676815E+03  0.25670687246E+03  0.00000000000E+00 0.  1.
         22    1    1    2    0    0 -0.52389414277E+03 -0.11352036589E+03 -0.68001281928E+03  0.86589224543E+03  0.00000000000E+00 0.  1.
<mgrwt>
<rscale>  0 0.19422490E+04</rscale>
<asrwt>0</asrwt>
<pdfrwt beam="1">  1        3 0.17166112E+00 0.19422490E+04</pdfrwt>
<pdfrwt beam="2">  1       -3 0.13003228E+00 0.19422490E+04</pdfrwt>
<totfact> 0.25595760E-01</totfact>
</mgrwt>
</event>
<event>
 6    1  0.1637818E-005  0.3236108E+04  0.7818608E-02  0.8179346E-01
         -2   -1    0    0    0  501 -0.00000000000E+00  0.00000000000E+00  0.14788688274E+04  0.14788688274E+04  0.00000000000E+00 0.  1.
          2   -1    0    0  501    0  0.00000000000E+00 -0.00000000000E+00 -0.17703382678E+04  0.17703382678E+04  0.00000000000E+00 0. -1.
         23    2    1    2    0    0 -0.10452679364E+04 -0.11813412200E+03  0.10868652381E+04  0.15153249724E+04  0.91613300024E+02 0.  0.
         11    1    3    3    0    0 -0.72086348322E+03 -0.68197153861E+02  0.68854595290E+03  0.99919494719E+03  0.00000000000E+00 0.  1.
        -11    1    3    3    0    0 -0.32440445317E+03 -0.49936968143E+02  0.39831928516E+03  0.51613002524E+03  0.00000000000E+00 0. -1.
         22    1    1    2    0    0  0.10452679364E+04  0.11813412200E+03 -0.13783346785E+04  0.17338821228E+04  0.00000000000E+00 0. -1.
<mgrwt>
<rscale>  0 0.32361076E+04</rscale>
<asrwt>0</asrwt>
<pdfrwt beam="1">  1        2 0.27235973E+00 0.32361076E+04</pdfrwt>
<pdfrwt beam="2">  1       -2 0.22751828E+00 0.32361076E+04</pdfrwt>
<totfact> 0.66684285E-01</totfact>
</mgrwt>
</event>
<event>
 6    1  0.1637818E-005  0.1702175E+04  0.7818608E-02  0.8760125E-01
          2   -1    0    0  501    0  0.00000000000E+00  0.00000000000E+00  0.88280923932E+03  0.88280923932E+03  0.00000000000E+00 0. -1.
         -2   -1    0    0    0  501 -0.00000000000E+00 -0.00000000000E+00 -0.82050589419E+03  0.82050589419E+03  0.00000000000E+00 0.  1.
         23    2    1    2    0    0 -0.36086860710E+02 -0.69823385677E+03  0.51400911114E+03  0.87092647471E+03  0.73991741121E+02 0.  0.
         11    1    3    3    0    0  0.12225902640E+02 -0.32895312032E+03  0.21321182304E+03  0.39219753893E+03  0.00000000000E+00 0.  1.
        -11    1    3    3    0    0 -0.48312763349E+02 -0.36928073645E+03  0.30079728810E+03  0.47872893578E+03  0.00000000000E+00 0. -1.
         22    1    1    2    0    0  0.36086860710E+02  0.69823385677E+03 -0.45170576602E+03  0.83238865881E+03  0.00000000000E+00 0.  1.
<mgrwt>
<rscale>  0 0.17021753E+04</rscale>
<asrwt>0</asrwt>
<pdfrwt beam="1">  1        2 0.13581681E+00 0.17021753E+04</pdfrwt>
<pdfrwt beam="2">  1       -2 0.12623167E+00 0.17021753E+04</pdfrwt>
<totfact> 0.13405639E+01</totfact>
</mgrwt>
</event>
<event>
 6    1  0.1637818E-005  0.2116765E+04  0.7818608E-02  0.8553894E-01
          1   -1    0    0  501    0  0.00000000000E+00  0.00000000000E+00  0.54607191193E+03  0.54607191193E+03  0.00000000000E+00 0. -1.
         -1   -1    0    0    0  501 -0.00000000000E+00 -0.00000000000E+00 -0.20513303784E+04  0.20513303784E+04  0.00000000000E+00 0.  1.
         23    2    1    2    0    0 -0.17883549679E+03  0.10330665255E+04 -0.91318823339E+03  0.13933442594E+04  0.91032382296E+02 0.  0.
         11    1    3    3    0    0 -0.15398374787E+02  0.13136285284E+03 -0.15660744859E+03  0.20498585807E+03  0.00000000000E+00 0.  1.
        -11    1    3    3    0    0 -0.16343712201E+03  0.90170367264E+03 -0.75658078480E+03  0.11883584013E+04  0.00000000000E+00 0. -1.
         22    1    1    2    0    0  0.17883549679E+03 -0.10330665255E+04 -0.59207023312E+03  0.12040580310E+04  0.00000000000E+00 0.  1.
<mgrwt>
<rscale>  0 0.21167654E+04</rscale>
<asrwt>0</asrwt>
<pdfrwt beam="1">  1        1 0.84011065E-01 0.21167654E+04</pdfrwt>
<pdfrwt beam="2">  1       -1 0.31558928E+00 0.21167654E+04</pdfrwt>
<totfact> 0.94175070E-01</totfact>
</mgrwt>
</event>
<event>
 6    1  0.1637818E-005  0.2878095E+04  0.7818608E-02  0.8279425E-01
         -2   -1    0    0    0  501 -0.00000000000E+00  0.00000000000E+00  0.12838870677E+04  0.12838870677E+04  0.00000000000E+00 0. -1.
          2   -1    0    0  501    0  0.00000000000E+00 -0.00000000000E+00 -0.16129599400E+04  0.16129599400E+04  0.00000000000E+00 0.  1.
         23    2    1    2    0    0  0.14860018092E+03 -0.14289844339E+04 -0.21538166420E+03  0.14556654726E+04  0.92163879610E+02 0.  0.
         13    1    3    3    0    0  0.84915042939E+02 -0.42155578029E+03 -0.53800465136E+02  0.43337550746E+03  0.00000000000E+00 0. -1.
        -13    1    3    3    0    0  0.63685137982E+02 -0.10074286536E+04 -0.16158119907E+03  0.10222899651E+04  0.00000000000E+00 0.  1.
         22    1    1    2    0    0 -0.14860018092E+03  0.14289844339E+04 -0.11369120810E+03  0.14411815350E+04  0.00000000000E+00 0. -1.
<mgrwt>
<rscale>  0 0.28780955E+04</rscale>
<asrwt>0</asrwt>
<pdfrwt beam="1">  1        2 0.24814768E+00 0.28780955E+04</pdfrwt>
<pdfrwt beam="2">  1       -2 0.19752109E+00 0.28780955E+04</pdfrwt>
<totfact> 0.13096647E+00</totfact>
</mgrwt>
</event>
<event>
 6    1  0.1637818E-005  0.3317173E+04  0.7818608E-02  0.8158539E-01
         -2   -1    0    0    0  501 -0.00000000000E+00  0.00000000000E+00  0.18483670964E+04  0.18483670964E+04  0.00000000000E+00 0.  1.
          2   -1    0    0  501    0  0.00000000000E+00 -0.00000000000E+00 -0.14882918778E+04  0.14882918778E+04  0.00000000000E+00 0. -1.
         23    2    1    2    0    0  0.91084176281E+03 -0.65878657498E+03  0.14050802681E+04  0.18018404110E+04  0.93519190141E+02 0.  0.
         11    1    3    3    0    0  0.24220636726E+03 -0.22635536013E+03  0.42856426365E+03  0.54181915938E+03  0.00000000000E+00 0.  1.
        -11    1    3    3    0    0  0.66863539554E+03 -0.43243121485E+03  0.97651600442E+03  0.12600212517E+04  0.00000000000E+00 0. -1.
         22    1    1    2    0    0 -0.91084176281E+03  0.65878657498E+03 -0.10450050495E+04  0.15348185632E+04  0.00000000000E+00 0. -1.
<mgrwt>
<rscale>  0 0.33171733E+04</rscale>
<asrwt>0</asrwt>
<pdfrwt beam="1">  1        2 0.22896798E+00 0.33171733E+04</pdfrwt>
<pdfrwt beam="2">  1       -2 0.28436417E+00 0.33171733E+04</pdfrwt>
<totfact> 0.42575983E-01</totfact>
</mgrwt>
</event>
<event>
 6    1  0.2855996E-005  0.1648412E+04  0.7818608E-02  0.8791346E-01
          2   -1    0    0  501    0  0.00000000000E+00  0.00000000000E+00  0.83164270251E+03  0.83164270251E+03  0.00000000000E+00 0.  1.
         -2   -1    0    0    0  501 -0.00000000000E+00 -0.00000000000E+00 -0.81683584659E+03  0.81683584659E+03  0.00000000000E+00 0. -1.
         23    2    1    2    0    0  0.17941542797E+02  0.13726918472E+03 -0.80255004454E+03  0.81948094310E+03  0.91091789351E+02 0.  0.
         11    1    3    3    0    0  0.33116827244E+02  0.42574261839E+02 -0.47869996047E+03  0.48172911908E+03  0.00000000000E+00 0. -1.
        -11    1    3    3    0    0 -0.15175284447E+02  0.94694922881E+02 -0.32385008407E+03  0.33775182402E+03  0.00000000000E+00 0.  1.
         22    1    1    2    0    0 -0.17941542797E+02 -0.13726918472E+03  0.81735690046E+03  0.82899760600E+03  0.00000000000E+00 0.  1.
<mgrwt>
<rscale>  0 0.16484120E+04</rscale>
<asrwt>0</asrwt>
<pdfrwt beam="1">  1        2 0.12794503E+00 0.16484120E+04</pdfrwt>
<pdfrwt beam="2">  1       -2 0.12566705E+00 0.16484120E+04</pdfrwt>
<totfact> 0.14777049E+01</totfact>
</mgrwt>
</event>
<event>
 6    1  0.2251727E-005  0.2069683E+04  0.7818608E-02  0.8574717E-01
         -2   -1    0    0    0  501 -0.00000000000E+00  0.00000000000E+00  0.71122922743E+03  0.71122922743E+03  0.00000000000E+00 0.  1.
          2   -1    0    0  501    0  0.00000000000E+00 -0.00000000000E+00 -0.15056987685E+04  0.15056987685E+04  0.00000000000E+00 0. -1.
         23    2    1    2    0    0 -0.12285570243E+02 -0.61399323119E+03 -0.12875704116E+04  0.14293449262E+04  0.89725859871E+02 0.  0.
         11    1    3    3    0    0 -0.22955352461E+02 -0.30424262402E+03 -0.54308383057E+03  0.62292099780E+03  0.00000000000E+00 0.  1.
        -11    1    3    3    0    0  0.10669782218E+02 -0.30975060717E+03 -0.74448658102E+03  0.80642392835E+03  0.00000000000E+00 0. -1.
         22    1    1    2    0    0  0.12285570243E+02  0.61399323119E+03  0.49310087056E+03  0.78758306973E+03  0.00000000000E+00 0.  1.
<mgrwt>
<rscale>  0 0.20696830E+04</rscale>
<asrwt>0</asrwt>
<pdfrwt beam="1">  1        2 0.23164596E+00 0.20696830E+04</pdfrwt>
<pdfrwt beam="2">  1       -2 0.10941988E+00 0.20696830E+04</pdfrwt>
<totfact> 0.77475511E+00</totfact>
</mgrwt>
</event>
<event>
 6    1  0.1637818E-005  0.2981864E+04  0.7818608E-02  0.8248929E-01
         -1   -1    0    0    0  501 -0.00000000000E+00  0.00000000000E+00  0.20955171933E+04  0.20955171933E+04  0.00000000000E+00 0.  1.
          1   -1    0    0  501    0  0.00000000000E+00 -0.00000000000E+00 -0.10607777276E+04  0.10607777276E+04  0.00000000000E+00 0. -1.
         23    2    1    2    0    0  0.99292563158E+03 -0.10565702424E+04  0.87907988173E+03  0.16980521795E+04  0.91420888482E+02 0.  0.
         11    1    3    3    0    0  0.51050759201E+03 -0.52069044750E+03  0.39171799437E+03  0.82775571923E+03  0.00000000000E+00 0. -1.
        -11    1    3    3    0    0  0.48241803957E+03 -0.53587979486E+03  0.48736188736E+03  0.87029646023E+03  0.00000000000E+00 0.  1.
         22    1    1    2    0    0 -0.99292563158E+03  0.10565702424E+04  0.15565958404E+03  0.14582427414E+04  0.00000000000E+00 0. -1.
<mgrwt>
<rscale>  0 0.29818638E+04</rscale>
<asrwt>0</asrwt>
<pdfrwt beam="1">  1        1 0.16319657E+00 0.29818638E+04</pdfrwt>
<pdfrwt beam="2">  1       -1 0.32238726E+00 0.29818638E+04</pdfrwt>
<totfact> 0.27324092E-01</totfact>
</mgrwt>
</event>
<event>
 6    1  0.1637818E-005  0.3073328E+04  0.7818608E-02  0.8223096E-01
          2   -1    0    0  501    0  0.00000000000E+00  0.00000000000E+00  0.80902119389E+03  0.80902119389E+03  0.00000000000E+00 0.  1.
         -2   -1    0    0    0  501 -0.00000000000E+00 -0.00000000000E+00 -0.29187571418E+04  0.29187571418E+04  0.00000000000E+00 0. -1.
         23    2    1    2    0    0  0.13463221373E+04  0.39056420898E+03 -0.29624492784E+03  0.14356454036E+04  0.90515020440E+02 0.  0.
         13    1    3    3    0    0  0.33972680386E+03  0.11545416933E+03 -0.11286683269E+03  0.37614211197E+03  0.00000000000E+00 0. -1.
        -13    1    3    3    0    0  0.10065953334E+04  0.27511003965E+03 -0.18337809514E+03  0.10595032916E+04  0.00000000000E+00 0.  1.
         22    1    1    2    0    0 -0.13463221373E+04 -0.39056420898E+03 -0.18134910201E+04  0.22921329322E+04  0.00000000000E+00 0. -1.
<mgrwt>
<rscale>  0 0.30733281E+04</rscale>
<asrwt>0</asrwt>
<pdfrwt beam="1">  1        2 0.12446480E+00 0.30733281E+04</pdfrwt>
<pdfrwt beam="2">  1       -2 0.44903956E+00 0.30733281E+04</pdfrwt>
<totfact> 0.10154324E-01</totfact>
</mgrwt>
</event>
<event>
 6    1  0.1637818E-005  0.2571455E+04  0.7818608E-02  0.8377962E-01
         -1   -1    0    0    0  501 -0.00000000000E+00  0.00000000000E+00  0.80976063219E+03  0.80976063219E+03  0.00000000000E+00 0.  1.
          1   -1    0    0  501    0  0.00000000000E+00 -0.00000000000E+00 -0.20414616211E+04  0.20414616211E+04  0.00000000000E+00 0. -1.
         23    2    1    2    0    0  0.59516825262E+03 -0.80459331721E+03  0.27520566579E+03  0.10422547796E+04  0.94663678474E+02 0.  0.
         13    1    3    3    0    0  0.52718459447E+02 -0.69321536763E+02  0.52853787224E+02  0.10187361901E+03  0.00000000000E+00 0.  1.
        -13    1    3    3    0    0  0.54244979318E+03 -0.73527178045E+03  0.22235187857E+03  0.94038116057E+03  0.00000000000E+00 0. -1.
         22    1    1    2    0    0 -0.59516825262E+03  0.80459331721E+03 -0.15069066547E+04  0.18089674738E+04  0.00000000000E+00 0. -1.
<mgrwt>
<rscale>  0 0.25714550E+04</rscale>
<asrwt>0</asrwt>
<pdfrwt beam="1">  1        1 0.31407102E+00 0.25714550E+04</pdfrwt>
<pdfrwt beam="2">  1       -1 0.12457856E+00 0.25714550E+04</pdfrwt>
<totfact> 0.13914141E+00</totfact>
</mgrwt>
</event>
<event>
 6    1  0.1637818E-005  0.3173867E+04  0.7818608E-02  0.8195753E-01
          1   -1    0    0  501    0  0.00000000000E+00  0.00000000000E+00  0.34619715569E+04  0.34619715569E+04  0.00000000000E+00 0. -1.
         -1   -1    0    0    0  501 -0.00000000000E+00 -0.00000000000E+00 -0.72743439406E+03  0.72743439406E+03  0.00000000000E+00 0.  1.
         23    2    1    2    0    0 -0.11002518997E+04  0.70890542283E+03  0.18697854782E+03  0.13252907231E+04  0.91287360662E+02 0.  0.
         11    1    3    3    0    0 -0.61105886807E+03  0.34177994283E+03  0.11288799957E+03  0.70918979830E+03  0.00000000000E+00 0.  1.
        -11    1    3    3    0    0 -0.48919303162E+03  0.36712548000E+03  0.74090548249E+02  0.61610092484E+03  0.00000000000E+00 0. -1.
         22    1    1    2    0    0  0.11002518997E+04 -0.70890542283E+03  0.25475586150E+04  0.28641152278E+04  0.00000000000E+00 0. -1.
<mgrwt>
<rscale>  0 0.31738665E+04</rscale>
<asrwt>0</asrwt>
<pdfrwt beam="1">  1        1 0.53261100E+00 0.31738665E+04</pdfrwt>
<pdfrwt beam="2">  1       -1 0.11191299E+00 0.31738665E+04</pdfrwt>
<totfact> 0.16424529E-01</totfact>
</mgrwt>
</event>
<event>
 6    1  0.1637818E-005  0.2002891E+04  0.7818608E-02  0.8605270E-01
          1   -1    0    0  501    0  0.00000000000E+00  0.00000000000E+00  0.82485117684E+03  0.82485117684E+03  0.00000000000E+00 0.  1.
         -1   -1    0    0    0  501 -0.00000000000E+00 -0.00000000000E+00 -0.12158475276E+04  0.12158475276E+04  0.00000000000E+00 0. -1.
         23    2    1    2    0    0 -0.23525327511E+03  0.88605399911E+03  0.20958827551E+03  0.94473443215E+03  0.90333323207E+02 0.  0.
         11    1    3    3    0    0 -0.16347986522E+03  0.60877739050E+03  0.18666356282E+03  0.65740312077E+03  0.00000000000E+00 0. -1.
        -11    1    3    3    0    0 -0.71773409886E+02  0.27727660860E+03  0.22924712687E+02  0.28733131138E+03  0.00000000000E+00 0.  1.
         22    1    1    2    0    0  0.23525327511E+03 -0.88605399911E+03 -0.60058462625E+03  0.10959642723E+04  0.00000000000E+00 0. -1.
<mgrwt>
<rscale>  0 0.20028912E+04</rscale>
<asrwt>0</asrwt>
<pdfrwt beam="1">  1        1 0.12690018E+00 0.20028912E+04</pdfrwt>
<pdfrwt beam="2">  1       -1 0.18705347E+00 0.20028912E+04</pdfrwt>
<totfact> 0.36166406E+00</totfact>
</mgrwt>
</event>
<event>
 6    1  0.1637818E-005  0.2748944E+04  0.7818608E-02  0.8319297E-01
         -1   -1    0    0    0  501 -0.00000000000E+00  0.00000000000E+00  0.13589326355E+04  0.13589326355E+04  0.00000000000E+00 0.  1.
          1   -1    0    0  501    0  0.00000000000E+00 -0.00000000000E+00 -0.13901888755E+04  0.13901888755E+04  0.00000000000E+00 0. -1.
         23    2    1    2    0    0 -0.79446544534E+02 -0.12540736986E+04 -0.56843106006E+03  0.13825310887E+04  0.96258745035E+02 0.  0.
         13    1    3    3    0    0 -0.17961401433E+02 -0.84719977554E+03 -0.41281692842E+03  0.94259635476E+03  0.00000000000E+00 0. -1.
        -13    1    3    3    0    0 -0.61485143101E+02 -0.40687392310E+03 -0.15561413164E+03  0.43993473389E+03  0.00000000000E+00 0.  1.
         22    1    1    2    0    0  0.79446544534E+02  0.12540736986E+04  0.53717482007E+03  0.13665904223E+04  0.00000000000E+00 0. -1.
<mgrwt>
<rscale>  0 0.27489438E+04</rscale>
<asrwt>0</asrwt>
<pdfrwt beam="1">  1        1 0.21387521E+00 0.27489438E+04</pdfrwt>
<pdfrwt beam="2">  1       -1 0.20906656E+00 0.27489438E+04</pdfrwt>
<totfact> 0.88545107E-01</totfact>
</mgrwt>
</event>
<event>
 6    1  0.1637818E-005  0.3296126E+04  0.7818608E-02  0.8163882E-01
          2   -1    0    0  501    0  0.00000000000E+00  0.00000000000E+00  0.33846324343E+04  0.33846324343E+04  0.00000000000E+00 0.  1.
         -2   -1    0    0    0  501 -0.00000000000E+00 -0.00000000000E+00 -0.80248355219E+03  0.80248355219E+03  0.00000000000E+00 0. -1.
         23    2    1    2    0    0  0.21433122560E+03  0.78127898861E+03 -0.52919898428E+03  0.97202340960E+03  0.91886949834E+02 0.  0.
         13    1    3    3    0    0  0.25245529811E+02  0.19016768936E+03 -0.91192856629E+02  0.21240815416E+03  0.00000000000E+00 0. -1.
        -13    1    3    3    0    0  0.18908569579E+03  0.59111129925E+03 -0.43800612765E+03  0.75961525544E+03  0.00000000000E+00 0.  1.
         22    1    1    2    0    0 -0.21433122560E+03 -0.78127898861E+03  0.31113478664E+04  0.32150925769E+04  0.00000000000E+00 0.  1.
<mgrwt>
<rscale>  0 0.32961261E+04</rscale>
<asrwt>0</asrwt>
<pdfrwt beam="1">  1        2 0.52071267E+00 0.32961261E+04</pdfrwt>
<pdfrwt beam="2">  1       -2 0.12345901E+00 0.32961261E+04</pdfrwt>
<totfact> 0.40311786E-01</totfact>
</mgrwt>
</event>
<event>
 6    1  0.1637818E-005  0.2252652E+04  0.7818608E-02  0.8496827E-01
         -1   -1    0    0    0  501 -0.00000000000E+00  0.00000000000E+00  0.13064496166E+04  0.13064496166E+04  0.00000000000E+00 0.  1.
          1   -1    0    0  501    0  0.00000000000E+00 -0.00000000000E+00 -0.97103641802E+03  0.97103641802E+03  0.00000000000E+00 0. -1.
         23    2    1    2    0    0  0.55768641537E+03 -0.92823854546E+03  0.47421724736E+03  0.11857408725E+04  0.91970015724E+02 0.  0.
         13    1    3    3    0    0  0.23875485227E+03 -0.45719490017E+03  0.26272904191E+03  0.57884160674E+03  0.00000000000E+00 0. -1.
        -13    1    3    3    0    0  0.31893156310E+03 -0.47104364529E+03  0.21148820545E+03  0.60689926574E+03  0.00000000000E+00 0.  1.
         22    1    1    2    0    0 -0.55768641537E+03  0.92823854546E+03 -0.13880404875E+03  0.10917451622E+04  0.00000000000E+00 0. -1.
<mgrwt>
<rscale>  0 0.22526519E+04</rscale>
<asrwt>0</asrwt>
<pdfrwt beam="1">  1        1 0.14939022E+00 0.22526519E+04</pdfrwt>
<pdfrwt beam="2">  1       -1 0.20099225E+00 0.22526519E+04</pdfrwt>
<totfact> 0.21441637E+00</totfact>
</mgrwt>
</event>
<event>
 6    1  0.1637818E-005  0.1391523E+04  0.7818608E-02  0.8959978E-01
          2   -1    0    0  501    0  0.00000000000E+00  0.00000000000E+00  0.80705754861E+03  0.80705754861E+03  0.00000000000E+00 0. -1.
         -2   -1    0    0    0  501 -0.00000000000E+00 -0.00000000000E+00 -0.59981334522E+03  0.59981334522E+03  0.00000000000E+00 0.  1.
         23    2    1    2    0    0  0.55470433885E+03 -0.24414215835E+03 -0.23747692623E+03  0.65515340691E+03  0.74353204826E+02 0.  0.
         13    1    3    3    0    0  0.35758665236E+03 -0.11871163982E+03 -0.15431332967E+03  0.40715263856E+03  0.00000000000E+00 0. -1.
        -13    1    3    3    0    0  0.19711768649E+03 -0.12543051854E+03 -0.83163596555E+02  0.24800076834E+03  0.00000000000E+00 0.  1.
         22    1    1    2    0    0 -0.55470433885E+03  0.24414215835E+03  0.44472112961E+03  0.75171748692E+03  0.00000000000E+00 0. -1.
<mgrwt>
<rscale>  0 0.13915227E+04</rscale>
<asrwt>0</asrwt>
<pdfrwt beam="1">  1        2 0.12416270E+00 0.13915227E+04</pdfrwt>
<pdfrwt beam="2">  1       -2 0.92278977E-01 0.13915227E+04</pdfrwt>
<totfact> 0.33077740E+01</totfact>
</mgrwt>
</event>
<event>
 6    1  0.2144536E-005  0.3961420E+04  0.7818608E-02  0.8012375E-01
         -1   -1    0    0    0  501 -0.00000000000E+00  0.00000000000E+00  0.11221710430E+04  0.11221710430E+04  0.00000000000E+00 0.  1.
          1   -1    0    0  501    0  0.00000000000E+00 -0.00000000000E+00 -0.34960904429E+04  0.34960904429E+04  0.00000000000E+00 0. -1.
         23    2    1    2    0    0  0.91676521337E+03  0.55682701775E+03 -0.31274049332E+04  0.33074391360E+04  0.89315383084E+02 0.  0.
         11    1    3    3    0    0  0.46536916288E+03  0.33204073737E+03 -0.16176169175E+04  0.17156643031E+04  0.00000000000E+00 0.  1.
        -11    1    3    3    0    0  0.45139605050E+03  0.22478628037E+03 -0.15097880157E+04  0.15917748329E+04  0.00000000000E+00 0. -1.
         22    1    1    2    0    0 -0.91676521337E+03 -0.55682701775E+03  0.75348553333E+03  0.13108223499E+04  0.00000000000E+00 0.  1.
<mgrwt>
<rscale>  0 0.39614197E+04</rscale>
<asrwt>0</asrwt>
<pdfrwt beam="1">  1        1 0.53786006E+00 0.39614197E+04</pdfrwt>
<pdfrwt beam="2">  1       -1 0.17264170E+00 0.39614197E+04</pdfrwt>
<totfact> 0.46426341E-02</totfact>
</mgrwt>
</event>
<event>
 6    1  0.1637818E-005  0.2624387E+04  0.7818608E-02  0.8359965E-01
          2   -1    0    0  501    0  0.00000000000E+00  0.00000000000E+00  0.18643614588E+04  0.18643614588E+04  0.00000000000E+00 0. -1.
         -2   -1    0    0    0  501 -0.00000000000E+00 -0.00000000000E+00 -0.92356089594E+03  0.92356089594E+03  0.00000000000E+00 0.  1.
         23    2    1    2    0    0  0.98264121061E+03  0.63914209225E+03 -0.15167921761E+03  0.11855496036E+04  0.91841791412E+02 0.  0.
         11    1    3    3    0    0  0.66229106712E+03  0.47751896582E+03 -0.89335199750E+02  0.82136142971E+03  0.00000000000E+00 0.  1.
        -11    1    3    3    0    0  0.32035014349E+03  0.16162312642E+03 -0.62344017857E+02  0.36418817388E+03  0.00000000000E+00 0. -1.
         22    1    1    2    0    0 -0.98264121061E+03 -0.63914209225E+03  0.10924797804E+04  0.16023727511E+04  0.00000000000E+00 0. -1.
<mgrwt>
<rscale>  0 0.26243867E+04</rscale>
<asrwt>0</asrwt>
<pdfrwt beam="1">  1        2 0.28682484E+00 0.26243867E+04</pdfrwt>
<pdfrwt beam="2">  1       -2 0.14208629E+00 0.26243867E+04</pdfrwt>
<totfact> 0.24247553E+00</totfact>
</mgrwt>
</event>
<event>
 6    1  0.1637818E-005  0.1925662E+04  0.7818608E-02  0.8642187E-01
         -1   -1    0    0    0  501 -0.00000000000E+00  0.00000000000E+00  0.22179656351E+04  0.22179656351E+04  0.00000000000E+00 0.  1.
          1   -1    0    0  501    0  0.00000000000E+00 -0.00000000000E+00 -0.41797026412E+03  0.41797026412E+03  0.00000000000E+00 0. -1.
         23    2    1    2    0    0  0.93417002511E+03 -0.34975773391E+02  0.12028436590E+04  0.15266626652E+04  0.99845304512E+02 0.  0.
         11    1    3    3    0    0  0.53553333943E+03  0.10326211350E+02  0.75041870107E+03  0.92197115746E+03  0.00000000000E+00 0. -1.
        -11    1    3    3    0    0  0.39863668568E+03 -0.45301984741E+02  0.45242495797E+03  0.60469150778E+03  0.00000000000E+00 0.  1.
         22    1    1    2    0    0 -0.93417002511E+03  0.34975773391E+02  0.59715171196E+03  0.11092732340E+04  0.00000000000E+00 0. -1.
<mgrwt>
<rscale>  0 0.19256622E+04</rscale>
<asrwt>0</asrwt>
<pdfrwt beam="1">  1        1 0.64303119E-01 0.19256622E+04</pdfrwt>
<pdfrwt beam="2">  1       -1 0.34122547E+00 0.19256622E+04</pdfrwt>
<totfact> 0.93952727E-01</totfact>
</mgrwt>
</event>
<event>
 6    1  0.1637818E-005  0.3408729E+04  0.7818608E-02  0.8135767E-01
          2   -1    0    0  501    0  0.00000000000E+00  0.00000000000E+00  0.24612782741E+04  0.24612782741E+04  0.00000000000E+00 0. -1.
         -2   -1    0    0    0  501 -0.00000000000E+00 -0.00000000000E+00 -0.11802231970E+04  0.11802231970E+04  0.00000000000E+00 0.  1.
         23    2    1    2    0    0  0.16131482973E+04 -0.52002695669E+03  0.46218671325E+03  0.17591569590E+04  0.91330081232E+02 0.  0.
         13    1    3    3    0    0  0.24567935339E+03 -0.11253881850E+03  0.62891112298E+02  0.27745021600E+03  0.00000000000E+00 0.  1.
        -13    1    3    3    0    0  0.13674689439E+04 -0.40748813818E+03  0.39929560095E+03  0.14817067430E+04  0.00000000000E+00 0. -1.
         22    1    1    2    0    0 -0.16131482973E+04  0.52002695669E+03  0.81886836379E+03  0.18823445121E+04  0.00000000000E+00 0.  1.
<mgrwt>
<rscale>  0 0.34087286E+04</rscale>
<asrwt>0</asrwt>
<pdfrwt beam="1">  1        2 0.37865820E+00 0.34087286E+04</pdfrwt>
<pdfrwt beam="2">  1       -2 0.18157280E+00 0.34087286E+04</pdfrwt>
<totfact> 0.53659376E-01</totfact>
</mgrwt>
</event>
<event>
 6    1  0.1637818E-005  0.2518034E+04  0.7818608E-02  0.8396589E-01
          2   -1    0    0  501    0  0.00000000000E+00  0.00000000000E+00  0.32489580479E+04  0.32489580479E+04  0.00000000000E+00 0. -1.
         -2   -1    0    0    0  501 -0.00000000000E+00 -0.00000000000E+00 -0.48788688087E+03  0.48788688087E+03  0.00000000000E+00 0.  1.
         23    2    1    2    0    0 -0.55322802563E+02  0.52402935369E+03  0.30765577399E+04  0.31226795165E+04  0.90843049097E+02 0.  0.
         11    1    3    3    0    0 -0.46747226846E+02  0.11821551237E+03  0.63303914014E+03  0.64567698080E+03  0.00000000000E+00 0. -1.
        -11    1    3    3    0    0 -0.85755757163E+01  0.40581384132E+03  0.24435185998E+04  0.24770025357E+04  0.00000000000E+00 0.  1.
         22    1    1    2    0    0  0.55322802563E+02 -0.52402935369E+03 -0.31548657288E+03  0.61416541231E+03  0.00000000000E+00 0.  1.
<mgrwt>
<rscale>  0 0.25180342E+04</rscale>
<asrwt>0</asrwt>
<pdfrwt beam="1">  1        2 0.49983969E+00 0.25180342E+04</pdfrwt>
<pdfrwt beam="2">  1       -2 0.75059522E-01 0.25180342E+04</pdfrwt>
<totfact> 0.17104095E+00</totfact>
</mgrwt>
</event>
<event>
 6    1  0.1637818E-005  0.2019002E+04  0.7818608E-02  0.8597788E-01
         -1   -1    0    0    0  501 -0.00000000000E+00  0.00000000000E+00  0.55382757641E+03  0.55382757641E+03  0.00000000000E+00 0.  1.
          1   -1    0    0  501    0  0.00000000000E+00 -0.00000000000E+00 -0.18400897792E+04  0.18400897792E+04  0.00000000000E+00 0. -1.
         23    2    1    2    0    0  0.47564605177E+02  0.33599505553E+03 -0.17691782379E+04  0.18036945451E+04  0.90373146478E+02 0.  0.
         11    1    3    3    0    0  0.57202923430E+02  0.22030504157E+03 -0.13349903382E+04  0.13542546618E+04  0.00000000000E+00 0. -1.
        -11    1    3    3    0    0 -0.96383182526E+01  0.11569001396E+03 -0.43418789968E+03  0.44943988334E+03  0.00000000000E+00 0.  1.
         22    1    1    2    0    0 -0.47564605177E+02 -0.33599505553E+03  0.48291603513E+03  0.59022281047E+03  0.00000000000E+00 0.  1.
<mgrwt>
<rscale>  0 0.20190022E+04</rscale>
<asrwt>0</asrwt>
<pdfrwt beam="1">  1        1 0.28309074E+00 0.20190022E+04</pdfrwt>
<pdfrwt beam="2">  1       -1 0.85204241E-01 0.20190022E+04</pdfrwt>
<totfact> 0.48257590E+00</totfact>
</mgrwt>
</event>
<event>
 6    1  0.1637818E-005  0.2472871E+04  0.7818608E-02  0.8412714E-01
         -2   -1    0    0    0  501 -0.00000000000E+00  0.00000000000E+00  0.10666108839E+04  0.10666108839E+04  0.00000000000E+00 0.  1.
          2   -1    0    0  501    0  0.00000000000E+00 -0.00000000000E+00 -0.14332997222E+04  0.14332997222E+04  0.00000000000E+00 0. -1.
         23    2    1    2    0    0  0.10948239187E+04 -0.23372568754E+02  0.39312646860E+03  0.11670546535E+04  0.91007988333E+02 0.  0.
         11    1    3    3    0    0  0.33896521004E+03  0.32105525216E+02  0.10607021146E+03  0.35662174377E+03  0.00000000000E+00 0.  1.
        -11    1    3    3    0    0  0.75585870869E+03 -0.55478093970E+02  0.28705625713E+03  0.81043290973E+03  0.00000000000E+00 0. -1.
         22    1    1    2    0    0 -0.10948239187E+04  0.23372568754E+02 -0.75981530687E+03  0.13328559527E+04  0.00000000000E+00 0.  1.
<mgrwt>
<rscale>  0 0.24728713E+04</rscale>
<asrwt>0</asrwt>
<pdfrwt beam="1">  1        2 0.22050765E+00 0.24728713E+04</pdfrwt>
<pdfrwt beam="2">  1       -2 0.16409398E+00 0.24728713E+04</pdfrwt>
<totfact> 0.29104479E+00</totfact>
</mgrwt>
</event>
<event>
 6    1  0.1637818E-005  0.1427887E+04  0.7818608E-02  0.8933876E-01
          2   -1    0    0  501    0  0.00000000000E+00  0.00000000000E+00  0.76943614077E+03  0.76943614077E+03  0.00000000000E+00 0. -1.
         -2   -1    0    0    0  501 -0.00000000000E+00 -0.00000000000E+00 -0.66245330613E+03  0.66245330613E+03  0.00000000000E+00 0.  1.
         23    2    1    2    0    0 -0.66449626737E+03 -0.10873552104E+03 -0.17521211905E+03  0.70181226278E+03  0.91991644421E+02 0.  0.
         13    1    3    3    0    0 -0.78272868906E+02  0.16358850706E+02 -0.26193804998E+02  0.84144931062E+02  0.00000000000E+00 0. -1.
        -13    1    3    3    0    0 -0.58622339846E+03 -0.12509437175E+03 -0.14901831406E+03  0.61766733172E+03  0.00000000000E+00 0.  1.
         22    1    1    2    0    0  0.66449626737E+03  0.10873552104E+03  0.28219495370E+03  0.73007718412E+03  0.00000000000E+00 0.  1.
<mgrwt>
<rscale>  0 0.14278873E+04</rscale>
<asrwt>0</asrwt>
<pdfrwt beam="1">  1        2 0.11837479E+00 0.14278873E+04</pdfrwt>
<pdfrwt beam="2">  1       -2 0.10191589E+00 0.14278873E+04</pdfrwt>
<totfact> 0.27818358E+01</totfact>
</mgrwt>
</event>
<event>
 6    1  0.1637818E-005  0.1430888E+04  0.7818608E-02  0.8931759E-01
         -1   -1    0    0    0  501 -0.00000000000E+00  0.00000000000E+00  0.72350293084E+03  0.72350293084E+03  0.00000000000E+00 0.  1.
          1   -1    0    0  501    0  0.00000000000E+00 -0.00000000000E+00 -0.70747472586E+03  0.70747472586E+03  0.00000000000E+00 0. -1.
         23    2    1    2    0    0 -0.60968255733E+03 -0.27779662131E+03 -0.23410823103E+03  0.71581891897E+03  0.93307434869E+02 0.  0.
         11    1    3    3    0    0 -0.28707158123E+03 -0.16775988770E+03 -0.81403231363E+02  0.34231558356E+03  0.00000000000E+00 0. -1.
        -11    1    3    3    0    0 -0.32261097610E+03 -0.11003673361E+03 -0.15270499966E+03  0.37350333541E+03  0.00000000000E+00 0.  1.
         22    1    1    2    0    0  0.60968255733E+03  0.27779662131E+03  0.25013643601E+03  0.71515873772E+03  0.00000000000E+00 0. -1.
<mgrwt>
<rscale>  0 0.14308879E+04</rscale>
<asrwt>0</asrwt>
<pdfrwt beam="1">  1        1 0.10884227E+00 0.14308879E+04</pdfrwt>
<pdfrwt beam="2">  1       -1 0.11130814E+00 0.14308879E+04</pdfrwt>
<totfact> 0.19356625E+01</totfact>
</mgrwt>
</event>
<event>
 6    1  0.1637818E-005  0.4629932E+04  0.7818608E-02  0.7888276E-01
         -1   -1    0    0    0  501 -0.00000000000E+00  0.00000000000E+00  0.22277327346E+04  0.22277327346E+04  0.00000000000E+00 0.  1.
          1   -1    0    0  501    0  0.00000000000E+00 -0.00000000000E+00 -0.24056151036E+04  0.24056151036E+04  0.00000000000E+00 0. -1.
         23    2    1    2    0    0  0.11208146931E+03  0.22846791499E+04 -0.43948950285E+03  0.23310100336E+04  0.90198003626E+02 0.  0.
         13    1    3    3    0    0  0.10219160092E+03  0.13448903566E+04 -0.23281589264E+03  0.13687134230E+04  0.00000000000E+00 0.  1.
        -13    1    3    3    0    0  0.98898683898E+01  0.93978879336E+03 -0.20667361021E+03  0.96229661060E+03  0.00000000000E+00 0. -1.
         22    1    1    2    0    0 -0.11208146931E+03 -0.22846791499E+04  0.26160713389E+03  0.23023378046E+04  0.00000000000E+00 0.  1.
<mgrwt>
<rscale>  0 0.46299320E+04</rscale>
<asrwt>0</asrwt>
<pdfrwt beam="1">  1        1 0.37009463E+00 0.46299320E+04</pdfrwt>
<pdfrwt beam="2">  1       -1 0.34272811E+00 0.46299320E+04</pdfrwt>
<totfact> 0.20324308E-02</totfact>
</mgrwt>
</event>
<event>
 6    1  0.1637818E-005  0.5983449E+03  0.7818608E-02  0.9908846E-01
          1   -1    0    0  501    0  0.00000000000E+00  0.00000000000E+00  0.82782334698E+03  0.82782334698E+03  0.00000000000E+00 0. -1.
         -1   -1    0    0    0  501 -0.00000000000E+00 -0.00000000000E+00 -0.10811986428E+03  0.10811986428E+03  0.00000000000E+00 0.  1.
         23    2    1    2    0    0 -0.29501593921E+02 -0.24438878823E+03  0.61454861225E+03  0.66826099177E+03  0.91140180206E+02 0.  0.
         11    1    3    3    0    0 -0.55284760110E+02 -0.17203691841E+03  0.36707808011E+03  0.40914474565E+03  0.00000000000E+00 0.  1.
        -11    1    3    3    0    0  0.25783166190E+02 -0.72351869811E+02  0.24747053214E+03  0.25911624612E+03  0.00000000000E+00 0. -1.
         22    1    1    2    0    0  0.29501593921E+02  0.24438878823E+03  0.10515487045E+03  0.26768221949E+03  0.00000000000E+00 0.  1.
<mgrwt>
<rscale>  0 0.59834488E+03</rscale>
<asrwt>0</asrwt>
<pdfrwt beam="1">  1        1 0.12735743E+00 0.59834488E+03</pdfrwt>
<pdfrwt beam="2">  1       -1 0.16633826E-01 0.59834488E+03</pdfrwt>
<totfact> 0.58762021E+02</totfact>
</mgrwt>
</event>
<event>
 6    1  0.1637818E-005  0.7150479E+03  0.7818608E-02  0.9691839E-01
          2   -1    0    0  501    0  0.00000000000E+00  0.00000000000E+00  0.10887063383E+04  0.10887063383E+04  0.00000000000E+00 0. -1.
         -2   -1    0    0    0  501 -0.00000000000E+00 -0.00000000000E+00 -0.11740850611E+03  0.11740850611E+03  0.00000000000E+00 0.  1.
         23    2    1    2    0    0 -0.24834360663E+02  0.21705793293E+03  0.24429796958E+02  0.23436900940E+03  0.81247313014E+02 0.  0.
         11    1    3    3    0    0 -0.89896844106E+01  0.97529903182E+02 -0.29492197644E+02  0.10228727273E+03  0.00000000000E+00 0.  1.
        -11    1    3    3    0    0 -0.15844676252E+02  0.11952802975E+03  0.53921994602E+02  0.13208173667E+03  0.00000000000E+00 0. -1.
         22    1    1    2    0    0  0.24834360663E+02 -0.21705793293E+03  0.94686803521E+03  0.97174583499E+03  0.00000000000E+00 0. -1.
<mgrwt>
<rscale>  0 0.71504793E+03</rscale>
<asrwt>0</asrwt>
<pdfrwt beam="1">  1        2 0.16749328E+00 0.71504793E+03</pdfrwt>
<pdfrwt beam="2">  1       -2 0.18062848E-01 0.71504793E+03</pdfrwt>
<totfact> 0.56859427E+02</totfact>
</mgrwt>
</event>
<event>
 6    1  0.2156926E-005  0.2837550E+04  0.7818608E-02  0.8291705E-01
         -1   -1    0    0    0  501 -0.00000000000E+00  0.00000000000E+00  0.12720548194E+04  0.12720548194E+04  0.00000000000E+00 0. -1.
          1   -1    0    0  501    0  0.00000000000E+00 -0.00000000000E+00 -0.15824175099E+04  0.15824175099E+04  0.00000000000E+00 0.  1.
         23    2    1    2    0    0 -0.25426721480E+03 -0.65792980999E+03 -0.13919787296E+04  0.15631874237E+04  0.91796984264E+02 0.  0.
         13    1    3    3    0    0 -0.79547274465E+02 -0.21281661972E+03 -0.35824155518E+03  0.42421185080E+03  0.00000000000E+00 0.  1.
        -13    1    3    3    0    0 -0.17471994033E+03 -0.44511319028E+03 -0.10337371745E+04  0.11389755729E+04  0.00000000000E+00 0. -1.
         22    1    1    2    0    0  0.25426721480E+03  0.65792980999E+03  0.10816160392E+04  0.12912849057E+04  0.00000000000E+00 0. -1.
<mgrwt>
<rscale>  0 0.28375495E+04</rscale>
<asrwt>0</asrwt>
<pdfrwt beam="1">  1        1 0.24344885E+00 0.28375495E+04</pdfrwt>
<pdfrwt beam="2">  1       -1 0.19570074E+00 0.28375495E+04</pdfrwt>
<totfact> 0.79818027E-01</totfact>
</mgrwt>
</event>
<event>
 6    1  0.1637818E-005  0.3219581E+04  0.7818608E-02  0.8183665E-01
          1   -1    0    0  501    0  0.00000000000E+00  0.00000000000E+00  0.13707537989E+04  0.13707537989E+04  0.00000000000E+00 0. -1.
         -1   -1    0    0    0  501 -0.00000000000E+00 -0.00000000000E+00 -0.18905115311E+04  0.18905115311E+04  0.00000000000E+00 0.  1.
         23    2    1    2    0    0  0.10897826105E+03 -0.12907951155E+04 -0.12260254871E+04  0.17858526986E+04  0.90017078890E+02 0.  0.
         11    1    3    3    0    0  0.24283199943E+02 -0.61876548531E+02 -0.69972429122E+02  0.96511770758E+02  0.00000000000E+00 0.  1.
        -11    1    3    3    0    0  0.84695061109E+02 -0.12289185669E+04 -0.11560530580E+04  0.16893409278E+04  0.00000000000E+00 0. -1.
         22    1    1    2    0    0 -0.10897826105E+03  0.12907951155E+04  0.70626775490E+03  0.14754126315E+04  0.00000000000E+00 0. -1.
<mgrwt>
<rscale>  0 0.32195813E+04</rscale>
<asrwt>0</asrwt>
<pdfrwt beam="1">  1        1 0.21088520E+00 0.32195813E+04</pdfrwt>
<pdfrwt beam="2">  1       -1 0.29084792E+00 0.32195813E+04</pdfrwt>
<totfact> 0.25472330E-01</totfact>
</mgrwt>
</event>
<event>
 6    1  0.1637818E-005  0.1839139E+04  0.7818608E-02  0.8685758E-01
          2   -1    0    0  501    0  0.00000000000E+00  0.00000000000E+00  0.22179598459E+04  0.22179598459E+04  0.00000000000E+00 0. -1.
         -2   -1    0    0    0  501 -0.00000000000E+00 -0.00000000000E+00 -0.38125495341E+03  0.38125495341E+03  0.00000000000E+00 0.  1.
         23    2    1    2    0    0  0.15763089736E+03  0.31263372306E+03 -0.27785580369E+03  0.45586361893E+03  0.89556947360E+02 0.  0.
         13    1    3    3    0    0  0.78844334911E+02  0.18903041116E+03 -0.10813125439E+03  0.23160590163E+03  0.00000000000E+00 0. -1.
        -13    1    3    3    0    0  0.78786562453E+02  0.12360331190E+03 -0.16972454930E+03  0.22425771730E+03  0.00000000000E+00 0.  1.
         22    1    1    2    0    0 -0.15763089736E+03 -0.31263372306E+03  0.21145606962E+04  0.21433511804E+04  0.00000000000E+00 0. -1.
<mgrwt>
<rscale>  0 0.18391391E+04</rscale>
<asrwt>0</asrwt>
<pdfrwt beam="1">  1        2 0.34122459E+00 0.18391391E+04</pdfrwt>
<pdfrwt beam="2">  1       -2 0.58654609E-01 0.18391391E+04</pdfrwt>
<totfact> 0.12903290E+01</totfact>
</mgrwt>
</event>
<event>
 6    1  0.1637818E-005  0.1258296E+04  0.7818608E-02  0.9063306E-01
          2   -1    0    0  501    0  0.00000000000E+00  0.00000000000E+00  0.40971643349E+04  0.40971643349E+04  0.00000000000E+00 0.  1.
         -2   -1    0    0    0  501 -0.00000000000E+00 -0.00000000000E+00 -0.96610108479E+02  0.96610108479E+02  0.00000000000E+00 0. -1.
         23    2    1    2    0    0  0.54533893130E+03  0.20829328448E+03  0.12585980947E+04  0.13903650778E+04  0.90913384073E+02 0.  0.
         13    1    3    3    0    0  0.46072105221E+03  0.20744781432E+03  0.10496123674E+04  0.11648968218E+04  0.00000000000E+00 0.  1.
        -13    1    3    3    0    0  0.84617879093E+02  0.84547016121E+00  0.20898572728E+03  0.22546825605E+03  0.00000000000E+00 0. -1.
         22    1    1    2    0    0 -0.54533893130E+03 -0.20829328448E+03  0.27419561317E+04  0.28034093655E+04  0.00000000000E+00 0.  1.
<mgrwt>
<rscale>  0 0.12582965E+04</rscale>
<asrwt>0</asrwt>
<pdfrwt beam="1">  1        2 0.63033284E+00 0.12582965E+04</pdfrwt>
<pdfrwt beam="2">  1       -2 0.14863097E-01 0.12582965E+04</pdfrwt>
<totfact> 0.10372292E+01</totfact>
</mgrwt>
</event>
<event>
 6    1  0.1637818E-005  0.3890029E+04  0.7818608E-02  0.8027106E-01
         -2   -1    0    0    0  501 -0.00000000000E+00  0.00000000000E+00  0.12541933556E+04  0.12541933556E+04  0.00000000000E+00 0.  1.
          2   -1    0    0  501    0  0.00000000000E+00 -0.00000000000E+00 -0.30163461661E+04  0.30163461661E+04  0.00000000000E+00 0. -1.
         23    2    1    2    0    0  0.41837580469E+03  0.18919804722E+04 -0.10521054730E+04  0.22068545548E+04  0.93019774699E+02 0.  0.
         13    1    3    3    0    0  0.11461905086E+03  0.64931929029E+03 -0.39651592118E+03  0.76940102893E+03  0.00000000000E+00 0.  1.
        -13    1    3    3    0    0  0.30375675383E+03  0.12426611819E+04 -0.65558955180E+03  0.14374535258E+04  0.00000000000E+00 0. -1.
         22    1    1    2    0    0 -0.41837580469E+03 -0.18919804722E+04 -0.71004733754E+03  0.20636849669E+04  0.00000000000E+00 0. -1.
<mgrwt>
<rscale>  0 0.38900290E+04</rscale>
<asrwt>0</asrwt>
<pdfrwt beam="1">  1        2 0.46405326E+00 0.38900290E+04</pdfrwt>
<pdfrwt beam="2">  1       -2 0.19295282E+00 0.38900290E+04</pdfrwt>
<totfact> 0.20031387E-01</totfact>
</mgrwt>
</event>
<event>
 6    1  0.1637818E-005  0.1844824E+04  0.7818608E-02  0.8682819E-01
         -2   -1    0    0    0  501 -0.00000000000E+00  0.00000000000E+00  0.41305085427E+03  0.41305085427E+03  0.00000000000E+00 0.  1.
          2   -1    0    0  501    0  0.00000000000E+00 -0.00000000000E+00 -0.20599013900E+04  0.20599013900E+04  0.00000000000E+00 0. -1.
         23    2    1    2    0    0  0.87613927391E+03  0.33714092827E+02 -0.45112267246E+03  0.99021093496E+03  0.90826002583E+02 0.  0.
         13    1    3    3    0    0  0.80711529570E+03  0.24347854530E+02 -0.44028383620E+03  0.91971613827E+03  0.00000000000E+00 0. -1.
        -13    1    3    3    0    0  0.69023978214E+02  0.93662382964E+01 -0.10838836263E+02  0.70494796687E+02  0.00000000000E+00 0.  1.
         22    1    1    2    0    0 -0.87613927391E+03 -0.33714092827E+02 -0.11957278633E+04  0.14827413093E+04  0.00000000000E+00 0. -1.
<mgrwt>
<rscale>  0 0.18448241E+04</rscale>
<asrwt>0</asrwt>
<pdfrwt beam="1">  1        2 0.31690790E+00 0.18448241E+04</pdfrwt>
<pdfrwt beam="2">  1       -2 0.63546286E-01 0.18448241E+04</pdfrwt>
<totfact> 0.13338374E+01</totfact>
</mgrwt>
</event>
<event>
 6    1  0.1637818E-005  0.1235672E+04  0.7818608E-02  0.9082194E-01
          1   -1    0    0  501    0  0.00000000000E+00  0.00000000000E+00  0.64737500597E+03  0.64737500597E+03  0.00000000000E+00 0. -1.
         -1   -1    0    0    0  501 -0.00000000000E+00 -0.00000000000E+00 -0.58964450708E+03  0.58964450708E+03  0.00000000000E+00 0.  1.
         23    2    1    2    0    0 -0.28535483555E+03 -0.36857048038E+03  0.42982316924E+03  0.64059304105E+03  0.91323087172E+02 0.  0.
         13    1    3    3    0    0 -0.13371688718E+03 -0.16827491256E+03  0.26009051528E+03  0.33740736247E+03  0.00000000000E+00 0. -1.
        -13    1    3    3    0    0 -0.15163794837E+03 -0.20029556782E+03  0.16973265396E+03  0.30318567858E+03  0.00000000000E+00 0.  1.
         22    1    1    2    0    0  0.28535483555E+03  0.36857048038E+03 -0.37209267035E+03  0.59642647200E+03  0.00000000000E+00 0.  1.
<mgrwt>
<rscale>  0 0.12356717E+04</rscale>
<asrwt>0</asrwt>
<pdfrwt beam="1">  1        1 0.99596156E-01 0.12356717E+04</pdfrwt>
<pdfrwt beam="2">  1       -1 0.90714539E-01 0.12356717E+04</pdfrwt>
<totfact> 0.35922828E+01</totfact>
</mgrwt>
</event>
<event>
 6    1  0.1637818E-005  0.1350160E+04  0.7818608E-02  0.8990707E-01
          1   -1    0    0  501    0  0.00000000000E+00  0.00000000000E+00  0.83727423879E+03  0.83727423879E+03  0.00000000000E+00 0. -1.
         -1   -1    0    0    0  501 -0.00000000000E+00 -0.00000000000E+00 -0.54430541792E+03  0.54430541792E+03  0.00000000000E+00 0.  1.
         23    2    1    2    0    0 -0.19177272489E+01 -0.66551735863E+03  0.51702077423E+02  0.67367664513E+03  0.90829978855E+02 0.  0.
         11    1    3    3    0    0 -0.35894576090E+02 -0.12534212655E+03  0.13790231137E+02  0.13110774102E+03  0.00000000000E+00 0. -1.
        -11    1    3    3    0    0  0.33976848841E+02 -0.54017523209E+03  0.37911846287E+02  0.54256890411E+03  0.00000000000E+00 0.  1.
         22    1    1    2    0    0  0.19177272489E+01  0.66551735863E+03  0.24126674345E+03  0.70790301159E+03  0.00000000000E+00 0. -1.
<mgrwt>
<rscale>  0 0.13501598E+04</rscale>
<asrwt>0</asrwt>
<pdfrwt beam="1">  1        1 0.12881142E+00 0.13501598E+04</pdfrwt>
<pdfrwt beam="2">  1       -1 0.83739295E-01 0.13501598E+04</pdfrwt>
<totfact> 0.28431152E+01</totfact>
</mgrwt>
</event>
<event>
 6    1  0.1637818E-005  0.2654525E+04  0.7818608E-02  0.8349912E-01
          1   -1    0    0  501    0  0.00000000000E+00  0.00000000000E+00  0.11713369974E+04  0.11713369974E+04  0.00000000000E+00 0. -1.
         -1   -1    0    0    0  501 -0.00000000000E+00 -0.00000000000E+00 -0.15039449227E+04  0.15039449227E+04  0.00000000000E+00 0.  1.
         23    2    1    2    0    0 -0.12751830692E+04 -0.35548938625E+03 -0.95475901060E+02  0.13304041707E+04  0.91624484708E+02 0.  0.
         11    1    3    3    0    0 -0.26461834997E+03 -0.82993632640E+02 -0.56468651148E+02  0.28301859084E+03  0.00000000000E+00 0.  1.
        -11    1    3    3    0    0 -0.10105647192E+04 -0.27249575361E+03 -0.39007249912E+02  0.10473855799E+04  0.00000000000E+00 0. -1.
         22    1    1    2    0    0  0.12751830692E+04  0.35548938625E+03 -0.23713202428E+03  0.13448777493E+04  0.00000000000E+00 0.  1.
<mgrwt>
<rscale>  0 0.26545254E+04</rscale>
<asrwt>0</asrwt>
<pdfrwt beam="1">  1        1 0.18020569E+00 0.26545254E+04</pdfrwt>
<pdfrwt beam="2">  1       -1 0.23137614E+00 0.26545254E+04</pdfrwt>
<totfact> 0.90879929E-01</totfact>
</mgrwt>
</event>
<event>
 6    1  0.1637818E-005  0.9276048E+03  0.7818608E-02  0.9391717E-01
          2   -1    0    0  501    0  0.00000000000E+00  0.00000000000E+00  0.94540337092E+03  0.94540337092E+03  0.00000000000E+00 0.  1.
         -2   -1    0    0    0  501 -0.00000000000E+00 -0.00000000000E+00 -0.22753534184E+03  0.22753534184E+03  0.00000000000E+00 0. -1.
         23    2    1    2    0    0 -0.28588466643E+03  0.13000856960E+03 -0.61198617700E+02  0.33295233740E+03  0.92085381578E+02 0.  0.
         11    1    3    3    0    0 -0.22575502502E+03  0.64145912232E+02 -0.65519873323E+02  0.24366551495E+03  0.00000000000E+00 0.  1.
        -11    1    3    3    0    0 -0.60129641417E+02  0.65862657371E+02  0.43212556234E+01  0.89286822449E+02  0.00000000000E+00 0. -1.
         22    1    1    2    0    0  0.28588466643E+03 -0.13000856960E+03  0.77906664677E+03  0.83998637536E+03  0.00000000000E+00 0.  1.
<mgrwt>
<rscale>  0 0.92760483E+03</rscale>
<asrwt>0</asrwt>
<pdfrwt beam="1">  1        2 0.14544667E+00 0.92760483E+03</pdfrwt>
<pdfrwt beam="2">  1       -2 0.35005438E-01 0.92760483E+03</pdfrwt>
<totfact> 0.20948419E+02</totfact>
</mgrwt>
</event>
<event>
 6    1  0.1637818E-005  0.2554515E+04  0.7818608E-02  0.8383817E-01
         -2   -1    0    0    0  501 -0.00000000000E+00  0.00000000000E+00  0.51736346841E+03  0.51736346841E+03  0.00000000000E+00 0.  1.
          2   -1    0    0  501    0  0.00000000000E+00 -0.00000000000E+00 -0.31532710347E+04  0.31532710347E+04  0.00000000000E+00 0. -1.
         23    2    1    2    0    0 -0.65601174689E+03 -0.22548227844E+03 -0.28579203349E+04  0.29422916310E+04  0.90430809479E+02 0.  0.
         11    1    3    3    0    0 -0.14978948542E+03 -0.32383359314E+02 -0.77891552019E+03  0.79384819675E+03  0.00000000000E+00 0. -1.
        -11    1    3    3    0    0 -0.50622226147E+03 -0.19309891912E+03 -0.20790048147E+04  0.21484434343E+04  0.00000000000E+00 0.  1.
         22    1    1    2    0    0  0.65601174689E+03  0.22548227844E+03  0.22201276860E+03  0.72834287212E+03  0.00000000000E+00 0.  1.
<mgrwt>
<rscale>  0 0.25545154E+04</rscale>
<asrwt>0</asrwt>
<pdfrwt beam="1">  1        2 0.48511862E+00 0.25545154E+04</pdfrwt>
<pdfrwt beam="2">  1       -2 0.79594380E-01 0.25545154E+04</pdfrwt>
<totfact> 0.17268507E+00</totfact>
</mgrwt>
</event>
<event>
 6    1  0.1637818E-005  0.2088504E+04  0.7818608E-02  0.8566324E-01
          2   -1    0    0  501    0  0.00000000000E+00  0.00000000000E+00  0.80175568737E+03  0.80175568737E+03  0.00000000000E+00 0. -1.
         -2   -1    0    0    0  501 -0.00000000000E+00 -0.00000000000E+00 -0.13600929211E+04  0.13600929211E+04  0.00000000000E+00 0.  1.
         23    2    1    2    0    0 -0.46364629977E+03  0.22999783174E+03  0.65653693657E+03  0.84132365848E+03  0.94434396994E+02 0.  0.
         13    1    3    3    0    0 -0.17285761888E+03  0.39513226722E+02  0.19578654989E+03  0.26414659681E+03  0.00000000000E+00 0.  1.
        -13    1    3    3    0    0 -0.29078868089E+03  0.19048460502E+03  0.46075038668E+03  0.57717706166E+03  0.00000000000E+00 0. -1.
         22    1    1    2    0    0  0.46364629977E+03 -0.22999783174E+03 -0.12148741703E+04  0.13205249500E+04  0.00000000000E+00 0.  1.
<mgrwt>
<rscale>  0 0.20885040E+04</rscale>
<asrwt>0</asrwt>
<pdfrwt beam="1">  1        2 0.12334703E+00 0.20885040E+04</pdfrwt>
<pdfrwt beam="2">  1       -2 0.20924506E+00 0.20885040E+04</pdfrwt>
<totfact> 0.36668647E+00</totfact>
</mgrwt>
</event>
<event>
 6    1  0.1637818E-005  0.2120487E+04  0.7818608E-02  0.8552272E-01
          1   -1    0    0  501    0  0.00000000000E+00  0.00000000000E+00  0.21776021145E+04  0.21776021145E+04  0.00000000000E+00 0. -1.
         -1   -1    0    0    0  501 -0.00000000000E+00 -0.00000000000E+00 -0.51621736456E+03  0.51621736456E+03  0.00000000000E+00 0.  1.
         23    2    1    2    0    0 -0.11065892237E+03 -0.72514600237E+03 -0.13684172156E+03  0.75173282686E+03  0.91073949980E+02 0.  0.
         11    1    3    3    0    0 -0.49473664139E+02 -0.10564271323E+03 -0.20954941028E+02  0.11852061363E+03  0.00000000000E+00 0.  1.
        -11    1    3    3    0    0 -0.61185258235E+02 -0.61950328913E+03 -0.11588678053E+03  0.63321221322E+03  0.00000000000E+00 0. -1.
         22    1    1    2    0    0  0.11065892237E+03  0.72514600237E+03  0.17982264715E+04  0.19420866522E+04  0.00000000000E+00 0. -1.
<mgrwt>
<rscale>  0 0.21204868E+04</rscale>
<asrwt>0</asrwt>
<pdfrwt beam="1">  1        1 0.33501570E+00 0.21204868E+04</pdfrwt>
<pdfrwt beam="2">  1       -1 0.79418058E-01 0.21204868E+04</pdfrwt>
<totfact> 0.32818612E+00</totfact>
</mgrwt>
</event>
<event>
 6    1  0.2068976E-005  0.3840005E+04  0.7818608E-02  0.8037624E-01
         -2   -1    0    0    0  501 -0.00000000000E+00  0.00000000000E+00  0.18081525681E+04  0.18081525681E+04  0.00000000000E+00 0. -1.
          2   -1    0    0  501    0  0.00000000000E+00 -0.00000000000E+00 -0.20387718095E+04  0.20387718095E+04  0.00000000000E+00 0.  1.
         23    2    1    2    0    0  0.14225610667E+04  0.12551166112E+04  0.17399643794E+03  0.19071533746E+04  0.89227449423E+02 0.  0.
         13    1    3    3    0    0  0.10641797660E+04  0.97994515537E+03  0.15493942009E+03  0.14549148793E+04  0.00000000000E+00 0. -1.
        -13    1    3    3    0    0  0.35838130061E+03  0.27517145580E+03  0.19057017854E+02  0.45223849532E+03  0.00000000000E+00 0.  1.
         22    1    1    2    0    0 -0.14225610667E+04 -0.12551166112E+04 -0.40461567933E+03  0.19397710030E+04  0.00000000000E+00 0. -1.
<mgrwt>
<rscale>  0 0.38400055E+04</rscale>
<asrwt>0</asrwt>
<pdfrwt beam="1">  1        2 0.31365720E+00 0.38400055E+04</pdfrwt>
<pdfrwt beam="2">  1       -2 0.27817732E+00 0.38400055E+04</pdfrwt>
<totfact> 0.21951539E-01</totfact>
</mgrwt>
</event>
<event>
 6    1  0.1637818E-005  0.2147538E+04  0.7818608E-02  0.8540587E-01
          2   -1    0    0  501    0  0.00000000000E+00  0.00000000000E+00  0.22585745461E+04  0.22585745461E+04  0.00000000000E+00 0. -1.
         -2   -1    0    0    0  501 -0.00000000000E+00 -0.00000000000E+00 -0.51048996813E+03  0.51048996813E+03  0.00000000000E+00 0.  1.
         23    2    1    2    0    0  0.91627777009E+02 -0.30678926848E+03  0.21945099539E+04  0.22196913068E+04  0.92952969936E+02 0.  0.
         11    1    3    3    0    0  0.79741071431E+02 -0.18252289522E+03  0.10801614135E+04  0.10983723981E+04  0.00000000000E+00 0. -1.
        -11    1    3    3    0    0  0.11886705578E+02 -0.12426637326E+03  0.11143485404E+04  0.11213189086E+04  0.00000000000E+00 0.  1.
         22    1    1    2    0    0 -0.91627777009E+02  0.30678926848E+03 -0.44642537596E+03  0.54937320746E+03  0.00000000000E+00 0.  1.
<mgrwt>
<rscale>  0 0.21475378E+04</rscale>
<asrwt>0</asrwt>
<pdfrwt beam="1">  1        2 0.34747300E+00 0.21475378E+04</pdfrwt>
<pdfrwt beam="2">  1       -2 0.78536919E-01 0.21475378E+04</pdfrwt>
<totfact> 0.63290155E+00</totfact>
</mgrwt>
</event>
<event>
 6    1  0.1637818E-005  0.1642164E+04  0.7818608E-02  0.8795056E-01
         -2   -1    0    0    0  501 -0.00000000000E+00  0.00000000000E+00  0.47669606151E+03  0.47669606151E+03  0.00000000000E+00 0.  1.
          2   -1    0    0  501    0  0.00000000000E+00 -0.00000000000E+00 -0.14142670419E+04  0.14142670419E+04  0.00000000000E+00 0. -1.
         23    2    1    2    0    0  0.67071212929E+03 -0.75313910073E+02  0.64085897912E+02  0.68313718579E+03  0.83919407049E+02 0.  0.
         13    1    3    3    0    0  0.14428036039E+03  0.12782929710E+02  0.32526863189E+02  0.14845276190E+03  0.00000000000E+00 0.  1.
        -13    1    3    3    0    0  0.52643176889E+03 -0.88096839783E+02  0.31559034724E+02  0.53468442389E+03  0.00000000000E+00 0. -1.
         22    1    1    2    0    0 -0.67071212929E+03  0.75313910073E+02 -0.10016568783E+04  0.12078259176E+04  0.00000000000E+00 0. -1.
<mgrwt>
<rscale>  0 0.16421639E+04</rscale>
<asrwt>0</asrwt>
<pdfrwt beam="1">  1        2 0.21757954E+00 0.16421639E+04</pdfrwt>
<pdfrwt beam="2">  1       -2 0.73337856E-01 0.16421639E+04</pdfrwt>
<totfact> 0.22777171E+01</totfact>
</mgrwt>
</event>
<event>
 6    1  0.1637818E-005  0.6650879E+03  0.7818608E-02  0.9778872E-01
          1   -1    0    0  501    0  0.00000000000E+00  0.00000000000E+00  0.67719978724E+02  0.67719978724E+02  0.00000000000E+00 0. -1.
         -1   -1    0    0    0  501 -0.00000000000E+00 -0.00000000000E+00 -0.16329817829E+04  0.16329817829E+04  0.00000000000E+00 0.  1.
         23    2    1    2    0    0 -0.11774878432E+03 -0.20983137770E+03 -0.23365499794E+03  0.34753116274E+03  0.91045415780E+02 0.  0.
         13    1    3    3    0    0 -0.76990893464E+02 -0.17002309823E+03 -0.12436111206E+03  0.22427915151E+03  0.00000000000E+00 0.  1.
        -13    1    3    3    0    0 -0.40757890857E+02 -0.39808279470E+02 -0.10929388588E+03  0.12325201123E+03  0.00000000000E+00 0. -1.
         22    1    1    2    0    0  0.11774878432E+03  0.20983137770E+03 -0.13316068062E+04  0.13531705989E+04  0.00000000000E+00 0.  1.
<mgrwt>
<rscale>  0 0.66508794E+03</rscale>
<asrwt>0</asrwt>
<pdfrwt beam="1">  1        1 0.10418458E-01 0.66508794E+03</pdfrwt>
<pdfrwt beam="2">  1       -1 0.25122797E+00 0.66508794E+03</pdfrwt>
<totfact> 0.45087394E+01</totfact>
</mgrwt>
</event>
<event>
 6    1  0.1637818E-005  0.4783572E+03  0.7818608E-02  0.1019588E+00
          1   -1    0    0  501    0  0.00000000000E+00  0.00000000000E+00  0.44892592374E+03  0.44892592374E+03  0.00000000000E+00 0. -1.
         -1   -1    0    0    0  501 -0.00000000000E+00 -0.00000000000E+00 -0.12742946989E+03  0.12742946989E+03  0.00000000000E+00 0.  1.
         23    2    1    2    0    0  0.15811072649E+03  0.66640191812E+02  0.35184413449E+03  0.40211160259E+03  0.91975697711E+02 0.  0.
         11    1    3    3    0    0  0.12777770186E+02  0.35374740432E+02  0.12791635483E+03  0.13333130730E+03  0.00000000000E+00 0. -1.
        -11    1    3    3    0    0  0.14533295630E+03  0.31265451381E+02  0.22392777965E+03  0.26878029529E+03  0.00000000000E+00 0.  1.
         22    1    1    2    0    0 -0.15811072649E+03 -0.66640191812E+02 -0.30347680635E+02  0.17424379104E+03  0.00000000000E+00 0.  1.
<mgrwt>
<rscale>  0 0.47835716E+03</rscale>
<asrwt>0</asrwt>
<pdfrwt beam="1">  1        1 0.69065526E-01 0.47835716E+03</pdfrwt>
<pdfrwt beam="2">  1       -1 0.19604534E-01 0.47835716E+03</pdfrwt>
<totfact> 0.10885239E+03</totfact>
</mgrwt>
</event>
<event>
 6    1  0.1637818E-005  0.1493445E+04  0.7818608E-02  0.8888824E-01
         -1   -1    0    0    0  501 -0.00000000000E+00  0.00000000000E+00  0.58310052664E+03  0.58310052664E+03  0.00000000000E+00 0.  1.
          1   -1    0    0  501    0  0.00000000000E+00 -0.00000000000E+00 -0.95625746055E+03  0.95625746055E+03  0.00000000000E+00 0. -1.
         23    2    1    2    0    0 -0.20755949658E+03 -0.62350499328E+03  0.17173556062E+03  0.68569104284E+03  0.94019584045E+02 0.  0.
         13    1    3    3    0    0 -0.89398753568E+02 -0.36575110712E+03  0.61692578635E+02  0.38153896755E+03  0.00000000000E+00 0.  1.
        -13    1    3    3    0    0 -0.11816074301E+03 -0.25775388616E+03  0.11004298199E+03  0.30415207529E+03  0.00000000000E+00 0. -1.
         22    1    1    2    0    0  0.20755949658E+03  0.62350499328E+03 -0.54489249453E+03  0.85366694434E+03  0.00000000000E+00 0. -1.
<mgrwt>
<rscale>  0 0.14934446E+04</rscale>
<asrwt>0</asrwt>
<pdfrwt beam="1">  1        1 0.14711653E+00 0.14934446E+04</pdfrwt>
<pdfrwt beam="2">  1       -1 0.89707774E-01 0.14934446E+04</pdfrwt>
<totfact> 0.19299555E+01</totfact>
</mgrwt>
</event>
<event>
 6    1  0.1637818E-005  0.2981331E+04  0.7818608E-02  0.8249082E-01
          2   -1    0    0  501    0  0.00000000000E+00  0.00000000000E+00  0.14707051811E+04  0.14707051811E+04  0.00000000000E+00 0. -1.
         -2   -1    0    0    0  501 -0.00000000000E+00 -0.00000000000E+00 -0.15108971095E+04  0.15108971095E+04  0.00000000000E+00 0.  1.
         23    2    1    2    0    0  0.10057014578E+04 -0.68308950338E+03  0.84049303622E+03  0.14803852181E+04  0.84054495672E+02 0.  0.
         13    1    3    3    0    0  0.37372607987E+03 -0.21961550373E+03  0.33436875255E+03  0.54745284266E+03  0.00000000000E+00 0.  1.
        -13    1    3    3    0    0  0.63197537795E+03 -0.46347399965E+03  0.50612428367E+03  0.93293237548E+03  0.00000000000E+00 0. -1.
         22    1    1    2    0    0 -0.10057014578E+04  0.68308950338E+03 -0.88068496463E+03  0.15012170725E+04  0.00000000000E+00 0.  1.
<mgrwt>
<rscale>  0 0.29813314E+04</rscale>
<asrwt>0</asrwt>
<pdfrwt beam="1">  1        2 0.22626233E+00 0.29813314E+04</pdfrwt>
<pdfrwt beam="2">  1       -2 0.23244571E+00 0.29813314E+04</pdfrwt>
<totfact> 0.93328121E-01</totfact>
</mgrwt>
</event>
<event>
 6    1  0.1637818E-005  0.9887972E+03  0.7818608E-02  0.9320918E-01
         -2   -1    0    0    0  501 -0.00000000000E+00  0.00000000000E+00  0.46379099728E+03  0.46379099728E+03  0.00000000000E+00 0.  1.
          2   -1    0    0  501    0  0.00000000000E+00 -0.00000000000E+00 -0.52702612745E+03  0.52702612745E+03  0.00000000000E+00 0. -1.
         23    2    1    2    0    0 -0.16285430505E+02 -0.25030007749E+03  0.39012762972E+03  0.47269249098E+03  0.91232009312E+02 0.  0.
         13    1    3    3    0    0  0.27024758083E+02 -0.16370499762E+03  0.28493905996E+03  0.32972705634E+03  0.00000000000E+00 0.  1.
        -13    1    3    3    0    0 -0.43310188589E+02 -0.86595079871E+02  0.10518856976E+03  0.14296543464E+03  0.00000000000E+00 0. -1.
         22    1    1    2    0    0  0.16285430505E+02  0.25030007749E+03 -0.45336275990E+03  0.51812463375E+03  0.00000000000E+00 0. -1.
<mgrwt>
<rscale>  0 0.98879720E+03</rscale>
<asrwt>0</asrwt>
<pdfrwt beam="1">  1        2 0.81080943E-01 0.98879720E+03</pdfrwt>
<pdfrwt beam="2">  1       -2 0.71352461E-01 0.98879720E+03</pdfrwt>
<totfact> 0.10318586E+02</totfact>
</mgrwt>
</event>
<event>
 6    1  0.1637818E-005  0.1373129E+04  0.7818608E-02  0.8973502E-01
         -2   -1    0    0    0  501 -0.00000000000E+00  0.00000000000E+00  0.44355141332E+03  0.44355141332E+03  0.00000000000E+00 0.  1.
          2   -1    0    0  501    0  0.00000000000E+00 -0.00000000000E+00 -0.10627193000E+04  0.10627193000E+04  0.00000000000E+00 0. -1.
         23    2    1    2    0    0 -0.39500155464E+03  0.45084310994E+03  0.49444138117E+02  0.60831315438E+03  0.91183513028E+02 0.  0.
         13    1    3    3    0    0 -0.27982473128E+03  0.35418296919E+03  0.69202949784E+02  0.45665797284E+03  0.00000000000E+00 0. -1.
        -13    1    3    3    0    0 -0.11517682336E+03  0.96660140751E+02 -0.19758811668E+02  0.15165518154E+03  0.00000000000E+00 0.  1.
         22    1    1    2    0    0  0.39500155464E+03 -0.45084310994E+03 -0.66861202477E+03  0.89795755892E+03  0.00000000000E+00 0. -1.
<mgrwt>
<rscale>  0 0.13731288E+04</rscale>
<asrwt>0</asrwt>
<pdfrwt beam="1">  1        2 0.16349528E+00 0.13731288E+04</pdfrwt>
<pdfrwt beam="2">  1       -2 0.68238680E-01 0.13731288E+04</pdfrwt>
<totfact> 0.44048881E+01</totfact>
</mgrwt>
</event>
<event>
 6    1  0.1637818E-005  0.1688594E+04  0.7818608E-02  0.8767896E-01
          1   -1    0    0  501    0  0.00000000000E+00  0.00000000000E+00  0.57253406080E+03  0.57253406080E+03  0.00000000000E+00 0. -1.
         -1   -1    0    0    0  501 -0.00000000000E+00 -0.00000000000E+00 -0.12450571343E+04  0.12450571343E+04  0.00000000000E+00 0.  1.
         23    2    1    2    0    0 -0.82991437803E+03  0.14087149005E+03 -0.33076381882E+03  0.90907480023E+03  0.91704072992E+02 0.  0.
         11    1    3    3    0    0 -0.49958385142E+03  0.58146006473E+02 -0.23619644887E+03  0.55565613928E+03  0.00000000000E+00 0. -1.
        -11    1    3    3    0    0 -0.33033052661E+03  0.82725483581E+02 -0.94567369952E+02  0.35341866095E+03  0.00000000000E+00 0.  1.
         22    1    1    2    0    0  0.82991437803E+03 -0.14087149005E+03 -0.34175925467E+03  0.90851639485E+03  0.00000000000E+00 0.  1.
<mgrwt>
<rscale>  0 0.16885942E+04</rscale>
<asrwt>0</asrwt>
<pdfrwt beam="1">  1        1 0.88082164E-01 0.16885942E+04</pdfrwt>
<pdfrwt beam="2">  1       -1 0.19154725E+00 0.16885942E+04</pdfrwt>
<totfact> 0.60131715E+00</totfact>
</mgrwt>
</event>
<event>
 6    1  0.1637818E-005  0.5918928E+04  0.7818608E-02  0.7700536E-01
         -1   -1    0    0    0  501 -0.00000000000E+00  0.00000000000E+00  0.28617666079E+04  0.28617666079E+04  0.00000000000E+00 0.  1.
          1   -1    0    0  501    0  0.00000000000E+00 -0.00000000000E+00 -0.30604965669E+04  0.30604965669E+04  0.00000000000E+00 0. -1.
         23    2    1    2    0    0  0.72233240840E+03 -0.24354558169E+04 -0.16170495819E+04  0.30128234183E+04  0.95112854747E+02 0.  0.
         11    1    3    3    0    0  0.25813078665E+03 -0.10294649178E+04 -0.66053706477E+03  0.12500954899E+04  0.00000000000E+00 0. -1.
        -11    1    3    3    0    0  0.46420162176E+03 -0.14059908991E+04 -0.95651251710E+03  0.17627279283E+04  0.00000000000E+00 0.  1.
         22    1    1    2    0    0 -0.72233240840E+03  0.24354558169E+04  0.14183196229E+04  0.29094397566E+04  0.00000000000E+00 0.  1.
<mgrwt>
<rscale>  0 0.59189279E+04</rscale>
<asrwt>0</asrwt>
<pdfrwt beam="1">  1        1 0.47084562E+00 0.59189279E+04</pdfrwt>
<pdfrwt beam="2">  1       -1 0.44027179E+00 0.59189279E+04</pdfrwt>
<totfact> 0.13741618E-03</totfact>
</mgrwt>
</event>
<event>
 6    1  0.1791179E-005  0.2960021E+04  0.7818608E-02  0.8255240E-01
          1   -1    0    0  501    0  0.00000000000E+00  0.00000000000E+00  0.20081775991E+04  0.20081775991E+04  0.00000000000E+00 0. -1.
         -1   -1    0    0    0  501 -0.00000000000E+00 -0.00000000000E+00 -0.10907557203E+04  0.10907557203E+04  0.00000000000E+00 0.  1.
         23    2    1    2    0    0  0.11789890888E+04  0.46625046822E+03  0.12554186274E+04  0.17868180147E+04  0.96114082622E+02 0.  0.
         11    1    3    3    0    0  0.23138146444E+03  0.52900406329E+02  0.21986086939E+03  0.32353459933E+03  0.00000000000E+00 0. -1.
        -11    1    3    3    0    0  0.94760762441E+03  0.41335006189E+03  0.10355577580E+04  0.14632834154E+04  0.00000000000E+00 0.  1.
         22    1    1    2    0    0 -0.11789890888E+04 -0.46625046822E+03 -0.33799674858E+03  0.13121153047E+04  0.00000000000E+00 0. -1.
<mgrwt>
<rscale>  0 0.29600211E+04</rscale>
<asrwt>0</asrwt>
<pdfrwt beam="1">  1        1 0.30895040E+00 0.29600211E+04</pdfrwt>
<pdfrwt beam="2">  1       -1 0.16780857E+00 0.29600211E+04</pdfrwt>
<totfact> 0.64167416E-01</totfact>
</mgrwt>
</event>
<event>
 6    1  0.1637818E-005  0.2733093E+04  0.7818608E-02  0.8324347E-01
          2   -1    0    0  501    0  0.00000000000E+00  0.00000000000E+00  0.14113404614E+04  0.14113404614E+04  0.00000000000E+00 0. -1.
         -2   -1    0    0    0  501 -0.00000000000E+00 -0.00000000000E+00 -0.13231741649E+04  0.13231741649E+04  0.00000000000E+00 0.  1.
         23    2    1    2    0    0 -0.85624984198E+02  0.53426460417E+03 -0.12098156507E+04  0.13282687586E+04  0.88733766151E+02 0.  0.
         13    1    3    3    0    0 -0.65069829048E+02  0.25005551866E+03 -0.48670092884E+03  0.55103506168E+03  0.00000000000E+00 0. -1.
        -13    1    3    3    0    0 -0.20555155150E+02  0.28420908551E+03 -0.72311472185E+03  0.77723369693E+03  0.00000000000E+00 0.  1.
         22    1    1    2    0    0  0.85624984198E+02 -0.53426460417E+03  0.12979819472E+04  0.14062458677E+04  0.00000000000E+00 0. -1.
<mgrwt>
<rscale>  0 0.27330929E+04</rscale>
<asrwt>0</asrwt>
<pdfrwt beam="1">  1        2 0.21712930E+00 0.27330929E+04</pdfrwt>
<pdfrwt beam="2">  1       -2 0.20356526E+00 0.27330929E+04</pdfrwt>
<totfact> 0.15722318E+00</totfact>
</mgrwt>
</event>
<event>
 6    1  0.1637818E-005  0.5274898E+04  0.7818608E-02  0.7787446E-01
         -2   -1    0    0    0  501 -0.00000000000E+00  0.00000000000E+00  0.29331120538E+04  0.29331120538E+04  0.00000000000E+00 0.  1.
          2   -1    0    0  501    0  0.00000000000E+00 -0.00000000000E+00 -0.23715890548E+04  0.23715890548E+04  0.00000000000E+00 0. -1.
         23    2    1    2    0    0  0.19000757094E+04  0.16204016701E+04 -0.57001688105E+03  0.25631008871E+04  0.92615544531E+02 0.  0.
         13    1    3    3    0    0  0.11449059256E+04  0.91740875781E+03 -0.34296375947E+03  0.15066759929E+04  0.00000000000E+00 0.  1.
        -13    1    3    3    0    0  0.75516978388E+03  0.70299291225E+03 -0.22705312158E+03  0.10564248942E+04  0.00000000000E+00 0. -1.
         22    1    1    2    0    0 -0.19000757094E+04 -0.16204016701E+04  0.11315398801E+04  0.27416002214E+04  0.00000000000E+00 0. -1.
<mgrwt>
<rscale>  0 0.52748977E+04</rscale>
<asrwt>0</asrwt>
<pdfrwt beam="1">  1        2 0.36485986E+00 0.52748977E+04</pdfrwt>
<pdfrwt beam="2">  1       -2 0.45124801E+00 0.52748977E+04</pdfrwt>
<totfact> 0.10048063E-02</totfact>
</mgrwt>
</event>
<event>
 6    1  0.1637818E-005  0.1386848E+04  0.7818608E-02  0.8963394E-01
          2   -1    0    0  501    0  0.00000000000E+00  0.00000000000E+00  0.30021437094E+04  0.30021437094E+04  0.00000000000E+00 0. -1.
         -2   -1    0    0    0  501 -0.00000000000E+00 -0.00000000000E+00 -0.16016441497E+03  0.16016441497E+03  0.00000000000E+00 0.  1.
         23    2    1    2    0    0  0.61710765313E+03  0.30858395168E+03  0.13505786754E+04  0.15190425593E+04  0.85916400122E+02 0.  0.
         13    1    3    3    0    0  0.18828934166E+03  0.76742019622E+02  0.32250329713E+03  0.38124872514E+03  0.00000000000E+00 0. -1.
        -13    1    3    3    0    0  0.42881831147E+03  0.23184193205E+03  0.10280753783E+04  0.11377938342E+04  0.00000000000E+00 0.  1.
         22    1    1    2    0    0 -0.61710765313E+03 -0.30858395168E+03  0.14914006190E+04  0.16432655650E+04  0.00000000000E+00 0. -1.
<mgrwt>
<rscale>  0 0.13868476E+04</rscale>
<asrwt>0</asrwt>
<pdfrwt beam="1">  1        2 0.46186822E+00 0.13868476E+04</pdfrwt>
<pdfrwt beam="2">  1       -2 0.24640681E-01 0.13868476E+04</pdfrwt>
<totfact> 0.25141750E+01</totfact>
</mgrwt>
</event>
<event>
 6    1  0.1637818E-005  0.1079970E+04  0.7818608E-02  0.9224938E-01
          2   -1    0    0  501    0  0.00000000000E+00  0.00000000000E+00  0.17060472842E+04  0.17060472842E+04  0.00000000000E+00 0. -1.
         -2   -1    0    0    0  501 -0.00000000000E+00 -0.00000000000E+00 -0.17091185906E+03  0.17091185906E+03  0.00000000000E+00 0.  1.
         23    2    1    2    0    0 -0.30449091298E+03 -0.99159183902E+02  0.15203900048E+04  0.15563898258E+04  0.90643605912E+02 0.  0.
         11    1    3    3    0    0 -0.11662423693E+02 -0.12962353858E+02  0.21841946086E+03  0.21911434372E+03  0.00000000000E+00 0. -1.
        -11    1    3    3    0    0 -0.29282848929E+03 -0.86196830044E+02  0.13019705440E+04  0.13372754821E+04  0.00000000000E+00 0.  1.
         22    1    1    2    0    0  0.30449091298E+03  0.99159183902E+02  0.14745420268E+02  0.32056931740E+03  0.00000000000E+00 0.  1.
<mgrwt>
<rscale>  0 0.10799698E+04</rscale>
<asrwt>0</asrwt>
<pdfrwt beam="1">  1        2 0.26246880E+00 0.10799698E+04</pdfrwt>
<pdfrwt beam="2">  1       -2 0.26294133E-01 0.10799698E+04</pdfrwt>
<totfact> 0.12658197E+02</totfact>
</mgrwt>
</event>
<event>
 6    1  0.1936921E-005  0.5056637E+04  0.7818608E-02  0.7819829E-01
          1   -1    0    0  501    0  0.00000000000E+00  0.00000000000E+00  0.23788992068E+04  0.23788992068E+04  0.00000000000E+00 0. -1.
         -1   -1    0    0    0  501 -0.00000000000E+00 -0.00000000000E+00 -0.26871230424E+04  0.26871230424E+04  0.00000000000E+00 0.  1.
         23    2    1    2    0    0 -0.10866225390E+04  0.19911348232E+04 -0.12711837680E+04  0.26017458325E+04  0.88355976355E+02 0.  0.
         11    1    3    3    0    0 -0.79226995030E+03  0.14283360297E+04 -0.95850648702E+03  0.18938242193E+04  0.00000000000E+00 0.  1.
        -11    1    3    3    0    0 -0.29435258870E+03  0.56279879352E+03 -0.31267728102E+03  0.70792161327E+03  0.00000000000E+00 0. -1.
         22    1    1    2    0    0  0.10866225390E+04 -0.19911348232E+04  0.96295993240E+03  0.24642764167E+04  0.00000000000E+00 0. -1.
<mgrwt>
<rscale>  0 0.50566372E+04</rscale>
<asrwt>0</asrwt>
<pdfrwt beam="1">  1        1 0.36598449E+00 0.50566372E+04</pdfrwt>
<pdfrwt beam="2">  1       -1 0.41340355E+00 0.50566372E+04</pdfrwt>
<totfact> 0.68407365E-03</totfact>
</mgrwt>
</event>
<event>
 6    1  0.1637818E-005  0.1182166E+04  0.7818608E-02  0.9128612E-01
          2   -1    0    0  501    0  0.00000000000E+00  0.00000000000E+00  0.10656432154E+04  0.10656432154E+04  0.00000000000E+00 0. -1.
         -2   -1    0    0    0  501 -0.00000000000E+00 -0.00000000000E+00 -0.32785722093E+03  0.32785722093E+03  0.00000000000E+00 0.  1.
         23    2    1    2    0    0  0.34533990959E+03 -0.26211921869E+03  0.83847527783E+03  0.94841115339E+03  0.92069464999E+02 0.  0.
         11    1    3    3    0    0  0.22081096176E+03 -0.20577257406E+03  0.50981833337E+03  0.59246482267E+03  0.00000000000E+00 0.  1.
        -11    1    3    3    0    0  0.12452894783E+03 -0.56346644631E+02  0.32865694446E+03  0.35594633072E+03  0.00000000000E+00 0. -1.
         22    1    1    2    0    0 -0.34533990959E+03  0.26211921869E+03 -0.10068928340E+03  0.44508928290E+03  0.00000000000E+00 0.  1.
<mgrwt>
<rscale>  0 0.11821655E+04</rscale>
<asrwt>0</asrwt>
<pdfrwt beam="1">  1        2 0.16394511E+00 0.11821655E+04</pdfrwt>
<pdfrwt beam="2">  1       -2 0.50439573E-01 0.11821655E+04</pdfrwt>
<totfact> 0.84016662E+01</totfact>
</mgrwt>
</event>
<event>
 6    1  0.1637818E-005  0.1315395E+04  0.7818608E-02  0.9017445E-01
          2   -1    0    0  501    0  0.00000000000E+00  0.00000000000E+00  0.73473066431E+03  0.73473066431E+03  0.00000000000E+00 0. -1.
         -2   -1    0    0    0  501 -0.00000000000E+00 -0.00000000000E+00 -0.58874092819E+03  0.58874092819E+03  0.00000000000E+00 0.  1.
         23    2    1    2    0    0 -0.34276162079E+03  0.51925848130E+03 -0.13246864678E+03  0.64181627630E+03  0.85236676645E+02 0.  0.
         13    1    3    3    0    0 -0.21197137096E+03  0.39016880804E+03 -0.86321176355E+02  0.45234379222E+03  0.00000000000E+00 0.  1.
        -13    1    3    3    0    0 -0.13079024984E+03  0.12908967326E+03 -0.46147470424E+02  0.18947248408E+03  0.00000000000E+00 0. -1.
         22    1    1    2    0    0  0.34276162079E+03 -0.51925848130E+03  0.27845838290E+03  0.68165531620E+03  0.00000000000E+00 0.  1.
<mgrwt>
<rscale>  0 0.13153950E+04</rscale>
<asrwt>0</asrwt>
<pdfrwt beam="1">  1        2 0.11303549E+00 0.13153950E+04</pdfrwt>
<pdfrwt beam="2">  1       -2 0.90575528E-01 0.13153950E+04</pdfrwt>
<totfact> 0.39282458E+01</totfact>
</mgrwt>
</event>
<event>
 6    1  0.1637818E-005  0.1110055E+04  0.7818608E-02  0.9195447E-01
          1   -1    0    0  501    0  0.00000000000E+00  0.00000000000E+00  0.31364607226E+03  0.31364607226E+03  0.00000000000E+00 0. -1.
         -1   -1    0    0    0  501 -0.00000000000E+00 -0.00000000000E+00 -0.98217488305E+03  0.98217488305E+03  0.00000000000E+00 0.  1.
         23    2    1    2    0    0 -0.31568874771E+03  0.56616487755E+02  0.18709780945E+03  0.38205855436E+03  0.89990758121E+02 0.  0.
         13    1    3    3    0    0 -0.19345896549E+03  0.71606806186E+02  0.14405923627E+03  0.25160876291E+03  0.00000000000E+00 0. -1.
        -13    1    3    3    0    0 -0.12222978222E+03 -0.14990318431E+02  0.43038573175E+02  0.13044979145E+03  0.00000000000E+00 0.  1.
         22    1    1    2    0    0  0.31568874771E+03 -0.56616487755E+02 -0.85562662024E+03  0.91376240095E+03  0.00000000000E+00 0.  1.
<mgrwt>
<rscale>  0 0.11100546E+04</rscale>
<asrwt>0</asrwt>
<pdfrwt beam="1">  1        1 0.48253243E-01 0.11100546E+04</pdfrwt>
<pdfrwt beam="2">  1       -1 0.15110382E+00 0.11100546E+04</pdfrwt>
<totfact> 0.28178630E+01</totfact>
</mgrwt>
</event>
<event>
 6    1  0.1637818E-005  0.3206032E+04  0.7818608E-02  0.8187226E-01
         -2   -1    0    0    0  501 -0.00000000000E+00  0.00000000000E+00  0.11970599901E+04  0.11970599901E+04  0.00000000000E+00 0.  1.
          2   -1    0    0  501    0  0.00000000000E+00 -0.00000000000E+00 -0.21466432205E+04  0.21466432205E+04  0.00000000000E+00 0. -1.
         23    2    1    2    0    0 -0.61859696602E+03  0.56380046786E+02 -0.20149025932E+04  0.21105177985E+04  0.92800871941E+02 0.  0.
         11    1    3    3    0    0 -0.21479856007E+03  0.62984921023E+02 -0.68464923598E+03  0.72031250025E+03  0.00000000000E+00 0. -1.
        -11    1    3    3    0    0 -0.40379840595E+03 -0.66048742371E+01 -0.13302533572E+04  0.13902052983E+04  0.00000000000E+00 0.  1.
         22    1    1    2    0    0  0.61859696602E+03 -0.56380046786E+02  0.10653193627E+04  0.12331854121E+04  0.00000000000E+00 0.  1.
<mgrwt>
<rscale>  0 0.32060323E+04</rscale>
<asrwt>0</asrwt>
<pdfrwt beam="1">  1        2 0.33025280E+00 0.32060323E+04</pdfrwt>
<pdfrwt beam="2">  1       -2 0.18416308E+00 0.32060323E+04</pdfrwt>
<totfact> 0.79058545E-01</totfact>
</mgrwt>
</event>
<event>
 6    1  0.1637818E-005  0.1592022E+04  0.7818608E-02  0.8825464E-01
         -2   -1    0    0    0  501 -0.00000000000E+00  0.00000000000E+00  0.13173132030E+03  0.13173132030E+03  0.00000000000E+00 0.  1.
          2   -1    0    0  501    0  0.00000000000E+00 -0.00000000000E+00 -0.48100433448E+04  0.48100433448E+04  0.00000000000E+00 0. -1.
         23    2    1    2    0    0 -0.62570930914E+03  0.38807542641E+03 -0.14287669991E+04  0.16098596679E+04  0.90323510917E+02 0.  0.
         11    1    3    3    0    0 -0.72712105270E+02  0.82158025828E+02 -0.20137668185E+03  0.22932413623E+03  0.00000000000E+00 0.  1.
        -11    1    3    3    0    0 -0.55299720387E+03  0.30591740058E+03 -0.12273903172E+04  0.13805355317E+04  0.00000000000E+00 0. -1.
         22    1    1    2    0    0  0.62570930914E+03 -0.38807542641E+03 -0.32495450254E+04  0.33319149972E+04  0.00000000000E+00 0.  1.
<mgrwt>
<rscale>  0 0.15920218E+04</rscale>
<asrwt>0</asrwt>
<pdfrwt beam="1">  1        2 0.74000658E+00 0.15920218E+04</pdfrwt>
<pdfrwt beam="2">  1       -2 0.20266359E-01 0.15920218E+04</pdfrwt>
<totfact> 0.12085758E+00</totfact>
</mgrwt>
</event>
<event>
 6    1  0.1637818E-005  0.8171958E+03  0.7818608E-02  0.9535455E-01
          4   -1    0    0  501    0  0.00000000000E+00  0.00000000000E+00  0.59060031601E+03  0.59060031601E+03  0.00000000000E+00 0. -1.
         -4   -1    0    0    0  501 -0.00000000000E+00 -0.00000000000E+00 -0.28268227072E+03  0.28268227072E+03  0.00000000000E+00 0.  1.
         23    2    1    2    0    0 -0.20532406606E+02 -0.38874213117E+03  0.42719943632E+02  0.40224961825E+03  0.91857158308E+02 0.  0.
         11    1    3    3    0    0  0.23999872999E+02 -0.24726762003E+03  0.19766568678E+01  0.24843747099E+03  0.00000000000E+00 0. -1.
        -11    1    3    3    0    0 -0.44532279605E+02 -0.14147451114E+03  0.40743286764E+02  0.15381214726E+03  0.00000000000E+00 0.  1.
         22    1    1    2    0    0  0.20532406606E+02  0.38874213117E+03  0.26519810166E+03  0.47103296848E+03  0.00000000000E+00 0.  1.
<mgrwt>
<rscale>  0 0.81719579E+03</rscale>
<asrwt>0</asrwt>
<pdfrwt beam="1">  1        4 0.90861586E-01 0.81719579E+03</pdfrwt>
<pdfrwt beam="2">  1       -4 0.43489580E-01 0.81719579E+03</pdfrwt>
<totfact> 0.10595271E+01</totfact>
</mgrwt>
</event>
<event>
 6    1  0.1637818E-005  0.1596536E+04  0.7818608E-02  0.8822679E-01
          1   -1    0    0  501    0  0.00000000000E+00  0.00000000000E+00  0.55124121337E+03  0.55124121337E+03  0.00000000000E+00 0. -1.
         -1   -1    0    0    0  501 -0.00000000000E+00 -0.00000000000E+00 -0.11559941621E+04  0.11559941621E+04  0.00000000000E+00 0.  1.
         23    2    1    2    0    0 -0.10708974235E+03  0.54693948252E+03  0.30375308009E+03  0.64140508183E+03  0.92322992155E+02 0.  0.
         11    1    3    3    0    0 -0.49692085090E+02  0.81365281480E+02  0.61405348309E+02  0.11340295037E+03  0.00000000000E+00 0.  1.
        -11    1    3    3    0    0 -0.57397657258E+02  0.46557420104E+03  0.24234773178E+03  0.52800213146E+03  0.00000000000E+00 0. -1.
         22    1    1    2    0    0  0.10708974235E+03 -0.54693948252E+03 -0.90850602883E+03  0.10658302937E+04  0.00000000000E+00 0.  1.
<mgrwt>
<rscale>  0 0.15965358E+04</rscale>
<asrwt>0</asrwt>
<pdfrwt beam="1">  1        1 0.84806341E-01 0.15965358E+04</pdfrwt>
<pdfrwt beam="2">  1       -1 0.17784525E+00 0.15965358E+04</pdfrwt>
<totfact> 0.80038363E+00</totfact>
</mgrwt>
</event>
<event>
 6    1  0.1637818E-005  0.5043985E+04  0.7818608E-02  0.7821758E-01
         -2   -1    0    0    0  501 -0.00000000000E+00  0.00000000000E+00  0.17457963673E+04  0.17457963673E+04  0.00000000000E+00 0.  1.
          2   -1    0    0  501    0  0.00000000000E+00 -0.00000000000E+00 -0.36432918289E+04  0.36432918289E+04  0.00000000000E+00 0. -1.
         23    2    1    2    0    0  0.10659002998E+04 -0.65066532381E+03  0.13909527190E+04  0.18715037623E+04  0.90928834057E+02 0.  0.
         13    1    3    3    0    0  0.68156622128E+03 -0.36428223436E+03  0.85785228453E+03  0.11546188126E+04  0.00000000000E+00 0. -1.
        -13    1    3    3    0    0  0.38433407849E+03 -0.28638308944E+03  0.53310043451E+03  0.71688494969E+03  0.00000000000E+00 0.  1.
         22    1    1    2    0    0 -0.10659002998E+04  0.65066532381E+03 -0.32884481807E+04  0.35175844339E+04  0.00000000000E+00 0. -1.
<mgrwt>
<rscale>  0 0.50439848E+04</rscale>
<asrwt>0</asrwt>
<pdfrwt beam="1">  1        2 0.56050643E+00 0.50439848E+04</pdfrwt>
<pdfrwt beam="2">  1       -2 0.26858406E+00 0.50439848E+04</pdfrwt>
<totfact> 0.22980983E-02</totfact>
</mgrwt>
</event>
<event>
 6    1  0.1637818E-005  0.6138578E+03  0.7818608E-02  0.9877065E-01
          3   -1    0    0  501    0  0.00000000000E+00  0.00000000000E+00  0.51365766891E+03  0.51365766891E+03  0.00000000000E+00 0. -1.
         -3   -1    0    0    0  501 -0.00000000000E+00 -0.00000000000E+00 -0.18340102777E+03  0.18340102777E+03  0.00000000000E+00 0.  1.
         23    2    1    2    0    0  0.18650001034E+03  0.22780687280E+03  0.23643468389E+03  0.38805904487E+03  0.89499929661E+02 0.  0.
         13    1    3    3    0    0  0.10403343383E+03  0.96763138547E+02  0.62568926305E+02  0.15524474508E+03  0.00000000000E+00 0.  1.
        -13    1    3    3    0    0  0.82466576518E+02  0.13104373425E+03  0.17386575758E+03  0.23281429979E+03  0.00000000000E+00 0. -1.
         22    1    1    2    0    0 -0.18650001034E+03 -0.22780687280E+03  0.93821957256E+02  0.30899965180E+03  0.00000000000E+00 0. -1.
<mgrwt>
<rscale>  0 0.61385778E+03</rscale>
<asrwt>0</asrwt>
<pdfrwt beam="1">  1        3 0.79024256E-01 0.61385778E+03</pdfrwt>
<pdfrwt beam="2">  1       -3 0.28215543E-01 0.61385778E+03</pdfrwt>
<totfact> 0.47901009E+01</totfact>
</mgrwt>
</event>
<event>
 6    1  0.1637818E-005  0.3548298E+04  0.7818608E-02  0.8102438E-01
          2   -1    0    0  501    0  0.00000000000E+00  0.00000000000E+00  0.32571606998E+04  0.32571606998E+04  0.00000000000E+00 0. -1.
         -2   -1    0    0    0  501 -0.00000000000E+00 -0.00000000000E+00 -0.96636469193E+03  0.96636469193E+03  0.00000000000E+00 0.  1.
         23    2    1    2    0    0 -0.88827704073E+03  0.34681062561E+03 -0.63289659495E+03  0.11482543229E+04  0.92823375377E+02 0.  0.
         11    1    3    3    0    0 -0.41329838030E+03  0.19645276941E+03 -0.34249074367E+03  0.57158477172E+03  0.00000000000E+00 0.  1.
        -11    1    3    3    0    0 -0.47497866044E+03  0.15035785619E+03 -0.29040585127E+03  0.57666955117E+03  0.00000000000E+00 0. -1.
         22    1    1    2    0    0  0.88827704073E+03 -0.34681062561E+03  0.29236926028E+04  0.30752710688E+04  0.00000000000E+00 0. -1.
<mgrwt>
<rscale>  0 0.35482982E+04</rscale>
<asrwt>0</asrwt>
<pdfrwt beam="1">  1        2 0.50110164E+00 0.35482982E+04</pdfrwt>
<pdfrwt beam="2">  1       -2 0.14867149E+00 0.35482982E+04</pdfrwt>
<totfact> 0.29826971E-01</totfact>
</mgrwt>
</event>
<event>
 6    1  0.2262196E-005  0.2900963E+04  0.7818608E-02  0.8272591E-01
         -2   -1    0    0    0  501 -0.00000000000E+00  0.00000000000E+00  0.16169616608E+04  0.16169616608E+04  0.00000000000E+00 0.  1.
          2   -1    0    0  501    0  0.00000000000E+00 -0.00000000000E+00 -0.13011421316E+04  0.13011421316E+04  0.00000000000E+00 0. -1.
         23    2    1    2    0    0  0.13163453788E+03 -0.34961195341E+03 -0.12503687856E+04  0.13079789504E+04  0.88491044845E+02 0.  0.
         13    1    3    3    0    0  0.59483603294E+02 -0.23675390537E+03 -0.69291923044E+03  0.73466167089E+03  0.00000000000E+00 0.  1.
        -13    1    3    3    0    0  0.72150934590E+02 -0.11285804804E+03 -0.55744955521E+03  0.57331727950E+03  0.00000000000E+00 0. -1.
         22    1    1    2    0    0 -0.13163453788E+03  0.34961195341E+03  0.15661883148E+04  0.16101248420E+04  0.00000000000E+00 0.  1.
<mgrwt>
<rscale>  0 0.29009632E+04</rscale>
<asrwt>0</asrwt>
<pdfrwt beam="1">  1        2 0.20017571E+00 0.29009632E+04</pdfrwt>
<pdfrwt beam="2">  1       -2 0.24876333E+00 0.29009632E+04</pdfrwt>
<totfact> 0.93158277E-01</totfact>
</mgrwt>
</event>
<event>
 6    1  0.1637818E-005  0.4743386E+04  0.7818608E-02  0.7869360E-01
         -2   -1    0    0    0  501 -0.00000000000E+00  0.00000000000E+00  0.23550577846E+04  0.23550577846E+04  0.00000000000E+00 0.  1.
          2   -1    0    0  501    0  0.00000000000E+00 -0.00000000000E+00 -0.23884452227E+04  0.23884452227E+04  0.00000000000E+00 0. -1.
         23    2    1    2    0    0  0.13297137036E+04  0.46764847540E+03  0.18894992580E+04  0.23593203642E+04  0.96703178759E+02 0.  0.
         11    1    3    3    0    0  0.78646328151E+03  0.29448792996E+03  0.11987360843E+04  0.14636310443E+04  0.00000000000E+00 0.  1.
        -11    1    3    3    0    0  0.54325042213E+03  0.17316054544E+03  0.69076317369E+03  0.89568931989E+03  0.00000000000E+00 0. -1.
         22    1    1    2    0    0 -0.13297137036E+04 -0.46764847540E+03 -0.19228866961E+04  0.23841826432E+04  0.00000000000E+00 0. -1.
<mgrwt>
<rscale>  0 0.47433855E+04</rscale>
<asrwt>0</asrwt>
<pdfrwt beam="1">  1        2 0.36745311E+00 0.47433855E+04</pdfrwt>
<pdfrwt beam="2">  1       -2 0.36231658E+00 0.47433855E+04</pdfrwt>
<totfact> 0.38989259E-02</totfact>
</mgrwt>
</event>
<event>
 6    1  0.1637818E-005  0.2177882E+04  0.7818608E-02  0.8527691E-01
         -2   -1    0    0    0  501 -0.00000000000E+00  0.00000000000E+00  0.54158329164E+03  0.54158329164E+03  0.00000000000E+00 0. -1.
          2   -1    0    0  501    0  0.00000000000E+00 -0.00000000000E+00 -0.21894932824E+04  0.21894932824E+04  0.00000000000E+00 0.  1.
         23    2    1    2    0    0  0.38826585993E+03  0.34009766817E+03  0.37467135073E+03  0.64367338231E+03  0.86717934452E+02 0.  0.
         13    1    3    3    0    0  0.26032527063E+03  0.17390663245E+03  0.23920733809E+03  0.39399608365E+03  0.00000000000E+00 0. -1.
        -13    1    3    3    0    0  0.12794058930E+03  0.16619103572E+03  0.13546401264E+03  0.24967729866E+03  0.00000000000E+00 0.  1.
         22    1    1    2    0    0 -0.38826585993E+03 -0.34009766817E+03 -0.20225813415E+04  0.20874031917E+04  0.00000000000E+00 0.  1.
<mgrwt>
<rscale>  0 0.21778824E+04</rscale>
<asrwt>0</asrwt>
<pdfrwt beam="1">  1        2 0.33684512E+00 0.21778824E+04</pdfrwt>
<pdfrwt beam="2">  1       -2 0.83320506E-01 0.21778824E+04</pdfrwt>
<totfact> 0.60430685E+00</totfact>
</mgrwt>
</event>
<event>
 6    1  0.1637818E-005  0.2044316E+04  0.7818608E-02  0.8586177E-01
         -2   -1    0    0    0  501 -0.00000000000E+00  0.00000000000E+00  0.59471542235E+03  0.59471542235E+03  0.00000000000E+00 0.  1.
          2   -1    0    0  501    0  0.00000000000E+00 -0.00000000000E+00 -0.17568191249E+04  0.17568191249E+04  0.00000000000E+00 0. -1.
         23    2    1    2    0    0 -0.63127898494E+03  0.65125033813E+03 -0.45199958859E+02  0.91274542703E+03  0.91766107842E+02 0.  0.
         11    1    3    3    0    0 -0.43623218852E+03  0.45351094073E+03  0.11047270556E+02  0.62935898964E+03  0.00000000000E+00 0.  1.
        -11    1    3    3    0    0 -0.19504679642E+03  0.19773939740E+03 -0.56247229415E+02  0.28338643739E+03  0.00000000000E+00 0. -1.
         22    1    1    2    0    0  0.63127898494E+03 -0.65125033813E+03 -0.11169037437E+04  0.14387891202E+04  0.00000000000E+00 0.  1.
<mgrwt>
<rscale>  0 0.20443164E+04</rscale>
<asrwt>0</asrwt>
<pdfrwt beam="1">  1        2 0.27027986E+00 0.20443164E+04</pdfrwt>
<pdfrwt beam="2">  1       -2 0.91494684E-01 0.20443164E+04</pdfrwt>
<totfact> 0.85872715E+00</totfact>
</mgrwt>
</event>
<event>
 6    1  0.1637818E-005  0.2058600E+04  0.7818608E-02  0.8579703E-01
          2   -1    0    0  501    0  0.00000000000E+00  0.00000000000E+00  0.79530898716E+03  0.79530898716E+03  0.00000000000E+00 0. -1.
         -2   -1    0    0    0  501 -0.00000000000E+00 -0.00000000000E+00 -0.13321344734E+04  0.13321344734E+04  0.00000000000E+00 0.  1.
         23    2    1    2    0    0  0.40063722664E+02 -0.93450933823E+03  0.16993115542E+03  0.95508781671E+03  0.91669705721E+02 0.  0.
         11    1    3    3    0    0 -0.64021355400E+01 -0.40216699040E+03  0.11243391700E+03  0.41763699692E+03  0.00000000000E+00 0.  1.
        -11    1    3    3    0    0  0.46465858204E+02 -0.53234234783E+03  0.57497238418E+02  0.53745081979E+03  0.00000000000E+00 0. -1.
         22    1    1    2    0    0 -0.40063722664E+02  0.93450933823E+03 -0.70675664163E+03  0.11723556438E+04  0.00000000000E+00 0.  1.
<mgrwt>
<rscale>  0 0.20586000E+04</rscale>
<asrwt>0</asrwt>
<pdfrwt beam="1">  1        2 0.12235523E+00 0.20586000E+04</pdfrwt>
<pdfrwt beam="2">  1       -2 0.20494376E+00 0.20586000E+04</pdfrwt>
<totfact> 0.39613866E+00</totfact>
</mgrwt>
</event>
<event>
 6    1  0.1637818E-005  0.2867410E+04  0.7818608E-02  0.8282641E-01
         -2   -1    0    0    0  501 -0.00000000000E+00  0.00000000000E+00  0.63588143766E+03  0.63588143766E+03  0.00000000000E+00 0.  1.
          2   -1    0    0  501    0  0.00000000000E+00 -0.00000000000E+00 -0.32325365054E+04  0.32325365054E+04  0.00000000000E+00 0. -1.
         23    2    1    2    0    0  0.83459303402E+03 -0.51160034460E+03  0.11091229407E+03  0.98932060817E+03  0.90406215085E+02 0.  0.
         11    1    3    3    0    0  0.34681072259E+03 -0.26412110530E+03  0.39802676484E+02  0.43774637477E+03  0.00000000000E+00 0. -1.
        -11    1    3    3    0    0  0.48778231143E+03 -0.24747923930E+03  0.71109617590E+02  0.55157423339E+03  0.00000000000E+00 0.  1.
         22    1    1    2    0    0 -0.83459303402E+03  0.51160034460E+03 -0.27075673618E+04  0.28790973349E+04  0.00000000000E+00 0. -1.
<mgrwt>
<rscale>  0 0.28674100E+04</rscale>
<asrwt>0</asrwt>
<pdfrwt beam="1">  1        2 0.49731332E+00 0.28674100E+04</pdfrwt>
<pdfrwt beam="2">  1       -2 0.97827911E-01 0.28674100E+04</pdfrwt>
<totfact> 0.92904381E-01</totfact>
</mgrwt>
</event>
<event>
 6    1  0.1637818E-005  0.7797672E+03  0.7818608E-02  0.9589774E-01
          2   -1    0    0  501    0  0.00000000000E+00  0.00000000000E+00  0.50543438225E+03  0.50543438225E+03  0.00000000000E+00 0. -1.
         -2   -1    0    0    0  501 -0.00000000000E+00 -0.00000000000E+00 -0.30074967022E+03  0.30074967022E+03  0.00000000000E+00 0.  1.
         23    2    1    2    0    0 -0.21161288960E+03  0.16787564169E+03  0.38606106991E+03  0.48082328452E+03  0.95841719062E+02 0.  0.
         13    1    3    3    0    0 -0.69678337156E+02  0.55767098014E+02  0.21104699421E+03  0.22914160176E+03  0.00000000000E+00 0.  1.
        -13    1    3    3    0    0 -0.14193455245E+03  0.11210854368E+03  0.17501407570E+03  0.25168168276E+03  0.00000000000E+00 0. -1.
         22    1    1    2    0    0  0.21161288960E+03 -0.16787564169E+03 -0.18137635788E+03  0.32536076795E+03  0.00000000000E+00 0.  1.
<mgrwt>
<rscale>  0 0.77976721E+03</rscale>
<asrwt>0</asrwt>
<pdfrwt beam="1">  1        2 0.77759136E-01 0.77976721E+03</pdfrwt>
<pdfrwt beam="2">  1       -2 0.46269180E-01 0.77976721E+03</pdfrwt>
<totfact> 0.27127298E+02</totfact>
</mgrwt>
</event>
<event>
 6    1  0.1637818E-005  0.3029415E+04  0.7818608E-02  0.8235381E-01
          2   -1    0    0  501    0  0.00000000000E+00  0.00000000000E+00  0.19298787732E+04  0.19298787732E+04  0.00000000000E+00 0. -1.
         -2   -1    0    0    0  501 -0.00000000000E+00 -0.00000000000E+00 -0.11888512035E+04  0.11888512035E+04  0.00000000000E+00 0.  1.
         23    2    1    2    0    0  0.99858266514E+03 -0.10950138164E+04  0.55195715616E+02  0.14857609233E+04  0.90644122736E+02 0.  0.
         13    1    3    3    0    0  0.34484342621E+03 -0.44107217176E+03  0.32302309993E+02  0.56080753252E+03  0.00000000000E+00 0.  1.
        -13    1    3    3    0    0  0.65373923893E+03 -0.65394164466E+03  0.22893405623E+02  0.92495339081E+03  0.00000000000E+00 0. -1.
         22    1    1    2    0    0 -0.99858266514E+03  0.10950138164E+04  0.68583185413E+03  0.16329690534E+04  0.00000000000E+00 0. -1.
<mgrwt>
<rscale>  0 0.30294149E+04</rscale>
<asrwt>0</asrwt>
<pdfrwt beam="1">  1        2 0.29690443E+00 0.30294149E+04</pdfrwt>
<pdfrwt beam="2">  1       -2 0.18290018E+00 0.30294149E+04</pdfrwt>
<totfact> 0.10809873E+00</totfact>
</mgrwt>
</event>
<event>
 6    1  0.1637818E-005  0.3289228E+04  0.7818608E-02  0.8165642E-01
          2   -1    0    0  501    0  0.00000000000E+00  0.00000000000E+00  0.16434699440E+04  0.16434699440E+04  0.00000000000E+00 0. -1.
         -2   -1    0    0    0  501 -0.00000000000E+00 -0.00000000000E+00 -0.16457591884E+04  0.16457591884E+04  0.00000000000E+00 0.  1.
         23    2    1    2    0    0 -0.99957822659E+03 -0.19484326831E+03  0.12885468252E+04  0.16450338007E+04  0.93073919200E+02 0.  0.
         11    1    3    3    0    0 -0.70273399310E+03 -0.93284706717E+02  0.89387522185E+03  0.11408549486E+04  0.00000000000E+00 0.  1.
        -11    1    3    3    0    0 -0.29684423350E+03 -0.10155856159E+03  0.39467160335E+03  0.50417885208E+03  0.00000000000E+00 0. -1.
         22    1    1    2    0    0  0.99957822659E+03  0.19484326831E+03 -0.12908360696E+04  0.16441953317E+04  0.00000000000E+00 0.  1.
<mgrwt>
<rscale>  0 0.32892283E+04</rscale>
<asrwt>0</asrwt>
<pdfrwt beam="1">  1        2 0.25284153E+00 0.32892283E+04</pdfrwt>
<pdfrwt beam="2">  1       -2 0.25319372E+00 0.32892283E+04</pdfrwt>
<totfact> 0.54143632E-01</totfact>
</mgrwt>
</event>
<event>
 6    1  0.1637818E-005  0.1975892E+04  0.7818608E-02  0.8617976E-01
         -2   -1    0    0    0  501 -0.00000000000E+00  0.00000000000E+00  0.61179276678E+03  0.61179276678E+03  0.00000000000E+00 0.  1.
          2   -1    0    0  501    0  0.00000000000E+00 -0.00000000000E+00 -0.15953724340E+04  0.15953724340E+04  0.00000000000E+00 0. -1.
         23    2    1    2    0    0  0.97927922020E+03  0.73841979297E+02 -0.39544691152E+03  0.10624641187E+04  0.89505947212E+02 0.  0.
         13    1    3    3    0    0  0.56813379706E+03  0.87087155786E+02 -0.23133320480E+03  0.61957665846E+03  0.00000000000E+00 0. -1.
        -13    1    3    3    0    0  0.41114542314E+03 -0.13245176489E+02 -0.16411370672E+03  0.44288746020E+03  0.00000000000E+00 0.  1.
         22    1    1    2    0    0 -0.97927922020E+03 -0.73841979297E+02 -0.58813275566E+03  0.11447010821E+04  0.00000000000E+00 0. -1.
<mgrwt>
<rscale>  0 0.19758920E+04</rscale>
<asrwt>0</asrwt>
<pdfrwt beam="1">  1        2 0.24544192E+00 0.19758920E+04</pdfrwt>
<pdfrwt beam="2">  1       -2 0.94121963E-01 0.19758920E+04</pdfrwt>
<totfact> 0.99470237E+00</totfact>
</mgrwt>
</event>
<event>
 6    1  0.1637818E-005  0.1709789E+04  0.7818608E-02  0.8755801E-01
          2   -1    0    0  501    0  0.00000000000E+00  0.00000000000E+00  0.66491609650E+03  0.66491609650E+03  0.00000000000E+00 0. -1.
         -2   -1    0    0    0  501 -0.00000000000E+00 -0.00000000000E+00 -0.10991531255E+04  0.10991531255E+04  0.00000000000E+00 0.  1.
         23    2    1    2    0    0  0.43904399076E+03 -0.69667021314E+03 -0.44508936514E+03  0.94052396826E+03  0.91497432856E+02 0.  0.
         13    1    3    3    0    0  0.24829881920E+03 -0.30828401740E+03 -0.21199355006E+03  0.44903519269E+03  0.00000000000E+00 0. -1.
        -13    1    3    3    0    0  0.19074517156E+03 -0.38838619573E+03 -0.23309581508E+03  0.49148877557E+03  0.00000000000E+00 0.  1.
         22    1    1    2    0    0 -0.43904399076E+03  0.69667021314E+03  0.10852336181E+02  0.82354525370E+03  0.00000000000E+00 0. -1.
<mgrwt>
<rscale>  0 0.17097890E+04</rscale>
<asrwt>0</asrwt>
<pdfrwt beam="1">  1        2 0.10229478E+00 0.17097890E+04</pdfrwt>
<pdfrwt beam="2">  1       -2 0.16910048E+00 0.17097890E+04</pdfrwt>
<totfact> 0.89831633E+00</totfact>
</mgrwt>
</event>
<event>
 6    1  0.1637818E-005  0.1994620E+04  0.7818608E-02  0.8609140E-01
          1   -1    0    0  501    0  0.00000000000E+00  0.00000000000E+00  0.15413259487E+04  0.15413259487E+04  0.00000000000E+00 0. -1.
         -1   -1    0    0    0  501 -0.00000000000E+00 -0.00000000000E+00 -0.64530647997E+03  0.64530647997E+03  0.00000000000E+00 0.  1.
         23    2    1    2    0    0 -0.17782986206E+03 -0.45848486616E+03  0.13975042295E+04  0.14842658594E+04  0.90527551336E+02 0.  0.
         13    1    3    3    0    0 -0.16582574923E+03 -0.32937764808E+03  0.10838744479E+04  0.11448893540E+04  0.00000000000E+00 0. -1.
        -13    1    3    3    0    0 -0.12004112827E+02 -0.12910721808E+03  0.31362978160E+03  0.33937650536E+03  0.00000000000E+00 0.  1.
         22    1    1    2    0    0  0.17782986206E+03  0.45848486616E+03 -0.50148476077E+03  0.70236656927E+03  0.00000000000E+00 0.  1.
<mgrwt>
<rscale>  0 0.19946204E+04</rscale>
<asrwt>0</asrwt>
<pdfrwt beam="1">  1        1 0.23712707E+00 0.19946204E+04</pdfrwt>
<pdfrwt beam="2">  1       -1 0.99277920E-01 0.19946204E+04</pdfrwt>
<totfact> 0.55078567E+00</totfact>
</mgrwt>
</event>
<event>
 6    1  0.1637818E-005  0.1575975E+04  0.7818608E-02  0.8835445E-01
          2   -1    0    0  501    0  0.00000000000E+00  0.00000000000E+00  0.13786158050E+04  0.13786158050E+04  0.00000000000E+00 0.  1.
         -2   -1    0    0    0  501 -0.00000000000E+00 -0.00000000000E+00 -0.45039691693E+03  0.45039691693E+03  0.00000000000E+00 0. -1.
         23    2    1    2    0    0  0.11405346575E+03  0.74068177225E+03  0.19252646762E+03  0.77884082253E+03  0.88932026400E+02 0.  0.
         13    1    3    3    0    0  0.10618037788E+03  0.70042366133E+03  0.20215546953E+03  0.73670510508E+03  0.00000000000E+00 0. -1.
        -13    1    3    3    0    0  0.78730878697E+01  0.40258110917E+02 -0.96290019043E+01  0.42135717449E+02  0.00000000000E+00 0.  1.
         22    1    1    2    0    0 -0.11405346575E+03 -0.74068177225E+03  0.73569242046E+03  0.10501718994E+04  0.00000000000E+00 0. -1.
<mgrwt>
<rscale>  0 0.15759750E+04</rscale>
<asrwt>0</asrwt>
<pdfrwt beam="1">  1        2 0.21209474E+00 0.15759750E+04</pdfrwt>
<pdfrwt beam="2">  1       -2 0.69291834E-01 0.15759750E+04</pdfrwt>
<totfact> 0.27179500E+01</totfact>
</mgrwt>
</event>
<event>
 6    1  0.1637818E-005  0.2358164E+04  0.7818608E-02  0.8455334E-01
         -2   -1    0    0    0  501 -0.00000000000E+00  0.00000000000E+00  0.76804875389E+03  0.76804875389E+03  0.00000000000E+00 0.  1.
          2   -1    0    0  501    0  0.00000000000E+00 -0.00000000000E+00 -0.18100861537E+04  0.18100861537E+04  0.00000000000E+00 0. -1.
         23    2    1    2    0    0  0.62284738476E+03  0.75984662490E+03  0.18732811936E+03  0.10043987995E+04  0.91757104041E+02 0.  0.
         13    1    3    3    0    0  0.37671039505E+03  0.39863080342E+03  0.79593934109E+02  0.55421334657E+03  0.00000000000E+00 0.  1.
        -13    1    3    3    0    0  0.24613698971E+03  0.36121582148E+03  0.10773418526E+03  0.45018545297E+03  0.00000000000E+00 0. -1.
         22    1    1    2    0    0 -0.62284738476E+03 -0.75984662490E+03 -0.12293655192E+04  0.15737361080E+04  0.00000000000E+00 0. -1.
<mgrwt>
<rscale>  0 0.23581640E+04</rscale>
<asrwt>0</asrwt>
<pdfrwt beam="1">  1        2 0.27847479E+00 0.23581640E+04</pdfrwt>
<pdfrwt beam="2">  1       -2 0.11816135E+00 0.23581640E+04</pdfrwt>
<totfact> 0.42410437E+00</totfact>
</mgrwt>
</event>
<event>
 6    1  0.1637818E-005  0.1008252E+04  0.7818608E-02  0.9299540E-01
          2   -1    0    0  501    0  0.00000000000E+00  0.00000000000E+00  0.52865305410E+03  0.52865305410E+03  0.00000000000E+00 0. -1.
         -2   -1    0    0    0  501 -0.00000000000E+00 -0.00000000000E+00 -0.48073723296E+03  0.48073723296E+03  0.00000000000E+00 0.  1.
         23    2    1    2    0    0  0.33667605922E+03 -0.12553753374E+03  0.37213437044E+03  0.52541910101E+03  0.92036953530E+02 0.  0.
         11    1    3    3    0    0  0.24751061860E+03 -0.70348120476E+02  0.20904937787E+03  0.33152979769E+03  0.00000000000E+00 0.  1.
        -11    1    3    3    0    0  0.89165440619E+02 -0.55189413260E+02  0.16308499257E+03  0.19388930331E+03  0.00000000000E+00 0. -1.
         22    1    1    2    0    0 -0.33667605922E+03  0.12553753374E+03 -0.32421854930E+03  0.48397118606E+03  0.00000000000E+00 0.  1.
<mgrwt>
<rscale>  0 0.10082524E+04</rscale>
<asrwt>0</asrwt>
<pdfrwt beam="1">  1        2 0.81331239E-01 0.10082524E+04</pdfrwt>
<pdfrwt beam="2">  1       -2 0.73959574E-01 0.10082524E+04</pdfrwt>
<totfact> 0.94895170E+01</totfact>
</mgrwt>
</event>
<event>
 6    1  0.1637818E-005  0.1375526E+04  0.7818608E-02  0.8971727E-01
          1   -1    0    0  501    0  0.00000000000E+00  0.00000000000E+00  0.70320558789E+03  0.70320558789E+03  0.00000000000E+00 0. -1.
         -1   -1    0    0    0  501 -0.00000000000E+00 -0.00000000000E+00 -0.67265955358E+03  0.67265955358E+03  0.00000000000E+00 0.  1.
         23    2    1    2    0    0 -0.18150945001E+03 -0.25413011518E+03  0.62419476723E+03  0.70508454100E+03  0.99986532226E+02 0.  0.
         13    1    3    3    0    0 -0.13470251391E+03 -0.23390985976E+03  0.46209097802E+03  0.53515106439E+03  0.00000000000E+00 0.  1.
        -13    1    3    3    0    0 -0.46806936098E+02 -0.20220255427E+02  0.16210378921E+03  0.16993347661E+03  0.00000000000E+00 0. -1.
         22    1    1    2    0    0  0.18150945001E+03  0.25413011518E+03 -0.59364873292E+03  0.67078060048E+03  0.00000000000E+00 0.  1.
<mgrwt>
<rscale>  0 0.13755260E+04</rscale>
<asrwt>0</asrwt>
<pdfrwt beam="1">  1        1 0.10818547E+00 0.13755260E+04</pdfrwt>
<pdfrwt beam="2">  1       -1 0.10348609E+00 0.13755260E+04</pdfrwt>
<totfact> 0.23285891E+01</totfact>
</mgrwt>
</event>
<event>
 6    1  0.1637818E-005  0.6493046E+04  0.7818608E-02  0.7632105E-01
         -1   -1    0    0    0  501 -0.00000000000E+00  0.00000000000E+00  0.32470862992E+04  0.32470862992E+04  0.00000000000E+00 0.  1.
          1   -1    0    0  501    0  0.00000000000E+00 -0.00000000000E+00 -0.32459595760E+04  0.32459595760E+04  0.00000000000E+00 0. -1.
         23    2    1    2    0    0  0.45031399091E+03 -0.23059648753E+04 -0.22387357423E+04  0.32469342688E+04  0.10192019104E+03 0.  0.
         11    1    3    3    0    0  0.18548667069E+03 -0.90729296941E+03 -0.81496552095E+03  0.12335941949E+04  0.00000000000E+00 0. -1.
        -11    1    3    3    0    0  0.26482732023E+03 -0.13986719058E+04 -0.14237702214E+04  0.20133400739E+04  0.00000000000E+00 0.  1.
         22    1    1    2    0    0 -0.45031399091E+03  0.23059648753E+04  0.22398624656E+04  0.32461116064E+04  0.00000000000E+00 0.  1.
<mgrwt>
<rscale>  0 0.64930458E+04</rscale>
<asrwt>0</asrwt>
<pdfrwt beam="1">  1        1 0.49937839E+00 0.64930458E+04</pdfrwt>
<pdfrwt beam="2">  1       -1 0.49955174E+00 0.64930458E+04</pdfrwt>
<totfact> 0.38328039E-04</totfact>
</mgrwt>
</event>
<event>
 6    1  0.1637818E-005  0.9036779E+03  0.7818608E-02  0.9420995E-01
          2   -1    0    0  501    0  0.00000000000E+00  0.00000000000E+00  0.32573793420E+03  0.32573793420E+03  0.00000000000E+00 0. -1.
         -2   -1    0    0    0  501 -0.00000000000E+00 -0.00000000000E+00 -0.62675678028E+03  0.62675678028E+03  0.00000000000E+00 0.  1.
         23    2    1    2    0    0  0.14472801856E+03  0.35397581408E+03 -0.39660268124E+03  0.55831030858E+03  0.90397110531E+02 0.  0.
         11    1    3    3    0    0  0.53959441623E+02  0.43828898132E+02 -0.78527518076E+02  0.10487690283E+03  0.00000000000E+00 0.  1.
        -11    1    3    3    0    0  0.90768576933E+02  0.31014691595E+03 -0.31807516316E+03  0.45343340575E+03  0.00000000000E+00 0. -1.
         22    1    1    2    0    0 -0.14472801856E+03 -0.35397581408E+03  0.95583835160E+02  0.39418440590E+03  0.00000000000E+00 0. -1.
<mgrwt>
<rscale>  0 0.90367795E+03</rscale>
<asrwt>0</asrwt>
<pdfrwt beam="1">  1        2 0.50113529E-01 0.90367795E+03</pdfrwt>
<pdfrwt beam="2">  1       -2 0.96424119E-01 0.90367795E+03</pdfrwt>
<totfact> 0.90441398E+01</totfact>
</mgrwt>
</event>
<event>
 6    1  0.1637818E-005  0.1629312E+04  0.7818608E-02  0.8802740E-01
         -1   -1    0    0    0  501 -0.00000000000E+00  0.00000000000E+00  0.50082974249E+03  0.50082974249E+03  0.00000000000E+00 0.  1.
          1   -1    0    0  501    0  0.00000000000E+00 -0.00000000000E+00 -0.13251301035E+04  0.13251301035E+04  0.00000000000E+00 0. -1.
         23    2    1    2    0    0 -0.66982122229E+03  0.19903839224E+03  0.51488679012E+02  0.70556563233E+03  0.83036293522E+02 0.  0.
         11    1    3    3    0    0 -0.51010917556E+03  0.17786120761E+03  0.15315647368E+02  0.54044476981E+03  0.00000000000E+00 0.  1.
        -11    1    3    3    0    0 -0.15971204673E+03  0.21177184622E+02  0.36173031644E+02  0.16512086252E+03  0.00000000000E+00 0. -1.
         22    1    1    2    0    0  0.66982122229E+03 -0.19903839224E+03 -0.87578904007E+03  0.11203942137E+04  0.00000000000E+00 0. -1.
<mgrwt>
<rscale>  0 0.16293122E+04</rscale>
<asrwt>0</asrwt>
<pdfrwt beam="1">  1        1 0.20386617E+00 0.16293122E+04</pdfrwt>
<pdfrwt beam="2">  1       -1 0.77050730E-01 0.16293122E+04</pdfrwt>
<totfact> 0.14035461E+01</totfact>
</mgrwt>
</event>
<event>
 6    1  0.1637818E-005  0.2063582E+04  0.7818608E-02  0.8577458E-01
          2   -1    0    0  501    0  0.00000000000E+00  0.00000000000E+00  0.69109158213E+03  0.69109158213E+03  0.00000000000E+00 0. -1.
         -2   -1    0    0    0  501 -0.00000000000E+00 -0.00000000000E+00 -0.15404507868E+04  0.15404507868E+04  0.00000000000E+00 0.  1.
         23    2    1    2    0    0  0.32350238184E+03 -0.93949017086E+03 -0.72224901108E+03  0.12298175697E+04  0.59262538110E+02 0.  0.
         11    1    3    3    0    0  0.83019306115E+02 -0.23994038054E+03 -0.21712792667E+03  0.33407802673E+03  0.00000000000E+00 0.  1.
        -11    1    3    3    0    0  0.24048307572E+03 -0.69954979032E+03 -0.50512108441E+03  0.89573954293E+03  0.00000000000E+00 0. -1.
         22    1    1    2    0    0 -0.32350238184E+03  0.93949017086E+03 -0.12711019361E+03  0.10017247993E+04  0.00000000000E+00 0. -1.
<mgrwt>
<rscale>  0 0.20635819E+04</rscale>
<asrwt>0</asrwt>
<pdfrwt beam="1">  1        2 0.10632178E+00 0.20635819E+04</pdfrwt>
<pdfrwt beam="2">  1       -2 0.23699243E+00 0.20635819E+04</pdfrwt>
<totfact> 0.29752626E+00</totfact>
</mgrwt>
</event>
<event>
 6    1  0.1637818E-005  0.3119032E+04  0.7818608E-02  0.8210534E-01
         -1   -1    0    0    0  501 -0.00000000000E+00  0.00000000000E+00  0.21668642503E+04  0.21668642503E+04  0.00000000000E+00 0.  1.
          1   -1    0    0  501    0  0.00000000000E+00 -0.00000000000E+00 -0.11224006012E+04  0.11224006012E+04  0.00000000000E+00 0. -1.
         23    2    1    2    0    0 -0.10025076083E+04 -0.48032639680E+03  0.16740844287E+04  0.20117057420E+04  0.93093318518E+02 0.  0.
         11    1    3    3    0    0 -0.17995696696E+03 -0.85321199279E+02  0.36818404611E+03  0.41859731105E+03  0.00000000000E+00 0.  1.
        -11    1    3    3    0    0 -0.82255064136E+03 -0.39500519752E+03  0.13059003826E+04  0.15931084310E+04  0.00000000000E+00 0. -1.
         22    1    1    2    0    0  0.10025076083E+04  0.48032639680E+03 -0.62962077958E+03  0.12775591095E+04  0.00000000000E+00 0. -1.
<mgrwt>
<rscale>  0 0.31190317E+04</rscale>
<asrwt>0</asrwt>
<pdfrwt beam="1">  1        1 0.17267702E+00 0.31190317E+04</pdfrwt>
<pdfrwt beam="2">  1       -1 0.33336373E+00 0.31190317E+04</pdfrwt>
<totfact> 0.20552951E-01</totfact>
</mgrwt>
</event>
<event>
 6    1  0.1637818E-005  0.1080594E+04  0.7818608E-02  0.9224315E-01
          2   -1    0    0  501    0  0.00000000000E+00  0.00000000000E+00  0.82683251312E+03  0.82683251312E+03  0.00000000000E+00 0. -1.
         -2   -1    0    0    0  501 -0.00000000000E+00 -0.00000000000E+00 -0.35305935810E+03  0.35305935810E+03  0.00000000000E+00 0.  1.
         23    2    1    2    0    0  0.87663957740E+02 -0.15701041426E+03 -0.31345701576E+03  0.37238423568E+03  0.89874793924E+02 0.  0.
         13    1    3    3    0    0 -0.71566275389E+00  0.34765030952E+01 -0.57518605803E+02  0.57628016280E+02  0.00000000000E+00 0.  1.
        -13    1    3    3    0    0  0.88379620494E+02 -0.16048691735E+03 -0.25593840995E+03  0.31475621940E+03  0.00000000000E+00 0. -1.
         22    1    1    2    0    0 -0.87663957740E+02  0.15701041426E+03  0.78723017078E+03  0.80750763554E+03  0.00000000000E+00 0. -1.
<mgrwt>
<rscale>  0 0.10805942E+04</rscale>
<asrwt>0</asrwt>
<pdfrwt beam="1">  1        2 0.12720500E+00 0.10805942E+04</pdfrwt>
<pdfrwt beam="2">  1       -2 0.54316825E-01 0.10805942E+04</pdfrwt>
<totfact> 0.10453399E+02</totfact>
</mgrwt>
</event>
<event>
 6    1  0.1637818E-005  0.3069763E+04  0.7818608E-02  0.8224085E-01
         -2   -1    0    0    0  501 -0.00000000000E+00  0.00000000000E+00  0.60399134447E+03  0.60399134447E+03  0.00000000000E+00 0.  1.
          2   -1    0    0  501    0  0.00000000000E+00 -0.00000000000E+00 -0.39004887372E+04  0.39004887372E+04  0.00000000000E+00 0. -1.
         23    2    1    2    0    0  0.63108838318E+03  0.10238166586E+04 -0.30457433414E+04  0.32759237370E+04  0.93009306456E+02 0.  0.
         11    1    3    3    0    0  0.50166565134E+03  0.82491588052E+03 -0.23400513720E+04  0.25314017972E+04  0.00000000000E+00 0.  1.
        -11    1    3    3    0    0  0.12942273183E+03  0.19890077811E+03 -0.70569196942E+03  0.74452193974E+03  0.00000000000E+00 0. -1.
         22    1    1    2    0    0 -0.63108838318E+03 -0.10238166586E+04 -0.25075405138E+03  0.12285563447E+04  0.00000000000E+00 0.  1.
<mgrwt>
<rscale>  0 0.30697631E+04</rscale>
<asrwt>0</asrwt>
<pdfrwt beam="1">  1        2 0.60007518E+00 0.30697631E+04</pdfrwt>
<pdfrwt beam="2">  1       -2 0.92921746E-01 0.30697631E+04</pdfrwt>
<totfact> 0.34270598E-01</totfact>
</mgrwt>
</event>
<event>
 6    1  0.1637818E-005  0.9004204E+03  0.7818608E-02  0.9425056E-01
         -2   -1    0    0    0  501 -0.00000000000E+00  0.00000000000E+00  0.27535881452E+03  0.27535881452E+03  0.00000000000E+00 0.  1.
          2   -1    0    0  501    0  0.00000000000E+00 -0.00000000000E+00 -0.73609121613E+03  0.73609121613E+03  0.00000000000E+00 0. -1.
         23    2    1    2    0    0  0.23893541257E+03  0.15626984046E+03 -0.61703659303E+03  0.68596363359E+03  0.91112869864E+02 0.  0.
         13    1    3    3    0    0  0.15523619112E+03  0.14928499706E+03 -0.45800068884E+03  0.50611156513E+03  0.00000000000E+00 0.  1.
        -13    1    3    3    0    0  0.83699221451E+02  0.69848434053E+01 -0.15903590418E+03  0.17985206846E+03  0.00000000000E+00 0. -1.
         22    1    1    2    0    0 -0.23893541257E+03 -0.15626984046E+03  0.15630419142E+03  0.32548639706E+03  0.00000000000E+00 0.  1.
<mgrwt>
<rscale>  0 0.90042036E+03</rscale>
<asrwt>0</asrwt>
<pdfrwt beam="1">  1        2 0.11324480E+00 0.90042036E+03</pdfrwt>
<pdfrwt beam="2">  1       -2 0.42362895E-01 0.90042036E+03</pdfrwt>
<totfact> 0.20344310E+02</totfact>
</mgrwt>
</event>
<event>
 6    1  0.1637818E-005  0.1726538E+04  0.7818608E-02  0.8746372E-01
          2   -1    0    0  501    0  0.00000000000E+00  0.00000000000E+00  0.37260979721E+03  0.37260979721E+03  0.00000000000E+00 0.  1.
         -2   -1    0    0    0  501 -0.00000000000E+00 -0.00000000000E+00 -0.20000364549E+04  0.20000364549E+04  0.00000000000E+00 0. -1.
         23    2    1    2    0    0 -0.67980576728E+03 -0.29951664816E+03 -0.14134658968E+04  0.15995839578E+04  0.94535140239E+02 0.  0.
         13    1    3    3    0    0 -0.54665879739E+03 -0.21109758534E+03 -0.10482926986E+04  0.12009644513E+04  0.00000000000E+00 0. -1.
        -13    1    3    3    0    0 -0.13314696990E+03 -0.88419062818E+02 -0.36517319817E+03  0.39861950645E+03  0.00000000000E+00 0.  1.
         22    1    1    2    0    0  0.67980576728E+03  0.29951664816E+03 -0.21396076088E+03  0.77306229436E+03  0.00000000000E+00 0. -1.
<mgrwt>
<rscale>  0 0.17265378E+04</rscale>
<asrwt>0</asrwt>
<pdfrwt beam="1">  1        2 0.57324585E-01 0.17265378E+04</pdfrwt>
<pdfrwt beam="2">  1       -2 0.30769791E+00 0.17265378E+04</pdfrwt>
<totfact> 0.23375833E+00</totfact>
</mgrwt>
</event>
<event>
 6    1  0.1637818E-005  0.2737157E+04  0.7818608E-02  0.8323048E-01
          2   -1    0    0  501    0  0.00000000000E+00  0.00000000000E+00  0.18346805616E+04  0.18346805616E+04  0.00000000000E+00 0.  1.
         -2   -1    0    0    0  501 -0.00000000000E+00 -0.00000000000E+00 -0.10208903039E+04  0.10208903039E+04  0.00000000000E+00 0. -1.
         23    2    1    2    0    0  0.12204393388E+04 -0.60710170352E+03  0.29768953547E+03  0.13980371220E+04  0.88566793102E+02 0.  0.
         11    1    3    3    0    0  0.22045204162E+03 -0.14776218267E+03  0.65895530103E+02  0.27345015299E+03  0.00000000000E+00 0. -1.
        -11    1    3    3    0    0  0.99998729716E+03 -0.45933952085E+03  0.23179400537E+03  0.11245869690E+04  0.00000000000E+00 0.  1.
         22    1    1    2    0    0 -0.12204393388E+04  0.60710170352E+03  0.51610072224E+03  0.14575337435E+04  0.00000000000E+00 0.  1.
<mgrwt>
<rscale>  0 0.27371574E+04</rscale>
<asrwt>0</asrwt>
<pdfrwt beam="1">  1        2 0.28225855E+00 0.27371574E+04</pdfrwt>
<pdfrwt beam="2">  1       -2 0.15706005E+00 0.27371574E+04</pdfrwt>
<totfact> 0.19128489E+00</totfact>
</mgrwt>
</event>
<event>
 6    1  0.1637818E-005  0.2162047E+04  0.7818608E-02  0.8534393E-01
          2   -1    0    0  501    0  0.00000000000E+00  0.00000000000E+00  0.99388689377E+03  0.99388689377E+03  0.00000000000E+00 0. -1.
         -2   -1    0    0    0  501 -0.00000000000E+00 -0.00000000000E+00 -0.11757991224E+04  0.11757991224E+04  0.00000000000E+00 0.  1.
         23    2    1    2    0    0 -0.34337250476E+03 -0.44349607665E+03  0.83259369908E+03  0.10104553556E+04  0.11495351627E+03 0.  0.
         13    1    3    3    0    0 -0.13016398646E+03 -0.17536134636E+03  0.22912008386E+03  0.31652847896E+03  0.00000000000E+00 0.  1.
        -13    1    3    3    0    0 -0.21320851830E+03 -0.26813473030E+03  0.60347361522E+03  0.69392687665E+03  0.00000000000E+00 0. -1.
         22    1    1    2    0    0  0.34337250476E+03  0.44349607665E+03 -0.10145059278E+04  0.11592306606E+04  0.00000000000E+00 0.  1.
<mgrwt>
<rscale>  0 0.21620466E+04</rscale>
<asrwt>0</asrwt>
<pdfrwt beam="1">  1        2 0.15290568E+00 0.21620466E+04</pdfrwt>
<pdfrwt beam="2">  1       -2 0.18089217E+00 0.21620466E+04</pdfrwt>
<totfact> 0.41654961E+00</totfact>
</mgrwt>
</event>
<event>
 6    1  0.1637818E-005  0.3607707E+03  0.7818608E-02  0.1058279E+00
          2   -1    0    0  501    0  0.00000000000E+00  0.00000000000E+00  0.14157181405E+03  0.14157181405E+03  0.00000000000E+00 0. -1.
         -2   -1    0    0    0  501 -0.00000000000E+00 -0.00000000000E+00 -0.22984007314E+03  0.22984007314E+03  0.00000000000E+00 0.  1.
         23    2    1    2    0    0  0.75402188130E+02 -0.13878491114E+03  0.15939392842E+02  0.18218721581E+03  0.89394495499E+02 0.  0.
         13    1    3    3    0    0  0.16350162424E+02 -0.11753297367E+03  0.12726774915E+02  0.11934529111E+03  0.00000000000E+00 0.  1.
        -13    1    3    3    0    0  0.59052025705E+02 -0.21251937477E+02  0.32126179274E+01  0.62841924703E+02  0.00000000000E+00 0. -1.
         22    1    1    2    0    0 -0.75402188130E+02  0.13878491114E+03 -0.10420765194E+03  0.18922467138E+03  0.00000000000E+00 0.  1.
<mgrwt>
<rscale>  0 0.36077071E+03</rscale>
<asrwt>0</asrwt>
<pdfrwt beam="1">  1        2 0.21780279E-01 0.36077071E+03</pdfrwt>
<pdfrwt beam="2">  1       -2 0.35360011E-01 0.36077071E+03</pdfrwt>
<totfact> 0.19067732E+03</totfact>
</mgrwt>
</event>
<event>
 6    1  0.1637818E-005  0.1348319E+04  0.7818608E-02  0.8992102E-01
          1   -1    0    0  501    0  0.00000000000E+00  0.00000000000E+00  0.57050726564E+03  0.57050726564E+03  0.00000000000E+00 0. -1.
         -1   -1    0    0    0  501 -0.00000000000E+00 -0.00000000000E+00 -0.79664314695E+03  0.79664314695E+03  0.00000000000E+00 0.  1.
         23    2    1    2    0    0  0.30694254565E+03  0.42292762332E+03  0.31256036961E+03  0.61663382274E+03  0.97271711211E+02 0.  0.
         13    1    3    3    0    0  0.60442050805E+02  0.11771425190E+03  0.37642671497E+02  0.13757491531E+03  0.00000000000E+00 0.  1.
        -13    1    3    3    0    0  0.24650049484E+03  0.30521337142E+03  0.27491769811E+03  0.47905890743E+03  0.00000000000E+00 0. -1.
         22    1    1    2    0    0 -0.30694254565E+03 -0.42292762332E+03 -0.53869625092E+03  0.75051658985E+03  0.00000000000E+00 0.  1.
<mgrwt>
<rscale>  0 0.13483185E+04</rscale>
<asrwt>0</asrwt>
<pdfrwt beam="1">  1        1 0.87770348E-01 0.13483185E+04</pdfrwt>
<pdfrwt beam="2">  1       -1 0.12256048E+00 0.13483185E+04</pdfrwt>
<totfact> 0.21193131E+01</totfact>
</mgrwt>
</event>
<event>
 6    1  0.1637818E-005  0.1576280E+04  0.7818608E-02  0.8835254E-01
          1   -1    0    0  501    0  0.00000000000E+00  0.00000000000E+00  0.87397877976E+03  0.87397877976E+03  0.00000000000E+00 0. -1.
         -1   -1    0    0    0  501 -0.00000000000E+00 -0.00000000000E+00 -0.71073229808E+03  0.71073229808E+03  0.00000000000E+00 0.  1.
         23    2    1    2    0    0 -0.37453080783E+03 -0.47016669021E+03 -0.42642296840E+03  0.74266588727E+03  0.91575267099E+02 0.  0.
         13    1    3    3    0    0 -0.46545717271E+02 -0.59807876201E+02 -0.95017588945E+02  0.12153940950E+03  0.00000000000E+00 0.  1.
        -13    1    3    3    0    0 -0.32798509056E+03 -0.41035881401E+03 -0.33140537946E+03  0.62112647778E+03  0.00000000000E+00 0. -1.
         22    1    1    2    0    0  0.37453080783E+03  0.47016669021E+03  0.58966945008E+03  0.84204519056E+03  0.00000000000E+00 0. -1.
<mgrwt>
<rscale>  0 0.15762804E+04</rscale>
<asrwt>0</asrwt>
<pdfrwt beam="1">  1        1 0.13445827E+00 0.15762804E+04</pdfrwt>
<pdfrwt beam="2">  1       -1 0.10934343E+00 0.15762804E+04</pdfrwt>
<totfact> 0.14233801E+01</totfact>
</mgrwt>
</event>
<event>
 6    1  0.1637818E-005  0.3437166E+04  0.7818608E-02  0.8128844E-01
         -2   -1    0    0    0  501 -0.00000000000E+00  0.00000000000E+00  0.15551425112E+04  0.15551425112E+04  0.00000000000E+00 0.  1.
          2   -1    0    0  501    0  0.00000000000E+00 -0.00000000000E+00 -0.18992003850E+04  0.18992003850E+04  0.00000000000E+00 0. -1.
         23    2    1    2    0    0  0.64969624642E+03  0.26136054451E+03 -0.17481171651E+04  0.18853314112E+04  0.90257190880E+02 0.  0.
         13    1    3    3    0    0  0.14708942688E+03  0.93906493582E+02 -0.49371228177E+03  0.52364639424E+03  0.00000000000E+00 0. -1.
        -13    1    3    3    0    0  0.50260681954E+03  0.16745405093E+03 -0.12544048833E+04  0.13616850170E+04  0.00000000000E+00 0.  1.
         22    1    1    2    0    0 -0.64969624642E+03 -0.26136054451E+03  0.14040592912E+04  0.15690114850E+04  0.00000000000E+00 0.  1.
<mgrwt>
<rscale>  0 0.34371658E+04</rscale>
<asrwt>0</asrwt>
<pdfrwt beam="1">  1        2 0.29218467E+00 0.34371658E+04</pdfrwt>
<pdfrwt beam="2">  1       -2 0.23925270E+00 0.34371658E+04</pdfrwt>
<totfact> 0.47006967E-01</totfact>
</mgrwt>
</event>
<event>
 6    1  0.1637818E-005  0.1272546E+04  0.7818608E-02  0.9051624E-01
         -2   -1    0    0    0  501 -0.00000000000E+00  0.00000000000E+00  0.23025101906E+03  0.23025101906E+03  0.00000000000E+00 0.  1.
          2   -1    0    0  501    0  0.00000000000E+00 -0.00000000000E+00 -0.17582698145E+04  0.17582698145E+04  0.00000000000E+00 0. -1.
         23    2    1    2    0    0  0.61773878203E+03 -0.13286929380E+03 -0.82972584167E+03  0.10467838738E+04  0.89755524112E+02 0.  0.
         11    1    3    3    0    0  0.47234144569E+03 -0.61783018475E+02 -0.61961215105E+03  0.78156432903E+03  0.00000000000E+00 0. -1.
        -11    1    3    3    0    0  0.14539733633E+03 -0.71086275321E+02 -0.21011369062E+03  0.26521954479E+03  0.00000000000E+00 0.  1.
         22    1    1    2    0    0 -0.61773878203E+03  0.13286929380E+03 -0.69829295377E+03  0.94173695974E+03  0.00000000000E+00 0. -1.
<mgrwt>
<rscale>  0 0.12725461E+04</rscale>
<asrwt>0</asrwt>
<pdfrwt beam="1">  1        2 0.27050304E+00 0.12725461E+04</pdfrwt>
<pdfrwt beam="2">  1       -2 0.35423235E-01 0.12725461E+04</pdfrwt>
<totfact> 0.66911079E+01</totfact>
</mgrwt>
</event>
<event>
 6    1  0.1637818E-005  0.2110372E+04  0.7818608E-02  0.8556688E-01
          2   -1    0    0  501    0  0.00000000000E+00  0.00000000000E+00  0.21459217111E+04  0.21459217111E+04  0.00000000000E+00 0. -1.
         -2   -1    0    0    0  501 -0.00000000000E+00 -0.00000000000E+00 -0.51885275259E+03  0.51885275259E+03  0.00000000000E+00 0.  1.
         23    2    1    2    0    0 -0.96192956800E+03  0.35793738984E+03  0.51687950083E+03  0.11528391804E+04  0.91902604575E+02 0.  0.
         11    1    3    3    0    0 -0.54879653158E+03  0.19629388999E+03  0.34347508882E+03  0.67652351102E+03  0.00000000000E+00 0.  1.
        -11    1    3    3    0    0 -0.41313303642E+03  0.16164349985E+03  0.17340441201E+03  0.47631566941E+03  0.00000000000E+00 0. -1.
         22    1    1    2    0    0  0.96192956800E+03 -0.35793738984E+03  0.11101894577E+04  0.15119352832E+04  0.00000000000E+00 0. -1.
<mgrwt>
<rscale>  0 0.21103719E+04</rscale>
<asrwt>0</asrwt>
<pdfrwt beam="1">  1        2 0.33014180E+00 0.21103719E+04</pdfrwt>
<pdfrwt beam="2">  1       -2 0.79823501E-01 0.21103719E+04</pdfrwt>
<totfact> 0.70832193E+00</totfact>
</mgrwt>
</event>
<event>
 6    1  0.1637818E-005  0.1565265E+04  0.7818608E-02  0.8842176E-01
          2   -1    0    0  501    0  0.00000000000E+00  0.00000000000E+00  0.13521154662E+04  0.13521154662E+04  0.00000000000E+00 0. -1.
         -2   -1    0    0    0  501 -0.00000000000E+00 -0.00000000000E+00 -0.45300406586E+03  0.45300406586E+03  0.00000000000E+00 0.  1.
         23    2    1    2    0    0 -0.36817189913E+03 -0.61469446807E+03  0.80584955255E+03  0.10825563108E+04  0.95576296263E+02 0.  0.
         13    1    3    3    0    0 -0.17458098006E+03 -0.22574638408E+03  0.36858180944E+03  0.46614643490E+03  0.00000000000E+00 0.  1.
        -13    1    3    3    0    0 -0.19359091907E+03 -0.38894808399E+03  0.43726774311E+03  0.61640987594E+03  0.00000000000E+00 0. -1.
         22    1    1    2    0    0  0.36817189913E+03  0.61469446807E+03  0.93261847787E+02  0.72256322121E+03  0.00000000000E+00 0.  1.
<mgrwt>
<rscale>  0 0.15652652E+04</rscale>
<asrwt>0</asrwt>
<pdfrwt beam="1">  1        2 0.20801776E+00 0.15652652E+04</pdfrwt>
<pdfrwt beam="2">  1       -2 0.69692933E-01 0.15652652E+04</pdfrwt>
<totfact> 0.27823044E+01</totfact>
</mgrwt>
</event>
<event>
 6    1  0.1637818E-005  0.2403052E+04  0.7818608E-02  0.8438362E-01
          1   -1    0    0  501    0  0.00000000000E+00  0.00000000000E+00  0.11365659131E+04  0.11365659131E+04  0.00000000000E+00 0. -1.
         -1   -1    0    0    0  501 -0.00000000000E+00 -0.00000000000E+00 -0.12701990592E+04  0.12701990592E+04  0.00000000000E+00 0.  1.
         23    2    1    2    0    0  0.10012062454E+04 -0.22434606708E+03 -0.68983161867E+03  0.12396737829E+04  0.90434076232E+02 0.  0.
         11    1    3    3    0    0  0.18277614436E+03 -0.16131293052E+02 -0.94212651381E+02  0.20626042093E+03  0.00000000000E+00 0.  1.
        -11    1    3    3    0    0  0.81843010105E+03 -0.20821477402E+03 -0.59561896729E+03  0.10334133619E+04  0.00000000000E+00 0. -1.
         22    1    1    2    0    0 -0.10012062454E+04  0.22434606708E+03  0.55619847255E+03  0.11670911895E+04  0.00000000000E+00 0. -1.
<mgrwt>
<rscale>  0 0.24030522E+04</rscale>
<asrwt>0</asrwt>
<pdfrwt beam="1">  1        1 0.17485629E+00 0.24030522E+04</pdfrwt>
<pdfrwt beam="2">  1       -1 0.19541524E+00 0.24030522E+04</pdfrwt>
<totfact> 0.17268822E+00</totfact>
</mgrwt>
</event>
<event>
 6    1  0.1637818E-005  0.1363991E+04  0.7818608E-02  0.8980304E-01
         -1   -1    0    0    0  501 -0.00000000000E+00  0.00000000000E+00  0.30437312003E+03  0.30437312003E+03  0.00000000000E+00 0.  1.
          1   -1    0    0  501    0  0.00000000000E+00 -0.00000000000E+00 -0.15281168214E+04  0.15281168214E+04  0.00000000000E+00 0. -1.
         23    2    1    2    0    0  0.30560746563E+03 -0.55666387604E+03 -0.29037940183E+03  0.70357917898E+03  0.86214094868E+02 0.  0.
         11    1    3    3    0    0  0.10064011389E+03 -0.24129927447E+03 -0.15439944399E+03  0.30363293743E+03  0.00000000000E+00 0. -1.
        -11    1    3    3    0    0  0.20496735174E+03 -0.31536460156E+03 -0.13597995783E+03  0.39994624155E+03  0.00000000000E+00 0.  1.
         22    1    1    2    0    0 -0.30560746563E+03  0.55666387604E+03 -0.93336429953E+03  0.11289107624E+04  0.00000000000E+00 0. -1.
<mgrwt>
<rscale>  0 0.13639907E+04</rscale>
<asrwt>0</asrwt>
<pdfrwt beam="1">  1        1 0.23509490E+00 0.13639907E+04</pdfrwt>
<pdfrwt beam="2">  1       -1 0.46826632E-01 0.13639907E+04</pdfrwt>
<totfact> 0.27793763E+01</totfact>
</mgrwt>
</event>
<event>
 6    1  0.3350747E-005  0.2642001E+04  0.7818608E-02  0.8354073E-01
          2   -1    0    0  501    0  0.00000000000E+00  0.00000000000E+00  0.18230362953E+04  0.18230362953E+04  0.00000000000E+00 0. -1.
         -2   -1    0    0    0  501 -0.00000000000E+00 -0.00000000000E+00 -0.95721768530E+03  0.95721768530E+03  0.00000000000E+00 0.  1.
         23    2    1    2    0    0 -0.70371195437E+03 -0.15599878728E+03  0.15963961482E+04  0.17539549619E+04  0.91275462705E+02 0.  0.
         11    1    3    3    0    0 -0.30937360270E+03 -0.10837966890E+03  0.77893746183E+03  0.84510457822E+03  0.00000000000E+00 0.  1.
        -11    1    3    3    0    0 -0.39433835167E+03 -0.47619118379E+02  0.81745868635E+03  0.90885038369E+03  0.00000000000E+00 0. -1.
         22    1    1    2    0    0  0.70371195437E+03  0.15599878728E+03 -0.73057753822E+03  0.10262990187E+04  0.00000000000E+00 0.  1.
<mgrwt>
<rscale>  0 0.26420012E+04</rscale>
<asrwt>0</asrwt>
<pdfrwt beam="1">  1        2 0.28046712E+00 0.26420012E+04</pdfrwt>
<pdfrwt beam="2">  1       -2 0.14726426E+00 0.26420012E+04</pdfrwt>
<totfact> 0.23236146E+00</totfact>
</mgrwt>
</event>
<event>
 6    1  0.1637818E-005  0.1817790E+04  0.7818608E-02  0.8696896E-01
         -2   -1    0    0    0  501 -0.00000000000E+00  0.00000000000E+00  0.55687351346E+03  0.55687351346E+03  0.00000000000E+00 0. -1.
          2   -1    0    0  501    0  0.00000000000E+00 -0.00000000000E+00 -0.14834435828E+04  0.14834435828E+04  0.00000000000E+00 0.  1.
         23    2    1    2    0    0  0.44375525466E+03 -0.27216370400E+03  0.36847533120E+03  0.64456124466E+03  0.93237978297E+02 0.  0.
         13    1    3    3    0    0  0.16720298378E+03 -0.10881785532E+03  0.87588752723E+02  0.21787600378E+03  0.00000000000E+00 0. -1.
        -13    1    3    3    0    0  0.27655227089E+03 -0.16334584868E+03  0.28088657848E+03  0.42668524088E+03  0.00000000000E+00 0.  1.
         22    1    1    2    0    0 -0.44375525466E+03  0.27216370400E+03 -0.12950454005E+04  0.13957558516E+04  0.00000000000E+00 0.  1.
<mgrwt>
<rscale>  0 0.18177904E+04</rscale>
<asrwt>0</asrwt>
<pdfrwt beam="1">  1        2 0.22822209E+00 0.18177904E+04</pdfrwt>
<pdfrwt beam="2">  1       -2 0.85672849E-01 0.18177904E+04</pdfrwt>
<totfact> 0.14471091E+01</totfact>
</mgrwt>
</event>
<event>
 6    1  0.1637818E-005  0.2217707E+04  0.7818608E-02  0.8511094E-01
          2   -1    0    0  501    0  0.00000000000E+00  0.00000000000E+00  0.11838396158E+04  0.11838396158E+04  0.00000000000E+00 0. -1.
         -2   -1    0    0    0  501 -0.00000000000E+00 -0.00000000000E+00 -0.10386173924E+04  0.10386173924E+04  0.00000000000E+00 0.  1.
         23    2    1    2    0    0 -0.10352146609E+04  0.28468992304E+03  0.34238805300E+03  0.11308562979E+04  0.94279589826E+02 0.  0.
         11    1    3    3    0    0 -0.57561052704E+03  0.18858481451E+03  0.15445477882E+03  0.62509838410E+03  0.00000000000E+00 0. -1.
        -11    1    3    3    0    0 -0.45960413391E+03  0.96105108531E+02  0.18793327418E+03  0.50575791376E+03  0.00000000000E+00 0.  1.
         22    1    1    2    0    0  0.10352146609E+04 -0.28468992304E+03 -0.19716582965E+03  0.10916007104E+04  0.00000000000E+00 0.  1.
<mgrwt>
<rscale>  0 0.22177073E+04</rscale>
<asrwt>0</asrwt>
<pdfrwt beam="1">  1        2 0.18212917E+00 0.22177073E+04</pdfrwt>
<pdfrwt beam="2">  1       -2 0.15978729E+00 0.22177073E+04</pdfrwt>
<totfact> 0.44692686E+00</totfact>
</mgrwt>
</event>
<event>
 6    1  0.1637818E-005  0.4869266E+04  0.7818608E-02  0.7848997E-01
         -1   -1    0    0    0  501 -0.00000000000E+00  0.00000000000E+00  0.22390460863E+04  0.22390460863E+04  0.00000000000E+00 0.  1.
          1   -1    0    0  501    0  0.00000000000E+00 -0.00000000000E+00 -0.26473049222E+04  0.26473049222E+04  0.00000000000E+00 0. -1.
         23    2    1    2    0    0  0.14629182249E+04  0.16285220048E+04 -0.12713987584E+04  0.25332202899E+04  0.92393623848E+02 0.  0.
         11    1    3    3    0    0  0.97034472317E+03  0.10395855137E+04 -0.86560501067E+03  0.16648059817E+04  0.00000000000E+00 0. -1.
        -11    1    3    3    0    0  0.49257350169E+03  0.58893649110E+03 -0.40579374773E+03  0.86841430827E+03  0.00000000000E+00 0.  1.
         22    1    1    2    0    0 -0.14629182249E+04 -0.16285220048E+04  0.86313992253E+03  0.23531307186E+04  0.00000000000E+00 0.  1.
<mgrwt>
<rscale>  0 0.48692660E+04</rscale>
<asrwt>0</asrwt>
<pdfrwt beam="1">  1        1 0.40727768E+00 0.48692660E+04</pdfrwt>
<pdfrwt beam="2">  1       -1 0.34446863E+00 0.48692660E+04</pdfrwt>
<totfact> 0.13183507E-02</totfact>
</mgrwt>
</event>
<event>
 6    1  0.1637818E-005  0.1049806E+04  0.7818608E-02  0.9255544E-01
         -3   -1    0    0    0  501 -0.00000000000E+00  0.00000000000E+00  0.13056978751E+03  0.13056978751E+03  0.00000000000E+00 0.  1.
          3   -1    0    0  501    0  0.00000000000E+00 -0.00000000000E+00 -0.21101597346E+04  0.21101597346E+04  0.00000000000E+00 0. -1.
         23    2    1    2    0    0  0.27807481781E+03 -0.42322053702E+03 -0.73257486122E+03  0.89481427527E+03  0.87094389492E+02 0.  0.
         13    1    3    3    0    0  0.17316908394E+03 -0.32637543266E+03 -0.49581101626E+03  0.61833406709E+03  0.00000000000E+00 0.  1.
        -13    1    3    3    0    0  0.10490573387E+03 -0.96845104367E+02 -0.23676384495E+03  0.27648020818E+03  0.00000000000E+00 0. -1.
         22    1    1    2    0    0 -0.27807481781E+03  0.42322053702E+03 -0.12470150858E+04  0.13459152468E+04  0.00000000000E+00 0.  1.
<mgrwt>
<rscale>  0 0.10498059E+04</rscale>
<asrwt>0</asrwt>
<pdfrwt beam="1">  1        3 0.32463995E+00 0.10498059E+04</pdfrwt>
<pdfrwt beam="2">  1       -3 0.20087660E-01 0.10498059E+04</pdfrwt>
<totfact> 0.17136304E+00</totfact>
</mgrwt>
</event>
<event>
 6    1  0.1637818E-005  0.3175460E+04  0.7818608E-02  0.8195328E-01
         -1   -1    0    0    0  501 -0.00000000000E+00  0.00000000000E+00  0.17704554947E+04  0.17704554947E+04  0.00000000000E+00 0.  1.
          1   -1    0    0  501    0  0.00000000000E+00 -0.00000000000E+00 -0.14238634493E+04  0.14238634493E+04  0.00000000000E+00 0. -1.
         23    2    1    2    0    0  0.12662719788E+04  0.78274341098E+03 -0.37809331292E+03  0.15386315218E+04  0.91106722519E+02 0.  0.
         13    1    3    3    0    0  0.81465228693E+03  0.46615805833E+03 -0.20673854096E+03  0.96109443255E+03  0.00000000000E+00 0.  1.
        -13    1    3    3    0    0  0.45161969184E+03  0.31658535265E+03 -0.17135477196E+03  0.57753708923E+03  0.00000000000E+00 0. -1.
         22    1    1    2    0    0 -0.12662719788E+04 -0.78274341098E+03  0.72468535827E+03  0.16556874222E+04  0.00000000000E+00 0. -1.
<mgrwt>
<rscale>  0 0.31754602E+04</rscale>
<asrwt>0</asrwt>
<pdfrwt beam="1">  1        1 0.21905591E+00 0.31754602E+04</pdfrwt>
<pdfrwt beam="2">  1       -1 0.27237777E+00 0.31754602E+04</pdfrwt>
<totfact> 0.30903587E-01</totfact>
</mgrwt>
</event>
<event>
 6    1  0.1637818E-005  0.1392491E+04  0.7818608E-02  0.8959272E-01
         -2   -1    0    0    0  501 -0.00000000000E+00  0.00000000000E+00  0.31361853130E+03  0.31361853130E+03  0.00000000000E+00 0.  1.
          2   -1    0    0  501    0  0.00000000000E+00 -0.00000000000E+00 -0.15456930704E+04  0.15456930704E+04  0.00000000000E+00 0. -1.
         23    2    1    2    0    0 -0.16294229549E+02 -0.56850775832E+03 -0.90321077110E+02  0.58374602473E+03  0.95576938820E+02 0.  0.
         13    1    3    3    0    0  0.15598167413E+02 -0.15183251369E+03 -0.62482941745E+02  0.16492584106E+03  0.00000000000E+00 0. -1.
        -13    1    3    3    0    0 -0.31892396962E+02 -0.41667524463E+03 -0.27838135365E+02  0.41882018367E+03  0.00000000000E+00 0.  1.
         22    1    1    2    0    0  0.16294229549E+02  0.56850775832E+03 -0.11417534620E+04  0.12755655770E+04  0.00000000000E+00 0. -1.
<mgrwt>
<rscale>  0 0.13924913E+04</rscale>
<asrwt>0</asrwt>
<pdfrwt beam="1">  1        2 0.23779893E+00 0.13924913E+04</pdfrwt>
<pdfrwt beam="2">  1       -2 0.48249005E-01 0.13924913E+04</pdfrwt>
<totfact> 0.47392927E+01</totfact>
</mgrwt>
</event>
<event>
 6    1  0.1637818E-005  0.3503499E+04  0.7818608E-02  0.8112961E-01
          1   -1    0    0  501    0  0.00000000000E+00  0.00000000000E+00  0.98959440202E+03  0.98959440202E+03  0.00000000000E+00 0. -1.
         -1   -1    0    0    0  501 -0.00000000000E+00 -0.00000000000E+00 -0.31008936763E+04  0.31008936763E+04  0.00000000000E+00 0.  1.
         23    2    1    2    0    0  0.36183027131E+03  0.16216585369E+04 -0.16997705745E+04  0.23787481955E+04  0.92333181188E+02 0.  0.
         13    1    3    3    0    0  0.32903712166E+02  0.83980128908E+02 -0.71057007053E+02  0.11482340605E+03  0.00000000000E+00 0.  1.
        -13    1    3    3    0    0  0.32892655915E+03  0.15376784080E+04 -0.16287135674E+04  0.22639247895E+04  0.00000000000E+00 0. -1.
         22    1    1    2    0    0 -0.36183027131E+03 -0.16216585369E+04 -0.41152869978E+03  0.17117398828E+04  0.00000000000E+00 0. -1.
<mgrwt>
<rscale>  0 0.35034994E+04</rscale>
<asrwt>0</asrwt>
<pdfrwt beam="1">  1        1 0.15224529E+00 0.35034994E+04</pdfrwt>
<pdfrwt beam="2">  1       -1 0.47706056E+00 0.35034994E+04</pdfrwt>
<totfact> 0.26558088E-02</totfact>
</mgrwt>
</event>
<event>
 6    1  0.1637818E-005  0.2178825E+04  0.7818608E-02  0.8527294E-01
          2   -1    0    0  501    0  0.00000000000E+00  0.00000000000E+00  0.17786576142E+04  0.17786576142E+04  0.00000000000E+00 0. -1.
         -2   -1    0    0    0  501 -0.00000000000E+00 -0.00000000000E+00 -0.66725570140E+03  0.66725570140E+03  0.00000000000E+00 0.  1.
         23    2    1    2    0    0 -0.30386971696E+03  0.74953579732E+03  0.13728393567E+04  0.15959190488E+04  0.90160938999E+02 0.  0.
         11    1    3    3    0    0 -0.10111457192E+03  0.19402064858E+03  0.30644529278E+03  0.37653271598E+03  0.00000000000E+00 0.  1.
        -11    1    3    3    0    0 -0.20275514504E+03  0.55551514874E+03  0.10663940639E+04  0.12193863329E+04  0.00000000000E+00 0. -1.
         22    1    1    2    0    0  0.30386971696E+03 -0.74953579732E+03 -0.26143744390E+03  0.84999426670E+03  0.00000000000E+00 0.  1.
<mgrwt>
<rscale>  0 0.21788249E+04</rscale>
<asrwt>0</asrwt>
<pdfrwt beam="1">  1        2 0.27363963E+00 0.21788249E+04</pdfrwt>
<pdfrwt beam="2">  1       -2 0.10265472E+00 0.21788249E+04</pdfrwt>
<totfact> 0.63006587E+00</totfact>
</mgrwt>
</event>
<event>
 6    1  0.1637818E-005  0.2263321E+04  0.7818608E-02  0.8492525E-01
          1   -1    0    0  501    0  0.00000000000E+00  0.00000000000E+00  0.14010522878E+04  0.14010522878E+04  0.00000000000E+00 0. -1.
         -1   -1    0    0    0  501 -0.00000000000E+00 -0.00000000000E+00 -0.91406658211E+03  0.91406658211E+03  0.00000000000E+00 0.  1.
         23    2    1    2    0    0 -0.64489591842E+02 -0.79884925810E+03 -0.57037471629E+03  0.98834454600E+03  0.95804905938E+02 0.  0.
         13    1    3    3    0    0 -0.39687989508E+02 -0.62554324984E+03 -0.39697806409E+03  0.74193738098E+03  0.00000000000E+00 0.  1.
        -13    1    3    3    0    0 -0.24801602334E+02 -0.17330600826E+03 -0.17339665220E+03  0.24640716502E+03  0.00000000000E+00 0. -1.
         22    1    1    2    0    0  0.64489591842E+02  0.79884925810E+03  0.10573604220E+04  0.13267743239E+04  0.00000000000E+00 0. -1.
<mgrwt>
<rscale>  0 0.22633206E+04</rscale>
<asrwt>0</asrwt>
<pdfrwt beam="1">  1        1 0.21554651E+00 0.22633206E+04</pdfrwt>
<pdfrwt beam="2">  1       -1 0.14062563E+00 0.22633206E+04</pdfrwt>
<totfact> 0.28813387E+00</totfact>
</mgrwt>
</event>
<event>
 6    1  0.1637818E-005  0.1400080E+04  0.7818608E-02  0.8953761E-01
          2   -1    0    0  501    0  0.00000000000E+00  0.00000000000E+00  0.24085654125E+04  0.24085654125E+04  0.00000000000E+00 0. -1.
         -2   -1    0    0    0  501 -0.00000000000E+00 -0.00000000000E+00 -0.20346377823E+03  0.20346377823E+03  0.00000000000E+00 0.  1.
         23    2    1    2    0    0  0.38112260877E+03 -0.14286764024E+03  0.21630231855E+04  0.22028395020E+04  0.90371261717E+02 0.  0.
         11    1    3    3    0    0  0.23705968465E+03 -0.46614646409E+02  0.13661361125E+04  0.13873348900E+04  0.00000000000E+00 0.  1.
        -11    1    3    3    0    0  0.14406292412E+03 -0.96252993832E+02  0.79688707301E+03  0.81550461191E+03  0.00000000000E+00 0. -1.
         22    1    1    2    0    0 -0.38112260877E+03  0.14286764024E+03  0.42078448802E+02  0.40918968877E+03  0.00000000000E+00 0.  1.
<mgrwt>
<rscale>  0 0.14000797E+04</rscale>
<asrwt>0</asrwt>
<pdfrwt beam="1">  1        2 0.37054851E+00 0.14000797E+04</pdfrwt>
<pdfrwt beam="2">  1       -2 0.31302121E-01 0.14000797E+04</pdfrwt>
<totfact> 0.36334699E+01</totfact>
</mgrwt>
</event>
<event>
 6    1  0.1637818E-005  0.7551159E+04  0.7818608E-02  0.7523119E-01
          2   -1    0    0  501    0  0.00000000000E+00  0.00000000000E+00  0.31875440380E+04  0.31875440380E+04  0.00000000000E+00 0. -1.
         -2   -1    0    0    0  501 -0.00000000000E+00 -0.00000000000E+00 -0.44720953969E+04  0.44720953969E+04  0.00000000000E+00 0.  1.
         23    2    1    2    0    0  0.24232701467E+04 -0.67303623375E+03 -0.34980699637E+04  0.43092841419E+04  0.90666250322E+02 0.  0.
         13    1    3    3    0    0  0.10654561564E+04 -0.26356605342E+03 -0.15817535812E+04  0.19252553798E+04  0.00000000000E+00 0. -1.
        -13    1    3    3    0    0  0.13578139903E+04 -0.40947018033E+03 -0.19163163825E+04  0.23840287621E+04  0.00000000000E+00 0.  1.
         22    1    1    2    0    0 -0.24232701467E+04  0.67303623375E+03  0.22135186048E+04  0.33503552930E+04  0.00000000000E+00 0.  1.
<mgrwt>
<rscale>  0 0.75511591E+04</rscale>
<asrwt>0</asrwt>
<pdfrwt beam="1">  1        2 0.49039139E+00 0.75511591E+04</pdfrwt>
<pdfrwt beam="2">  1       -2 0.68801467E+00 0.75511591E+04</pdfrwt>
<totfact> 0.20413130E-04</totfact>
</mgrwt>
</event>
<event>
 6    1  0.1637818E-005  0.2295424E+04  0.7818608E-02  0.8479727E-01
          2   -1    0    0  501    0  0.00000000000E+00  0.00000000000E+00  0.97044278111E+03  0.97044278111E+03  0.00000000000E+00 0. -1.
         -2   -1    0    0    0  501 -0.00000000000E+00 -0.00000000000E+00 -0.13573630989E+04  0.13573630989E+04  0.00000000000E+00 0.  1.
         23    2    1    2    0    0  0.16228686587E+03  0.11329436906E+04 -0.25009406623E+03  0.11751481442E+04  0.92345471591E+02 0.  0.
         13    1    3    3    0    0  0.11048743442E+03  0.58647401425E+03 -0.91396133957E+02  0.60374870257E+03  0.00000000000E+00 0. -1.
        -13    1    3    3    0    0  0.51799431446E+02  0.54646967631E+03 -0.15869793228E+03  0.57139944166E+03  0.00000000000E+00 0.  1.
         22    1    1    2    0    0 -0.16228686587E+03 -0.11329436906E+04 -0.13682625159E+03  0.11526577358E+04  0.00000000000E+00 0.  1.
<mgrwt>
<rscale>  0 0.22954243E+04</rscale>
<asrwt>0</asrwt>
<pdfrwt beam="1">  1        2 0.14929889E+00 0.22954243E+04</pdfrwt>
<pdfrwt beam="2">  1       -2 0.20882509E+00 0.22954243E+04</pdfrwt>
<totfact> 0.27812583E+00</totfact>
</mgrwt>
</event>
<event>
 6    1  0.1637818E-005  0.2707790E+04  0.7818608E-02  0.8332482E-01
          2   -1    0    0  501    0  0.00000000000E+00  0.00000000000E+00  0.20103725606E+04  0.20103725606E+04  0.00000000000E+00 0. -1.
         -2   -1    0    0    0  501 -0.00000000000E+00 -0.00000000000E+00 -0.91178722678E+03  0.91178722678E+03  0.00000000000E+00 0.  1.
         23    2    1    2    0    0 -0.27639999779E+03 -0.36289396124E+03 -0.82398901869E+03  0.94620909800E+03  0.90910771327E+02 0.  0.
         11    1    3    3    0    0 -0.12474093236E+03 -0.19179235977E+03 -0.32634715349E+03  0.39855623702E+03  0.00000000000E+00 0.  1.
        -11    1    3    3    0    0 -0.15165906542E+03 -0.17110160148E+03 -0.49764186520E+03  0.54765286099E+03  0.00000000000E+00 0. -1.
         22    1    1    2    0    0  0.27639999779E+03  0.36289396124E+03  0.19225743525E+04  0.19759506894E+04  0.00000000000E+00 0. -1.
<mgrwt>
<rscale>  0 0.27077903E+04</rscale>
<asrwt>0</asrwt>
<pdfrwt beam="1">  1        2 0.30928809E+00 0.27077903E+04</pdfrwt>
<pdfrwt beam="2">  1       -2 0.14027496E+00 0.27077903E+04</pdfrwt>
<totfact> 0.20655968E+00</totfact>
</mgrwt>
</event>
<event>
 6    1  0.1637818E-005  0.3012269E+04  0.7818608E-02  0.8240236E-01
         -2   -1    0    0    0  501 -0.00000000000E+00  0.00000000000E+00  0.68670220874E+03  0.68670220874E+03  0.00000000000E+00 0.  1.
          2   -1    0    0  501    0  0.00000000000E+00 -0.00000000000E+00 -0.33033846516E+04  0.33033846516E+04  0.00000000000E+00 0. -1.
         23    2    1    2    0    0  0.32458956487E+03 -0.73564108222E+03  0.37516428353E+03  0.89207572064E+03  0.92329108328E+02 0.  0.
         11    1    3    3    0    0  0.44924618617E+02 -0.19543462082E+03  0.79389237922E+02  0.21567467045E+03  0.00000000000E+00 0. -1.
        -11    1    3    3    0    0  0.27966494625E+03 -0.54020646140E+03  0.29577504561E+03  0.67640105019E+03  0.00000000000E+00 0.  1.
         22    1    1    2    0    0 -0.32458956487E+03  0.73564108222E+03 -0.29918467264E+04  0.30980111397E+04  0.00000000000E+00 0. -1.
<mgrwt>
<rscale>  0 0.30122693E+04</rscale>
<asrwt>0</asrwt>
<pdfrwt beam="1">  1        2 0.50821303E+00 0.30122693E+04</pdfrwt>
<pdfrwt beam="2">  1       -2 0.10564649E+00 0.30122693E+04</pdfrwt>
<totfact> 0.68580194E-01</totfact>
</mgrwt>
</event>
<event>
 6    1  0.2297469E-005  0.4279971E+04  0.7818608E-02  0.7950332E-01
         -2   -1    0    0    0  501 -0.00000000000E+00  0.00000000000E+00  0.16175371045E+04  0.16175371045E+04  0.00000000000E+00 0.  1.
          2   -1    0    0  501    0  0.00000000000E+00 -0.00000000000E+00 -0.28311797040E+04  0.28311797040E+04  0.00000000000E+00 0. -1.
         23    2    1    2    0    0  0.79906259204E+03 -0.19168629944E+04 -0.11396485385E+04  0.23706552391E+04  0.91338415077E+02 0.  0.
         13    1    3    3    0    0  0.55121587091E+03 -0.12833795863E+04 -0.72025606440E+03  0.15715186595E+04  0.00000000000E+00 0.  1.
        -13    1    3    3    0    0  0.24784672114E+03 -0.63348340813E+03 -0.41939247410E+03  0.79913657962E+03  0.00000000000E+00 0. -1.
         22    1    1    2    0    0 -0.79906259204E+03  0.19168629944E+04 -0.73994060962E+02  0.20780615694E+04  0.00000000000E+00 0.  1.
<mgrwt>
<rscale>  0 0.42799711E+04</rscale>
<asrwt>0</asrwt>
<pdfrwt beam="1">  1        2 0.43556610E+00 0.42799711E+04</pdfrwt>
<pdfrwt beam="2">  1       -2 0.24885187E+00 0.42799711E+04</pdfrwt>
<totfact> 0.11149212E-01</totfact>
</mgrwt>
</event>
<event>
 6    1  0.1637818E-005  0.1718698E+04  0.7818608E-02  0.8750771E-01
         -2   -1    0    0    0  501 -0.00000000000E+00  0.00000000000E+00  0.56444732739E+03  0.56444732739E+03  0.00000000000E+00 0.  1.
          2   -1    0    0  501    0  0.00000000000E+00 -0.00000000000E+00 -0.13083256750E+04  0.13083256750E+04  0.00000000000E+00 0. -1.
         23    2    1    2    0    0 -0.55682966133E+02 -0.28469274259E+03 -0.12518122848E+04  0.12878393010E+04  0.85706000377E+02 0.  0.
         11    1    3    3    0    0 -0.51578649480E+02 -0.17981292313E+03 -0.62836493434E+03  0.65561843714E+03  0.00000000000E+00 0.  1.
        -11    1    3    3    0    0 -0.41043166523E+01 -0.10487981945E+03 -0.62344735043E+03  0.63222086386E+03  0.00000000000E+00 0. -1.
         22    1    1    2    0    0  0.55682966133E+02  0.28469274259E+03  0.50793393720E+03  0.58493370134E+03  0.00000000000E+00 0.  1.
<mgrwt>
<rscale>  0 0.17186983E+04</rscale>
<asrwt>0</asrwt>
<pdfrwt beam="1">  1        2 0.20128087E+00 0.17186983E+04</pdfrwt>
<pdfrwt beam="2">  1       -2 0.86838052E-01 0.17186983E+04</pdfrwt>
<totfact> 0.17824518E+01</totfact>
</mgrwt>
</event>
<event>
 6    1  0.1637818E-005  0.1596798E+04  0.7818608E-02  0.8822517E-01
         -2   -1    0    0    0  501 -0.00000000000E+00  0.00000000000E+00  0.91832522616E+03  0.91832522616E+03  0.00000000000E+00 0. -1.
          2   -1    0    0  501    0  0.00000000000E+00 -0.00000000000E+00 -0.69413456968E+03  0.69413456968E+03  0.00000000000E+00 0.  1.
         23    2    1    2    0    0  0.29367955313E+03 -0.68053671087E+02 -0.63124827100E+03  0.70545663116E+03  0.91190442126E+02 0.  0.
         11    1    3    3    0    0  0.72688202171E+02 -0.75073861820E+01 -0.25182158661E+03  0.26220992938E+03  0.00000000000E+00 0. -1.
        -11    1    3    3    0    0  0.22099135095E+03 -0.60546284905E+02 -0.37942668439E+03  0.44324670178E+03  0.00000000000E+00 0.  1.
         22    1    1    2    0    0 -0.29367955313E+03  0.68053671087E+02  0.85543892749E+03  0.90700316468E+03  0.00000000000E+00 0. -1.
<mgrwt>
<rscale>  0 0.15967984E+04</rscale>
<asrwt>0</asrwt>
<pdfrwt beam="1">  1        2 0.10678993E+00 0.15967984E+04</pdfrwt>
<pdfrwt beam="2">  1       -2 0.14128080E+00 0.15967984E+04</pdfrwt>
<totfact> 0.13925341E+01</totfact>
</mgrwt>
</event>
<event>
 6    1  0.1637818E-005  0.1150953E+04  0.7818608E-02  0.9156905E-01
         -2   -1    0    0    0  501 -0.00000000000E+00  0.00000000000E+00  0.18500299332E+03  0.18500299332E+03  0.00000000000E+00 0.  1.
          2   -1    0    0  501    0  0.00000000000E+00 -0.00000000000E+00 -0.17900957544E+04  0.17900957544E+04  0.00000000000E+00 0. -1.
         23    2    1    2    0    0  0.50603566994E+03  0.21264748817E+01 -0.35033415940E+03  0.62214059256E+03  0.90820000631E+02 0.  0.
         13    1    3    3    0    0  0.36028654172E+03 -0.30131316914E+02 -0.21495106553E+03  0.42061651058E+03  0.00000000000E+00 0. -1.
        -13    1    3    3    0    0  0.14574912822E+03  0.32257791796E+02 -0.13538309387E+03  0.20152408197E+03  0.00000000000E+00 0.  1.
         22    1    1    2    0    0 -0.50603566994E+03 -0.21264748817E+01 -0.12547586017E+04  0.13529581552E+04  0.00000000000E+00 0. -1.
<mgrwt>
<rscale>  0 0.11509528E+04</rscale>
<asrwt>0</asrwt>
<pdfrwt beam="1">  1        2 0.27539934E+00 0.11509528E+04</pdfrwt>
<pdfrwt beam="2">  1       -2 0.28462000E-01 0.11509528E+04</pdfrwt>
<totfact> 0.97852564E+01</totfact>
</mgrwt>
</event>
<event>
 6    1  0.1637818E-005  0.1776254E+04  0.7818608E-02  0.8719030E-01
         -2   -1    0    0    0  501 -0.00000000000E+00  0.00000000000E+00  0.61260197168E+03  0.61260197168E+03  0.00000000000E+00 0. -1.
          2   -1    0    0  501    0  0.00000000000E+00 -0.00000000000E+00 -0.12875723089E+04  0.12875723089E+04  0.00000000000E+00 0.  1.
         23    2    1    2    0    0 -0.36598066656E+03 -0.71882016659E+03 -0.73004419352E+03  0.10916710896E+04  0.90205117454E+02 0.  0.
         13    1    3    3    0    0 -0.30911202355E+03 -0.53867343415E+03 -0.58868802838E+03  0.85572945872E+03  0.00000000000E+00 0. -1.
        -13    1    3    3    0    0 -0.56868643011E+02 -0.18014673243E+03 -0.14135616514E+03  0.23594163089E+03  0.00000000000E+00 0.  1.
         22    1    1    2    0    0  0.36598066656E+03  0.71882016659E+03  0.55073856278E+02  0.80850319099E+03  0.00000000000E+00 0. -1.
<mgrwt>
<rscale>  0 0.17762537E+04</rscale>
<asrwt>0</asrwt>
<pdfrwt beam="1">  1        2 0.19808804E+00 0.17762537E+04</pdfrwt>
<pdfrwt beam="2">  1       -2 0.94246459E-01 0.17762537E+04</pdfrwt>
<totfact> 0.15099564E+01</totfact>
</mgrwt>
</event>
<event>
 6    1  0.1637818E-005  0.1826024E+04  0.7818608E-02  0.8692581E-01
          1   -1    0    0  501    0  0.00000000000E+00  0.00000000000E+00  0.11690667022E+04  0.11690667022E+04  0.00000000000E+00 0.  1.
         -1   -1    0    0    0  501 -0.00000000000E+00 -0.00000000000E+00 -0.71303965117E+03  0.71303965117E+03  0.00000000000E+00 0. -1.
         23    2    1    2    0    0 -0.54323419258E+03 -0.40914283171E+02  0.98076817342E+03  0.11257131936E+04  0.92447918907E+02 0.  0.
         13    1    3    3    0    0 -0.24684080739E+03  0.21554963305E+01  0.36044792196E+03  0.43687267573E+03  0.00000000000E+00 0.  1.
        -13    1    3    3    0    0 -0.29639338518E+03 -0.43069779501E+02  0.62032025146E+03  0.68884051787E+03  0.00000000000E+00 0. -1.
         22    1    1    2    0    0  0.54323419258E+03  0.40914283171E+02 -0.52474112241E+03  0.75639315974E+03  0.00000000000E+00 0. -1.
<mgrwt>
<rscale>  0 0.18260240E+04</rscale>
<asrwt>0</asrwt>
<pdfrwt beam="1">  1        1 0.17985642E+00 0.18260240E+04</pdfrwt>
<pdfrwt beam="2">  1       -1 0.10969841E+00 0.18260240E+04</pdfrwt>
<totfact> 0.81447485E+00</totfact>
</mgrwt>
</event>
<event>
 6    1  0.1637818E-005  0.4902245E+04  0.7818608E-02  0.7843766E-01
         -2   -1    0    0    0  501 -0.00000000000E+00  0.00000000000E+00  0.26129075159E+04  0.26129075159E+04  0.00000000000E+00 0.  1.
          2   -1    0    0  501    0  0.00000000000E+00 -0.00000000000E+00 -0.22993552033E+04  0.22993552033E+04  0.00000000000E+00 0. -1.
         23    2    1    2    0    0 -0.23521285202E+04  0.24672569703E+03 -0.48519259783E+03  0.24159903830E+04  0.90639553412E+02 0.  0.
         13    1    3    3    0    0 -0.84303358571E+03  0.13111027979E+03 -0.16512285961E+03  0.86900005228E+03  0.00000000000E+00 0. -1.
        -13    1    3    3    0    0 -0.15090949345E+04  0.11561541725E+03 -0.32006973822E+03  0.15469903307E+04  0.00000000000E+00 0.  1.
         22    1    1    2    0    0  0.23521285202E+04 -0.24672569703E+03  0.79874491042E+03  0.24962723363E+04  0.00000000000E+00 0. -1.
<mgrwt>
<rscale>  0 0.49022454E+04</rscale>
<asrwt>0</asrwt>
<pdfrwt beam="1">  1        2 0.35374696E+00 0.49022454E+04</pdfrwt>
<pdfrwt beam="2">  1       -2 0.40198577E+00 0.49022454E+04</pdfrwt>
<totfact> 0.23996598E-02</totfact>
</mgrwt>
</event>
<event>
 6    1  0.1637818E-005  0.6309873E+03  0.7818608E-02  0.9843124E-01
          2   -1    0    0  501    0  0.00000000000E+00  0.00000000000E+00  0.87981237890E+03  0.87981237890E+03  0.00000000000E+00 0. -1.
         -2   -1    0    0    0  501 -0.00000000000E+00 -0.00000000000E+00 -0.11313349441E+03  0.11313349441E+03  0.00000000000E+00 0.  1.
         23    2    1    2    0    0  0.23996060386E+03  0.17107747687E+03  0.53794305169E+03  0.61989269250E+03  0.89641669228E+02 0.  0.
         13    1    3    3    0    0  0.11821312128E+03  0.32420983109E+02  0.19143147717E+03  0.22731359977E+03  0.00000000000E+00 0.  1.
        -13    1    3    3    0    0  0.12174748258E+03  0.13865649376E+03  0.34651157451E+03  0.39257909273E+03  0.00000000000E+00 0. -1.
         22    1    1    2    0    0 -0.23996060386E+03 -0.17107747687E+03  0.22873583280E+03  0.37305318080E+03  0.00000000000E+00 0.  1.
<mgrwt>
<rscale>  0 0.63098732E+03</rscale>
<asrwt>0</asrwt>
<pdfrwt beam="1">  1        2 0.13535575E+00 0.63098732E+03</pdfrwt>
<pdfrwt beam="2">  1       -2 0.17405153E-01 0.63098732E+03</pdfrwt>
<totfact> 0.82776187E+02</totfact>
</mgrwt>
</event>
<event>
 6    1  0.1637818E-005  0.2101906E+04  0.7818608E-02  0.8560404E-01
         -2   -1    0    0    0  501 -0.00000000000E+00  0.00000000000E+00  0.46080056377E+03  0.46080056377E+03  0.00000000000E+00 0.  1.
          2   -1    0    0  501    0  0.00000000000E+00 -0.00000000000E+00 -0.23969206103E+04  0.23969206103E+04  0.00000000000E+00 0. -1.
         23    2    1    2    0    0  0.13729440817E+03  0.45273105123E+03  0.30305356887E+03  0.56911600080E+03  0.90754600383E+02 0.  0.
         13    1    3    3    0    0  0.88834299169E+02  0.15077197594E+03  0.12716576832E+03  0.21632118267E+03  0.00000000000E+00 0.  1.
        -13    1    3    3    0    0  0.48460109006E+02  0.30195907529E+03  0.17588780054E+03  0.35279481813E+03  0.00000000000E+00 0. -1.
         22    1    1    2    0    0 -0.13729440817E+03 -0.45273105123E+03 -0.22391736154E+04  0.22886051733E+04  0.00000000000E+00 0. -1.
<mgrwt>
<rscale>  0 0.21019062E+04</rscale>
<asrwt>0</asrwt>
<pdfrwt beam="1">  1        2 0.36875702E+00 0.21019062E+04</pdfrwt>
<pdfrwt beam="2">  1       -2 0.70892394E-01 0.21019062E+04</pdfrwt>
<totfact> 0.66509048E+00</totfact>
</mgrwt>
</event>
<event>
 6    1  0.1637818E-005  0.1758298E+04  0.7818608E-02  0.8728796E-01
          1   -1    0    0  501    0  0.00000000000E+00  0.00000000000E+00  0.88271990666E+03  0.88271990666E+03  0.00000000000E+00 0. -1.
         -1   -1    0    0    0  501 -0.00000000000E+00 -0.00000000000E+00 -0.87559226717E+03  0.87559226717E+03  0.00000000000E+00 0.  1.
         23    2    1    2    0    0 -0.23621482654E+03 -0.43082686586E+03 -0.72262236215E+03  0.87857113379E+03  0.91076485599E+02 0.  0.
         11    1    3    3    0    0 -0.47061241911E+01 -0.41078877540E+02 -0.31229245171E+02  0.51815900444E+02  0.00000000000E+00 0.  1.
        -11    1    3    3    0    0 -0.23150870235E+03 -0.38974798832E+03 -0.69139311698E+03  0.82675523335E+03  0.00000000000E+00 0. -1.
         22    1    1    2    0    0  0.23621482654E+03  0.43082686586E+03  0.72975000165E+03  0.87974104004E+03  0.00000000000E+00 0.  1.
<mgrwt>
<rscale>  0 0.17582977E+04</rscale>
<asrwt>0</asrwt>
<pdfrwt beam="1">  1        1 0.13580306E+00 0.17582977E+04</pdfrwt>
<pdfrwt beam="2">  1       -1 0.13470650E+00 0.17582977E+04</pdfrwt>
<totfact> 0.82496592E+00</totfact>
</mgrwt>
</event>
<event>
 6    1  0.1637818E-005  0.7334148E+03  0.7818608E-02  0.9661735E-01
          1   -1    0    0  501    0  0.00000000000E+00  0.00000000000E+00  0.25017359425E+03  0.25017359425E+03  0.00000000000E+00 0. -1.
         -1   -1    0    0    0  501 -0.00000000000E+00 -0.00000000000E+00 -0.53752397940E+03  0.53752397940E+03  0.00000000000E+00 0.  1.
         23    2    1    2    0    0 -0.18387135628E+03  0.11787244117E+03 -0.45442227586E+03  0.51271465652E+03  0.93134988910E+02 0.  0.
         11    1    3    3    0    0 -0.81467100517E+02  0.70505434941E+02 -0.12780639283E+03  0.16715974058E+03  0.00000000000E+00 0. -1.
        -11    1    3    3    0    0 -0.10240425577E+03  0.47367006225E+02 -0.32661588304E+03  0.34555491594E+03  0.00000000000E+00 0.  1.
         22    1    1    2    0    0  0.18387135628E+03 -0.11787244117E+03  0.16707189072E+03  0.27498291713E+03  0.00000000000E+00 0. -1.
<mgrwt>
<rscale>  0 0.73341477E+03</rscale>
<asrwt>0</asrwt>
<pdfrwt beam="1">  1        1 0.38488246E-01 0.73341477E+03</pdfrwt>
<pdfrwt beam="2">  1       -1 0.82695995E-01 0.73341477E+03</pdfrwt>
<totfact> 0.16375684E+02</totfact>
</mgrwt>
</event>
<event>
 6    1  0.1637818E-005  0.1957773E+04  0.7818608E-02  0.8626622E-01
         -1   -1    0    0    0  501 -0.00000000000E+00  0.00000000000E+00  0.84888516964E+03  0.84888516964E+03  0.00000000000E+00 0.  1.
          1   -1    0    0  501    0  0.00000000000E+00 -0.00000000000E+00 -0.11287963501E+04  0.11287963501E+04  0.00000000000E+00 0. -1.
         23    2    1    2    0    0 -0.71725603695E+02  0.25741514084E+03 -0.10893180736E+04  0.11253044696E+04  0.91044862533E+02 0.  0.
         11    1    3    3    0    0 -0.75165590804E+02  0.11951615499E+03 -0.46669969685E+03  0.48758854005E+03  0.00000000000E+00 0. -1.
        -11    1    3    3    0    0  0.34399871086E+01  0.13789898585E+03 -0.62261837673E+03  0.63771592959E+03  0.00000000000E+00 0.  1.
         22    1    1    2    0    0  0.71725603695E+02 -0.25741514084E+03  0.80940689311E+03  0.85237705012E+03  0.00000000000E+00 0.  1.
<mgrwt>
<rscale>  0 0.19577727E+04</rscale>
<asrwt>0</asrwt>
<pdfrwt beam="1">  1        1 0.17366098E+00 0.19577727E+04</pdfrwt>
<pdfrwt beam="2">  1       -1 0.13059772E+00 0.19577727E+04</pdfrwt>
<totfact> 0.56305643E+00</totfact>
</mgrwt>
</event>
<event>
 6    1  0.1637818E-005  0.3837275E+03  0.7818608E-02  0.1049565E+00
          2   -1    0    0  501    0  0.00000000000E+00  0.00000000000E+00  0.65304079795E+03  0.65304079795E+03  0.00000000000E+00 0. -1.
         -2   -1    0    0    0  501 -0.00000000000E+00 -0.00000000000E+00 -0.56369678557E+02  0.56369678557E+02  0.00000000000E+00 0.  1.
         23    2    1    2    0    0 -0.11907506473E+03  0.13266899334E+03  0.36017869014E+03  0.41325409564E+03  0.96282531623E+02 0.  0.
         11    1    3    3    0    0 -0.29987029236E+02  0.31790259375E+02  0.21275310046E+02  0.48605363193E+02  0.00000000000E+00 0.  1.
        -11    1    3    3    0    0 -0.89088035494E+02  0.10087873397E+03  0.33890338009E+03  0.36464873244E+03  0.00000000000E+00 0. -1.
         22    1    1    2    0    0  0.11907506473E+03 -0.13266899334E+03  0.23649242925E+03  0.29615638087E+03  0.00000000000E+00 0. -1.
<mgrwt>
<rscale>  0 0.38372751E+03</rscale>
<asrwt>0</asrwt>
<pdfrwt beam="1">  1        2 0.10046781E+00 0.38372751E+03</pdfrwt>
<pdfrwt beam="2">  1       -2 0.86722587E-02 0.38372751E+03</pdfrwt>
<totfact> 0.38188913E+03</totfact>
</mgrwt>
</event>
<event>
 6    1  0.1637818E-005  0.5276121E+04  0.7818608E-02  0.7787269E-01
          2   -1    0    0  501    0  0.00000000000E+00  0.00000000000E+00  0.32647171538E+04  0.32647171538E+04  0.00000000000E+00 0. -1.
         -2   -1    0    0    0  501 -0.00000000000E+00 -0.00000000000E+00 -0.21316891508E+04  0.21316891508E+04  0.00000000000E+00 0.  1.
         23    2    1    2    0    0 -0.20881122279E+04 -0.15499713756E+04  0.11732383291E+03  0.26045827245E+04  0.86384870048E+02 0.  0.
         11    1    3    3    0    0 -0.67525015124E+03 -0.53907987800E+03  0.66053578497E+02  0.86656387926E+03  0.00000000000E+00 0.  1.
        -11    1    3    3    0    0 -0.14128620766E+04 -0.10108914976E+04  0.51270254410E+02  0.17380188453E+04  0.00000000000E+00 0. -1.
         22    1    1    2    0    0  0.20881122279E+04  0.15499713756E+04  0.10157041701E+04  0.27918235801E+04  0.00000000000E+00 0. -1.
<mgrwt>
<rscale>  0 0.52761206E+04</rscale>
<asrwt>0</asrwt>
<pdfrwt beam="1">  1        2 0.50226417E+00 0.52761206E+04</pdfrwt>
<pdfrwt beam="2">  1       -2 0.32795218E+00 0.52761206E+04</pdfrwt>
<totfact> 0.17880648E-02</totfact>
</mgrwt>
</event>
<event>
 6    1  0.1637818E-005  0.3059417E+04  0.7818608E-02  0.8226965E-01
          2   -1    0    0  501    0  0.00000000000E+00  0.00000000000E+00  0.77764145194E+03  0.77764145194E+03  0.00000000000E+00 0. -1.
         -2   -1    0    0    0  501 -0.00000000000E+00 -0.00000000000E+00 -0.30091092807E+04  0.30091092807E+04  0.00000000000E+00 0.  1.
         23    2    1    2    0    0 -0.49202305441E+03  0.66221907514E+03 -0.27091450866E+04  0.28334426229E+04  0.91154854866E+02 0.  0.
         11    1    3    3    0    0 -0.31607029676E+03  0.36955392545E+03 -0.16928909596E+04  0.17613490107E+04  0.00000000000E+00 0. -1.
        -11    1    3    3    0    0 -0.17595275765E+03  0.29266514969E+03 -0.10162541270E+04  0.10720936122E+04  0.00000000000E+00 0.  1.
         22    1    1    2    0    0  0.49202305441E+03 -0.66221907514E+03  0.47767725779E+03  0.95330810977E+03  0.00000000000E+00 0. -1.
<mgrwt>
<rscale>  0 0.30594170E+04</rscale>
<asrwt>0</asrwt>
<pdfrwt beam="1">  1        2 0.11963715E+00 0.30594170E+04</pdfrwt>
<pdfrwt beam="2">  1       -2 0.46293989E+00 0.30594170E+04</pdfrwt>
<totfact> 0.86734267E-02</totfact>
</mgrwt>
</event>
<event>
 6    1  0.1637818E-005  0.1698988E+04  0.7818608E-02  0.8761942E-01
         -1   -1    0    0    0  501 -0.00000000000E+00  0.00000000000E+00  0.48765972810E+03  0.48765972810E+03  0.00000000000E+00 0.  1.
          1   -1    0    0  501    0  0.00000000000E+00 -0.00000000000E+00 -0.14798025967E+04  0.14798025967E+04  0.00000000000E+00 0. -1.
         23    2    1    2    0    0  0.10628775552E+03  0.41602674947E+03 -0.13430271117E+04  0.14129399219E+04  0.91115624477E+02 0.  0.
         13    1    3    3    0    0  0.41599045394E+02  0.86733424437E+02 -0.20467682861E+03  0.22615430940E+03  0.00000000000E+00 0. -1.
        -13    1    3    3    0    0  0.64688710128E+02  0.32929332503E+03 -0.11383502831E+04  0.11867856125E+04  0.00000000000E+00 0.  1.
         22    1    1    2    0    0 -0.10628775552E+03 -0.41602674947E+03  0.35088424308E+03  0.55452240287E+03  0.00000000000E+00 0.  1.
<mgrwt>
<rscale>  0 0.16989881E+04</rscale>
<asrwt>0</asrwt>
<pdfrwt beam="1">  1        1 0.22766194E+00 0.16989881E+04</pdfrwt>
<pdfrwt beam="2">  1       -1 0.75024574E-01 0.16989881E+04</pdfrwt>
<totfact> 0.11488095E+01</totfact>
</mgrwt>
</event>
<event>
 6    1  0.1637818E-005  0.3798887E+04  0.7818608E-02  0.8046394E-01
         -1   -1    0    0    0  501 -0.00000000000E+00  0.00000000000E+00  0.26902793207E+04  0.26902793207E+04  0.00000000000E+00 0.  1.
          1   -1    0    0  501    0  0.00000000000E+00 -0.00000000000E+00 -0.13410822183E+04  0.13410822183E+04  0.00000000000E+00 0. -1.
         23    2    1    2    0    0 -0.18656629110E+04  0.12028957246E+03  0.10207543612E+04  0.21331933924E+04  0.11578818921E+03 0.  0.
         13    1    3    3    0    0 -0.15120468522E+04  0.14283280154E+03  0.82538129950E+03  0.17285662215E+04  0.00000000000E+00 0.  1.
        -13    1    3    3    0    0 -0.35361605871E+03 -0.22543229082E+02  0.19537306173E+03  0.40462717087E+03  0.00000000000E+00 0. -1.
         22    1    1    2    0    0  0.18656629110E+04 -0.12028957246E+03  0.32844274125E+03  0.18981681466E+04  0.00000000000E+00 0. -1.
<mgrwt>
<rscale>  0 0.37988871E+04</rscale>
<asrwt>0</asrwt>
<pdfrwt beam="1">  1        1 0.20632034E+00 0.37988871E+04</pdfrwt>
<pdfrwt beam="2">  1       -1 0.41388913E+00 0.37988871E+04</pdfrwt>
<totfact> 0.38622328E-02</totfact>
</mgrwt>
</event>
<event>
 6    1  0.1637818E-005  0.4728826E+04  0.7818608E-02  0.7871757E-01
         -2   -1    0    0    0  501 -0.00000000000E+00  0.00000000000E+00  0.24934867044E+04  0.24934867044E+04  0.00000000000E+00 0.  1.
          2   -1    0    0  501    0  0.00000000000E+00 -0.00000000000E+00 -0.22420206518E+04  0.22420206518E+04  0.00000000000E+00 0. -1.
         23    2    1    2    0    0  0.19396015152E+04  0.12647102040E+04 -0.34861705928E+03  0.23435111858E+04  0.94683081911E+02 0.  0.
         13    1    3    3    0    0  0.20099200838E+03  0.10465301475E+03 -0.16632872159E+02  0.22721508173E+03  0.00000000000E+00 0. -1.
        -13    1    3    3    0    0  0.17386095068E+04  0.11600571893E+04 -0.33198418712E+03  0.21162961041E+04  0.00000000000E+00 0.  1.
         22    1    1    2    0    0 -0.19396015152E+04 -0.12647102040E+04  0.60008311183E+03  0.23919961704E+04  0.00000000000E+00 0. -1.
<mgrwt>
<rscale>  0 0.47288259E+04</rscale>
<asrwt>0</asrwt>
<pdfrwt beam="1">  1        2 0.34492625E+00 0.47288259E+04</pdfrwt>
<pdfrwt beam="2">  1       -2 0.38361334E+00 0.47288259E+04</pdfrwt>
<totfact> 0.34517236E-02</totfact>
</mgrwt>
</event>
<event>
 6    1  0.2419779E-005  0.5176582E+04  0.7818608E-02  0.7801831E-01
         -2   -1    0    0    0  501 -0.00000000000E+00  0.00000000000E+00  0.27221701776E+04  0.27221701776E+04  0.00000000000E+00 0.  1.
          2   -1    0    0  501    0  0.00000000000E+00 -0.00000000000E+00 -0.24609958503E+04  0.24609958503E+04  0.00000000000E+00 0. -1.
         23    2    1    2    0    0  0.20485204314E+04 -0.10893589083E+04 -0.10162586879E+04  0.25345864280E+04  0.90597189817E+02 0.  0.
         11    1    3    3    0    0  0.79124676833E+03 -0.47096073104E+03 -0.40332691685E+03  0.10052601954E+04  0.00000000000E+00 0.  1.
        -11    1    3    3    0    0  0.12572736631E+04 -0.61839817730E+03 -0.61293177110E+03  0.15293262326E+04  0.00000000000E+00 0. -1.
         22    1    1    2    0    0 -0.20485204314E+04  0.10893589083E+04  0.12774330153E+04  0.26485796000E+04  0.00000000000E+00 0.  1.
<mgrwt>
<rscale>  0 0.51765817E+04</rscale>
<asrwt>0</asrwt>
<pdfrwt beam="1">  1        2 0.37861474E+00 0.51765817E+04</pdfrwt>
<pdfrwt beam="2">  1       -2 0.41879541E+00 0.51765817E+04</pdfrwt>
<totfact> 0.14722707E-02</totfact>
</mgrwt>
</event>
<event>
 6    1  0.1637818E-005  0.4233228E+03  0.7818608E-02  0.1035990E+00
         -2   -1    0    0    0  501 -0.00000000000E+00  0.00000000000E+00  0.30562414254E+03  0.30562414254E+03  0.00000000000E+00 0.  1.
          2   -1    0    0  501    0  0.00000000000E+00 -0.00000000000E+00 -0.14658706072E+03  0.14658706072E+03  0.00000000000E+00 0. -1.
         23    2    1    2    0    0 -0.11677065828E+03 -0.11731972504E+03  0.20600646839E+03  0.28014892444E+03  0.92980913780E+02 0.  0.
         11    1    3    3    0    0 -0.77062156976E+02 -0.13924778625E+02  0.98023058943E+02  0.12546312439E+03  0.00000000000E+00 0.  1.
        -11    1    3    3    0    0 -0.39708501300E+02 -0.10339494642E+03  0.10798340945E+03  0.15468580005E+03  0.00000000000E+00 0. -1.
         22    1    1    2    0    0  0.11677065828E+03  0.11731972504E+03 -0.46969386570E+02  0.17206227882E+03  0.00000000000E+00 0. -1.
<mgrwt>
<rscale>  0 0.42332278E+03</rscale>
<asrwt>0</asrwt>
<pdfrwt beam="1">  1        2 0.22551856E-01 0.42332278E+03</pdfrwt>
<pdfrwt beam="2">  1       -2 0.47019099E-01 0.42332278E+03</pdfrwt>
<totfact> 0.10581058E+03</totfact>
</mgrwt>
</event>
<event>
 6    1  0.1637818E-005  0.5826898E+04  0.7818608E-02  0.7712243E-01
         -2   -1    0    0    0  501 -0.00000000000E+00  0.00000000000E+00  0.20301014153E+04  0.20301014153E+04  0.00000000000E+00 0.  1.
          2   -1    0    0  501    0  0.00000000000E+00 -0.00000000000E+00 -0.41811627835E+04  0.41811627835E+04  0.00000000000E+00 0. -1.
         23    2    1    2    0    0  0.23609672551E+04  0.55474333909E+03  0.64364609086E+03  0.25109538964E+04  0.93287873722E+02 0.  0.
         13    1    3    3    0    0  0.11137120874E+04  0.22136822418E+03  0.32709794332E+03  0.11816732073E+04  0.00000000000E+00 0.  1.
        -13    1    3    3    0    0  0.12472551677E+04  0.33337511491E+03  0.31654814753E+03  0.13292806891E+04  0.00000000000E+00 0. -1.
         22    1    1    2    0    0 -0.23609672551E+04 -0.55474333909E+03 -0.27947074591E+04  0.37003103024E+04  0.00000000000E+00 0. -1.
<mgrwt>
<rscale>  0 0.58268978E+04</rscale>
<asrwt>0</asrwt>
<pdfrwt beam="1">  1        2 0.64325580E+00 0.58268978E+04</pdfrwt>
<pdfrwt beam="2">  1       -2 0.31232330E+00 0.58268978E+04</pdfrwt>
<totfact> 0.43660832E-03</totfact>
</mgrwt>
</event>
<event>
 6    1  0.1637818E-005  0.1507079E+04  0.7818608E-02  0.8879759E-01
         -2   -1    0    0    0  501 -0.00000000000E+00  0.00000000000E+00  0.49789786716E+03  0.49789786716E+03  0.00000000000E+00 0.  1.
          2   -1    0    0  501    0  0.00000000000E+00 -0.00000000000E+00 -0.11404384670E+04  0.11404384670E+04  0.00000000000E+00 0. -1.
         23    2    1    2    0    0  0.18071952967E+03 -0.52744522067E+03  0.22467693941E+03  0.60735414732E+03  0.86840796595E+02 0.  0.
         13    1    3    3    0    0  0.77127995368E+02 -0.16071481015E+03  0.10967008603E+03  0.20929764843E+03  0.00000000000E+00 0. -1.
        -13    1    3    3    0    0  0.10359153430E+03 -0.36673041053E+03  0.11500685338E+03  0.39805649889E+03  0.00000000000E+00 0.  1.
         22    1    1    2    0    0 -0.18071952967E+03  0.52744522067E+03 -0.86721753924E+03  0.10309821868E+04  0.00000000000E+00 0. -1.
<mgrwt>
<rscale>  0 0.15070791E+04</rscale>
<asrwt>0</asrwt>
<pdfrwt beam="1">  1        2 0.17545207E+00 0.15070791E+04</pdfrwt>
<pdfrwt beam="2">  1       -2 0.76599673E-01 0.15070791E+04</pdfrwt>
<totfact> 0.30278248E+01</totfact>
</mgrwt>
</event>
<event>
 6    1  0.1637818E-005  0.1936925E+04  0.7818608E-02  0.8636692E-01
         -2   -1    0    0    0  501 -0.00000000000E+00  0.00000000000E+00  0.81723047705E+03  0.81723047705E+03  0.00000000000E+00 0.  1.
          2   -1    0    0  501    0  0.00000000000E+00 -0.00000000000E+00 -0.11476802154E+04  0.11476802154E+04  0.00000000000E+00 0. -1.
         23    2    1    2    0    0  0.41683658126E+03  0.86784637497E+03 -0.82517807949E+02  0.97073751428E+03  0.92801222918E+02 0.  0.
         11    1    3    3    0    0  0.59342312870E+02  0.12769720792E+03  0.20676386675E+02  0.14232216965E+03  0.00000000000E+00 0. -1.
        -11    1    3    3    0    0  0.35749426839E+03  0.74014916704E+03 -0.10319419462E+03  0.82841534463E+03  0.00000000000E+00 0.  1.
         22    1    1    2    0    0 -0.41683658126E+03 -0.86784637497E+03 -0.24793193035E+03  0.99417317813E+03  0.00000000000E+00 0.  1.
<mgrwt>
<rscale>  0 0.19369246E+04</rscale>
<asrwt>0</asrwt>
<pdfrwt beam="1">  1        2 0.17656619E+00 0.19369246E+04</pdfrwt>
<pdfrwt beam="2">  1       -2 0.12572777E+00 0.19369246E+04</pdfrwt>
<totfact> 0.89887224E+00</totfact>
</mgrwt>
</event>
<event>
 6    1  0.1637818E-005  0.5096241E+04  0.7818608E-02  0.7813830E-01
         -3   -1    0    0    0  501 -0.00000000000E+00  0.00000000000E+00  0.35226567140E+04  0.35226567140E+04  0.00000000000E+00 0.  1.
          3   -1    0    0  501    0  0.00000000000E+00 -0.00000000000E+00 -0.18431875784E+04  0.18431875784E+04  0.00000000000E+00 0. -1.
         23    2    1    2    0    0  0.15370229648E+04 -0.46959789897E+03 -0.12417211299E+04  0.20317305649E+04  0.55641197000E+02 0.  0.
         13    1    3    3    0    0  0.94900897362E+03 -0.30731605455E+03 -0.74353062228E+03  0.12441458820E+04  0.00000000000E+00 0.  1.
        -13    1    3    3    0    0  0.58801399117E+03 -0.16228184442E+03 -0.49819050763E+03  0.78758468290E+03  0.00000000000E+00 0. -1.
         22    1    1    2    0    0 -0.15370229648E+04  0.46959789897E+03  0.29211902655E+04  0.33341137275E+04  0.00000000000E+00 0.  1.
<mgrwt>
<rscale>  0 0.50962406E+04</rscale>
<asrwt>0</asrwt>
<pdfrwt beam="1">  1        3 0.28356732E+00 0.50962406E+04</pdfrwt>
<pdfrwt beam="2">  1       -3 0.54194719E+00 0.50962406E+04</pdfrwt>
<totfact> 0.16162874E-04</totfact>
</mgrwt>
</event>
<event>
 6    1  0.1637818E-005  0.1388561E+04  0.7818608E-02  0.8962141E-01
         -1   -1    0    0    0  501 -0.00000000000E+00  0.00000000000E+00  0.78434082348E+03  0.78434082348E+03  0.00000000000E+00 0.  1.
          1   -1    0    0  501    0  0.00000000000E+00 -0.00000000000E+00 -0.61456082721E+03  0.61456082721E+03  0.00000000000E+00 0. -1.
         23    2    1    2    0    0  0.66313464233E+02 -0.39892081376E+03  0.64977949561E+03  0.77125938748E+03  0.95353860290E+02 0.  0.
         11    1    3    3    0    0  0.34193553432E+01 -0.15972847172E+03  0.18240304837E+03  0.24247834691E+03  0.00000000000E+00 0.  1.
        -11    1    3    3    0    0  0.62894108890E+02 -0.23919234204E+03  0.46737644725E+03  0.52878104057E+03  0.00000000000E+00 0. -1.
         22    1    1    2    0    0 -0.66313464233E+02  0.39892081376E+03 -0.47999949934E+03  0.62764226320E+03  0.00000000000E+00 0. -1.
<mgrwt>
<rscale>  0 0.13885606E+04</rscale>
<asrwt>0</asrwt>
<pdfrwt beam="1">  1        1 0.94547819E-01 0.13885606E+04</pdfrwt>
<pdfrwt beam="2">  1       -1 0.12066782E+00 0.13885606E+04</pdfrwt>
<totfact> 0.19719845E+01</totfact>
</mgrwt>
</event>
<event>
 6    1  0.1637818E-005  0.2368728E+04  0.7818608E-02  0.8451305E-01
         -1   -1    0    0    0  501 -0.00000000000E+00  0.00000000000E+00  0.11500332110E+04  0.11500332110E+04  0.00000000000E+00 0.  1.
          1   -1    0    0  501    0  0.00000000000E+00 -0.00000000000E+00 -0.12197193706E+04  0.12197193706E+04  0.00000000000E+00 0. -1.
         23    2    1    2    0    0 -0.30724593758E+03  0.11177970265E+04  0.19918337057E+03  0.11797269168E+04  0.90616359670E+02 0.  0.
         13    1    3    3    0    0 -0.24842527659E+03  0.79383502599E+03  0.17160049714E+03  0.84931495757E+03  0.00000000000E+00 0. -1.
        -13    1    3    3    0    0 -0.58820660992E+02  0.32396200048E+03  0.27582873423E+02  0.33041195926E+03  0.00000000000E+00 0.  1.
         22    1    1    2    0    0  0.30724593758E+03 -0.11177970265E+04 -0.26886953016E+03  0.11900256648E+04  0.00000000000E+00 0.  1.
<mgrwt>
<rscale>  0 0.23687277E+04</rscale>
<asrwt>0</asrwt>
<pdfrwt beam="1">  1        1 0.18764913E+00 0.23687277E+04</pdfrwt>
<pdfrwt beam="2">  1       -1 0.17692819E+00 0.23687277E+04</pdfrwt>
<totfact> 0.20343524E+00</totfact>
</mgrwt>
</event>
<event>
 6    1  0.1637818E-005  0.1512171E+04  0.7818608E-02  0.8876399E-01
          1   -1    0    0  501    0  0.00000000000E+00  0.00000000000E+00  0.57699281403E+03  0.57699281403E+03  0.00000000000E+00 0. -1.
         -1   -1    0    0    0  501 -0.00000000000E+00 -0.00000000000E+00 -0.99076669695E+03  0.99076669695E+03  0.00000000000E+00 0.  1.
         23    2    1    2    0    0  0.12119181339E+03 -0.12255868298E+03 -0.96801929912E+03  0.98733202388E+03  0.89750072455E+02 0.  0.
         13    1    3    3    0    0  0.93814504169E+02 -0.34733968457E+02 -0.42820501723E+03  0.43973531418E+03  0.00000000000E+00 0. -1.
        -13    1    3    3    0    0  0.27377309217E+02 -0.87824714519E+02 -0.53981428189E+03  0.54759670970E+03  0.00000000000E+00 0.  1.
         22    1    1    2    0    0 -0.12119181339E+03  0.12255868298E+03  0.55424541620E+03  0.58042748711E+03  0.00000000000E+00 0. -1.
<mgrwt>
<rscale>  0 0.15121710E+04</rscale>
<asrwt>0</asrwt>
<pdfrwt beam="1">  1        1 0.88768126E-01 0.15121710E+04</pdfrwt>
<pdfrwt beam="2">  1       -1 0.15242564E+00 0.15121710E+04</pdfrwt>
<totfact> 0.11697777E+01</totfact>
</mgrwt>
</event>
<event>
 6    1  0.1637818E-005  0.2270322E+04  0.7818608E-02  0.8489716E-01
         -2   -1    0    0    0  501 -0.00000000000E+00  0.00000000000E+00  0.90212032228E+03  0.90212032228E+03  0.00000000000E+00 0.  1.
          2   -1    0    0  501    0  0.00000000000E+00 -0.00000000000E+00 -0.14284018524E+04  0.14284018524E+04  0.00000000000E+00 0. -1.
         23    2    1    2    0    0 -0.73207988190E+03 -0.77226584614E+03 -0.66390739519E+03  0.12575467000E+04  0.91187623103E+02 0.  0.
         11    1    3    3    0    0 -0.58259947089E+03 -0.56315678882E+03 -0.52300500303E+03  0.96441793091E+03  0.00000000000E+00 0.  1.
        -11    1    3    3    0    0 -0.14948041101E+03 -0.20910905732E+03 -0.14090239216E+03  0.29312876905E+03  0.00000000000E+00 0. -1.
         22    1    1    2    0    0  0.73207988190E+03  0.77226584614E+03  0.13762586506E+03  0.10729754747E+04  0.00000000000E+00 0.  1.
<mgrwt>
<rscale>  0 0.22703219E+04</rscale>
<asrwt>0</asrwt>
<pdfrwt beam="1">  1        2 0.21975413E+00 0.22703219E+04</pdfrwt>
<pdfrwt beam="2">  1       -2 0.13878774E+00 0.22703219E+04</pdfrwt>
<totfact> 0.46547653E+00</totfact>
</mgrwt>
</event>
<event>
 6    1  0.1637818E-005  0.3759639E+04  0.7818608E-02  0.8054872E-01
          2   -1    0    0  501    0  0.00000000000E+00  0.00000000000E+00  0.25903656199E+04  0.25903656199E+04  0.00000000000E+00 0. -1.
         -2   -1    0    0    0  501 -0.00000000000E+00 -0.00000000000E+00 -0.13641789019E+04  0.13641789019E+04  0.00000000000E+00 0.  1.
         23    2    1    2    0    0  0.10553850856E+04  0.25023722492E+03 -0.10000940036E+04  0.14780990451E+04  0.90179950534E+02 0.  0.
         11    1    3    3    0    0  0.17452176915E+03  0.74203889181E+02 -0.15820346626E+03  0.24696639814E+03  0.00000000000E+00 0.  1.
        -11    1    3    3    0    0  0.88086331644E+03  0.17603333574E+03 -0.84189053732E+03  0.12311326469E+04  0.00000000000E+00 0. -1.
         22    1    1    2    0    0 -0.10553850856E+04 -0.25023722492E+03  0.22262807216E+04  0.24764454767E+04  0.00000000000E+00 0. -1.
<mgrwt>
<rscale>  0 0.37596394E+04</rscale>
<asrwt>0</asrwt>
<pdfrwt beam="1">  1        2 0.39851779E+00 0.37596394E+04</pdfrwt>
<pdfrwt beam="2">  1       -2 0.20987368E+00 0.37596394E+04</pdfrwt>
<totfact> 0.28451563E-01</totfact>
</mgrwt>
</event>
<event>
 6    1  0.1637818E-005  0.4937800E+04  0.7818608E-02  0.7838174E-01
         -1   -1    0    0    0  501 -0.00000000000E+00  0.00000000000E+00  0.27547575267E+04  0.27547575267E+04  0.00000000000E+00 0.  1.
          1   -1    0    0  501    0  0.00000000000E+00 -0.00000000000E+00 -0.22127059082E+04  0.22127059082E+04  0.00000000000E+00 0. -1.
         23    2    1    2    0    0  0.22410345571E+04  0.27535548222E+03 -0.73117492998E+03  0.23753287217E+04  0.97535789747E+02 0.  0.
         11    1    3    3    0    0  0.13912786669E+04  0.21769689441E+03 -0.46504889315E+03  0.14830100268E+04  0.00000000000E+00 0. -1.
        -11    1    3    3    0    0  0.84975589025E+03  0.57658587814E+02 -0.26612603684E+03  0.89231869488E+03  0.00000000000E+00 0.  1.
         22    1    1    2    0    0 -0.22410345571E+04 -0.27535548222E+03  0.12732265485E+04  0.25921347132E+04  0.00000000000E+00 0. -1.
<mgrwt>
<rscale>  0 0.49378004E+04</rscale>
<asrwt>0</asrwt>
<pdfrwt beam="1">  1        1 0.34041630E+00 0.49378004E+04</pdfrwt>
<pdfrwt beam="2">  1       -1 0.42380885E+00 0.49378004E+04</pdfrwt>
<totfact> 0.76107778E-03</totfact>
</mgrwt>
</event>
<event>
 6    1  0.1637818E-005  0.1456777E+04  0.7818608E-02  0.8913715E-01
          1   -1    0    0  501    0  0.00000000000E+00  0.00000000000E+00  0.21856626975E+04  0.21856626975E+04  0.00000000000E+00 0. -1.
         -1   -1    0    0    0  501 -0.00000000000E+00 -0.00000000000E+00 -0.24274102405E+03  0.24274102405E+03  0.00000000000E+00 0.  1.
         23    2    1    2    0    0 -0.68384173206E+03 -0.22015525507E+03  0.80233675374E+03  0.10804267893E+04  0.86428755420E+02 0.  0.
         11    1    3    3    0    0 -0.24877522151E+03 -0.37446491331E+02  0.26912606944E+03  0.36840221471E+03  0.00000000000E+00 0.  1.
        -11    1    3    3    0    0 -0.43506651054E+03 -0.18270876374E+03  0.53321068430E+03  0.71202457458E+03  0.00000000000E+00 0. -1.
         22    1    1    2    0    0  0.68384173206E+03  0.22015525507E+03  0.11405849197E+04  0.13479769322E+04  0.00000000000E+00 0.  1.
<mgrwt>
<rscale>  0 0.14567773E+04</rscale>
<asrwt>0</asrwt>
<pdfrwt beam="1">  1        1 0.33625579E+00 0.14567773E+04</pdfrwt>
<pdfrwt beam="2">  1       -1 0.37344774E-01 0.14567773E+04</pdfrwt>
<totfact> 0.14951859E+01</totfact>
</mgrwt>
</event>
<event>
 6    1  0.1637818E-005  0.1387064E+04  0.7818608E-02  0.8963236E-01
          1   -1    0    0  501    0  0.00000000000E+00  0.00000000000E+00  0.11148821009E+04  0.11148821009E+04  0.00000000000E+00 0. -1.
         -1   -1    0    0    0  501 -0.00000000000E+00 -0.00000000000E+00 -0.43142392655E+03  0.43142392655E+03  0.00000000000E+00 0.  1.
         23    2    1    2    0    0  0.38821751821E+03 -0.29399258727E+03  0.88899738232E+03  0.10177316724E+04  0.91197194763E+02 0.  0.
         11    1    3    3    0    0  0.24480371603E+03 -0.23680958325E+03  0.63145573376E+03  0.71745660621E+03  0.00000000000E+00 0.  1.
        -11    1    3    3    0    0  0.14341380218E+03 -0.57183004018E+02  0.25754164856E+03  0.30027506614E+03  0.00000000000E+00 0. -1.
         22    1    1    2    0    0 -0.38821751821E+03  0.29399258727E+03 -0.20553920799E+03  0.52857435507E+03  0.00000000000E+00 0.  1.
<mgrwt>
<rscale>  0 0.13870643E+04</rscale>
<asrwt>0</asrwt>
<pdfrwt beam="1">  1        1 0.17152032E+00 0.13870643E+04</pdfrwt>
<pdfrwt beam="2">  1       -1 0.66372912E-01 0.13870643E+04</pdfrwt>
<totfact> 0.27742640E+01</totfact>
</mgrwt>
</event>
<event>
 6    1  0.1637818E-005  0.2227113E+04  0.7818608E-02  0.8507227E-01
         -1   -1    0    0    0  501 -0.00000000000E+00  0.00000000000E+00  0.28810760435E+04  0.28810760435E+04  0.00000000000E+00 0.  1.
          1   -1    0    0  501    0  0.00000000000E+00 -0.00000000000E+00 -0.43039741388E+03  0.43039741388E+03  0.00000000000E+00 0. -1.
         23    2    1    2    0    0 -0.38897652852E+03  0.79680781324E+03  0.23022474006E+03  0.92052784808E+03  0.90347424880E+02 0.  0.
         11    1    3    3    0    0 -0.21714726937E+03  0.36818330859E+03  0.79577194406E+02  0.43479238171E+03  0.00000000000E+00 0.  1.
        -11    1    3    3    0    0 -0.17182925915E+03  0.42862450465E+03  0.15064754566E+03  0.48573546638E+03  0.00000000000E+00 0. -1.
         22    1    1    2    0    0  0.38897652852E+03 -0.79680781324E+03  0.22204538896E+04  0.23909456093E+04  0.00000000000E+00 0.  1.
<mgrwt>
<rscale>  0 0.22271126E+04</rscale>
<asrwt>0</asrwt>
<pdfrwt beam="1">  1        1 0.66214989E-01 0.22271126E+04</pdfrwt>
<pdfrwt beam="2">  1       -1 0.44324246E+00 0.22271126E+04</pdfrwt>
<totfact> 0.17819519E-01</totfact>
</mgrwt>
</event>
<event>
 6    1  0.1637818E-005  0.2774066E+04  0.7818608E-02  0.8311365E-01
          1   -1    0    0  501    0  0.00000000000E+00  0.00000000000E+00  0.42485377579E+04  0.42485377579E+04  0.00000000000E+00 0. -1.
         -1   -1    0    0    0  501 -0.00000000000E+00 -0.00000000000E+00 -0.45282876355E+03  0.45282876355E+03  0.00000000000E+00 0.  1.
         23    2    1    2    0    0  0.81706153511E+03 -0.78936119078E+03  0.32440560222E+04  0.34384327768E+04  0.90773585706E+02 0.  0.
         11    1    3    3    0    0  0.47808365469E+03 -0.43773389234E+03  0.17237869355E+04  0.18416341495E+04  0.00000000000E+00 0. -1.
        -11    1    3    3    0    0  0.33897788042E+03 -0.35162729844E+03  0.15202690867E+04  0.15967986274E+04  0.00000000000E+00 0.  1.
         22    1    1    2    0    0 -0.81706153511E+03  0.78936119078E+03  0.55165297215E+03  0.12629337446E+04  0.00000000000E+00 0.  1.
<mgrwt>
<rscale>  0 0.27740657E+04</rscale>
<asrwt>0</asrwt>
<pdfrwt beam="1">  1        1 0.65362117E+00 0.27740657E+04</pdfrwt>
<pdfrwt beam="2">  1       -1 0.69665966E-01 0.27740657E+04</pdfrwt>
<totfact> 0.10307526E-01</totfact>
</mgrwt>
</event>
<event>
 6    1  0.1637818E-005  0.3834690E+04  0.7818608E-02  0.8038751E-01
          2   -1    0    0  501    0  0.00000000000E+00  0.00000000000E+00  0.33371512177E+04  0.33371512177E+04  0.00000000000E+00 0. -1.
         -2   -1    0    0    0  501 -0.00000000000E+00 -0.00000000000E+00 -0.11016017692E+04  0.11016017692E+04  0.00000000000E+00 0.  1.
         23    2    1    2    0    0  0.16218612198E+04  0.10087142738E+04  0.12978623147E+04  0.23110322667E+04  0.92115403539E+02 0.  0.
         13    1    3    3    0    0  0.87721309729E+03  0.57096317939E+03  0.75984178738E+03  0.12933913994E+04  0.00000000000E+00 0.  1.
        -13    1    3    3    0    0  0.74464812248E+03  0.43775109442E+03  0.53802052733E+03  0.10176408673E+04  0.00000000000E+00 0. -1.
         22    1    1    2    0    0 -0.16218612198E+04 -0.10087142738E+04  0.93768713376E+03  0.21277207202E+04  0.00000000000E+00 0.  1.
<mgrwt>
<rscale>  0 0.38346899E+04</rscale>
<asrwt>0</asrwt>
<pdfrwt beam="1">  1        2 0.51340788E+00 0.38346899E+04</pdfrwt>
<pdfrwt beam="2">  1       -2 0.16947720E+00 0.38346899E+04</pdfrwt>
<totfact> 0.18052739E-01</totfact>
</mgrwt>
</event>
<event>
 6    1  0.1637818E-005  0.1929657E+04  0.7818608E-02  0.8640233E-01
          2   -1    0    0  501    0  0.00000000000E+00  0.00000000000E+00  0.84663292765E+03  0.84663292765E+03  0.00000000000E+00 0. -1.
         -2   -1    0    0    0  501 -0.00000000000E+00 -0.00000000000E+00 -0.10995248497E+04  0.10995248497E+04  0.00000000000E+00 0.  1.
         23    2    1    2    0    0  0.67922077860E+03 -0.38518411520E+03  0.44113788947E+03  0.90146401937E+03  0.91252791763E+02 0.  0.
         13    1    3    3    0    0  0.48787405896E+02 -0.57337042736E+02  0.49513921866E+02  0.90107579606E+02  0.00000000000E+00 0. -1.
        -13    1    3    3    0    0  0.63043337271E+03 -0.32784707247E+03  0.39162396761E+03  0.81135643977E+03  0.00000000000E+00 0.  1.
         22    1    1    2    0    0 -0.67922077860E+03  0.38518411520E+03 -0.69402981158E+03  0.10446937580E+04  0.00000000000E+00 0.  1.
<mgrwt>
<rscale>  0 0.19296569E+04</rscale>
<asrwt>0</asrwt>
<pdfrwt beam="1">  1        2 0.13025122E+00 0.19296569E+04</pdfrwt>
<pdfrwt beam="2">  1       -2 0.16915767E+00 0.19296569E+04</pdfrwt>
<totfact> 0.64406490E+00</totfact>
</mgrwt>
</event>
<event>
 6    1  0.1637818E-005  0.4359282E+04  0.7818608E-02  0.7935746E-01
          1   -1    0    0  501    0  0.00000000000E+00  0.00000000000E+00  0.28758375822E+04  0.28758375822E+04  0.00000000000E+00 0. -1.
         -1   -1    0    0    0  501 -0.00000000000E+00 -0.00000000000E+00 -0.16519829477E+04  0.16519829477E+04  0.00000000000E+00 0.  1.
         23    2    1    2    0    0 -0.72617104112E+03  0.20520862328E+04  0.52532893572E+03  0.22417058259E+04  0.10436585233E+03 0.  0.
         13    1    3    3    0    0 -0.24400347415E+03  0.84222776664E+03  0.21642711617E+03  0.90317551058E+03  0.00000000000E+00 0. -1.
        -13    1    3    3    0    0 -0.48216756696E+03  0.12098584662E+04  0.30890181956E+03  0.13385303153E+04  0.00000000000E+00 0.  1.
         22    1    1    2    0    0  0.72617104112E+03 -0.20520862328E+04  0.69852569884E+03  0.22861147040E+04  0.00000000000E+00 0. -1.
<mgrwt>
<rscale>  0 0.43592819E+04</rscale>
<asrwt>0</asrwt>
<pdfrwt beam="1">  1        1 0.44243655E+00 0.43592819E+04</pdfrwt>
<pdfrwt beam="2">  1       -1 0.25415122E+00 0.43592819E+04</pdfrwt>
<totfact> 0.36604953E-02</totfact>
</mgrwt>
</event>
<event>
 6    1  0.1637818E-005  0.4021160E+04  0.7818608E-02  0.8000292E-01
         -2   -1    0    0    0  501 -0.00000000000E+00  0.00000000000E+00  0.18854530887E+04  0.18854530887E+04  0.00000000000E+00 0.  1.
          2   -1    0    0  501    0  0.00000000000E+00 -0.00000000000E+00 -0.21440105373E+04  0.21440105373E+04  0.00000000000E+00 0. -1.
         23    2    1    2    0    0 -0.10726763267E+04 -0.78719101954E+03  0.13797409887E+04  0.19189362103E+04  0.91251193446E+02 0.  0.
         13    1    3    3    0    0 -0.19677862987E+03 -0.17895906695E+03  0.31011663416E+03  0.40855905766E+03  0.00000000000E+00 0. -1.
        -13    1    3    3    0    0 -0.87589769684E+03 -0.60823195259E+03  0.10696243545E+04  0.15103771526E+04  0.00000000000E+00 0.  1.
         22    1    1    2    0    0  0.10726763267E+04  0.78719101954E+03 -0.16382984372E+04  0.21105274157E+04  0.00000000000E+00 0. -1.
<mgrwt>
<rscale>  0 0.40211597E+04</rscale>
<asrwt>0</asrwt>
<pdfrwt beam="1">  1        2 0.32984778E+00 0.40211597E+04</pdfrwt>
<pdfrwt beam="2">  1       -2 0.29006971E+00 0.40211597E+04</pdfrwt>
<totfact> 0.15982894E-01</totfact>
</mgrwt>
</event>
<event>
 6    1  0.1637818E-005  0.2390689E+04  0.7818608E-02  0.8442998E-01
         -1   -1    0    0    0  501 -0.00000000000E+00  0.00000000000E+00  0.98832213802E+03  0.98832213802E+03  0.00000000000E+00 0.  1.
          1   -1    0    0  501    0  0.00000000000E+00 -0.00000000000E+00 -0.14457314699E+04  0.14457314699E+04  0.00000000000E+00 0. -1.
         23    2    1    2    0    0  0.83479330524E+03 -0.61800138670E+03  0.36956158668E+03  0.11063915739E+04  0.93386144692E+02 0.  0.
         11    1    3    3    0    0  0.26660467952E+03 -0.21516382648E+03  0.78241922559E+02  0.35141901743E+03  0.00000000000E+00 0.  1.
        -11    1    3    3    0    0  0.56818862572E+03 -0.40283756021E+03  0.29131966412E+03  0.75497255647E+03  0.00000000000E+00 0. -1.
         22    1    1    2    0    0 -0.83479330524E+03  0.61800138670E+03 -0.82697091858E+03  0.13276620340E+04  0.00000000000E+00 0. -1.
<mgrwt>
<rscale>  0 0.23906890E+04</rscale>
<asrwt>0</asrwt>
<pdfrwt beam="1">  1        1 0.22242022E+00 0.23906890E+04</pdfrwt>
<pdfrwt beam="2">  1       -1 0.15204956E+00 0.23906890E+04</pdfrwt>
<totfact> 0.21525287E+00</totfact>
</mgrwt>
</event>
<event>
 6    1  0.1637818E-005  0.5701826E+04  0.7818608E-02  0.7728512E-01
          2   -1    0    0  501    0  0.00000000000E+00  0.00000000000E+00  0.28361325437E+04  0.28361325437E+04  0.00000000000E+00 0. -1.
         -2   -1    0    0    0  501 -0.00000000000E+00 -0.00000000000E+00 -0.28657699920E+04  0.28657699920E+04  0.00000000000E+00 0.  1.
         23    2    1    2    0    0 -0.16005945707E+04  0.13694857323E+04  0.19051312479E+04  0.28417060288E+04  0.91509188660E+02 0.  0.
         13    1    3    3    0    0 -0.64453167075E+03  0.60544913222E+03  0.82464803760E+03  0.12091460260E+04  0.00000000000E+00 0.  1.
        -13    1    3    3    0    0 -0.95606289997E+03  0.76403660004E+03  0.10804832103E+04  0.16325600028E+04  0.00000000000E+00 0. -1.
         22    1    1    2    0    0  0.16005945707E+04 -0.13694857323E+04 -0.19347686962E+04  0.28601965069E+04  0.00000000000E+00 0.  1.
<mgrwt>
<rscale>  0 0.57018255E+04</rscale>
<asrwt>0</asrwt>
<pdfrwt beam="1">  1        2 0.43632809E+00 0.57018255E+04</pdfrwt>
<pdfrwt beam="2">  1       -2 0.44088769E+00 0.57018255E+04</pdfrwt>
<totfact> 0.60587031E-03</totfact>
</mgrwt>
</event>
<event>
 6    1  0.1637818E-005  0.3853541E+04  0.7818608E-02  0.8034762E-01
          2   -1    0    0  501    0  0.00000000000E+00  0.00000000000E+00  0.22448283698E+04  0.22448283698E+04  0.00000000000E+00 0. -1.
         -2   -1    0    0    0  501 -0.00000000000E+00 -0.00000000000E+00 -0.16537768904E+04  0.16537768904E+04  0.00000000000E+00 0.  1.
         23    2    1    2    0    0 -0.70877397055E+02 -0.41068339133E+03  0.21977774696E+04  0.22387098236E+04  0.88946135582E+02 0.  0.
         13    1    3    3    0    0 -0.20025675665E+02 -0.33097675728E+03  0.17171290721E+04  0.17488507346E+04  0.00000000000E+00 0. -1.
        -13    1    3    3    0    0 -0.50851721391E+02 -0.79706634044E+02  0.48064839749E+03  0.48985908901E+03  0.00000000000E+00 0.  1.
         22    1    1    2    0    0  0.70877397055E+02  0.41068339133E+03 -0.16067259901E+04  0.16598954367E+04  0.00000000000E+00 0.  1.
<mgrwt>
<rscale>  0 0.38535414E+04</rscale>
<asrwt>0</asrwt>
<pdfrwt beam="1">  1        2 0.34535821E+00 0.38535414E+04</pdfrwt>
<pdfrwt beam="2">  1       -2 0.25442721E+00 0.38535414E+04</pdfrwt>
<totfact> 0.23476147E-01</totfact>
</mgrwt>
</event>
<event>
 6    1  0.1637818E-005  0.4014896E+04  0.7818608E-02  0.8001548E-01
         -1   -1    0    0    0  501 -0.00000000000E+00  0.00000000000E+00  0.23127301054E+04  0.23127301054E+04  0.00000000000E+00 0.  1.
          1   -1    0    0  501    0  0.00000000000E+00 -0.00000000000E+00 -0.17424633207E+04  0.17424633207E+04  0.00000000000E+00 0. -1.
         23    2    1    2    0    0  0.11513219767E+04 -0.39334863064E+03 -0.13261550401E+04  0.18020442573E+04  0.91710826712E+02 0.  0.
         13    1    3    3    0    0  0.41432859363E+03 -0.12914397111E+03 -0.41141199417E+03  0.59800182083E+03  0.00000000000E+00 0. -1.
        -13    1    3    3    0    0  0.73699338305E+03 -0.26420465953E+03 -0.91474304592E+03  0.12040424365E+04  0.00000000000E+00 0.  1.
         22    1    1    2    0    0 -0.11513219767E+04  0.39334863064E+03  0.18964218248E+04  0.22531491688E+04  0.00000000000E+00 0.  1.
<mgrwt>
<rscale>  0 0.40148960E+04</rscale>
<asrwt>0</asrwt>
<pdfrwt beam="1">  1        1 0.26807128E+00 0.40148960E+04</pdfrwt>
<pdfrwt beam="2">  1       -1 0.35580463E+00 0.40148960E+04</pdfrwt>
<totfact> 0.49531241E-02</totfact>
</mgrwt>
</event>
<event>
 6    1  0.1637818E-005  0.2671874E+04  0.7818608E-02  0.8344189E-01
         -1   -1    0    0    0  501 -0.00000000000E+00  0.00000000000E+00  0.76075491735E+03  0.76075491735E+03  0.00000000000E+00 0.  1.
          1   -1    0    0  501    0  0.00000000000E+00 -0.00000000000E+00 -0.23459949040E+04  0.23459949040E+04  0.00000000000E+00 0. -1.
         23    2    1    2    0    0 -0.18411962123E+03 -0.11523646387E+04 -0.15459469912E+04  0.19391076523E+04  0.91335053812E+02 0.  0.
         13    1    3    3    0    0 -0.85441997970E+02 -0.45551713231E+03 -0.68579498607E+03  0.82771429598E+03  0.00000000000E+00 0. -1.
        -13    1    3    3    0    0 -0.98677623265E+02 -0.69684750637E+03 -0.86015200517E+03  0.11113933563E+04  0.00000000000E+00 0.  1.
         22    1    1    2    0    0  0.18411962123E+03  0.11523646387E+04 -0.39292995366E+02  0.11676421690E+04  0.00000000000E+00 0.  1.
<mgrwt>
<rscale>  0 0.26718736E+04</rscale>
<asrwt>0</asrwt>
<pdfrwt beam="1">  1        1 0.36092229E+00 0.26718736E+04</pdfrwt>
<pdfrwt beam="2">  1       -1 0.11703922E+00 0.26718736E+04</pdfrwt>
<totfact> 0.99628787E-01</totfact>
</mgrwt>
</event>
<event>
 6    1  0.1637818E-005  0.1167870E+04  0.7818608E-02  0.9141454E-01
         -2   -1    0    0    0  501 -0.00000000000E+00  0.00000000000E+00  0.88767070661E+03  0.88767070661E+03  0.00000000000E+00 0.  1.
          2   -1    0    0  501    0  0.00000000000E+00 -0.00000000000E+00 -0.38412897881E+03  0.38412897881E+03  0.00000000000E+00 0. -1.
         23    2    1    2    0    0  0.41550572492E+03  0.14369803034E+03 -0.15940090181E+03  0.47632054583E+03  0.90434968464E+02 0.  0.
         11    1    3    3    0    0  0.39063326929E+03  0.15171806354E+03 -0.13422509291E+03  0.44003306404E+03  0.00000000000E+00 0. -1.
        -11    1    3    3    0    0  0.24872455630E+02 -0.80200331972E+01 -0.25175808894E+02  0.36287481795E+02  0.00000000000E+00 0.  1.
         22    1    1    2    0    0 -0.41550572492E+03 -0.14369803034E+03  0.66294262960E+03  0.79547913958E+03  0.00000000000E+00 0.  1.
<mgrwt>
<rscale>  0 0.11678699E+04</rscale>
<asrwt>0</asrwt>
<pdfrwt beam="1">  1        2 0.59096766E-01 0.11678699E+04</pdfrwt>
<pdfrwt beam="2">  1       -2 0.13656472E+00 0.11678699E+04</pdfrwt>
<totfact> 0.31497961E+01</totfact>
</mgrwt>
</event>
<event>
 6    1  0.1637818E-005  0.8542182E+03  0.7818608E-02  0.9484693E-01
          2   -1    0    0  501    0  0.00000000000E+00  0.00000000000E+00  0.13724799915E+04  0.13724799915E+04  0.00000000000E+00 0. -1.
         -2   -1    0    0    0  501 -0.00000000000E+00 -0.00000000000E+00 -0.13291427486E+03  0.13291427486E+03  0.00000000000E+00 0.  1.
         23    2    1    2    0    0 -0.80165650826E+02 -0.32087395944E+03  0.10889959063E+04  0.11419965542E+04  0.94113848732E+02 0.  0.
         13    1    3    3    0    0 -0.25180067523E+02 -0.21523036261E+03  0.81335002261E+03  0.84172228441E+03  0.00000000000E+00 0. -1.
        -13    1    3    3    0    0 -0.54985583304E+02 -0.10564359683E+03  0.27564588364E+03  0.30027426978E+03  0.00000000000E+00 0.  1.
         22    1    1    2    0    0  0.80165650826E+02  0.32087395944E+03  0.15056981040E+03  0.36339771219E+03  0.00000000000E+00 0.  1.
<mgrwt>
<rscale>  0 0.85421820E+03</rscale>
<asrwt>0</asrwt>
<pdfrwt beam="1">  1        2 0.21115076E+00 0.85421820E+03</pdfrwt>
<pdfrwt beam="2">  1       -2 0.20448351E-01 0.85421820E+03</pdfrwt>
<totfact> 0.30961892E+02</totfact>
</mgrwt>
</event>
<event>
 6    1  0.1637818E-005  0.1626711E+04  0.7818608E-02  0.8804305E-01
          1   -1    0    0  501    0  0.00000000000E+00  0.00000000000E+00  0.13829861367E+04  0.13829861367E+04  0.00000000000E+00 0. -1.
         -1   -1    0    0    0  501 -0.00000000000E+00 -0.00000000000E+00 -0.47834673342E+03  0.47834673342E+03  0.00000000000E+00 0.  1.
         23    2    1    2    0    0  0.30747727437E+03  0.66363848739E+03  0.85428800740E+03  0.11281933341E+04  0.89743430830E+02 0.  0.
         11    1    3    3    0    0  0.15682940337E+03  0.35230819814E+03  0.51805088238E+03  0.64582756597E+03  0.00000000000E+00 0. -1.
        -11    1    3    3    0    0  0.15064787099E+03  0.31133028925E+03  0.33623712502E+03  0.48236576815E+03  0.00000000000E+00 0.  1.
         22    1    1    2    0    0 -0.30747727437E+03 -0.66363848739E+03  0.50351395887E+02  0.73313953601E+03  0.00000000000E+00 0.  1.
<mgrwt>
<rscale>  0 0.16267107E+04</rscale>
<asrwt>0</asrwt>
<pdfrwt beam="1">  1        1 0.21276710E+00 0.16267107E+04</pdfrwt>
<pdfrwt beam="2">  1       -1 0.73591806E-01 0.16267107E+04</pdfrwt>
<totfact> 0.14065339E+01</totfact>
</mgrwt>
</event>
<event>
 6    1  0.1637818E-005  0.1724339E+04  0.7818608E-02  0.8747604E-01
         -1   -1    0    0    0  501 -0.00000000000E+00  0.00000000000E+00  0.12019233022E+04  0.12019233022E+04  0.00000000000E+00 0.  1.
          1   -1    0    0  501    0  0.00000000000E+00 -0.00000000000E+00 -0.61845529873E+03  0.61845529873E+03  0.00000000000E+00 0. -1.
         23    2    1    2    0    0  0.53677791714E+03 -0.43328148458E+03  0.83412316712E+03  0.10864226157E+04  0.93216226189E+02 0.  0.
         11    1    3    3    0    0  0.12720221481E+03 -0.15682677919E+03  0.24613879823E+03  0.31836983231E+03  0.00000000000E+00 0. -1.
        -11    1    3    3    0    0  0.40957570232E+03 -0.27645470538E+03  0.58798436888E+03  0.76805278342E+03  0.00000000000E+00 0.  1.
         22    1    1    2    0    0 -0.53677791714E+03  0.43328148458E+03 -0.25065516363E+03  0.73395598523E+03  0.00000000000E+00 0. -1.
<mgrwt>
<rscale>  0 0.17243385E+04</rscale>
<asrwt>0</asrwt>
<pdfrwt beam="1">  1        1 0.95146969E-01 0.17243385E+04</pdfrwt>
<pdfrwt beam="2">  1       -1 0.18491128E+00 0.17243385E+04</pdfrwt>
<totfact> 0.59731000E+00</totfact>
</mgrwt>
</event>
<event>
 6    1  0.1637818E-005  0.1988805E+04  0.7818608E-02  0.8611873E-01
         -1   -1    0    0    0  501 -0.00000000000E+00  0.00000000000E+00  0.94296316195E+03  0.94296316195E+03  0.00000000000E+00 0.  1.
          1   -1    0    0  501    0  0.00000000000E+00 -0.00000000000E+00 -0.10486480165E+04  0.10486480165E+04  0.00000000000E+00 0. -1.
         23    2    1    2    0    0 -0.17497050475E+03  0.14124693915E+03  0.91476239614E+03  0.94668153163E+03  0.94076062787E+02 0.  0.
         13    1    3    3    0    0 -0.14317717617E+03  0.72905195211E+02  0.72299607819E+03  0.74063364786E+03  0.00000000000E+00 0.  1.
        -13    1    3    3    0    0 -0.31793328574E+02  0.68341743935E+02  0.19176631795E+03  0.20604788377E+03  0.00000000000E+00 0. -1.
         22    1    1    2    0    0  0.17497050475E+03 -0.14124693915E+03 -0.10204472507E+04  0.10449296468E+04  0.00000000000E+00 0. -1.
<mgrwt>
<rscale>  0 0.19888051E+04</rscale>
<asrwt>0</asrwt>
<pdfrwt beam="1">  1        1 0.16133046E+00 0.19888051E+04</pdfrwt>
<pdfrwt beam="2">  1       -1 0.14507126E+00 0.19888051E+04</pdfrwt>
<totfact> 0.49156303E+00</totfact>
</mgrwt>
</event>
<event>
 6    1  0.1637818E-005  0.1172221E+04  0.7818608E-02  0.9137525E-01
          2   -1    0    0  501    0  0.00000000000E+00  0.00000000000E+00  0.11846023284E+04  0.11846023284E+04  0.00000000000E+00 0. -1.
         -2   -1    0    0    0  501 -0.00000000000E+00 -0.00000000000E+00 -0.28999204459E+03  0.28999204459E+03  0.00000000000E+00 0.  1.
         23    2    1    2    0    0 -0.22222543401E+03 -0.23324861847E+02 -0.22691362592E+03  0.33102798979E+03  0.90341262427E+02 0.  0.
         11    1    3    3    0    0 -0.20634702791E+03  0.47006916420E+01 -0.17851131834E+03  0.27288730862E+03  0.00000000000E+00 0. -1.
        -11    1    3    3    0    0 -0.15878406104E+02 -0.28025553489E+02 -0.48402307579E+02  0.58140681177E+02  0.00000000000E+00 0.  1.
         22    1    1    2    0    0  0.22222543401E+03  0.23324861847E+02  0.11215239097E+04  0.11435663832E+04  0.00000000000E+00 0. -1.
<mgrwt>
<rscale>  0 0.11722205E+04</rscale>
<asrwt>0</asrwt>
<pdfrwt beam="1">  1        2 0.18224651E+00 0.11722205E+04</pdfrwt>
<pdfrwt beam="2">  1       -2 0.44614162E-01 0.11722205E+04</pdfrwt>
<totfact> 0.91079293E+01</totfact>
</mgrwt>
</event>
<event>
 6    1  0.1637818E-005  0.2313321E+04  0.7818608E-02  0.8472687E-01
         -1   -1    0    0    0  501 -0.00000000000E+00  0.00000000000E+00  0.10945493750E+04  0.10945493750E+04  0.00000000000E+00 0.  1.
          1   -1    0    0  501    0  0.00000000000E+00 -0.00000000000E+00 -0.12222958938E+04  0.12222958938E+04  0.00000000000E+00 0. -1.
         23    2    1    2    0    0 -0.99163004839E+03  0.22569240683E+03  0.48365876673E+03  0.11302182681E+04  0.95918275789E+02 0.  0.
         11    1    3    3    0    0 -0.68008561692E+03  0.11041394334E+03  0.33960631034E+03  0.76814069756E+03  0.00000000000E+00 0.  1.
        -11    1    3    3    0    0 -0.31154443147E+03  0.11527846349E+03  0.14405245639E+03  0.36207757058E+03  0.00000000000E+00 0. -1.
         22    1    1    2    0    0  0.99163004839E+03 -0.22569240683E+03 -0.61140528557E+03  0.11866270006E+04  0.00000000000E+00 0. -1.
<mgrwt>
<rscale>  0 0.23133207E+04</rscale>
<asrwt>0</asrwt>
<pdfrwt beam="1">  1        1 0.18804552E+00 0.23133207E+04</pdfrwt>
<pdfrwt beam="2">  1       -1 0.16839221E+00 0.23133207E+04</pdfrwt>
<totfact> 0.23500189E+00</totfact>
</mgrwt>
</event>
<event>
 6    1  0.2138086E-005  0.6445545E+04  0.7818608E-02  0.7637487E-01
         -2   -1    0    0    0  501 -0.00000000000E+00  0.00000000000E+00  0.42187511181E+04  0.42187511181E+04  0.00000000000E+00 0. -1.
          2   -1    0    0  501    0  0.00000000000E+00 -0.00000000000E+00 -0.24619284053E+04  0.24619284053E+04  0.00000000000E+00 0.  1.
         23    2    1    2    0    0 -0.31936215507E+04 -0.19782798500E+03  0.48529229110E+03  0.32375495326E+04  0.88678335486E+02 0.  0.
         11    1    3    3    0    0 -0.22364436752E+04 -0.16142750011E+03  0.37394207997E+03  0.22732293833E+04  0.00000000000E+00 0.  1.
        -11    1    3    3    0    0 -0.95717787551E+03 -0.36400484892E+02  0.11135021113E+03  0.96432014922E+03  0.00000000000E+00 0. -1.
         22    1    1    2    0    0  0.31936215507E+04  0.19782798500E+03  0.12715304217E+04  0.34431299909E+04  0.00000000000E+00 0. -1.
<mgrwt>
<rscale>  0 0.64455452E+04</rscale>
<asrwt>0</asrwt>
<pdfrwt beam="1">  1        2 0.37875822E+00 0.64455452E+04</pdfrwt>
<pdfrwt beam="2">  1       -2 0.64903863E+00 0.64455452E+04</pdfrwt>
<totfact> 0.82687677E-04</totfact>
</mgrwt>
</event>
<event>
 6    1  0.1637818E-005  0.7145040E+03  0.7818608E-02  0.9692745E-01
         -2   -1    0    0    0  501 -0.00000000000E+00  0.00000000000E+00  0.12233739028E+03  0.12233739028E+03  0.00000000000E+00 0.  1.
          2   -1    0    0  501    0  0.00000000000E+00 -0.00000000000E+00 -0.10432542657E+04  0.10432542657E+04  0.00000000000E+00 0. -1.
         23    2    1    2    0    0 -0.24319688115E+03 -0.20544186828E+03 -0.71092517889E+03  0.78421573007E+03  0.90711725054E+02 0.  0.
         13    1    3    3    0    0 -0.16415664533E+03 -0.15267565007E+03 -0.58477748454E+03  0.62627626872E+03  0.00000000000E+00 0. -1.
        -13    1    3    3    0    0 -0.79040235824E+02 -0.52766218203E+02 -0.12614769435E+03  0.15793946136E+03  0.00000000000E+00 0.  1.
         22    1    1    2    0    0  0.24319688115E+03  0.20544186828E+03 -0.20999169650E+03  0.38137592588E+03  0.00000000000E+00 0.  1.
<mgrwt>
<rscale>  0 0.71450404E+03</rscale>
<asrwt>0</asrwt>
<pdfrwt beam="1">  1        2 0.16050065E+00 0.71450404E+03</pdfrwt>
<pdfrwt beam="2">  1       -2 0.18821138E-01 0.71450404E+03</pdfrwt>
<totfact> 0.56499733E+02</totfact>
</mgrwt>
</event>
<event>
 6    1  0.1637818E-005  0.2726681E+04  0.7818608E-02  0.8326400E-01
         -2   -1    0    0    0  501 -0.00000000000E+00  0.00000000000E+00  0.17914800350E+04  0.17914800350E+04  0.00000000000E+00 0.  1.
          2   -1    0    0  501    0  0.00000000000E+00 -0.00000000000E+00 -0.10375203035E+04  0.10375203035E+04  0.00000000000E+00 0. -1.
         23    2    1    2    0    0  0.65063043383E+03  0.85765450385E+03 -0.48783896374E+03  0.11855420308E+04  0.92907711573E+02 0.  0.
         11    1    3    3    0    0  0.30087247988E+03  0.43922279354E+03 -0.19858696035E+03  0.56822327684E+03  0.00000000000E+00 0.  1.
        -11    1    3    3    0    0  0.34975795395E+03  0.41843171031E+03 -0.28925200339E+03  0.61731875397E+03  0.00000000000E+00 0. -1.
         22    1    1    2    0    0 -0.65063043383E+03 -0.85765450385E+03  0.12417986953E+04  0.16434583076E+04  0.00000000000E+00 0.  1.
<mgrwt>
<rscale>  0 0.27266807E+04</rscale>
<asrwt>0</asrwt>
<pdfrwt beam="1">  1        2 0.15961851E+00 0.27266807E+04</pdfrwt>
<pdfrwt beam="2">  1       -2 0.27561231E+00 0.27266807E+04</pdfrwt>
<totfact> 0.93458695E-01</totfact>
</mgrwt>
</event>
<event>
 6    1  0.2059515E-005  0.1953456E+04  0.7818608E-02  0.8628696E-01
          1   -1    0    0  501    0  0.00000000000E+00  0.00000000000E+00  0.15507752525E+04  0.15507752525E+04  0.00000000000E+00 0. -1.
         -1   -1    0    0    0  501 -0.00000000000E+00 -0.00000000000E+00 -0.61517469571E+03  0.61517469571E+03  0.00000000000E+00 0.  1.
         23    2    1    2    0    0  0.93826866517E+03  0.77495283414E+02  0.74842785360E+03  0.12060607735E+04  0.89915128129E+02 0.  0.
         11    1    3    3    0    0  0.30814735161E+03  0.35238402089E+02  0.19513088688E+03  0.36643225609E+03  0.00000000000E+00 0.  1.
        -11    1    3    3    0    0  0.63012131356E+03  0.42256881325E+02  0.55329696672E+03  0.83962851738E+03  0.00000000000E+00 0. -1.
         22    1    1    2    0    0 -0.93826866517E+03 -0.77495283414E+02  0.18717270321E+03  0.95988917475E+03  0.00000000000E+00 0. -1.
<mgrwt>
<rscale>  0 0.19534561E+04</rscale>
<asrwt>0</asrwt>
<pdfrwt beam="1">  1        1 0.23858081E+00 0.19534561E+04</pdfrwt>
<pdfrwt beam="2">  1       -1 0.94642261E-01 0.19534561E+04</pdfrwt>
<totfact> 0.60675747E+00</totfact>
</mgrwt>
</event>
<event>
 6    1  0.1637818E-005  0.1738303E+04  0.7818608E-02  0.8739815E-01
          1   -1    0    0  501    0  0.00000000000E+00  0.00000000000E+00  0.32529600204E+04  0.32529600204E+04  0.00000000000E+00 0. -1.
         -1   -1    0    0    0  501 -0.00000000000E+00 -0.00000000000E+00 -0.23222673933E+03  0.23222673933E+03  0.00000000000E+00 0.  1.
         23    2    1    2    0    0  0.19211417594E+03  0.82650129542E+03  0.18686155348E+04  0.20543172516E+04  0.92103775870E+02 0.  0.
         13    1    3    3    0    0  0.76985815188E+02  0.17389843298E+03  0.45115868448E+03  0.48960355321E+03  0.00000000000E+00 0.  1.
        -13    1    3    3    0    0  0.11512836075E+03  0.65260286244E+03  0.14174568503E+04  0.15647136984E+04  0.00000000000E+00 0. -1.
         22    1    1    2    0    0 -0.19211417594E+03 -0.82650129542E+03  0.11521177463E+04  0.14308695081E+04  0.00000000000E+00 0.  1.
<mgrwt>
<rscale>  0 0.17383030E+04</rscale>
<asrwt>0</asrwt>
<pdfrwt beam="1">  1        1 0.50045535E+00 0.17383030E+04</pdfrwt>
<pdfrwt beam="2">  1       -1 0.35727193E-01 0.17383030E+04</pdfrwt>
<totfact> 0.27652841E+00</totfact>
</mgrwt>
</event>
<event>
 6    1  0.1637818E-005  0.3051621E+04  0.7818608E-02  0.8229142E-01
         -2   -1    0    0    0  501 -0.00000000000E+00  0.00000000000E+00  0.72939926196E+03  0.72939926196E+03  0.00000000000E+00 0.  1.
          2   -1    0    0  501    0  0.00000000000E+00 -0.00000000000E+00 -0.31918013660E+04  0.31918013660E+04  0.00000000000E+00 0. -1.
         23    2    1    2    0    0  0.10298962663E+04  0.11239232151E+04 -0.12263371985E+04  0.19586140277E+04  0.91521975837E+02 0.  0.
         13    1    3    3    0    0  0.18206541873E+03  0.18917505066E+03 -0.16899213205E+03  0.31223926273E+03  0.00000000000E+00 0.  1.
        -13    1    3    3    0    0  0.84783084759E+03  0.93474816448E+03 -0.10573450665E+04  0.16463747650E+04  0.00000000000E+00 0. -1.
         22    1    1    2    0    0 -0.10298962663E+04 -0.11239232151E+04 -0.12360649055E+04  0.19625866003E+04  0.00000000000E+00 0.  1.
<mgrwt>
<rscale>  0 0.30516209E+04</rscale>
<asrwt>0</asrwt>
<pdfrwt beam="1">  1        2 0.49104636E+00 0.30516209E+04</pdfrwt>
<pdfrwt beam="2">  1       -2 0.11221527E+00 0.30516209E+04</pdfrwt>
<totfact> 0.69994403E-01</totfact>
</mgrwt>
</event>
<event>
 6    1  0.1637818E-005  0.5581636E+03  0.7818608E-02  0.9996218E-01
         -1   -1    0    0    0  501 -0.00000000000E+00  0.00000000000E+00  0.69088373041E+03  0.69088373041E+03  0.00000000000E+00 0.  1.
          1   -1    0    0  501    0  0.00000000000E+00 -0.00000000000E+00 -0.11273483429E+03  0.11273483429E+03  0.00000000000E+00 0. -1.
         23    2    1    2    0    0  0.13211777698E+03  0.33798465412E+02 -0.41309243278E+02  0.16932696794E+03  0.91475271156E+02 0.  0.
         13    1    3    3    0    0  0.65320583344E+02  0.59970201727E+02 -0.40734443399E+02  0.97583290489E+02  0.00000000000E+00 0. -1.
        -13    1    3    3    0    0  0.66797193631E+02 -0.26171736315E+02 -0.57479987948E+00  0.71743677447E+02  0.00000000000E+00 0.  1.
         22    1    1    2    0    0 -0.13211777698E+03 -0.33798465412E+02  0.61945813940E+03  0.63429159676E+03  0.00000000000E+00 0.  1.
<mgrwt>
<rscale>  0 0.55816364E+03</rscale>
<asrwt>0</asrwt>
<pdfrwt beam="1">  1        1 0.17343821E-01 0.55816364E+03</pdfrwt>
<pdfrwt beam="2">  1       -1 0.10628980E+00 0.55816364E+03</pdfrwt>
<totfact> 0.26736588E+02</totfact>
</mgrwt>
</event>
<event>
 6    1  0.1637818E-005  0.3457920E+04  0.7818608E-02  0.8123835E-01
         -2   -1    0    0    0  501 -0.00000000000E+00  0.00000000000E+00  0.65757402351E+03  0.65757402351E+03  0.00000000000E+00 0.  1.
          2   -1    0    0  501    0  0.00000000000E+00 -0.00000000000E+00 -0.45459551689E+04  0.45459551689E+04  0.00000000000E+00 0. -1.
         23    2    1    2    0    0 -0.18003691655E+02 -0.10138712860E+04 -0.40505884352E+04  0.41766064483E+04  0.92280201511E+02 0.  0.
         13    1    3    3    0    0 -0.43195430760E+02 -0.34959505983E+03 -0.13074271836E+04  0.13540488881E+04  0.00000000000E+00 0. -1.
        -13    1    3    3    0    0  0.25191739105E+02 -0.66427622616E+03 -0.27431612516E+04  0.28225575602E+04  0.00000000000E+00 0.  1.
         22    1    1    2    0    0  0.18003691655E+02  0.10138712860E+04  0.16220728977E+03  0.10269227441E+04  0.00000000000E+00 0.  1.
<mgrwt>
<rscale>  0 0.34579196E+04</rscale>
<asrwt>0</asrwt>
<pdfrwt beam="1">  1        2 0.69937772E+00 0.34579196E+04</pdfrwt>
<pdfrwt beam="2">  1       -2 0.10116523E+00 0.34579196E+04</pdfrwt>
<totfact> 0.73090124E-02</totfact>
</mgrwt>
</event>
<event>
 6    1  0.1637818E-005  0.2234629E+04  0.7818608E-02  0.8504152E-01
          2   -1    0    0  501    0  0.00000000000E+00  0.00000000000E+00  0.94575682393E+03  0.94575682393E+03  0.00000000000E+00 0. -1.
         -2   -1    0    0    0  501 -0.00000000000E+00 -0.00000000000E+00 -0.13199919428E+04  0.13199919428E+04  0.00000000000E+00 0.  1.
         23    2    1    2    0    0 -0.16904339034E+03  0.79932157000E+03  0.58241321817E+03  0.10077079562E+04  0.93699136975E+02 0.  0.
         11    1    3    3    0    0 -0.15003839988E+03  0.49430135407E+03  0.37591138351E+03  0.63886987589E+03  0.00000000000E+00 0. -1.
        -11    1    3    3    0    0 -0.19004990455E+02  0.30502021593E+03  0.20650183466E+03  0.36883808034E+03  0.00000000000E+00 0.  1.
         22    1    1    2    0    0  0.16904339034E+03 -0.79932157000E+03 -0.95664833699E+03  0.12580408104E+04  0.00000000000E+00 0.  1.
<mgrwt>
<rscale>  0 0.22346287E+04</rscale>
<asrwt>0</asrwt>
<pdfrwt beam="1">  1        2 0.14550105E+00 0.22346287E+04</pdfrwt>
<pdfrwt beam="2">  1       -2 0.20307568E+00 0.22346287E+04</pdfrwt>
<totfact> 0.31614470E+00</totfact>
</mgrwt>
</event>
<event>
 6    1  0.1637818E-005  0.4011679E+04  0.7818608E-02  0.8002195E-01
         -2   -1    0    0    0  501 -0.00000000000E+00  0.00000000000E+00  0.15790388875E+04  0.15790388875E+04  0.00000000000E+00 0.  1.
          2   -1    0    0  501    0  0.00000000000E+00 -0.00000000000E+00 -0.25480011998E+04  0.25480011998E+04  0.00000000000E+00 0. -1.
         23    2    1    2    0    0 -0.19015480730E+04  0.62857433037E+03 -0.39198803458E+03  0.20428399817E+04  0.92465175776E+02 0.  0.
         11    1    3    3    0    0 -0.12050734277E+04  0.39140865803E+03 -0.20295399877E+03  0.12831964111E+04  0.00000000000E+00 0. -1.
        -11    1    3    3    0    0 -0.69647464528E+03  0.23716567234E+03 -0.18903403581E+03  0.75964357060E+03  0.00000000000E+00 0.  1.
         22    1    1    2    0    0  0.19015480730E+04 -0.62857433037E+03 -0.57697427770E+03  0.20842001056E+04  0.00000000000E+00 0.  1.
<mgrwt>
<rscale>  0 0.40116794E+04</rscale>
<asrwt>0</asrwt>
<pdfrwt beam="1">  1        2 0.39200018E+00 0.40116794E+04</pdfrwt>
<pdfrwt beam="2">  1       -2 0.24292906E+00 0.40116794E+04</pdfrwt>
<totfact> 0.18278088E-01</totfact>
</mgrwt>
</event>
<event>
 6    1  0.1637818E-005  0.1161372E+04  0.7818608E-02  0.9147356E-01
          3   -1    0    0  501    0  0.00000000000E+00  0.00000000000E+00  0.70218860642E+03  0.70218860642E+03  0.00000000000E+00 0. -1.
         -3   -1    0    0    0  501 -0.00000000000E+00 -0.00000000000E+00 -0.48020720828E+03  0.48020720828E+03  0.00000000000E+00 0.  1.
         23    2    1    2    0    0 -0.75678326432E+02  0.40023768424E+03  0.52778071780E+03  0.67305247581E+03  0.92356570597E+02 0.  0.
         13    1    3    3    0    0 -0.43719451365E+02  0.36578599388E+03  0.44338334698E+03  0.57645431400E+03  0.00000000000E+00 0.  1.
        -13    1    3    3    0    0 -0.31958875067E+02  0.34451690363E+02  0.84397370815E+02  0.96598161809E+02  0.00000000000E+00 0. -1.
         22    1    1    2    0    0  0.75678326432E+02 -0.40023768424E+03 -0.30579931965E+03  0.50934333890E+03  0.00000000000E+00 0.  1.
<mgrwt>
<rscale>  0 0.11613717E+04</rscale>
<asrwt>0</asrwt>
<pdfrwt beam="1">  1        3 0.10802902E+00 0.11613717E+04</pdfrwt>
<pdfrwt beam="2">  1       -3 0.73878032E-01 0.11613717E+04</pdfrwt>
<totfact> 0.32789624E+00</totfact>
</mgrwt>
</event>
<event>
 6    1  0.1637818E-005  0.1510007E+04  0.7818608E-02  0.8877825E-01
         -1   -1    0    0    0  501 -0.00000000000E+00  0.00000000000E+00  0.66934509235E+03  0.66934509235E+03  0.00000000000E+00 0.  1.
          1   -1    0    0  501    0  0.00000000000E+00 -0.00000000000E+00 -0.85162428038E+03  0.85162428038E+03  0.00000000000E+00 0. -1.
         23    2    1    2    0    0  0.18042152133E+03 -0.77120440577E+02  0.63975419365E+03  0.67584312873E+03  0.94757683794E+02 0.  0.
         11    1    3    3    0    0  0.87800262026E+01 -0.26544248728E+02  0.32988502078E+02  0.43242655677E+02  0.00000000000E+00 0.  1.
        -11    1    3    3    0    0  0.17164149513E+03 -0.50576191849E+02  0.60676569157E+03  0.63260047305E+03  0.00000000000E+00 0. -1.
         22    1    1    2    0    0 -0.18042152133E+03  0.77120440577E+02 -0.82203338168E+03  0.84512624401E+03  0.00000000000E+00 0. -1.
<mgrwt>
<rscale>  0 0.15100073E+04</rscale>
<asrwt>0</asrwt>
<pdfrwt beam="1">  1        1 0.13101912E+00 0.15100073E+04</pdfrwt>
<pdfrwt beam="2">  1       -1 0.10297617E+00 0.15100073E+04</pdfrwt>
<totfact> 0.17195349E+01</totfact>
</mgrwt>
</event>
<event>
 6    1  0.1637818E-005  0.1194292E+04  0.7818608E-02  0.9117867E-01
         -1   -1    0    0    0  501 -0.00000000000E+00  0.00000000000E+00  0.17298048615E+03  0.17298048615E+03  0.00000000000E+00 0.  1.
          1   -1    0    0  501    0  0.00000000000E+00 -0.00000000000E+00 -0.20614090023E+04  0.20614090023E+04  0.00000000000E+00 0. -1.
         23    2    1    2    0    0  0.18398024825E+03  0.55487861716E+03 -0.75944762693E+03  0.96303711411E+03  0.94555663903E+02 0.  0.
         11    1    3    3    0    0  0.12798479812E+03  0.48241578631E+03 -0.66523716965E+03  0.83165232599E+03  0.00000000000E+00 0. -1.
        -11    1    3    3    0    0  0.55995450128E+02  0.72462830844E+02 -0.94210457280E+02  0.13138478812E+03  0.00000000000E+00 0.  1.
         22    1    1    2    0    0 -0.18398024825E+03 -0.55487861716E+03 -0.11289808893E+04  0.12713523744E+04  0.00000000000E+00 0.  1.
<mgrwt>
<rscale>  0 0.11942923E+04</rscale>
<asrwt>0</asrwt>
<pdfrwt beam="1">  1        1 0.31713986E+00 0.11942923E+04</pdfrwt>
<pdfrwt beam="2">  1       -1 0.26612381E-01 0.11942923E+04</pdfrwt>
<totfact> 0.33788925E+01</totfact>
</mgrwt>
</event>
<event>
 6    1  0.1637818E-005  0.2403608E+04  0.7818608E-02  0.8438154E-01
         -1   -1    0    0    0  501 -0.00000000000E+00  0.00000000000E+00  0.11389152845E+04  0.11389152845E+04  0.00000000000E+00 0.  1.
          1   -1    0    0  501    0  0.00000000000E+00 -0.00000000000E+00 -0.12681655431E+04  0.12681655431E+04  0.00000000000E+00 0. -1.
         23    2    1    2    0    0 -0.10868398813E+04  0.37490336748E+03  0.27997676969E+03  0.11867365225E+04  0.90460597659E+02 0.  0.
         11    1    3    3    0    0 -0.19206119648E+03  0.69410332737E+02  0.85804482957E+02  0.22151231744E+03  0.00000000000E+00 0. -1.
        -11    1    3    3    0    0 -0.89477868477E+03  0.30549303474E+03  0.19417228673E+03  0.96522420501E+03  0.00000000000E+00 0.  1.
         22    1    1    2    0    0  0.10868398813E+04 -0.37490336748E+03 -0.40922702829E+03  0.12203443051E+04  0.00000000000E+00 0. -1.
<mgrwt>
<rscale>  0 0.24036082E+04</rscale>
<asrwt>0</asrwt>
<pdfrwt beam="1">  1        1 0.19510239E+00 0.24036082E+04</pdfrwt>
<pdfrwt beam="2">  1       -1 0.17521774E+00 0.24036082E+04</pdfrwt>
<totfact> 0.19250446E+00</totfact>
</mgrwt>
</event>
<event>
 6    1  0.1637818E-005  0.8578425E+03  0.7818608E-02  0.9479871E-01
         -4   -1    0    0    0  501 -0.00000000000E+00  0.00000000000E+00  0.87168471458E+03  0.87168471458E+03  0.00000000000E+00 0.  1.
          4   -1    0    0  501    0  0.00000000000E+00 -0.00000000000E+00 -0.21105501277E+03  0.21105501277E+03  0.00000000000E+00 0. -1.
         23    2    1    2    0    0 -0.27121616837E+03 -0.32055636746E+03  0.40831002382E+03  0.59286238086E+03  0.91946355998E+02 0.  0.
         11    1    3    3    0    0 -0.18217986668E+03 -0.17032991945E+03  0.19133483722E+03  0.31434186043E+03  0.00000000000E+00 0.  1.
        -11    1    3    3    0    0 -0.89036301685E+02 -0.15022644800E+03  0.21697518660E+03  0.27852052043E+03  0.00000000000E+00 0. -1.
         22    1    1    2    0    0  0.27121616837E+03  0.32055636746E+03  0.25231967799E+03  0.48987734649E+03  0.00000000000E+00 0. -1.
<mgrwt>
<rscale>  0 0.85784248E+03</rscale>
<asrwt>0</asrwt>
<pdfrwt beam="1">  1        4 0.32470002E-01 0.85784248E+03</pdfrwt>
<pdfrwt beam="2">  1       -4 0.13410534E+00 0.85784248E+03</pdfrwt>
<totfact> 0.73394148E+00</totfact>
</mgrwt>
</event>
<event>
 6    1  0.1637818E-005  0.2142580E+04  0.7818608E-02  0.8542715E-01
          1   -1    0    0  501    0  0.00000000000E+00  0.00000000000E+00  0.61946456259E+03  0.61946456259E+03  0.00000000000E+00 0. -1.
         -1   -1    0    0    0  501 -0.00000000000E+00 -0.00000000000E+00 -0.18526677033E+04  0.18526677033E+04  0.00000000000E+00 0.  1.
         23    2    1    2    0    0 -0.31626803395E+03  0.85017191179E+03  0.35929530183E+02  0.91215935420E+03  0.89028127155E+02 0.  0.
         11    1    3    3    0    0 -0.19439211959E+03  0.58197343231E+03  0.60437590011E+02  0.61655013938E+03  0.00000000000E+00 0.  1.
        -11    1    3    3    0    0 -0.12187591435E+03  0.26819847948E+03 -0.24508059828E+02  0.29560921483E+03  0.00000000000E+00 0. -1.
         22    1    1    2    0    0  0.31626803395E+03 -0.85017191179E+03 -0.12691326709E+04  0.15599729117E+04  0.00000000000E+00 0.  1.
<mgrwt>
<rscale>  0 0.21425797E+04</rscale>
<asrwt>0</asrwt>
<pdfrwt beam="1">  1        1 0.95302240E-01 0.21425797E+04</pdfrwt>
<pdfrwt beam="2">  1       -1 0.28502580E+00 0.21425797E+04</pdfrwt>
<totfact> 0.12373614E+00</totfact>
</mgrwt>
</event>
<event>
 6    1  0.1637818E-005  0.1786176E+04  0.7818608E-02  0.8713685E-01
         -2   -1    0    0    0  501 -0.00000000000E+00  0.00000000000E+00  0.27878200181E+03  0.27878200181E+03  0.00000000000E+00 0.  1.
          2   -1    0    0  501    0  0.00000000000E+00 -0.00000000000E+00 -0.28610403197E+04  0.28610403197E+04  0.00000000000E+00 0. -1.
         23    2    1    2    0    0 -0.16207906066E+03 -0.67379349931E+03 -0.22782843582E+04  0.23830743650E+04  0.90534581691E+02 0.  0.
         11    1    3    3    0    0 -0.98036374610E+02 -0.23425658298E+03 -0.77525962183E+03  0.81579087924E+03  0.00000000000E+00 0. -1.
        -11    1    3    3    0    0 -0.64042686054E+02 -0.43953691633E+03 -0.15030247364E+04  0.15672834857E+04  0.00000000000E+00 0.  1.
         22    1    1    2    0    0  0.16207906066E+03  0.67379349931E+03 -0.30397395972E+03  0.75674795659E+03  0.00000000000E+00 0.  1.
<mgrwt>
<rscale>  0 0.17861764E+04</rscale>
<asrwt>0</asrwt>
<pdfrwt beam="1">  1        2 0.44016002E+00 0.17861764E+04</pdfrwt>
<pdfrwt beam="2">  1       -2 0.42889541E-01 0.17861764E+04</pdfrwt>
<totfact> 0.10372017E+01</totfact>
</mgrwt>
</event>
<event>
 6    1  0.1637818E-005  0.1785887E+04  0.7818608E-02  0.8713841E-01
          2   -1    0    0  501    0  0.00000000000E+00  0.00000000000E+00  0.98330052606E+03  0.98330052606E+03  0.00000000000E+00 0. -1.
         -2   -1    0    0    0  501 -0.00000000000E+00 -0.00000000000E+00 -0.81088934431E+03  0.81088934431E+03  0.00000000000E+00 0.  1.
         23    2    1    2    0    0  0.82177673417E+03  0.32345773102E+03 -0.27451693901E+02  0.88871371186E+03  0.95480686852E+02 0.  0.
         11    1    3    3    0    0  0.70340338577E+03  0.25028788897E+03 -0.47498014642E+02  0.74811523970E+03  0.00000000000E+00 0. -1.
        -11    1    3    3    0    0  0.11837334841E+03  0.73169842049E+02  0.20046320741E+02  0.14059847216E+03  0.00000000000E+00 0.  1.
         22    1    1    2    0    0 -0.82177673417E+03 -0.32345773102E+03  0.19986287565E+03  0.90547615852E+03  0.00000000000E+00 0.  1.
<mgrwt>
<rscale>  0 0.17858868E+04</rscale>
<asrwt>0</asrwt>
<pdfrwt beam="1">  1        2 0.15127700E+00 0.17858868E+04</pdfrwt>
<pdfrwt beam="2">  1       -2 0.12475221E+00 0.17858868E+04</pdfrwt>
<totfact> 0.11760601E+01</totfact>
</mgrwt>
</event>
<event>
 6    1  0.1637818E-005  0.6312157E+03  0.7818608E-02  0.9842679E-01
         -1   -1    0    0    0  501 -0.00000000000E+00  0.00000000000E+00  0.95102022571E+02  0.95102022571E+02  0.00000000000E+00 0.  1.
          1   -1    0    0  501    0  0.00000000000E+00 -0.00000000000E+00 -0.10473839243E+04  0.10473839243E+04  0.00000000000E+00 0. -1.
         23    2    1    2    0    0 -0.16491791843E+03  0.17342274206E+03 -0.83918201639E+03  0.87778809773E+03  0.94932189488E+02 0.  0.
         11    1    3    3    0    0 -0.81654246650E+02  0.87888525702E+02 -0.25873380682E+03  0.28519290268E+03  0.00000000000E+00 0.  1.
        -11    1    3    3    0    0 -0.83263671779E+02  0.85534216359E+02 -0.58044820957E+03  0.59259519505E+03  0.00000000000E+00 0. -1.
         22    1    1    2    0    0  0.16491791843E+03 -0.17342274206E+03 -0.11309988536E+03  0.26469784916E+03  0.00000000000E+00 0. -1.
<mgrwt>
<rscale>  0 0.63121575E+03</rscale>
<asrwt>0</asrwt>
<pdfrwt beam="1">  1        1 0.16113599E+00 0.63121575E+03</pdfrwt>
<pdfrwt beam="2">  1       -1 0.14631080E-01 0.63121575E+03</pdfrwt>
<totfact> 0.48341460E+02</totfact>
</mgrwt>
</event>
<event>
 6    1  0.1637818E-005  0.2260932E+04  0.7818608E-02  0.8493486E-01
          2   -1    0    0  501    0  0.00000000000E+00  0.00000000000E+00  0.76627752395E+03  0.76627752395E+03  0.00000000000E+00 0. -1.
         -2   -1    0    0    0  501 -0.00000000000E+00 -0.00000000000E+00 -0.16677424079E+04  0.16677424079E+04  0.00000000000E+00 0.  1.
         23    2    1    2    0    0  0.75681880969E+03 -0.13311300605E+03  0.43845091741E+03  0.88939436629E+03  0.91045860625E+02 0.  0.
         13    1    3    3    0    0  0.43737101244E+03 -0.51882751296E+02  0.29380075230E+03  0.52943753593E+03  0.00000000000E+00 0. -1.
        -13    1    3    3    0    0  0.31944779725E+03 -0.81230254758E+02  0.14465016511E+03  0.35995683036E+03  0.00000000000E+00 0.  1.
         22    1    1    2    0    0 -0.75681880969E+03  0.13311300605E+03 -0.13399158014E+04  0.15446255656E+04  0.00000000000E+00 0.  1.
<mgrwt>
<rscale>  0 0.22609321E+04</rscale>
<asrwt>0</asrwt>
<pdfrwt beam="1">  1        2 0.11788885E+00 0.22609321E+04</pdfrwt>
<pdfrwt beam="2">  1       -2 0.25657575E+00 0.22609321E+04</pdfrwt>
<totfact> 0.19416315E+00</totfact>
</mgrwt>
</event>
<event>
 6    1  0.1637818E-005  0.1667633E+04  0.7818608E-02  0.8780043E-01
          1   -1    0    0  501    0  0.00000000000E+00  0.00000000000E+00  0.15227616193E+04  0.15227616193E+04  0.00000000000E+00 0. -1.
         -1   -1    0    0    0  501 -0.00000000000E+00 -0.00000000000E+00 -0.45657187381E+03  0.45657187381E+03  0.00000000000E+00 0.  1.
         23    2    1    2    0    0 -0.51256290171E+03 -0.50798832297E+03  0.44765512643E+02  0.72870152169E+03  0.90714343475E+02 0.  0.
         13    1    3    3    0    0 -0.38406098730E+03 -0.41167269335E+03  0.65388746023E+02  0.56679179292E+03  0.00000000000E+00 0. -1.
        -13    1    3    3    0    0 -0.12850191441E+03 -0.96315629620E+02 -0.20623233380E+02  0.16190972877E+03  0.00000000000E+00 0.  1.
         22    1    1    2    0    0  0.51256290171E+03  0.50798832297E+03  0.10214242329E+04  0.12506319714E+04  0.00000000000E+00 0. -1.
<mgrwt>
<rscale>  0 0.16676332E+04</rscale>
<asrwt>0</asrwt>
<pdfrwt beam="1">  1        1 0.23427102E+00 0.16676332E+04</pdfrwt>
<pdfrwt beam="2">  1       -1 0.70241827E-01 0.16676332E+04</pdfrwt>
<totfact> 0.12330812E+01</totfact>
</mgrwt>
</event>
<event>
 6    1  0.1637818E-005  0.1615948E+04  0.7818608E-02  0.8810810E-01
         -2   -1    0    0    0  501 -0.00000000000E+00  0.00000000000E+00  0.16476483950E+04  0.16476483950E+04  0.00000000000E+00 0.  1.
          2   -1    0    0  501    0  0.00000000000E+00 -0.00000000000E+00 -0.39621416505E+03  0.39621416505E+03  0.00000000000E+00 0. -1.
         23    2    1    2    0    0 -0.15855399189E+03  0.26979113589E+03 -0.31080762619E+03  0.45058724095E+03  0.92200085988E+02 0.  0.
         13    1    3    3    0    0 -0.10240933560E+03  0.17083778164E+03 -0.13302850626E+03  0.23951994308E+03  0.00000000000E+00 0.  1.
        -13    1    3    3    0    0 -0.56144656289E+02  0.98953354253E+02 -0.17777911993E+03  0.21106729787E+03  0.00000000000E+00 0. -1.
         22    1    1    2    0    0  0.15855399189E+03 -0.26979113589E+03  0.15622418561E+04  0.15932753191E+04  0.00000000000E+00 0.  1.
<mgrwt>
<rscale>  0 0.16159476E+04</rscale>
<asrwt>0</asrwt>
<pdfrwt beam="1">  1        2 0.60956027E-01 0.16159476E+04</pdfrwt>
<pdfrwt beam="2">  1       -2 0.25348436E+00 0.16159476E+04</pdfrwt>
<totfact> 0.47107991E+00</totfact>
</mgrwt>
</event>
<event>
 6    1  0.1637818E-005  0.4636944E+04  0.7818608E-02  0.7887091E-01
         -1   -1    0    0    0  501 -0.00000000000E+00  0.00000000000E+00  0.41611372247E+04  0.41611372247E+04  0.00000000000E+00 0.  1.
          1   -1    0    0  501    0  0.00000000000E+00 -0.00000000000E+00 -0.12917894582E+04  0.12917894582E+04  0.00000000000E+00 0. -1.
         23    2    1    2    0    0  0.57751288304E+03 -0.19151884161E+04  0.58978135295E+02  0.20033404376E+04  0.91797000503E+02 0.  0.
         13    1    3    3    0    0  0.42879006170E+03 -0.15471137893E+04  0.53015774267E+02  0.16063102647E+04  0.00000000000E+00 0.  1.
        -13    1    3    3    0    0  0.14872282134E+03 -0.36807462678E+03  0.59623610285E+01  0.39703017293E+03  0.00000000000E+00 0. -1.
         22    1    1    2    0    0 -0.57751288304E+03  0.19151884161E+04  0.28103696313E+04  0.34495862453E+04  0.00000000000E+00 0.  1.
<mgrwt>
<rscale>  0 0.46369443E+04</rscale>
<asrwt>0</asrwt>
<pdfrwt beam="1">  1        1 0.19873684E+00 0.46369443E+04</pdfrwt>
<pdfrwt beam="2">  1       -1 0.64017495E+00 0.46369443E+04</pdfrwt>
<totfact> 0.21647859E-03</totfact>
</mgrwt>
</event>
<event>
 6    1  0.1731838E-005  0.3224253E+04  0.7818608E-02  0.8182441E-01
         -2   -1    0    0    0  501 -0.00000000000E+00  0.00000000000E+00  0.14344432561E+04  0.14344432561E+04  0.00000000000E+00 0. -1.
          2   -1    0    0  501    0  0.00000000000E+00 -0.00000000000E+00 -0.18118190913E+04  0.18118190913E+04  0.00000000000E+00 0.  1.
         23    2    1    2    0    0  0.85042749806E+03 -0.13290810458E+04 -0.51526470068E+03  0.16623757684E+04  0.91170872117E+02 0.  0.
         13    1    3    3    0    0  0.39506673248E+03 -0.70197774422E+03 -0.26337016781E+03  0.84747526322E+03  0.00000000000E+00 0.  1.
        -13    1    3    3    0    0  0.45536076558E+03 -0.62710330160E+03 -0.25189453287E+03  0.81490050522E+03  0.00000000000E+00 0. -1.
         22    1    1    2    0    0 -0.85042749806E+03  0.13290810458E+04  0.13788886548E+03  0.15838865790E+04  0.00000000000E+00 0. -1.
<mgrwt>
<rscale>  0 0.32242529E+04</rscale>
<asrwt>0</asrwt>
<pdfrwt beam="1">  1        2 0.27874140E+00 0.32242529E+04</pdfrwt>
<pdfrwt beam="2">  1       -2 0.22068358E+00 0.32242529E+04</pdfrwt>
<totfact> 0.69900683E-01</totfact>
</mgrwt>
</event>
<event>
 6    1  0.1637818E-005  0.2864083E+04  0.7818608E-02  0.8283645E-01
         -1   -1    0    0    0  501 -0.00000000000E+00  0.00000000000E+00  0.12913639956E+04  0.12913639956E+04  0.00000000000E+00 0.  1.
          1   -1    0    0  501    0  0.00000000000E+00 -0.00000000000E+00 -0.15880440024E+04  0.15880440024E+04  0.00000000000E+00 0. -1.
         23    2    1    2    0    0 -0.85191058800E+03 -0.75475654545E+03  0.72274006809E+03  0.13514595755E+04  0.93170194906E+02 0.  0.
         11    1    3    3    0    0 -0.12112042794E+03 -0.67476434770E+02  0.94233503235E+02  0.16764003234E+03  0.00000000000E+00 0. -1.
        -11    1    3    3    0    0 -0.73079016006E+03 -0.68728011068E+03  0.62850656485E+03  0.11838195431E+04  0.00000000000E+00 0.  1.
         22    1    1    2    0    0  0.85191058800E+03  0.75475654545E+03 -0.10194200749E+04  0.15279484225E+04  0.00000000000E+00 0.  1.
<mgrwt>
<rscale>  0 0.28640830E+04</rscale>
<asrwt>0</asrwt>
<pdfrwt beam="1">  1        1 0.24431446E+00 0.28640830E+04</pdfrwt>
<pdfrwt beam="2">  1       -1 0.19867138E+00 0.28640830E+04</pdfrwt>
<totfact> 0.75270313E-01</totfact>
</mgrwt>
</event>
<event>
 6    1  0.1637818E-005  0.1552306E+04  0.7818608E-02  0.8850396E-01
         -2   -1    0    0    0  501 -0.00000000000E+00  0.00000000000E+00  0.33505621170E+03  0.33505621170E+03  0.00000000000E+00 0.  1.
          2   -1    0    0  501    0  0.00000000000E+00 -0.00000000000E+00 -0.17979478087E+04  0.17979478087E+04  0.00000000000E+00 0. -1.
         23    2    1    2    0    0 -0.42073826806E+03 -0.58239065501E+03 -0.33598917129E+03  0.79655026426E+03  0.73512141930E+02 0.  0.
         13    1    3    3    0    0 -0.10425912404E+03 -0.19345622811E+03 -0.82968155561E+02  0.23490209019E+03  0.00000000000E+00 0.  1.
        -13    1    3    3    0    0 -0.31647914403E+03 -0.38893442690E+03 -0.25302101573E+03  0.56164817407E+03  0.00000000000E+00 0. -1.
         22    1    1    2    0    0  0.42073826806E+03  0.58239065501E+03 -0.11269024257E+04  0.13364537562E+04  0.00000000000E+00 0. -1.
<mgrwt>
<rscale>  0 0.15523061E+04</rscale>
<asrwt>0</asrwt>
<pdfrwt beam="1">  1        2 0.27660735E+00 0.15523061E+04</pdfrwt>
<pdfrwt beam="2">  1       -2 0.51547110E-01 0.15523061E+04</pdfrwt>
<totfact> 0.29599644E+01</totfact>
</mgrwt>
</event>
<event>
 6    1  0.1687469E-005  0.2322033E+04  0.7818608E-02  0.8469284E-01
         -2   -1    0    0    0  501 -0.00000000000E+00  0.00000000000E+00  0.68687312051E+03  0.68687312051E+03  0.00000000000E+00 0.  1.
          2   -1    0    0  501    0  0.00000000000E+00 -0.00000000000E+00 -0.19624580903E+04  0.19624580903E+04  0.00000000000E+00 0. -1.
         23    2    1    2    0    0 -0.10098887880E+04 -0.11354970873E+03 -0.12745470080E+04  0.16330783005E+04  0.98517812194E+02 0.  0.
         11    1    3    3    0    0 -0.72205631735E+03 -0.91159592245E+02 -0.84077925647E+03  0.11120185047E+04  0.00000000000E+00 0. -1.
        -11    1    3    3    0    0 -0.28783247062E+03 -0.22390116486E+02 -0.43376775157E+03  0.52105979576E+03  0.00000000000E+00 0.  1.
         22    1    1    2    0    0  0.10098887880E+04  0.11354970873E+03 -0.10379617429E+01  0.10162529103E+04  0.00000000000E+00 0.  1.
<mgrwt>
<rscale>  0 0.23220333E+04</rscale>
<asrwt>0</asrwt>
<pdfrwt beam="1">  1        2 0.30191662E+00 0.23220333E+04</pdfrwt>
<pdfrwt beam="2">  1       -2 0.10567279E+00 0.23220333E+04</pdfrwt>
<totfact> 0.45923236E+00</totfact>
</mgrwt>
</event>
<event>
 6    1  0.1637818E-005  0.1938177E+04  0.7818608E-02  0.8636083E-01
          1   -1    0    0  501    0  0.00000000000E+00  0.00000000000E+00  0.93927620298E+03  0.93927620298E+03  0.00000000000E+00 0. -1.
         -1   -1    0    0    0  501 -0.00000000000E+00 -0.00000000000E+00 -0.99984722367E+03  0.99984722367E+03  0.00000000000E+00 0.  1.
         23    2    1    2    0    0 -0.57418749088E+03  0.59510571351E+03 -0.53153520435E+03  0.98746731899E+03  0.93380660119E+02 0.  0.
         11    1    3    3    0    0 -0.24105720220E+03  0.31397862063E+03 -0.23656153929E+03  0.46114261440E+03  0.00000000000E+00 0.  1.
        -11    1    3    3    0    0 -0.33313028868E+03  0.28112709288E+03 -0.29497366506E+03  0.52632470460E+03  0.00000000000E+00 0. -1.
         22    1    1    2    0    0  0.57418749088E+03 -0.59510571351E+03  0.47096418366E+03  0.95165610765E+03  0.00000000000E+00 0. -1.
<mgrwt>
<rscale>  0 0.19381772E+04</rscale>
<asrwt>0</asrwt>
<pdfrwt beam="1">  1        1 0.14450403E+00 0.19381772E+04</pdfrwt>
<pdfrwt beam="2">  1       -1 0.15382265E+00 0.19381772E+04</pdfrwt>
<totfact> 0.51380005E+00</totfact>
</mgrwt>
</event>
<event>
 6    1  0.1637818E-005  0.1560795E+04  0.7818608E-02  0.8845002E-01
          1   -1    0    0  501    0  0.00000000000E+00  0.00000000000E+00  0.21637261855E+04  0.21637261855E+04  0.00000000000E+00 0. -1.
         -1   -1    0    0    0  501 -0.00000000000E+00 -0.00000000000E+00 -0.28146844399E+03  0.28146844399E+03  0.00000000000E+00 0.  1.
         23    2    1    2    0    0  0.40291733985E+03  0.59945001775E+03  0.13961157026E+04  0.15745530336E+04  0.91626928839E+02 0.  0.
         13    1    3    3    0    0  0.23553927774E+03  0.33783179129E+03  0.89131947817E+03  0.98186530784E+03  0.00000000000E+00 0.  1.
        -13    1    3    3    0    0  0.16737806211E+03  0.26161822645E+03  0.50479622441E+03  0.59268772576E+03  0.00000000000E+00 0. -1.
         22    1    1    2    0    0 -0.40291733985E+03 -0.59945001775E+03  0.48614203898E+03  0.87064159594E+03  0.00000000000E+00 0. -1.
<mgrwt>
<rscale>  0 0.15607955E+04</rscale>
<asrwt>0</asrwt>
<pdfrwt beam="1">  1        1 0.33288094E+00 0.15607955E+04</pdfrwt>
<pdfrwt beam="2">  1       -1 0.43302839E-01 0.15607955E+04</pdfrwt>
<totfact> 0.11690682E+01</totfact>
</mgrwt>
</event>
<event>
 6    1  0.1637818E-005  0.2264825E+04  0.7818608E-02  0.8491920E-01
         -2   -1    0    0    0  501 -0.00000000000E+00  0.00000000000E+00  0.13397486877E+04  0.13397486877E+04  0.00000000000E+00 0.  1.
          2   -1    0    0  501    0  0.00000000000E+00 -0.00000000000E+00 -0.95716350001E+03  0.95716350001E+03  0.00000000000E+00 0. -1.
         23    2    1    2    0    0 -0.10411376643E+04  0.32146554502E+03 -0.11393824470E+03  0.10994802474E+04  0.92558944551E+02 0.  0.
         13    1    3    3    0    0 -0.79197565071E+03  0.21220962202E+03 -0.11106267680E+03  0.82740151872E+03  0.00000000000E+00 0. -1.
        -13    1    3    3    0    0 -0.24916201360E+03  0.10925592299E+03 -0.28755679002E+01  0.27207872872E+03  0.00000000000E+00 0.  1.
         22    1    1    2    0    0  0.10411376643E+04 -0.32146554502E+03  0.49652343239E+03  0.11974319403E+04  0.00000000000E+00 0.  1.
<mgrwt>
<rscale>  0 0.22648254E+04</rscale>
<asrwt>0</asrwt>
<pdfrwt beam="1">  1        2 0.14725592E+00 0.22648254E+04</pdfrwt>
<pdfrwt beam="2">  1       -2 0.20611518E+00 0.22648254E+04</pdfrwt>
<totfact> 0.29616672E+00</totfact>
</mgrwt>
</event>
<event>
 6    1  0.1637818E-005  0.2399651E+04  0.7818608E-02  0.8439634E-01
          2   -1    0    0  501    0  0.00000000000E+00  0.00000000000E+00  0.16286882246E+04  0.16286882246E+04  0.00000000000E+00 0. -1.
         -2   -1    0    0    0  501 -0.00000000000E+00 -0.00000000000E+00 -0.88389035780E+03  0.88389035780E+03  0.00000000000E+00 0.  1.
         23    2    1    2    0    0  0.54341586066E+03 -0.66313878201E+03 -0.50334470288E+03  0.99834157450E+03  0.90973444706E+02 0.  0.
         11    1    3    3    0    0  0.16071403872E+03 -0.14500569424E+03 -0.10099815125E+03  0.23886456447E+03  0.00000000000E+00 0. -1.
        -11    1    3    3    0    0  0.38270182193E+03 -0.51813308778E+03 -0.40234655163E+03  0.75947701003E+03  0.00000000000E+00 0.  1.
         22    1    1    2    0    0 -0.54341586066E+03  0.66313878201E+03  0.12481425696E+04  0.15142370079E+04  0.00000000000E+00 0. -1.
<mgrwt>
<rscale>  0 0.23996515E+04</rscale>
<asrwt>0</asrwt>
<pdfrwt beam="1">  1        2 0.25056742E+00 0.23996515E+04</pdfrwt>
<pdfrwt beam="2">  1       -2 0.13598313E+00 0.23996515E+04</pdfrwt>
<totfact> 0.37432610E+00</totfact>
</mgrwt>
</event>
<event>
 6    1  0.1637818E-005  0.1252189E+04  0.7818608E-02  0.9068363E-01
          1   -1    0    0  501    0  0.00000000000E+00  0.00000000000E+00  0.21518054358E+04  0.21518054358E+04  0.00000000000E+00 0. -1.
         -1   -1    0    0    0  501 -0.00000000000E+00 -0.00000000000E+00 -0.18217004922E+03  0.18217004922E+03  0.00000000000E+00 0.  1.
         23    2    1    2    0    0 -0.52563913813E+03  0.24813677801E+03  0.57325855549E+03  0.82144891714E+03  0.91019711525E+02 0.  0.
         13    1    3    3    0    0 -0.25390805803E+03  0.69964680209E+02  0.26146128253E+03  0.37111502350E+03  0.00000000000E+00 0. -1.
        -13    1    3    3    0    0 -0.27173108011E+03  0.17817209780E+03  0.31179727296E+03  0.45033389364E+03  0.00000000000E+00 0.  1.
         22    1    1    2    0    0  0.52563913813E+03 -0.24813677801E+03  0.13963768310E+04  0.15125265678E+04  0.00000000000E+00 0. -1.
<mgrwt>
<rscale>  0 0.12521893E+04</rscale>
<asrwt>0</asrwt>
<pdfrwt beam="1">  1        1 0.33104697E+00 0.12521893E+04</pdfrwt>
<pdfrwt beam="2">  1       -1 0.28026163E-01 0.12521893E+04</pdfrwt>
<totfact> 0.26697323E+01</totfact>
</mgrwt>
</event>
<event>
 6    1  0.1637818E-005  0.1227002E+04  0.7818608E-02  0.9089545E-01
         -1   -1    0    0    0  501 -0.00000000000E+00  0.00000000000E+00  0.99717917017E+02  0.99717917017E+02  0.00000000000E+00 0.  1.
          1   -1    0    0  501    0  0.00000000000E+00 -0.00000000000E+00 -0.37744794401E+04  0.37744794401E+04  0.00000000000E+00 0. -1.
         23    2    1    2    0    0 -0.58597397175E+03  0.95963069004E+02 -0.22913863113E+04  0.23687733694E+04  0.89786646319E+02 0.  0.
         13    1    3    3    0    0 -0.29547219104E+03  0.36364680601E+02 -0.97708006828E+03  0.10214262898E+04  0.00000000000E+00 0.  1.
        -13    1    3    3    0    0 -0.29050178071E+03  0.59598388403E+02 -0.13143062430E+04  0.13473470796E+04  0.00000000000E+00 0. -1.
         22    1    1    2    0    0  0.58597397175E+03 -0.95963069004E+02 -0.13833752118E+04  0.15054239877E+04  0.00000000000E+00 0.  1.
<mgrwt>
<rscale>  0 0.12270016E+04</rscale>
<asrwt>0</asrwt>
<pdfrwt beam="1">  1        1 0.58068915E+00 0.12270016E+04</pdfrwt>
<pdfrwt beam="2">  1       -1 0.15341218E-01 0.12270016E+04</pdfrwt>
<totfact> 0.48194066E+00</totfact>
</mgrwt>
</event>
<event>
 6    1  0.1637818E-005  0.3035816E+04  0.7818608E-02  0.8233577E-01
          1   -1    0    0  501    0  0.00000000000E+00  0.00000000000E+00  0.27747751755E+04  0.27747751755E+04  0.00000000000E+00 0. -1.
         -1   -1    0    0    0  501 -0.00000000000E+00 -0.00000000000E+00 -0.83035371731E+03  0.83035371731E+03  0.00000000000E+00 0.  1.
         23    2    1    2    0    0 -0.38325458382E+03  0.11211638839E+04  0.20971632353E+04  0.24104646801E+04  0.91399167652E+02 0.  0.
         13    1    3    3    0    0 -0.24947251119E+03  0.69140216229E+03  0.13856986492E+04  0.15685771355E+04  0.00000000000E+00 0. -1.
        -13    1    3    3    0    0 -0.13378207263E+03  0.42976172164E+03  0.71146458612E+03  0.84188754454E+03  0.00000000000E+00 0.  1.
         22    1    1    2    0    0  0.38325458382E+03 -0.11211638839E+04 -0.15274177711E+03  0.11946642127E+04  0.00000000000E+00 0.  1.
<mgrwt>
<rscale>  0 0.30358161E+04</rscale>
<asrwt>0</asrwt>
<pdfrwt beam="1">  1        1 0.42688848E+00 0.30358161E+04</pdfrwt>
<pdfrwt beam="2">  1       -1 0.12774673E+00 0.30358161E+04</pdfrwt>
<totfact> 0.39035905E-01</totfact>
</mgrwt>
</event>
<event>
 6    1  0.1637818E-005  0.2360265E+04  0.7818608E-02  0.8454531E-01
         -1   -1    0    0    0  501 -0.00000000000E+00  0.00000000000E+00  0.15430580385E+04  0.15430580385E+04  0.00000000000E+00 0.  1.
          1   -1    0    0  501    0  0.00000000000E+00 -0.00000000000E+00 -0.90256646475E+03  0.90256646475E+03  0.00000000000E+00 0. -1.
         23    2    1    2    0    0 -0.19518210302E+03 -0.11390385984E+04  0.81189855092E+02  0.11617540291E+04  0.87038207783E+02 0.  0.
         11    1    3    3    0    0 -0.93046387846E+02 -0.65161144936E+03  0.85291530357E+02  0.66372415684E+03  0.00000000000E+00 0. -1.
        -11    1    3    3    0    0 -0.10213571517E+03 -0.48742714903E+03 -0.41016752652E+01  0.49802987226E+03  0.00000000000E+00 0.  1.
         22    1    1    2    0    0  0.19518210302E+03  0.11390385984E+04  0.55930171869E+03  0.12838704742E+04  0.00000000000E+00 0.  1.
<mgrwt>
<rscale>  0 0.23602648E+04</rscale>
<asrwt>0</asrwt>
<pdfrwt beam="1">  1        1 0.13885638E+00 0.23602648E+04</pdfrwt>
<pdfrwt beam="2">  1       -1 0.23739354E+00 0.23602648E+04</pdfrwt>
<totfact> 0.13732586E+00</totfact>
</mgrwt>
</event>
<event>
 6    1  0.1637818E-005  0.1358566E+04  0.7818608E-02  0.8984369E-01
          2   -1    0    0  501    0  0.00000000000E+00  0.00000000000E+00  0.15285230823E+04  0.15285230823E+04  0.00000000000E+00 0. -1.
         -2   -1    0    0    0  501 -0.00000000000E+00 -0.00000000000E+00 -0.30187683752E+03  0.30187683752E+03  0.00000000000E+00 0.  1.
         23    2    1    2    0    0  0.55172097010E+03 -0.12965631635E+03  0.11898814951E+03  0.58616792970E+03  0.90707623027E+02 0.  0.
         11    1    3    3    0    0  0.44100767587E+03 -0.79440265089E+02  0.12250009547E+03  0.46454795154E+03  0.00000000000E+00 0.  1.
        -11    1    3    3    0    0  0.11071329423E+03 -0.50216051259E+02 -0.35119459665E+01  0.12161997816E+03  0.00000000000E+00 0. -1.
         22    1    1    2    0    0 -0.55172097010E+03  0.12965631635E+03  0.11076580953E+04  0.12442319902E+04  0.00000000000E+00 0. -1.
<mgrwt>
<rscale>  0 0.13585665E+04</rscale>
<asrwt>0</asrwt>
<pdfrwt beam="1">  1        2 0.23515739E+00 0.13585665E+04</pdfrwt>
<pdfrwt beam="2">  1       -2 0.46442591E-01 0.13585665E+04</pdfrwt>
<totfact> 0.52471051E+01</totfact>
</mgrwt>
</event>
<event>
 6    1  0.1637818E-005  0.1724449E+04  0.7818608E-02  0.8747542E-01
          2   -1    0    0  501    0  0.00000000000E+00  0.00000000000E+00  0.14500133511E+04  0.14500133511E+04  0.00000000000E+00 0. -1.
         -2   -1    0    0    0  501 -0.00000000000E+00 -0.00000000000E+00 -0.51270654247E+03  0.51270654247E+03  0.00000000000E+00 0.  1.
         23    2    1    2    0    0 -0.37237270004E+03 -0.71531677171E+03  0.80949495171E+03  0.11462179754E+04  0.90521039688E+02 0.  0.
         13    1    3    3    0    0 -0.20766595949E+03 -0.30232285067E+03  0.35699835906E+03  0.51183208686E+03  0.00000000000E+00 0. -1.
        -13    1    3    3    0    0 -0.16470674055E+03 -0.41299392104E+03  0.45249659265E+03  0.63438588853E+03  0.00000000000E+00 0.  1.
         22    1    1    2    0    0  0.37237270004E+03  0.71531677171E+03  0.12781185692E+03  0.81650191818E+03  0.00000000000E+00 0.  1.
<mgrwt>
<rscale>  0 0.17244493E+04</rscale>
<asrwt>0</asrwt>
<pdfrwt beam="1">  1        2 0.22307898E+00 0.17244493E+04</pdfrwt>
<pdfrwt beam="2">  1       -2 0.78877930E-01 0.17244493E+04</pdfrwt>
<totfact> 0.18362238E+01</totfact>
</mgrwt>
</event>
<event>
 6    1  0.1637818E-005  0.2971332E+04  0.7818608E-02  0.8251965E-01
          1   -1    0    0  501    0  0.00000000000E+00  0.00000000000E+00  0.22649397544E+04  0.22649397544E+04  0.00000000000E+00 0. -1.
         -1   -1    0    0    0  501 -0.00000000000E+00 -0.00000000000E+00 -0.97450859194E+03  0.97450859194E+03  0.00000000000E+00 0.  1.
         23    2    1    2    0    0 -0.14033680228E+04 -0.48255277822E+03  0.66810616604E+03  0.16302288484E+04  0.94769499470E+02 0.  0.
         11    1    3    3    0    0 -0.49028629646E+03 -0.15360619511E+03  0.18470430659E+03  0.54597728574E+03  0.00000000000E+00 0. -1.
        -11    1    3    3    0    0 -0.91308172633E+03 -0.32894658311E+03  0.48340185944E+03  0.10842515627E+04  0.00000000000E+00 0.  1.
         22    1    1    2    0    0  0.14033680228E+04  0.48255277822E+03  0.62232499638E+03  0.16092194979E+04  0.00000000000E+00 0.  1.
<mgrwt>
<rscale>  0 0.29713319E+04</rscale>
<asrwt>0</asrwt>
<pdfrwt beam="1">  1        1 0.34845227E+00 0.29713319E+04</pdfrwt>
<pdfrwt beam="2">  1       -1 0.14992440E+00 0.29713319E+04</pdfrwt>
<totfact> 0.58616170E-01</totfact>
</mgrwt>
</event>
<event>
 6    1  0.1637818E-005  0.1959834E+04  0.7818608E-02  0.8625633E-01
         -2   -1    0    0    0  501 -0.00000000000E+00  0.00000000000E+00  0.62315521743E+03  0.62315521743E+03  0.00000000000E+00 0.  1.
          2   -1    0    0  501    0  0.00000000000E+00 -0.00000000000E+00 -0.15409286917E+04  0.15409286917E+04  0.00000000000E+00 0. -1.
         23    2    1    2    0    0  0.89224816976E+03 -0.39713801673E+03 -0.50931714049E+03  0.11054706760E+04  0.94000346073E+02 0.  0.
         13    1    3    3    0    0  0.25509758621E+03 -0.15196001859E+03 -0.12632702446E+03  0.32268427735E+03  0.00000000000E+00 0.  1.
        -13    1    3    3    0    0  0.63715058354E+03 -0.24517799814E+03 -0.38299011603E+03  0.78278639861E+03  0.00000000000E+00 0. -1.
         22    1    1    2    0    0 -0.89224816976E+03  0.39713801673E+03 -0.40845633372E+03  0.10586132331E+04  0.00000000000E+00 0. -1.
<mgrwt>
<rscale>  0 0.19598344E+04</rscale>
<asrwt>0</asrwt>
<pdfrwt beam="1">  1        2 0.23706595E+00 0.19598344E+04</pdfrwt>
<pdfrwt beam="2">  1       -2 0.95870035E-01 0.19598344E+04</pdfrwt>
<totfact> 0.10236230E+01</totfact>
</mgrwt>
</event>
<event>
 6    1  0.1637818E-005  0.3474118E+04  0.7818608E-02  0.8119951E-01
         -1   -1    0    0    0  501 -0.00000000000E+00  0.00000000000E+00  0.80278957776E+03  0.80278957776E+03  0.00000000000E+00 0.  1.
          1   -1    0    0  501    0  0.00000000000E+00 -0.00000000000E+00 -0.37586102501E+04  0.37586102501E+04  0.00000000000E+00 0. -1.
         23    2    1    2    0    0 -0.86405591297E+03 -0.20792272197E+03 -0.34366992875E+04  0.35509203765E+04  0.91153980287E+02 0.  0.
         13    1    3    3    0    0 -0.12221580045E+03 -0.55812414754E+02 -0.60223932327E+03  0.61704451218E+03  0.00000000000E+00 0. -1.
        -13    1    3    3    0    0 -0.74184011252E+03 -0.15211030722E+03 -0.28344599642E+04  0.29338758643E+04  0.00000000000E+00 0.  1.
         22    1    1    2    0    0  0.86405591297E+03  0.20792272197E+03  0.48087861521E+03  0.10104794514E+04  0.00000000000E+00 0.  1.
<mgrwt>
<rscale>  0 0.34741175E+04</rscale>
<asrwt>0</asrwt>
<pdfrwt beam="1">  1        1 0.57824774E+00 0.34741175E+04</pdfrwt>
<pdfrwt beam="2">  1       -1 0.12350609E+00 0.34741175E+04</pdfrwt>
<totfact> 0.72616783E-02</totfact>
</mgrwt>
</event>
<event>
 6    1  0.1637818E-005  0.3293284E+04  0.7818608E-02  0.8164606E-01
          1   -1    0    0  501    0  0.00000000000E+00  0.00000000000E+00  0.21606173596E+04  0.21606173596E+04  0.00000000000E+00 0. -1.
         -1   -1    0    0    0  501 -0.00000000000E+00 -0.00000000000E+00 -0.12549332601E+04  0.12549332601E+04  0.00000000000E+00 0.  1.
         23    2    1    2    0    0  0.13829616709E+04  0.61887559394E+03  0.11184349016E+04  0.18855660160E+04  0.94194413864E+02 0.  0.
         13    1    3    3    0    0  0.69458577766E+03  0.26326768152E+03  0.52478003150E+03  0.90947971726E+03  0.00000000000E+00 0.  1.
        -13    1    3    3    0    0  0.68837589325E+03  0.35560791242E+03  0.59365487006E+03  0.97608629871E+03  0.00000000000E+00 0. -1.
         22    1    1    2    0    0 -0.13829616709E+04 -0.61887559394E+03 -0.21275080204E+03  0.15299846038E+04  0.00000000000E+00 0.  1.
<mgrwt>
<rscale>  0 0.32932844E+04</rscale>
<asrwt>0</asrwt>
<pdfrwt beam="1">  1        1 0.33240267E+00 0.32932844E+04</pdfrwt>
<pdfrwt beam="2">  1       -1 0.19306666E+00 0.32932844E+04</pdfrwt>
<totfact> 0.32350053E-01</totfact>
</mgrwt>
</event>
<event>
 6    1  0.1637818E-005  0.1075798E+04  0.7818608E-02  0.9229107E-01
         -2   -1    0    0    0  501 -0.00000000000E+00  0.00000000000E+00  0.11605267901E+03  0.11605267901E+03  0.00000000000E+00 0.  1.
          2   -1    0    0  501    0  0.00000000000E+00 -0.00000000000E+00 -0.24931390262E+04  0.24931390262E+04  0.00000000000E+00 0. -1.
         23    2    1    2    0    0 -0.27681546251E+03 -0.29592158384E+03 -0.20390141200E+04  0.20814709316E+04  0.10366423532E+03 0.  0.
         13    1    3    3    0    0 -0.20374563551E+03 -0.16712972527E+03 -0.11186047789E+04  0.11492263834E+04  0.00000000000E+00 0. -1.
        -13    1    3    3    0    0 -0.73069826999E+02 -0.12879185857E+03 -0.92040934111E+03  0.93224454820E+03  0.00000000000E+00 0.  1.
         22    1    1    2    0    0  0.27681546251E+03  0.29592158384E+03 -0.33807222722E+03  0.52772077360E+03  0.00000000000E+00 0.  1.
<mgrwt>
<rscale>  0 0.10757982E+04</rscale>
<asrwt>0</asrwt>
<pdfrwt beam="1">  1        2 0.38355985E+00 0.10757982E+04</pdfrwt>
<pdfrwt beam="2">  1       -2 0.17854258E-01 0.10757982E+04</pdfrwt>
<totfact> 0.91877179E+01</totfact>
</mgrwt>
</event>
<event>
 6    1  0.1637818E-005  0.3564862E+04  0.7818608E-02  0.8098588E-01
          1   -1    0    0  501    0  0.00000000000E+00  0.00000000000E+00  0.17673035477E+04  0.17673035477E+04  0.00000000000E+00 0. -1.
         -1   -1    0    0    0  501 -0.00000000000E+00 -0.00000000000E+00 -0.17976880226E+04  0.17976880226E+04  0.00000000000E+00 0.  1.
         23    2    1    2    0    0 -0.24546898531E+03  0.13064391596E+04  0.11705336374E+04  0.17735556622E+04  0.91172309298E+02 0.  0.
         13    1    3    3    0    0 -0.11613147393E+03  0.83111305388E+03  0.76369590373E+03  0.11346659689E+04  0.00000000000E+00 0. -1.
        -13    1    3    3    0    0 -0.12933751139E+03  0.47532610570E+03  0.40683773371E+03  0.63888969328E+03  0.00000000000E+00 0.  1.
         22    1    1    2    0    0  0.24546898531E+03 -0.13064391596E+04 -0.12009181124E+04  0.17914359082E+04  0.00000000000E+00 0.  1.
<mgrwt>
<rscale>  0 0.35648621E+04</rscale>
<asrwt>0</asrwt>
<pdfrwt beam="1">  1        1 0.27189285E+00 0.35648621E+04</pdfrwt>
<pdfrwt beam="2">  1       -1 0.27656739E+00 0.35648621E+04</pdfrwt>
<totfact> 0.16299501E-01</totfact>
</mgrwt>
</event>
<event>
 6    1  0.1637818E-005  0.1883593E+04  0.7818608E-02  0.8663067E-01
          1   -1    0    0  501    0  0.00000000000E+00  0.00000000000E+00  0.17755076865E+04  0.17755076865E+04  0.00000000000E+00 0. -1.
         -1   -1    0    0    0  501 -0.00000000000E+00 -0.00000000000E+00 -0.49956428552E+03  0.49956428552E+03  0.00000000000E+00 0.  1.
         23    2    1    2    0    0 -0.71097999689E+03  0.61403847647E+03  0.62234334438E+03  0.11306381205E+04  0.92171115951E+02 0.  0.
         13    1    3    3    0    0 -0.18385104009E+03  0.11362258151E+03  0.12125697206E+03  0.24781959011E+03  0.00000000000E+00 0. -1.
        -13    1    3    3    0    0 -0.52712895680E+03  0.50041589495E+03  0.50108637233E+03  0.88281853036E+03  0.00000000000E+00 0.  1.
         22    1    1    2    0    0  0.71097999689E+03 -0.61403847647E+03  0.65360005658E+03  0.11444338515E+04  0.00000000000E+00 0.  1.
<mgrwt>
<rscale>  0 0.18835926E+04</rscale>
<asrwt>0</asrwt>
<pdfrwt beam="1">  1        1 0.27315503E+00 0.18835926E+04</pdfrwt>
<pdfrwt beam="2">  1       -1 0.76856045E-01 0.18835926E+04</pdfrwt>
<totfact> 0.67356586E+00</totfact>
</mgrwt>
</event>
<event>
 6    1  0.1637818E-005  0.1604559E+04  0.7818608E-02  0.8817752E-01
          2   -1    0    0  501    0  0.00000000000E+00  0.00000000000E+00  0.10587791894E+04  0.10587791894E+04  0.00000000000E+00 0.  1.
         -2   -1    0    0    0  501 -0.00000000000E+00 -0.00000000000E+00 -0.60791920697E+03  0.60791920697E+03  0.00000000000E+00 0. -1.
         23    2    1    2    0    0  0.66471219292E+03 -0.24027665127E+03 -0.16156874855E+03  0.73147429537E+03  0.96824664823E+02 0.  0.
         13    1    3    3    0    0  0.15321368390E+03 -0.27985686488E+02 -0.44414836180E+01  0.15581193266E+03  0.00000000000E+00 0.  1.
        -13    1    3    3    0    0  0.51149850902E+03 -0.21229096478E+03 -0.15712726493E+03  0.57566236271E+03  0.00000000000E+00 0. -1.
         22    1    1    2    0    0 -0.66471219292E+03  0.24027665127E+03  0.61242873099E+03  0.93522410101E+03  0.00000000000E+00 0.  1.
<mgrwt>
<rscale>  0 0.16045588E+04</rscale>
<asrwt>0</asrwt>
<pdfrwt beam="1">  1        2 0.16288911E+00 0.16045588E+04</pdfrwt>
<pdfrwt beam="2">  1       -2 0.93526032E-01 0.16045588E+04</pdfrwt>
<totfact> 0.21421595E+01</totfact>
</mgrwt>
</event>
<event>
 6    1  0.1637818E-005  0.7797988E+03  0.7818608E-02  0.9589727E-01
         -1   -1    0    0    0  501 -0.00000000000E+00  0.00000000000E+00  0.10375085306E+03  0.10375085306E+03  0.00000000000E+00 0. -1.
          1   -1    0    0  501    0  0.00000000000E+00 -0.00000000000E+00 -0.14652557080E+04  0.14652557080E+04  0.00000000000E+00 0.  1.
         23    2    1    2    0    0 -0.21854464832E+03  0.31427208278E+03 -0.64315983432E+03  0.75503587732E+03  0.99478129417E+02 0.  0.
         11    1    3    3    0    0 -0.54413773381E+02  0.11024301174E+03 -0.29340022813E+03  0.31811644761E+03  0.00000000000E+00 0. -1.
        -11    1    3    3    0    0 -0.16413087494E+03  0.20402907104E+03 -0.34975960618E+03  0.43691942971E+03  0.00000000000E+00 0.  1.
         22    1    1    2    0    0  0.21854464832E+03 -0.31427208278E+03 -0.71834502060E+03  0.81397068371E+03  0.00000000000E+00 0. -1.
<mgrwt>
<rscale>  0 0.77979877E+03</rscale>
<asrwt>0</asrwt>
<pdfrwt beam="1">  1        1 0.22542394E+00 0.77979877E+03</pdfrwt>
<pdfrwt beam="2">  1       -1 0.15961671E-01 0.77979877E+03</pdfrwt>
<totfact> 0.20879502E+02</totfact>
</mgrwt>
</event>
<event>
 6    1  0.1637818E-005  0.2630353E+04  0.7818608E-02  0.8357963E-01
          2   -1    0    0  501    0  0.00000000000E+00  0.00000000000E+00  0.39521772816E+04  0.39521772816E+04  0.00000000000E+00 0. -1.
         -2   -1    0    0    0  501 -0.00000000000E+00 -0.00000000000E+00 -0.43765483384E+03  0.43765483384E+03  0.00000000000E+00 0.  1.
         23    2    1    2    0    0  0.84097872504E+03 -0.47020137065E+03  0.32494586646E+04  0.33905356859E+04  0.91739194259E+02 0.  0.
         13    1    3    3    0    0  0.15128751559E+03 -0.12274150261E+03  0.71045202083E+03  0.73667866994E+03  0.00000000000E+00 0.  1.
        -13    1    3    3    0    0  0.68969120946E+03 -0.34745986804E+03  0.25390066437E+04  0.26538570160E+04  0.00000000000E+00 0. -1.
         22    1    1    2    0    0 -0.84097872504E+03  0.47020137065E+03  0.26506378321E+03  0.99929642954E+03  0.00000000000E+00 0.  1.
<mgrwt>
<rscale>  0 0.26303532E+04</rscale>
<asrwt>0</asrwt>
<pdfrwt beam="1">  1        2 0.60802725E+00 0.26303532E+04</pdfrwt>
<pdfrwt beam="2">  1       -2 0.67331515E-01 0.26303532E+04</pdfrwt>
<totfact> 0.66853345E-01</totfact>
</mgrwt>
</event>
<event>
 6    1  0.1637818E-005  0.2868408E+04  0.7818608E-02  0.8282340E-01
          2   -1    0    0  501    0  0.00000000000E+00  0.00000000000E+00  0.11010952957E+04  0.11010952957E+04  0.00000000000E+00 0. -1.
         -2   -1    0    0    0  501 -0.00000000000E+00 -0.00000000000E+00 -0.18680862430E+04  0.18680862430E+04  0.00000000000E+00 0.  1.
         23    2    1    2    0    0 -0.18400626304E+03  0.67108004901E+03 -0.16803114358E+04  0.18209824916E+04  0.91235829310E+02 0.  0.
         11    1    3    3    0    0 -0.12834867093E+03  0.30531723476E+03 -0.83241970244E+03  0.89588758010E+03  0.00000000000E+00 0. -1.
        -11    1    3    3    0    0 -0.55657592115E+02  0.36576281425E+03 -0.84789173336E+03  0.92509491153E+03  0.00000000000E+00 0.  1.
         22    1    1    2    0    0  0.18400626304E+03 -0.67108004901E+03  0.91332048849E+03  0.11481990471E+04  0.00000000000E+00 0. -1.
<mgrwt>
<rscale>  0 0.28684079E+04</rscale>
<asrwt>0</asrwt>
<pdfrwt beam="1">  1        2 0.16939928E+00 0.28684079E+04</pdfrwt>
<pdfrwt beam="2">  1       -2 0.28739788E+00 0.28684079E+04</pdfrwt>
<totfact> 0.71435289E-01</totfact>
</mgrwt>
</event>
<event>
 6    1  0.1637818E-005  0.2714144E+04  0.7818608E-02  0.8330430E-01
         -1   -1    0    0    0  501 -0.00000000000E+00  0.00000000000E+00  0.11489072626E+04  0.11489072626E+04  0.00000000000E+00 0.  1.
          1   -1    0    0  501    0  0.00000000000E+00 -0.00000000000E+00 -0.16029526519E+04  0.16029526519E+04  0.00000000000E+00 0. -1.
         23    2    1    2    0    0  0.13449180024E+04  0.55864624404E+02 -0.38929532629E+03  0.14042257430E+04  0.91508452365E+02 0.  0.
         13    1    3    3    0    0  0.33985993432E+03  0.20837792738E+02 -0.58061429659E+02  0.34541296759E+03  0.00000000000E+00 0.  1.
        -13    1    3    3    0    0  0.10050580681E+04  0.35026831665E+02 -0.33123389663E+03  0.10588127754E+04  0.00000000000E+00 0. -1.
         22    1    1    2    0    0 -0.13449180024E+04 -0.55864624404E+02 -0.64750062993E+02  0.13476341715E+04  0.00000000000E+00 0.  1.
<mgrwt>
<rscale>  0 0.27141437E+04</rscale>
<asrwt>0</asrwt>
<pdfrwt beam="1">  1        1 0.24660810E+00 0.27141437E+04</pdfrwt>
<pdfrwt beam="2">  1       -1 0.17675496E+00 0.27141437E+04</pdfrwt>
<totfact> 0.10639513E+00</totfact>
</mgrwt>
</event>
<event>
 6    1  0.1637818E-005  0.4524987E+04  0.7818608E-02  0.7906277E-01
         -2   -1    0    0    0  501 -0.00000000000E+00  0.00000000000E+00  0.18372940763E+04  0.18372940763E+04  0.00000000000E+00 0.  1.
          2   -1    0    0  501    0  0.00000000000E+00 -0.00000000000E+00 -0.27860958429E+04  0.27860958429E+04  0.00000000000E+00 0. -1.
         23    2    1    2    0    0  0.88179624878E+02  0.21585337795E+04 -0.11578640168E+04  0.24529635215E+04  0.96629357554E+02 0.  0.
         13    1    3    3    0    0  0.28522284920E+02  0.13178792498E+04 -0.75122991184E+03  0.15172229956E+04  0.00000000000E+00 0. -1.
        -13    1    3    3    0    0  0.59657339958E+02  0.84065452972E+03 -0.40663410499E+03  0.93574052594E+03  0.00000000000E+00 0.  1.
         22    1    1    2    0    0 -0.88179624878E+02 -0.21585337795E+04  0.20906225025E+03  0.21704263978E+04  0.00000000000E+00 0.  1.
<mgrwt>
<rscale>  0 0.45249872E+04</rscale>
<asrwt>0</asrwt>
<pdfrwt beam="1">  1        2 0.42863013E+00 0.45249872E+04</pdfrwt>
<pdfrwt beam="2">  1       -2 0.28266063E+00 0.45249872E+04</pdfrwt>
<totfact> 0.72309769E-02</totfact>
</mgrwt>
</event>
<event>
 6    1  0.1637818E-005  0.1531195E+04  0.7818608E-02  0.8863970E-01
          2   -1    0    0  501    0  0.00000000000E+00  0.00000000000E+00  0.11764869533E+04  0.11764869533E+04  0.00000000000E+00 0. -1.
         -2   -1    0    0    0  501 -0.00000000000E+00 -0.00000000000E+00 -0.49821172901E+03  0.49821172901E+03  0.00000000000E+00 0.  1.
         23    2    1    2    0    0  0.74098522939E+03  0.17805868338E+03  0.37462405189E+03  0.85435238991E+03  0.93865973541E+02 0.  0.
         11    1    3    3    0    0  0.19840761993E+03  0.91080951219E+02  0.10917216719E+03  0.24408991256E+03  0.00000000000E+00 0.  1.
        -11    1    3    3    0    0  0.54257760946E+03  0.86977732164E+02  0.26545188470E+03  0.61026247735E+03  0.00000000000E+00 0. -1.
         22    1    1    2    0    0 -0.74098522939E+03 -0.17805868338E+03  0.30365117235E+03  0.82034629235E+03  0.00000000000E+00 0. -1.
<mgrwt>
<rscale>  0 0.15311951E+04</rscale>
<asrwt>0</asrwt>
<pdfrwt beam="1">  1        2 0.18099799E+00 0.15311951E+04</pdfrwt>
<pdfrwt beam="2">  1       -2 0.76647959E-01 0.15311951E+04</pdfrwt>
<totfact> 0.28699816E+01</totfact>
</mgrwt>
</event>
<event>
 6    1  0.1637818E-005  0.2495826E+04  0.7818608E-02  0.8404474E-01
          1   -1    0    0  501    0  0.00000000000E+00  0.00000000000E+00  0.21924843960E+04  0.21924843960E+04  0.00000000000E+00 0. -1.
         -1   -1    0    0    0  501 -0.00000000000E+00 -0.00000000000E+00 -0.71028421018E+03  0.71028421018E+03  0.00000000000E+00 0.  1.
         23    2    1    2    0    0  0.69259916464E+03 -0.61069009500E+03 -0.23114014033E+03  0.95644615904E+03  0.93421066648E+02 0.  0.
         13    1    3    3    0    0  0.27171284769E+03 -0.24399350670E+03 -0.13861469814E+03  0.39060816357E+03  0.00000000000E+00 0.  1.
        -13    1    3    3    0    0  0.42088631695E+03 -0.36669658830E+03 -0.92525442186E+02  0.56583799547E+03  0.00000000000E+00 0. -1.
         22    1    1    2    0    0 -0.69259916464E+03  0.61069009500E+03  0.17133403261E+04  0.19463224471E+04  0.00000000000E+00 0. -1.
<mgrwt>
<rscale>  0 0.24958262E+04</rscale>
<asrwt>0</asrwt>
<pdfrwt beam="1">  1        1 0.33730529E+00 0.24958262E+04</pdfrwt>
<pdfrwt beam="2">  1       -1 0.10927449E+00 0.24958262E+04</pdfrwt>
<totfact> 0.15183383E+00</totfact>
</mgrwt>
</event>
<event>
 6    1  0.1781326E-005  0.2292789E+04  0.7818608E-02  0.8480770E-01
         -1   -1    0    0    0  501 -0.00000000000E+00  0.00000000000E+00  0.97333071966E+03  0.97333071966E+03  0.00000000000E+00 0.  1.
          1   -1    0    0  501    0  0.00000000000E+00 -0.00000000000E+00 -0.13502302807E+04  0.13502302807E+04  0.00000000000E+00 0. -1.
         23    2    1    2    0    0 -0.19223695211E+03 -0.27427576196E+03 -0.12979108357E+04  0.13435385479E+04  0.91329365125E+02 0.  0.
         11    1    3    3    0    0 -0.14623805039E+03 -0.14945530949E+03 -0.67782539761E+03  0.70934457533E+03  0.00000000000E+00 0.  1.
        -11    1    3    3    0    0 -0.45998901725E+02 -0.12482045247E+03 -0.62008543808E+03  0.63419397256E+03  0.00000000000E+00 0. -1.
         22    1    1    2    0    0  0.19223695211E+03  0.27427576196E+03  0.92101127463E+03  0.98002245248E+03  0.00000000000E+00 0.  1.
<mgrwt>
<rscale>  0 0.22927892E+04</rscale>
<asrwt>0</asrwt>
<pdfrwt beam="1">  1        1 0.20772774E+00 0.22927892E+04</pdfrwt>
<pdfrwt beam="2">  1       -1 0.14974319E+00 0.22927892E+04</pdfrwt>
<totfact> 0.26410962E+00</totfact>
</mgrwt>
</event>
<event>
 6    1  0.1637818E-005  0.3076877E+04  0.7818608E-02  0.8222113E-01
         -1   -1    0    0    0  501 -0.00000000000E+00  0.00000000000E+00  0.16567862915E+04  0.16567862915E+04  0.00000000000E+00 0.  1.
          1   -1    0    0  501    0  0.00000000000E+00 -0.00000000000E+00 -0.14285443616E+04  0.14285443616E+04  0.00000000000E+00 0. -1.
         23    2    1    2    0    0  0.32835052687E+03 -0.79391621468E+03  0.13922991704E+04  0.16385596680E+04  0.90905341072E+02 0.  0.
         13    1    3    3    0    0  0.20023476635E+03 -0.50551795309E+03  0.79732117683E+03  0.96507171836E+03  0.00000000000E+00 0. -1.
        -13    1    3    3    0    0  0.12811576052E+03 -0.28839826159E+03  0.59497799361E+03  0.67348794960E+03  0.00000000000E+00 0.  1.
         22    1    1    2    0    0 -0.32835052687E+03  0.79391621468E+03 -0.11640572405E+04  0.14467709852E+04  0.00000000000E+00 0. -1.
<mgrwt>
<rscale>  0 0.30768768E+04</rscale>
<asrwt>0</asrwt>
<pdfrwt beam="1">  1        1 0.21977606E+00 0.30768768E+04</pdfrwt>
<pdfrwt beam="2">  1       -1 0.25489020E+00 0.30768768E+04</pdfrwt>
<totfact> 0.40181041E-01</totfact>
</mgrwt>
</event>
<event>
 6    1  0.1637818E-005  0.3128921E+04  0.7818608E-02  0.8207845E-01
         -2   -1    0    0    0  501 -0.00000000000E+00  0.00000000000E+00  0.11067219627E+04  0.11067219627E+04  0.00000000000E+00 0. -1.
          2   -1    0    0  501    0  0.00000000000E+00 -0.00000000000E+00 -0.22115196588E+04  0.22115196588E+04  0.00000000000E+00 0.  1.
         23    2    1    2    0    0  0.22692887337E+02  0.15070226971E+04 -0.11313196563E+03  0.15140705383E+04  0.89321759191E+02 0.  0.
         11    1    3    3    0    0 -0.18951280155E+02  0.10774464589E+04 -0.60919372496E+02  0.10793336800E+04  0.00000000000E+00 0. -1.
        -11    1    3    3    0    0  0.41644167493E+02  0.42957623813E+03 -0.52212593135E+02  0.43473685827E+03  0.00000000000E+00 0.  1.
         22    1    1    2    0    0 -0.22692887337E+02 -0.15070226971E+04 -0.99166573045E+03  0.18041710832E+04  0.00000000000E+00 0.  1.
<mgrwt>
<rscale>  0 0.31289215E+04</rscale>
<asrwt>0</asrwt>
<pdfrwt beam="1">  1        2 0.34023379E+00 0.31289215E+04</pdfrwt>
<pdfrwt beam="2">  1       -2 0.17026492E+00 0.31289215E+04</pdfrwt>
<totfact> 0.91438242E-01</totfact>
</mgrwt>
</event>
<event>
 6    1  0.1983231E-005  0.2641726E+04  0.7818608E-02  0.8354164E-01
         -1   -1    0    0    0  501 -0.00000000000E+00  0.00000000000E+00  0.13242529921E+04  0.13242529921E+04  0.00000000000E+00 0.  1.
          1   -1    0    0  501    0  0.00000000000E+00 -0.00000000000E+00 -0.13174816080E+04  0.13174816080E+04  0.00000000000E+00 0. -1.
         23    2    1    2    0    0 -0.52895602077E+03  0.10118453484E+04  0.66438844414E+03  0.13241285593E+04  0.90988768295E+02 0.  0.
         11    1    3    3    0    0 -0.22853370562E+03  0.43003216188E+03  0.33556304632E+03  0.59140330816E+03  0.00000000000E+00 0. -1.
        -11    1    3    3    0    0 -0.30042231515E+03  0.58181318654E+03  0.32882539782E+03  0.73272525118E+03  0.00000000000E+00 0.  1.
         22    1    1    2    0    0  0.52895602077E+03 -0.10118453484E+04 -0.65761706007E+03  0.13176060408E+04  0.00000000000E+00 0. -1.
<mgrwt>
<rscale>  0 0.26417259E+04</rscale>
<asrwt>0</asrwt>
<pdfrwt beam="1">  1        1 0.20268948E+00 0.26417259E+04</pdfrwt>
<pdfrwt beam="2">  1       -1 0.20373123E+00 0.26417259E+04</pdfrwt>
<totfact> 0.10942424E+00</totfact>
</mgrwt>
</event>
<event>
 6    1  0.1637818E-005  0.3036019E+04  0.7818608E-02  0.8233520E-01
          2   -1    0    0  501    0  0.00000000000E+00  0.00000000000E+00  0.17378618809E+04  0.17378618809E+04  0.00000000000E+00 0. -1.
         -2   -1    0    0    0  501 -0.00000000000E+00 -0.00000000000E+00 -0.13259699384E+04  0.13259699384E+04  0.00000000000E+00 0.  1.
         23    2    1    2    0    0 -0.12897312217E+04  0.56841883332E+01 -0.60006541618E+03  0.14244732160E+04  0.74876599738E+02 0.  0.
         11    1    3    3    0    0 -0.22270007556E+03 -0.27339428557E+02 -0.10501768789E+03  0.24773268411E+03  0.00000000000E+00 0.  1.
        -11    1    3    3    0    0 -0.10670311462E+04  0.33023616890E+02 -0.49504772829E+03  0.11767405319E+04  0.00000000000E+00 0. -1.
         22    1    1    2    0    0  0.12897312217E+04 -0.56841883332E+01  0.10119573587E+04  0.16393586033E+04  0.00000000000E+00 0. -1.
<mgrwt>
<rscale>  0 0.30360188E+04</rscale>
<asrwt>0</asrwt>
<pdfrwt beam="1">  1        2 0.26736337E+00 0.30360188E+04</pdfrwt>
<pdfrwt beam="2">  1       -2 0.20399538E+00 0.30360188E+04</pdfrwt>
<totfact> 0.99867821E-01</totfact>
</mgrwt>
</event>
<event>
 6    1  0.1637818E-005  0.2500765E+04  0.7818608E-02  0.8402713E-01
          2   -1    0    0  501    0  0.00000000000E+00  0.00000000000E+00  0.40215402999E+04  0.40215402999E+04  0.00000000000E+00 0.  1.
         -2   -1    0    0    0  501 -0.00000000000E+00 -0.00000000000E+00 -0.38877040320E+03  0.38877040320E+03  0.00000000000E+00 0. -1.
         23    2    1    2    0    0  0.51653354439E+03  0.55719994349E+03  0.72007512008E+02  0.76938946807E+03  0.97449434568E+02 0.  0.
         11    1    3    3    0    0  0.42978798354E+03  0.46270054551E+03  0.22573105507E+02  0.63191696504E+03  0.00000000000E+00 0. -1.
        -11    1    3    3    0    0  0.86745560848E+02  0.94499397975E+02  0.49434406501E+02  0.13747250303E+03  0.00000000000E+00 0.  1.
         22    1    1    2    0    0 -0.51653354439E+03 -0.55719994349E+03  0.35607623847E+04  0.36409212351E+04  0.00000000000E+00 0.  1.
<mgrwt>
<rscale>  0 0.25007646E+04</rscale>
<asrwt>0</asrwt>
<pdfrwt beam="1">  1        2 0.61869848E+00 0.25007646E+04</pdfrwt>
<pdfrwt beam="2">  1       -2 0.59810834E-01 0.25007646E+04</pdfrwt>
<totfact> 0.76679254E-01</totfact>
</mgrwt>
</event>
<event>
 6    1  0.1637818E-005  0.1969975E+04  0.7818608E-02  0.8620788E-01
         -1   -1    0    0    0  501 -0.00000000000E+00  0.00000000000E+00  0.94686398380E+03  0.94686398380E+03  0.00000000000E+00 0.  1.
          1   -1    0    0  501    0  0.00000000000E+00 -0.00000000000E+00 -0.10246460152E+04  0.10246460152E+04  0.00000000000E+00 0. -1.
         23    2    1    2    0    0 -0.92730910029E+03  0.32439689207E+03 -0.68795320413E+02  0.98905579043E+03  0.91449709723E+02 0.  0.
         11    1    3    3    0    0 -0.59222603288E+03  0.22279720429E+03 -0.28609549882E+01  0.63275465492E+03  0.00000000000E+00 0.  1.
        -11    1    3    3    0    0 -0.33508306741E+03  0.10159968778E+03 -0.65934365425E+02  0.35630113551E+03  0.00000000000E+00 0. -1.
         22    1    1    2    0    0  0.92730910029E+03 -0.32439689207E+03 -0.89867110284E+01  0.98245420862E+03  0.00000000000E+00 0. -1.
<mgrwt>
<rscale>  0 0.19699750E+04</rscale>
<asrwt>0</asrwt>
<pdfrwt beam="1">  1        1 0.15763785E+00 0.19699750E+04</pdfrwt>
<pdfrwt beam="2">  1       -1 0.14567138E+00 0.19699750E+04</pdfrwt>
<totfact> 0.50818928E+00</totfact>
</mgrwt>
</event>
<event>
 6    1  0.1637818E-005  0.3023274E+04  0.7818608E-02  0.8237116E-01
         -1   -1    0    0    0  501 -0.00000000000E+00  0.00000000000E+00  0.94663004936E+03  0.94663004936E+03  0.00000000000E+00 0.  1.
          1   -1    0    0  501    0  0.00000000000E+00 -0.00000000000E+00 -0.24138753155E+04  0.24138753155E+04  0.00000000000E+00 0. -1.
         23    2    1    2    0    0  0.46634391137E+03  0.13163638543E+04 -0.13734027198E+04  0.19608279505E+04  0.91218311064E+02 0.  0.
         13    1    3    3    0    0  0.33517366708E+03  0.10568129172E+04 -0.10882725404E+04  0.15535546503E+04  0.00000000000E+00 0.  1.
        -13    1    3    3    0    0  0.13117024429E+03  0.25955093708E+03 -0.28513017933E+03  0.40727330025E+03  0.00000000000E+00 0. -1.
         22    1    1    2    0    0 -0.46634391137E+03 -0.13163638543E+04 -0.93842546363E+02  0.13996774143E+04  0.00000000000E+00 0. -1.
<mgrwt>
<rscale>  0 0.30232743E+04</rscale>
<asrwt>0</asrwt>
<pdfrwt beam="1">  1        1 0.37136542E+00 0.30232743E+04</pdfrwt>
<pdfrwt beam="2">  1       -1 0.14563540E+00 0.30232743E+04</pdfrwt>
<totfact> 0.49834276E-01</totfact>
</mgrwt>
</event>
<event>
 6    1  0.1637818E-005  0.3178751E+04  0.7818608E-02  0.8194452E-01
         -2   -1    0    0    0  501 -0.00000000000E+00  0.00000000000E+00  0.10989331380E+04  0.10989331380E+04  0.00000000000E+00 0. -1.
          2   -1    0    0  501    0  0.00000000000E+00 -0.00000000000E+00 -0.22986973170E+04  0.22986973170E+04  0.00000000000E+00 0.  1.
         23    2    1    2    0    0  0.49933096684E+03 -0.14243191452E+04 -0.11283402437E+04  0.18866315072E+04  0.90610687012E+02 0.  0.
         13    1    3    3    0    0  0.45998512953E+03 -0.13578367833E+04 -0.10536971424E+04  0.17792090145E+04  0.00000000000E+00 0.  1.
        -13    1    3    3    0    0  0.39345837310E+02 -0.66482361811E+02 -0.74643101378E+02  0.10742249266E+03  0.00000000000E+00 0. -1.
         22    1    1    2    0    0 -0.49933096684E+03  0.14243191452E+04 -0.71423935234E+02  0.15109989478E+04  0.00000000000E+00 0. -1.
<mgrwt>
<rscale>  0 0.31787511E+04</rscale>
<asrwt>0</asrwt>
<pdfrwt beam="1">  1        2 0.35364573E+00 0.31787511E+04</pdfrwt>
<pdfrwt beam="2">  1       -2 0.16906664E+00 0.31787511E+04</pdfrwt>
<totfact> 0.82903337E-01</totfact>
</mgrwt>
</event>
<event>
 6    1  0.1637818E-005  0.1120064E+04  0.7818608E-02  0.9185854E-01
          1   -1    0    0  501    0  0.00000000000E+00  0.00000000000E+00  0.13992028723E+04  0.13992028723E+04  0.00000000000E+00 0. -1.
         -1   -1    0    0    0  501 -0.00000000000E+00 -0.00000000000E+00 -0.22415314328E+03  0.22415314328E+03  0.00000000000E+00 0.  1.
         23    2    1    2    0    0  0.90695717938E+01  0.55608674813E+03  0.60810552084E+03  0.82916431090E+03  0.91686429772E+02 0.  0.
         13    1    3    3    0    0 -0.10312356311E+02  0.14515483800E+03  0.10591917920E+03  0.17998651119E+03  0.00000000000E+00 0.  1.
        -13    1    3    3    0    0  0.19381928104E+02  0.41093191014E+03  0.50218634164E+03  0.64917779971E+03  0.00000000000E+00 0. -1.
         22    1    1    2    0    0 -0.90695717938E+01 -0.55608674813E+03  0.56694420815E+03  0.79419170465E+03  0.00000000000E+00 0.  1.
<mgrwt>
<rscale>  0 0.11200638E+04</rscale>
<asrwt>0</asrwt>
<pdfrwt beam="1">  1        1 0.21526198E+00 0.11200638E+04</pdfrwt>
<pdfrwt beam="2">  1       -1 0.34485100E-01 0.11200638E+04</pdfrwt>
<totfact> 0.60976045E+01</totfact>
</mgrwt>
</event>
<event>
 6    1  0.1637818E-005  0.2525951E+04  0.7818608E-02  0.8393798E-01
         -2   -1    0    0    0  501 -0.00000000000E+00  0.00000000000E+00  0.14488740539E+04  0.14488740539E+04  0.00000000000E+00 0.  1.
          2   -1    0    0  501    0  0.00000000000E+00 -0.00000000000E+00 -0.11009284181E+04  0.11009284181E+04  0.00000000000E+00 0. -1.
         23    2    1    2    0    0  0.27710742223E+03 -0.79177729194E+03  0.11250310797E+04  0.14063158780E+04  0.91266724559E+02 0.  0.
         13    1    3    3    0    0  0.13399018760E+03 -0.41408309615E+03  0.65730909534E+03  0.78833585970E+03  0.00000000000E+00 0.  1.
        -13    1    3    3    0    0  0.14311723463E+03 -0.37769419580E+03  0.46772198434E+03  0.61798001830E+03  0.00000000000E+00 0. -1.
         22    1    1    2    0    0 -0.27710742223E+03  0.79177729194E+03 -0.77708544388E+03  0.11434865940E+04  0.00000000000E+00 0. -1.
<mgrwt>
<rscale>  0 0.25259506E+04</rscale>
<asrwt>0</asrwt>
<pdfrwt beam="1">  1        2 0.16937360E+00 0.25259506E+04</pdfrwt>
<pdfrwt beam="2">  1       -2 0.22290370E+00 0.25259506E+04</pdfrwt>
<totfact> 0.18343609E+00</totfact>
</mgrwt>
</event>
<event>
 6    1  0.1637818E-005  0.1093826E+04  0.7818608E-02  0.9211231E-01
         -1   -1    0    0    0  501 -0.00000000000E+00  0.00000000000E+00  0.61321246855E+03  0.61321246855E+03  0.00000000000E+00 0.  1.
          1   -1    0    0  501    0  0.00000000000E+00 -0.00000000000E+00 -0.48778140109E+03  0.48778140109E+03  0.00000000000E+00 0. -1.
         23    2    1    2    0    0 -0.17273516899E+03  0.17443014648E+03 -0.42457051021E+03  0.49869406884E+03  0.90401004165E+02 0.  0.
         13    1    3    3    0    0 -0.14884998361E+03  0.90191938439E+02 -0.28212175787E+03  0.33148693736E+03  0.00000000000E+00 0. -1.
        -13    1    3    3    0    0 -0.23885185381E+02  0.84238208042E+02 -0.14244875234E+03  0.16720713148E+03  0.00000000000E+00 0.  1.
         22    1    1    2    0    0  0.17273516899E+03 -0.17443014648E+03  0.55000157766E+03  0.60229980080E+03  0.00000000000E+00 0.  1.
<mgrwt>
<rscale>  0 0.10938256E+04</rscale>
<asrwt>0</asrwt>
<pdfrwt beam="1">  1        1 0.75043292E-01 0.10938256E+04</pdfrwt>
<pdfrwt beam="2">  1       -1 0.94340380E-01 0.10938256E+04</pdfrwt>
<totfact> 0.49756167E+01</totfact>
</mgrwt>
</event>
<event>
 6    1  0.1637818E-005  0.8193807E+03  0.7818608E-02  0.9532380E-01
          2   -1    0    0  501    0  0.00000000000E+00  0.00000000000E+00  0.50340794144E+03  0.50340794144E+03  0.00000000000E+00 0. -1.
         -2   -1    0    0    0  501 -0.00000000000E+00 -0.00000000000E+00 -0.33341985524E+03  0.33341985524E+03  0.00000000000E+00 0.  1.
         23    2    1    2    0    0 -0.21270090287E+03  0.24369767233E+03 -0.16227414041E+03  0.37311623028E+03  0.90843794921E+02 0.  0.
         13    1    3    3    0    0 -0.92518287760E+02  0.12443040745E+03 -0.12637850837E+03  0.20003521502E+03  0.00000000000E+00 0.  1.
        -13    1    3    3    0    0 -0.12018261511E+03  0.11926726487E+03 -0.35895632033E+02  0.17308101526E+03  0.00000000000E+00 0. -1.
         22    1    1    2    0    0  0.21270090287E+03 -0.24369767233E+03  0.33226222660E+03  0.46371156639E+03  0.00000000000E+00 0. -1.
<mgrwt>
<rscale>  0 0.81938075E+03</rscale>
<asrwt>0</asrwt>
<pdfrwt beam="1">  1        2 0.77447376E-01 0.81938075E+03</pdfrwt>
<pdfrwt beam="2">  1       -2 0.51295362E-01 0.81938075E+03</pdfrwt>
<totfact> 0.22083485E+02</totfact>
</mgrwt>
</event>
<event>
 6    1  0.1637818E-005  0.3767267E+04  0.7818608E-02  0.8053216E-01
         -2   -1    0    0    0  501 -0.00000000000E+00  0.00000000000E+00  0.13732201247E+04  0.13732201247E+04  0.00000000000E+00 0.  1.
          2   -1    0    0  501    0  0.00000000000E+00 -0.00000000000E+00 -0.25837628924E+04  0.25837628924E+04  0.00000000000E+00 0. -1.
         23    2    1    2    0    0 -0.31459576155E+03 -0.18537022181E+04 -0.50775158683E+03  0.19497217360E+04  0.91764739550E+02 0.  0.
         11    1    3    3    0    0 -0.27209449872E+03 -0.13803811036E+04 -0.39407128938E+03  0.14610884944E+04  0.00000000000E+00 0. -1.
        -11    1    3    3    0    0 -0.42501262839E+02 -0.47332111454E+03 -0.11368029745E+03  0.48863324165E+03  0.00000000000E+00 0.  1.
         22    1    1    2    0    0  0.31459576155E+03  0.18537022181E+04 -0.70279118084E+03  0.20072612811E+04  0.00000000000E+00 0.  1.
<mgrwt>
<rscale>  0 0.37672670E+04</rscale>
<asrwt>0</asrwt>
<pdfrwt beam="1">  1        2 0.39750198E+00 0.37672670E+04</pdfrwt>
<pdfrwt beam="2">  1       -2 0.21126463E+00 0.37672670E+04</pdfrwt>
<totfact> 0.28103156E-01</totfact>
</mgrwt>
</event>
<event>
 6    1  0.1637818E-005  0.2953222E+04  0.7818608E-02  0.8257216E-01
         -1   -1    0    0    0  501 -0.00000000000E+00  0.00000000000E+00  0.12760023296E+04  0.12760023296E+04  0.00000000000E+00 0.  1.
          1   -1    0    0  501    0  0.00000000000E+00 -0.00000000000E+00 -0.17087591461E+04  0.17087591461E+04  0.00000000000E+00 0. -1.
         23    2    1    2    0    0  0.12840534512E+04  0.11966621825E+03 -0.94031038438E+03  0.15988596417E+04  0.95159159134E+02 0.  0.
         11    1    3    3    0    0  0.84821595765E+03  0.67144542613E+02 -0.67333213095E+03  0.10850598412E+04  0.00000000000E+00 0. -1.
        -11    1    3    3    0    0  0.43583749351E+03  0.52521675641E+02 -0.26697825343E+03  0.51379980047E+03  0.00000000000E+00 0.  1.
         22    1    1    2    0    0 -0.12840534512E+04 -0.11966621825E+03  0.50755356790E+03  0.13859018340E+04  0.00000000000E+00 0.  1.
<mgrwt>
<rscale>  0 0.29532224E+04</rscale>
<asrwt>0</asrwt>
<pdfrwt beam="1">  1        1 0.26288602E+00 0.29532224E+04</pdfrwt>
<pdfrwt beam="2">  1       -1 0.19630805E+00 0.29532224E+04</pdfrwt>
<totfact> 0.64124048E-01</totfact>
</mgrwt>
</event>
<event>
 6    1  0.1637818E-005  0.1657199E+04  0.7818608E-02  0.8786159E-01
         -2   -1    0    0    0  501 -0.00000000000E+00  0.00000000000E+00  0.65764817161E+03  0.65764817161E+03  0.00000000000E+00 0.  1.
          2   -1    0    0  501    0  0.00000000000E+00 -0.00000000000E+00 -0.10439891160E+04  0.10439891160E+04  0.00000000000E+00 0. -1.
         23    2    1    2    0    0 -0.70244612373E+03  0.24183254037E+03  0.17756557580E+03  0.76895079270E+03  0.88556499281E+02 0.  0.
         11    1    3    3    0    0 -0.39985478823E+03  0.12608928122E+03  0.56301702525E+02  0.42302746982E+03  0.00000000000E+00 0.  1.
        -11    1    3    3    0    0 -0.30259133550E+03  0.11574325914E+03  0.12126387327E+03  0.34592332288E+03  0.00000000000E+00 0. -1.
         22    1    1    2    0    0  0.70244612373E+03 -0.24183254037E+03 -0.56390652023E+03  0.93268649496E+03  0.00000000000E+00 0. -1.
<mgrwt>
<rscale>  0 0.16571995E+04</rscale>
<asrwt>0</asrwt>
<pdfrwt beam="1">  1        2 0.16061371E+00 0.16571995E+04</pdfrwt>
<pdfrwt beam="2">  1       -2 0.10117664E+00 0.16571995E+04</pdfrwt>
<totfact> 0.18113951E+01</totfact>
</mgrwt>
</event>
<event>
 6    1  0.1637818E-005  0.2834613E+04  0.7818608E-02  0.8292602E-01
          1   -1    0    0  501    0  0.00000000000E+00  0.00000000000E+00  0.20642206332E+04  0.20642206332E+04  0.00000000000E+00 0. -1.
         -1   -1    0    0    0  501 -0.00000000000E+00 -0.00000000000E+00 -0.97313133141E+03  0.97313133141E+03  0.00000000000E+00 0.  1.
         23    2    1    2    0    0 -0.89722038832E+03  0.28576108979E+03 -0.58690342466E+03  0.11132097101E+04  0.90091082239E+02 0.  0.
         11    1    3    3    0    0 -0.53676674440E+03  0.12487579986E+03 -0.33404929564E+03  0.64443885296E+03  0.00000000000E+00 0.  1.
        -11    1    3    3    0    0 -0.36045364392E+03  0.16088528993E+03 -0.25285412902E+03  0.46877085712E+03  0.00000000000E+00 0. -1.
         22    1    1    2    0    0  0.89722038832E+03 -0.28576108979E+03  0.16779927265E+04  0.19241422546E+04  0.00000000000E+00 0. -1.
<mgrwt>
<rscale>  0 0.28346130E+04</rscale>
<asrwt>0</asrwt>
<pdfrwt beam="1">  1        1 0.31757240E+00 0.28346130E+04</pdfrwt>
<pdfrwt beam="2">  1       -1 0.14971251E+00 0.28346130E+04</pdfrwt>
<totfact> 0.81581542E-01</totfact>
</mgrwt>
</event>
<event>
 6    1  0.1637818E-005  0.8515282E+03  0.7818608E-02  0.9488288E-01
         -1   -1    0    0    0  501 -0.00000000000E+00  0.00000000000E+00  0.15214138544E+03  0.15214138544E+03  0.00000000000E+00 0.  1.
          1   -1    0    0  501    0  0.00000000000E+00 -0.00000000000E+00 -0.11914908039E+04  0.11914908039E+04  0.00000000000E+00 0. -1.
         23    2    1    2    0    0  0.12419501680E+03  0.24093838380E+03 -0.10336530379E+04  0.10725083141E+04  0.91431800461E+02 0.  0.
         11    1    3    3    0    0  0.94986444182E+02  0.21463190389E+03 -0.74250804130E+03  0.77872168978E+03  0.00000000000E+00 0.  1.
        -11    1    3    3    0    0  0.29208572613E+02  0.26306479902E+02 -0.29114499658E+03  0.29378662432E+03  0.00000000000E+00 0. -1.
         22    1    1    2    0    0 -0.12419501680E+03 -0.24093838380E+03 -0.56963806034E+01  0.27112387526E+03  0.00000000000E+00 0.  1.
<mgrwt>
<rscale>  0 0.85152818E+03</rscale>
<asrwt>0</asrwt>
<pdfrwt beam="1">  1        1 0.18330627E+00 0.85152818E+03</pdfrwt>
<pdfrwt beam="2">  1       -1 0.23406368E-01 0.85152818E+03</pdfrwt>
<totfact> 0.17145436E+02</totfact>
</mgrwt>
</event>
<event>
 6    1  0.1637818E-005  0.1493871E+04  0.7818608E-02  0.8888539E-01
          2   -1    0    0  501    0  0.00000000000E+00  0.00000000000E+00  0.97702204123E+03  0.97702204123E+03  0.00000000000E+00 0. -1.
         -2   -1    0    0    0  501 -0.00000000000E+00 -0.00000000000E+00 -0.57103377613E+03  0.57103377613E+03  0.00000000000E+00 0.  1.
         23    2    1    2    0    0  0.35873641460E+03 -0.51855543091E+03 -0.20599986011E+03  0.66935164901E+03  0.89465845894E+02 0.  0.
         13    1    3    3    0    0  0.23173262242E+03 -0.33224152267E+03 -0.17683458622E+03  0.44198971545E+03  0.00000000000E+00 0.  1.
        -13    1    3    3    0    0  0.12700379218E+03 -0.18631390824E+03 -0.29165273894E+02  0.22736193356E+03  0.00000000000E+00 0. -1.
         22    1    1    2    0    0 -0.35873641460E+03  0.51855543091E+03  0.61198812521E+03  0.87870416835E+03  0.00000000000E+00 0. -1.
<mgrwt>
<rscale>  0 0.14938709E+04</rscale>
<asrwt>0</asrwt>
<pdfrwt beam="1">  1        2 0.15031108E+00 0.14938709E+04</pdfrwt>
<pdfrwt beam="2">  1       -2 0.87851350E-01 0.14938709E+04</pdfrwt>
<totfact> 0.28158513E+01</totfact>
</mgrwt>
</event>
<event>
 6    1  0.1637818E-005  0.1261186E+04  0.7818608E-02  0.9060924E-01
          2   -1    0    0  501    0  0.00000000000E+00  0.00000000000E+00  0.62062720285E+03  0.62062720285E+03  0.00000000000E+00 0. -1.
         -2   -1    0    0    0  501 -0.00000000000E+00 -0.00000000000E+00 -0.64071857254E+03  0.64071857254E+03  0.00000000000E+00 0.  1.
         23    2    1    2    0    0 -0.11931435039E+03 -0.11496975623E+03  0.59523418177E+03  0.62410210665E+03  0.88009938739E+02 0.  0.
         13    1    3    3    0    0 -0.80959661367E+01 -0.62866226857E+02  0.16779981845E+03  0.17937247899E+03  0.00000000000E+00 0. -1.
        -13    1    3    3    0    0 -0.11121838426E+03 -0.52103529370E+02  0.42743436332E+03  0.44472962766E+03  0.00000000000E+00 0.  1.
         22    1    1    2    0    0  0.11931435039E+03  0.11496975623E+03 -0.61532555147E+03  0.63724366874E+03  0.00000000000E+00 0.  1.
<mgrwt>
<rscale>  0 0.12611858E+04</rscale>
<asrwt>0</asrwt>
<pdfrwt beam="1">  1        2 0.95481107E-01 0.12611858E+04</pdfrwt>
<pdfrwt beam="2">  1       -2 0.98572089E-01 0.12611858E+04</pdfrwt>
<totfact> 0.39985052E+01</totfact>
</mgrwt>
</event>
<event>
 6    1  0.1637818E-005  0.1494904E+04  0.7818608E-02  0.8887849E-01
          3   -1    0    0  501    0  0.00000000000E+00  0.00000000000E+00  0.22127705955E+04  0.22127705955E+04  0.00000000000E+00 0. -1.
         -3   -1    0    0    0  501 -0.00000000000E+00 -0.00000000000E+00 -0.25248175122E+03  0.25248175122E+03  0.00000000000E+00 0.  1.
         23    2    1    2    0    0 -0.43367151501E+03  0.54583057384E+03  0.14159291114E+04  0.15807584140E+04  0.89106209766E+02 0.  0.
         13    1    3    3    0    0 -0.23779339483E+03  0.36839674565E+03  0.89157080648E+03  0.99355944150E+03  0.00000000000E+00 0.  1.
        -13    1    3    3    0    0 -0.19587812018E+03  0.17743382819E+03  0.52435830493E+03  0.58719897250E+03  0.00000000000E+00 0. -1.
         22    1    1    2    0    0  0.43367151501E+03 -0.54583057384E+03  0.54435973290E+03  0.88449393275E+03  0.00000000000E+00 0.  1.
<mgrwt>
<rscale>  0 0.14949036E+04</rscale>
<asrwt>0</asrwt>
<pdfrwt beam="1">  1        3 0.34042623E+00 0.14949036E+04</pdfrwt>
<pdfrwt beam="2">  1       -3 0.38843348E-01 0.14949036E+04</pdfrwt>
<totfact> 0.39044385E-01</totfact>
</mgrwt>
</event>
<event>
 6    1  0.1637818E-005  0.1132318E+04  0.7818608E-02  0.9174253E-01
          1   -1    0    0  501    0  0.00000000000E+00  0.00000000000E+00  0.51528612890E+03  0.51528612890E+03  0.00000000000E+00 0. -1.
         -1   -1    0    0    0  501 -0.00000000000E+00 -0.00000000000E+00 -0.62205392764E+03  0.62205392764E+03  0.00000000000E+00 0.  1.
         23    2    1    2    0    0 -0.12910157466E+03  0.29832085479E+03 -0.51485732859E+03  0.61561252865E+03  0.90764352275E+02 0.  0.
         11    1    3    3    0    0 -0.11320511908E+02  0.11679209577E+03 -0.22652568434E+03  0.25511258944E+03  0.00000000000E+00 0. -1.
        -11    1    3    3    0    0 -0.11778106275E+03  0.18152875902E+03 -0.28833164425E+03  0.36049993921E+03  0.00000000000E+00 0.  1.
         22    1    1    2    0    0  0.12910157466E+03 -0.29832085479E+03  0.40808952985E+03  0.52172752789E+03  0.00000000000E+00 0. -1.
<mgrwt>
<rscale>  0 0.11323176E+04</rscale>
<asrwt>0</asrwt>
<pdfrwt beam="1">  1        1 0.79274789E-01 0.11323176E+04</pdfrwt>
<pdfrwt beam="2">  1       -1 0.95700604E-01 0.11323176E+04</pdfrwt>
<totfact> 0.44542021E+01</totfact>
</mgrwt>
</event>
<event>
 6    1  0.1637818E-005  0.1770547E+04  0.7818608E-02  0.8722121E-01
         -1   -1    0    0    0  501 -0.00000000000E+00  0.00000000000E+00  0.61240377946E+03  0.61240377946E+03  0.00000000000E+00 0.  1.
          1   -1    0    0  501    0  0.00000000000E+00 -0.00000000000E+00 -0.12797257579E+04  0.12797257579E+04  0.00000000000E+00 0. -1.
         23    2    1    2    0    0  0.44044301289E+03 -0.39245753865E+03  0.36743348965E+03  0.70102423302E+03  0.91731339916E+02 0.  0.
         13    1    3    3    0    0  0.16470759272E+03 -0.10395992852E+03  0.15506646199E+03  0.24896157429E+03  0.00000000000E+00 0. -1.
        -13    1    3    3    0    0  0.27573542017E+03 -0.28849761013E+03  0.21236702766E+03  0.45206265874E+03  0.00000000000E+00 0.  1.
         22    1    1    2    0    0 -0.44044301289E+03  0.39245753865E+03 -0.10347554681E+04  0.11911053043E+04  0.00000000000E+00 0. -1.
<mgrwt>
<rscale>  0 0.17705467E+04</rscale>
<asrwt>0</asrwt>
<pdfrwt beam="1">  1        1 0.19688089E+00 0.17705467E+04</pdfrwt>
<pdfrwt beam="2">  1       -1 0.94215965E-01 0.17705467E+04</pdfrwt>
<totfact> 0.96529936E+00</totfact>
</mgrwt>
</event>
<event>
 6    1  0.1637818E-005  0.5143262E+04  0.7818608E-02  0.7806780E-01
          1   -1    0    0  501    0  0.00000000000E+00  0.00000000000E+00  0.22967498384E+04  0.22967498384E+04  0.00000000000E+00 0. -1.
         -1   -1    0    0    0  501 -0.00000000000E+00 -0.00000000000E+00 -0.28794110244E+04  0.28794110244E+04  0.00000000000E+00 0.  1.
         23    2    1    2    0    0  0.13378227651E+04  0.21832505778E+04 -0.59768284517E+02  0.25627780315E+04  0.88916562154E+02 0.  0.
         11    1    3    3    0    0  0.10579406636E+04  0.17928242926E+04 -0.50189080556E+02  0.20823007313E+04  0.00000000000E+00 0. -1.
        -11    1    3    3    0    0  0.27988210151E+03  0.39042628514E+03 -0.95792039604E+01  0.48047730022E+03  0.00000000000E+00 0.  1.
         22    1    1    2    0    0 -0.13378227651E+04 -0.21832505778E+04 -0.52289290147E+03  0.26133828312E+04  0.00000000000E+00 0. -1.
<mgrwt>
<rscale>  0 0.51432623E+04</rscale>
<asrwt>0</asrwt>
<pdfrwt beam="1">  1        1 0.35334613E+00 0.51432623E+04</pdfrwt>
<pdfrwt beam="2">  1       -1 0.44298631E+00 0.51432623E+04</pdfrwt>
<totfact> 0.48411324E-03</totfact>
</mgrwt>
</event>
<event>
 6    1  0.1637818E-005  0.2258298E+04  0.7818608E-02  0.8494548E-01
          2   -1    0    0  501    0  0.00000000000E+00  0.00000000000E+00  0.14929859964E+04  0.14929859964E+04  0.00000000000E+00 0. -1.
         -2   -1    0    0    0  501 -0.00000000000E+00 -0.00000000000E+00 -0.85397816330E+03  0.85397816330E+03  0.00000000000E+00 0.  1.
         23    2    1    2    0    0  0.97168543148E+03 -0.36670142248E+03  0.77488838231E+03  0.12995358640E+04  0.98483225355E+02 0.  0.
         13    1    3    3    0    0  0.37308329917E+03 -0.99801525798E+02  0.32265963706E+03  0.50325017045E+03  0.00000000000E+00 0. -1.
        -13    1    3    3    0    0  0.59860213231E+03 -0.26689989668E+03  0.45222874525E+03  0.79628569351E+03  0.00000000000E+00 0.  1.
         22    1    1    2    0    0 -0.97168543148E+03  0.36670142248E+03 -0.13588054923E+03  0.10474282957E+04  0.00000000000E+00 0.  1.
<mgrwt>
<rscale>  0 0.22582980E+04</rscale>
<asrwt>0</asrwt>
<pdfrwt beam="1">  1        2 0.22969015E+00 0.22582980E+04</pdfrwt>
<pdfrwt beam="2">  1       -2 0.13138126E+00 0.22582980E+04</pdfrwt>
<totfact> 0.49280723E+00</totfact>
</mgrwt>
</event>
<event>
 6    1  0.1637818E-005  0.7036713E+03  0.7818608E-02  0.9710974E-01
         -2   -1    0    0    0  501 -0.00000000000E+00  0.00000000000E+00  0.35224417985E+03  0.35224417985E+03  0.00000000000E+00 0.  1.
          2   -1    0    0  501    0  0.00000000000E+00 -0.00000000000E+00 -0.35142760633E+03  0.35142760633E+03  0.00000000000E+00 0. -1.
         23    2    1    2    0    0 -0.20080937235E+03 -0.12289550121E+03  0.25391582399E+03  0.35800295792E+03  0.90912947182E+02 0.  0.
         11    1    3    3    0    0 -0.18139976606E+03 -0.70115296674E+02  0.21319065334E+03  0.28856937576E+03  0.00000000000E+00 0. -1.
        -11    1    3    3    0    0 -0.19409606287E+02 -0.52780204534E+02  0.40725170651E+02  0.69433582159E+02  0.00000000000E+00 0.  1.
         22    1    1    2    0    0  0.20080937235E+03  0.12289550121E+03 -0.25309925047E+03  0.34566882826E+03  0.00000000000E+00 0. -1.
<mgrwt>
<rscale>  0 0.70367131E+03</rscale>
<asrwt>0</asrwt>
<pdfrwt beam="1">  1        2 0.54065785E-01 0.70367131E+03</pdfrwt>
<pdfrwt beam="2">  1       -2 0.54191413E-01 0.70367131E+03</pdfrwt>
<totfact> 0.29771753E+02</totfact>
</mgrwt>
</event>
<event>
 6    1  0.1637818E-005  0.2030895E+04  0.7818608E-02  0.8592311E-01
         -2   -1    0    0    0  501 -0.00000000000E+00  0.00000000000E+00  0.29282409058E+03  0.29282409058E+03  0.00000000000E+00 0.  1.
          2   -1    0    0  501    0  0.00000000000E+00 -0.00000000000E+00 -0.35213429762E+04  0.35213429762E+04  0.00000000000E+00 0. -1.
         23    2    1    2    0    0 -0.75495311374E+03  0.16214457160E+03 -0.28500134209E+04  0.29542185492E+04  0.92658895759E+02 0.  0.
         11    1    3    3    0    0 -0.71256624875E+03  0.14662642808E+03 -0.25863160243E+04  0.26866857922E+04  0.00000000000E+00 0.  1.
        -11    1    3    3    0    0 -0.42386864988E+02  0.15518143517E+02 -0.26369739664E+03  0.26753275705E+03  0.00000000000E+00 0. -1.
         22    1    1    2    0    0  0.75495311374E+03 -0.16214457160E+03 -0.37850546466E+03  0.85994851754E+03  0.00000000000E+00 0.  1.
<mgrwt>
<rscale>  0 0.20308954E+04</rscale>
<asrwt>0</asrwt>
<pdfrwt beam="1">  1        2 0.54174509E+00 0.20308954E+04</pdfrwt>
<pdfrwt beam="2">  1       -2 0.45049859E-01 0.20308954E+04</pdfrwt>
<totfact> 0.34197141E+00</totfact>
</mgrwt>
</event>
<event>
 6    1  0.1637818E-005  0.2735594E+04  0.7818608E-02  0.8323548E-01
          1   -1    0    0  501    0  0.00000000000E+00  0.00000000000E+00  0.19047394357E+04  0.19047394357E+04  0.00000000000E+00 0. -1.
         -1   -1    0    0    0  501 -0.00000000000E+00 -0.00000000000E+00 -0.98221746659E+03  0.98221746659E+03  0.00000000000E+00 0.  1.
         23    2    1    2    0    0 -0.51859470774E+03  0.55456113605E+03  0.16611919978E+04  0.18276590518E+04  0.65576151439E+02 0.  0.
         13    1    3    3    0    0 -0.41980660306E+03  0.41122777648E+03  0.13043423258E+04  0.14306134247E+04  0.00000000000E+00 0.  1.
        -13    1    3    3    0    0 -0.98788104682E+02  0.14333335958E+03  0.35684967198E+03  0.39704562709E+03  0.00000000000E+00 0. -1.
         22    1    1    2    0    0  0.51859470774E+03 -0.55456113605E+03 -0.73867002875E+03  0.10592978504E+04  0.00000000000E+00 0.  1.
<mgrwt>
<rscale>  0 0.27355938E+04</rscale>
<asrwt>0</asrwt>
<pdfrwt beam="1">  1        1 0.29303684E+00 0.27355938E+04</pdfrwt>
<pdfrwt beam="2">  1       -1 0.15111038E+00 0.27355938E+04</pdfrwt>
<totfact> 0.10295708E+00</totfact>
</mgrwt>
</event>
<event>
 6    1  0.1637818E-005  0.3620065E+04  0.7818608E-02  0.8085911E-01
          1   -1    0    0  501    0  0.00000000000E+00  0.00000000000E+00  0.12633096711E+04  0.12633096711E+04  0.00000000000E+00 0. -1.
         -1   -1    0    0    0  501 -0.00000000000E+00 -0.00000000000E+00 -0.25933613846E+04  0.25933613846E+04  0.00000000000E+00 0.  1.
         23    2    1    2    0    0  0.58408528167E+03  0.39428554901E+03 -0.24403090193E+04  0.25416471033E+04  0.90802960104E+02 0.  0.
         13    1    3    3    0    0  0.65718245878E+02  0.80239943926E+02 -0.31732700488E+03  0.33384691772E+03  0.00000000000E+00 0.  1.
        -13    1    3    3    0    0  0.51836703579E+03  0.31404560508E+03 -0.21229820144E+04  0.22078001855E+04  0.00000000000E+00 0. -1.
         22    1    1    2    0    0 -0.58408528167E+03 -0.39428554901E+03  0.11102573058E+04  0.13150239524E+04  0.00000000000E+00 0. -1.
<mgrwt>
<rscale>  0 0.36200655E+04</rscale>
<asrwt>0</asrwt>
<pdfrwt beam="1">  1        1 0.19435533E+00 0.36200655E+04</pdfrwt>
<pdfrwt beam="2">  1       -1 0.39897867E+00 0.36200655E+04</pdfrwt>
<totfact> 0.56389248E-02</totfact>
</mgrwt>
</event>
<event>
 6    1  0.1637818E-005  0.2328195E+04  0.7818608E-02  0.8466886E-01
          1   -1    0    0  501    0  0.00000000000E+00  0.00000000000E+00  0.21525204410E+04  0.21525204410E+04  0.00000000000E+00 0. -1.
         -1   -1    0    0    0  501 -0.00000000000E+00 -0.00000000000E+00 -0.62955188264E+03  0.62955188264E+03  0.00000000000E+00 0.  1.
         23    2    1    2    0    0  0.54553812926E+03  0.18691936433E+03  0.19680877537E+04  0.20535932249E+04  0.10641911312E+03 0.  0.
         13    1    3    3    0    0  0.37636450292E+03  0.87527766317E+02  0.14114109490E+04  0.14633496561E+04  0.00000000000E+00 0.  1.
        -13    1    3    3    0    0  0.16917362634E+03  0.99391598009E+02  0.55667680474E+03  0.59024356883E+03  0.00000000000E+00 0. -1.
         22    1    1    2    0    0 -0.54553812926E+03 -0.18691936433E+03 -0.44511919538E+03  0.72847909876E+03  0.00000000000E+00 0.  1.
<mgrwt>
<rscale>  0 0.23281953E+04</rscale>
<asrwt>0</asrwt>
<pdfrwt beam="1">  1        1 0.33115699E+00 0.23281953E+04</pdfrwt>
<pdfrwt beam="2">  1       -1 0.96854137E-01 0.23281953E+04</pdfrwt>
<totfact> 0.21689291E+00</totfact>
</mgrwt>
</event>
<event>
 6    1  0.1637818E-005  0.5467679E+04  0.7818608E-02  0.7760152E-01
          2   -1    0    0  501    0  0.00000000000E+00  0.00000000000E+00  0.48868383635E+04  0.48868383635E+04  0.00000000000E+00 0. -1.
         -2   -1    0    0    0  501 -0.00000000000E+00 -0.00000000000E+00 -0.15293893681E+04  0.15293893681E+04  0.00000000000E+00 0.  1.
         23    2    1    2    0    0  0.29402432832E+03  0.11203178913E+04 -0.12257176205E+04  0.16889686196E+04  0.93106548663E+02 0.  0.
         11    1    3    3    0    0  0.27520345789E+03  0.10173001293E+04 -0.10747258688E+04  0.15052149977E+04  0.00000000000E+00 0. -1.
        -11    1    3    3    0    0  0.18820870432E+02  0.10301776200E+03 -0.15099175171E+03  0.18375362183E+03  0.00000000000E+00 0.  1.
         22    1    1    2    0    0 -0.29402432832E+03 -0.11203178913E+04  0.45831666159E+04  0.47272591121E+04  0.00000000000E+00 0. -1.
<mgrwt>
<rscale>  0 0.54676791E+04</rscale>
<asrwt>0</asrwt>
<pdfrwt beam="1">  1        2 0.75182128E+00 0.54676791E+04</pdfrwt>
<pdfrwt beam="2">  1       -2 0.23529067E+00 0.54676791E+04</pdfrwt>
<totfact> 0.25808034E-03</totfact>
</mgrwt>
</event>
<event>
 6    1  0.1637818E-005  0.4050474E+04  0.7818608E-02  0.7994441E-01
          2   -1    0    0  501    0  0.00000000000E+00  0.00000000000E+00  0.18455717205E+04  0.18455717205E+04  0.00000000000E+00 0. -1.
         -2   -1    0    0    0  501 -0.00000000000E+00 -0.00000000000E+00 -0.22223928091E+04  0.22223928091E+04  0.00000000000E+00 0.  1.
         23    2    1    2    0    0  0.13815541958E+04  0.14678628048E+04 -0.35873641399E+01  0.20179360853E+04  0.93487782452E+02 0.  0.
         11    1    3    3    0    0  0.87740946561E+03  0.92441319307E+03  0.42496353665E+02  0.12752227499E+04  0.00000000000E+00 0.  1.
        -11    1    3    3    0    0  0.50414473016E+03  0.54344961176E+03 -0.46083717805E+02  0.74271333535E+03  0.00000000000E+00 0. -1.
         22    1    1    2    0    0 -0.13815541958E+04 -0.14678628048E+04 -0.37323372444E+03  0.20500284444E+04  0.00000000000E+00 0.  1.
<mgrwt>
<rscale>  0 0.40504742E+04</rscale>
<asrwt>0</asrwt>
<pdfrwt beam="1">  1        2 0.28393411E+00 0.40504742E+04</pdfrwt>
<pdfrwt beam="2">  1       -2 0.34190659E+00 0.40504742E+04</pdfrwt>
<totfact> 0.11186192E-01</totfact>
</mgrwt>
</event>
<event>
 6    1  0.1637818E-005  0.1707171E+04  0.7818608E-02  0.8757285E-01
          2   -1    0    0  501    0  0.00000000000E+00  0.00000000000E+00  0.25221007056E+04  0.25221007056E+04  0.00000000000E+00 0. -1.
         -2   -1    0    0    0  501 -0.00000000000E+00 -0.00000000000E+00 -0.28888954244E+03  0.28888954244E+03  0.00000000000E+00 0.  1.
         23    2    1    2    0    0  0.35127786685E+03 -0.72154829804E+03  0.65213843261E+03  0.10379084492E+04  0.89114125975E+02 0.  0.
         11    1    3    3    0    0  0.68839891295E+02 -0.23137494445E+03  0.18165136925E+03  0.30211010494E+03  0.00000000000E+00 0. -1.
        -11    1    3    3    0    0  0.28243797556E+03 -0.49017335358E+03  0.47048706336E+03  0.73579834424E+03  0.00000000000E+00 0.  1.
         22    1    1    2    0    0 -0.35127786685E+03  0.72154829804E+03  0.15810727305E+04  0.17730817988E+04  0.00000000000E+00 0. -1.
<mgrwt>
<rscale>  0 0.17071714E+04</rscale>
<asrwt>0</asrwt>
<pdfrwt beam="1">  1        2 0.38801548E+00 0.17071714E+04</pdfrwt>
<pdfrwt beam="2">  1       -2 0.44444547E-01 0.17071714E+04</pdfrwt>
<totfact> 0.15457544E+01</totfact>
</mgrwt>
</event>
<event>
 6    1  0.1637818E-005  0.3124249E+04  0.7818608E-02  0.8209114E-01
         -2   -1    0    0    0  501 -0.00000000000E+00  0.00000000000E+00  0.72517263682E+03  0.72517263682E+03  0.00000000000E+00 0.  1.
          2   -1    0    0  501    0  0.00000000000E+00 -0.00000000000E+00 -0.33650366361E+04  0.33650366361E+04  0.00000000000E+00 0. -1.
         23    2    1    2    0    0 -0.14975085329E+04 -0.11482433693E+03 -0.18769941760E+04  0.24056657734E+04  0.91674654033E+02 0.  0.
         11    1    3    3    0    0 -0.80676191718E+03 -0.38572542387E+02 -0.94577193391E+03  0.12437190933E+04  0.00000000000E+00 0.  1.
        -11    1    3    3    0    0 -0.69074661572E+03 -0.76251794541E+02 -0.93122224207E+03  0.11619466801E+04  0.00000000000E+00 0. -1.
         22    1    1    2    0    0  0.14975085329E+04  0.11482433693E+03 -0.76286982330E+03  0.16845434995E+04  0.00000000000E+00 0.  1.
<mgrwt>
<rscale>  0 0.31242487E+04</rscale>
<asrwt>0</asrwt>
<pdfrwt beam="1">  1        2 0.51769796E+00 0.31242487E+04</pdfrwt>
<pdfrwt beam="2">  1       -2 0.11156502E+00 0.31242487E+04</pdfrwt>
<totfact> 0.54121570E-01</totfact>
</mgrwt>
</event>
<event>
 6    1  0.1637818E-005  0.1005327E+04  0.7818608E-02  0.9302721E-01
         -1   -1    0    0    0  501 -0.00000000000E+00  0.00000000000E+00  0.10260562908E+03  0.10260562908E+03  0.00000000000E+00 0.  1.
          1   -1    0    0  501    0  0.00000000000E+00 -0.00000000000E+00 -0.24625432877E+04  0.24625432877E+04  0.00000000000E+00 0. -1.
         23    2    1    2    0    0 -0.20940037566E+02 -0.49630345122E+03 -0.10799131889E+04  0.11921164175E+04  0.90407171083E+02 0.  0.
         13    1    3    3    0    0 -0.13842395244E+02 -0.15142677839E+03 -0.23985612854E+03  0.28399409064E+03  0.00000000000E+00 0. -1.
        -13    1    3    3    0    0 -0.70976423227E+01 -0.34487667283E+03 -0.84005706031E+03  0.90812232687E+03  0.00000000000E+00 0.  1.
         22    1    1    2    0    0  0.20940037566E+02  0.49630345122E+03 -0.12800244698E+04  0.13730324993E+04  0.00000000000E+00 0. -1.
<mgrwt>
<rscale>  0 0.10053274E+04</rscale>
<asrwt>0</asrwt>
<pdfrwt beam="1">  1        1 0.37885282E+00 0.10053274E+04</pdfrwt>
<pdfrwt beam="2">  1       -1 0.15785481E-01 0.10053274E+04</pdfrwt>
<totfact> 0.44152591E+01</totfact>
</mgrwt>
</event>
<event>
 6    1  0.1637818E-005  0.2147233E+04  0.7818608E-02  0.8540718E-01
          1   -1    0    0  501    0  0.00000000000E+00  0.00000000000E+00  0.96602753825E+03  0.96602753825E+03  0.00000000000E+00 0. -1.
         -1   -1    0    0    0  501 -0.00000000000E+00 -0.00000000000E+00 -0.11931878115E+04  0.11931878115E+04  0.00000000000E+00 0.  1.
         23    2    1    2    0    0 -0.13846624373E+03 -0.68200856842E+03  0.70570776179E+03  0.99536340089E+03  0.91740213275E+02 0.  0.
         11    1    3    3    0    0 -0.49159545414E+02 -0.32887587347E+03  0.39721831795E+03  0.51803319698E+03  0.00000000000E+00 0. -1.
        -11    1    3    3    0    0 -0.89306698313E+02 -0.35313269495E+03  0.30848944384E+03  0.47733020391E+03  0.00000000000E+00 0.  1.
         22    1    1    2    0    0  0.13846624373E+03  0.68200856842E+03 -0.93286803503E+03  0.11638519488E+04  0.00000000000E+00 0.  1.
<mgrwt>
<rscale>  0 0.21472329E+04</rscale>
<asrwt>0</asrwt>
<pdfrwt beam="1">  1        1 0.14861962E+00 0.21472329E+04</pdfrwt>
<pdfrwt beam="2">  1       -1 0.18356736E+00 0.21472329E+04</pdfrwt>
<totfact> 0.28924719E+00</totfact>
</mgrwt>
</event>
<event>
 6    1  0.1637818E-005  0.2787995E+04  0.7818608E-02  0.8307005E-01
         -2   -1    0    0    0  501 -0.00000000000E+00  0.00000000000E+00  0.91259430147E+03  0.91259430147E+03  0.00000000000E+00 0. -1.
          2   -1    0    0  501    0  0.00000000000E+00 -0.00000000000E+00 -0.21293461590E+04  0.21293461590E+04  0.00000000000E+00 0.  1.
         23    2    1    2    0    0 -0.11066576195E+02 -0.85111454595E+03 -0.18115979419E+04  0.20034991750E+04  0.87197486451E+02 0.  0.
         11    1    3    3    0    0 -0.47165605473E+01 -0.70712297467E+02 -0.21479668275E+03  0.22618596304E+03  0.00000000000E+00 0. -1.
        -11    1    3    3    0    0 -0.63500156477E+01 -0.78040224848E+03 -0.15968012591E+04  0.17773132119E+04  0.00000000000E+00 0.  1.
         22    1    1    2    0    0  0.11066576195E+02  0.85111454595E+03  0.59484608433E+03  0.10384412855E+04  0.00000000000E+00 0. -1.
<mgrwt>
<rscale>  0 0.27879951E+04</rscale>
<asrwt>0</asrwt>
<pdfrwt beam="1">  1        2 0.32759171E+00 0.27879951E+04</pdfrwt>
<pdfrwt beam="2">  1       -2 0.14039912E+00 0.27879951E+04</pdfrwt>
<totfact> 0.17568701E+00</totfact>
</mgrwt>
</event>
<event>
 6    1  0.1637818E-005  0.2145824E+04  0.7818608E-02  0.8541322E-01
          2   -1    0    0  501    0  0.00000000000E+00  0.00000000000E+00  0.32072025866E+04  0.32072025866E+04  0.00000000000E+00 0. -1.
         -2   -1    0    0    0  501 -0.00000000000E+00 -0.00000000000E+00 -0.35892331176E+03  0.35892331176E+03  0.00000000000E+00 0.  1.
         23    2    1    2    0    0 -0.73428323212E+03 -0.75529720920E+03  0.11054972552E+04  0.15297234561E+04  0.91016105482E+02 0.  0.
         13    1    3    3    0    0 -0.69176730295E+03 -0.68532288957E+03  0.10414380287E+04  0.14257638767E+04  0.00000000000E+00 0.  1.
        -13    1    3    3    0    0 -0.42515929167E+02 -0.69974319625E+02  0.64059226562E+02  0.10395957939E+03  0.00000000000E+00 0. -1.
         22    1    1    2    0    0  0.73428323212E+03  0.75529720920E+03  0.17427820196E+04  0.20364024423E+04  0.00000000000E+00 0. -1.
<mgrwt>
<rscale>  0 0.21458236E+04</rscale>
<asrwt>0</asrwt>
<pdfrwt beam="1">  1        2 0.49341576E+00 0.21458236E+04</pdfrwt>
<pdfrwt beam="2">  1       -2 0.55218973E-01 0.21458236E+04</pdfrwt>
<totfact> 0.36401641E+00</totfact>
</mgrwt>
</event>
<event>
 6    1  0.1637818E-005  0.3584456E+04  0.7818608E-02  0.8094061E-01
         -1   -1    0    0    0  501 -0.00000000000E+00  0.00000000000E+00  0.25482951681E+04  0.25482951681E+04  0.00000000000E+00 0.  1.
          1   -1    0    0  501    0  0.00000000000E+00 -0.00000000000E+00 -0.12604827249E+04  0.12604827249E+04  0.00000000000E+00 0. -1.
         23    2    1    2    0    0  0.12234909368E+04  0.12126563600E+04  0.11652395664E+04  0.20817892914E+04  0.92724792090E+02 0.  0.
         13    1    3    3    0    0  0.61002508450E+03  0.59344190465E+03  0.63079395807E+03  0.10593417369E+04  0.00000000000E+00 0. -1.
        -13    1    3    3    0    0  0.61346585226E+03  0.61921445534E+03  0.53444560830E+03  0.10224475546E+04  0.00000000000E+00 0.  1.
         22    1    1    2    0    0 -0.12234909368E+04 -0.12126563600E+04  0.12257287687E+03  0.17269886016E+04  0.00000000000E+00 0. -1.
<mgrwt>
<rscale>  0 0.35844565E+04</rscale>
<asrwt>0</asrwt>
<pdfrwt beam="1">  1        1 0.19392042E+00 0.35844565E+04</pdfrwt>
<pdfrwt beam="2">  1       -1 0.39204541E+00 0.35844565E+04</pdfrwt>
<totfact> 0.63363895E-02</totfact>
</mgrwt>
</event>
<event>
 6    1  0.1637818E-005  0.2142381E+04  0.7818608E-02  0.8542801E-01
          2   -1    0    0  501    0  0.00000000000E+00  0.00000000000E+00  0.77343506997E+03  0.77343506997E+03  0.00000000000E+00 0. -1.
         -2   -1    0    0    0  501 -0.00000000000E+00 -0.00000000000E+00 -0.14835754503E+04  0.14835754503E+04  0.00000000000E+00 0.  1.
         23    2    1    2    0    0  0.32145562165E+03 -0.45647221958E+02 -0.14284626935E+04  0.14687184861E+04  0.10588172251E+03 0.  0.
         13    1    3    3    0    0  0.18751189911E+03 -0.30785843513E+02 -0.10481172354E+04  0.10652033700E+04  0.00000000000E+00 0. -1.
        -13    1    3    3    0    0  0.13394372254E+03 -0.14861378444E+02 -0.38034545814E+03  0.40351511608E+03  0.00000000000E+00 0.  1.
         22    1    1    2    0    0 -0.32145562165E+03  0.45647221958E+02  0.71832231316E+03  0.78829203417E+03  0.00000000000E+00 0. -1.
<mgrwt>
<rscale>  0 0.21423812E+04</rscale>
<asrwt>0</asrwt>
<pdfrwt beam="1">  1        2 0.11899001E+00 0.21423812E+04</pdfrwt>
<pdfrwt beam="2">  1       -2 0.22824238E+00 0.21423812E+04</pdfrwt>
<totfact> 0.28999340E+00</totfact>
</mgrwt>
</event>
<event>
 6    1  0.1637818E-005  0.6787613E+04  0.7818608E-02  0.7599744E-01
         -2   -1    0    0    0  501 -0.00000000000E+00  0.00000000000E+00  0.61549909974E+04  0.61549909974E+04  0.00000000000E+00 0.  1.
          2   -1    0    0  501    0  0.00000000000E+00 -0.00000000000E+00 -0.18713143929E+04  0.18713143929E+04  0.00000000000E+00 0. -1.
         23    2    1    2    0    0  0.28046092808E+04 -0.11598587904E+04  0.34788263155E+03  0.30562369976E+04  0.91959929402E+02 0.  0.
         11    1    3    3    0    0  0.61721210606E+03 -0.28769308013E+03  0.53984412967E+02  0.68310497661E+03  0.00000000000E+00 0. -1.
        -11    1    3    3    0    0  0.21873971747E+04 -0.87216571027E+03  0.29389821858E+03  0.23731320210E+04  0.00000000000E+00 0.  1.
         22    1    1    2    0    0 -0.28046092808E+04  0.11598587904E+04  0.39357939729E+04  0.49700683928E+04  0.00000000000E+00 0.  1.
<mgrwt>
<rscale>  0 0.67876132E+04</rscale>
<asrwt>0</asrwt>
<pdfrwt beam="1">  1        2 0.28789452E+00 0.67876132E+04</pdfrwt>
<pdfrwt beam="2">  1       -2 0.94692168E+00 0.67876132E+04</pdfrwt>
<totfact> 0.46164133E-06</totfact>
</mgrwt>
</event>
<event>
 6    1  0.1637818E-005  0.3629746E+04  0.7818608E-02  0.8083712E-01
          2   -1    0    0  501    0  0.00000000000E+00  0.00000000000E+00  0.21283151278E+04  0.21283151278E+04  0.00000000000E+00 0.  1.
         -2   -1    0    0    0  501 -0.00000000000E+00 -0.00000000000E+00 -0.15475921759E+04  0.15475921759E+04  0.00000000000E+00 0. -1.
         23    2    1    2    0    0  0.87853838530E+03  0.75024555125E+03 -0.11253524518E+04  0.16154725523E+04  0.92926555890E+02 0.  0.
         13    1    3    3    0    0  0.61443507596E+03  0.57436948129E+03 -0.79310887652E+03  0.11560503681E+04  0.00000000000E+00 0. -1.
        -13    1    3    3    0    0  0.26410330934E+03  0.17587606996E+03 -0.33224357529E+03  0.45942218418E+03  0.00000000000E+00 0.  1.
         22    1    1    2    0    0 -0.87853838530E+03 -0.75024555125E+03  0.17060754037E+04  0.20604347514E+04  0.00000000000E+00 0.  1.
<mgrwt>
<rscale>  0 0.36297459E+04</rscale>
<asrwt>0</asrwt>
<pdfrwt beam="1">  1        2 0.32743310E+00 0.36297459E+04</pdfrwt>
<pdfrwt beam="2">  1       -2 0.23809110E+00 0.36297459E+04</pdfrwt>
<totfact> 0.35065771E-01</totfact>
</mgrwt>
</event>
<event>
 6    1  0.1637818E-005  0.8192987E+03  0.7818608E-02  0.9532496E-01
          1   -1    0    0  501    0  0.00000000000E+00  0.00000000000E+00  0.22739551025E+03  0.22739551025E+03  0.00000000000E+00 0. -1.
         -1   -1    0    0    0  501 -0.00000000000E+00 -0.00000000000E+00 -0.73797673483E+03  0.73797673483E+03  0.00000000000E+00 0.  1.
         23    2    1    2    0    0  0.23156571451E+02 -0.37698025582E+03 -0.42968255235E+03  0.57911464289E+03  0.89979629567E+02 0.  0.
         11    1    3    3    0    0 -0.10102369147E+02 -0.23321924753E+03 -0.20710124923E+03  0.31206442077E+03  0.00000000000E+00 0.  1.
        -11    1    3    3    0    0  0.33258940598E+02 -0.14376100829E+03 -0.22258130312E+03  0.26705022212E+03  0.00000000000E+00 0. -1.
         22    1    1    2    0    0 -0.23156571451E+02  0.37698025582E+03 -0.80898672223E+02  0.38625760219E+03  0.00000000000E+00 0. -1.
<mgrwt>
<rscale>  0 0.81929872E+03</rscale>
<asrwt>0</asrwt>
<pdfrwt beam="1">  1        1 0.34983925E-01 0.81929872E+03</pdfrwt>
<pdfrwt beam="2">  1       -1 0.11353488E+00 0.81929872E+03</pdfrwt>
<totfact> 0.90147623E+01</totfact>
</mgrwt>
</event>
<event>
 6    1  0.1637818E-005  0.2633291E+04  0.7818608E-02  0.8356980E-01
         -3   -1    0    0    0  501 -0.00000000000E+00  0.00000000000E+00  0.14880540254E+04  0.14880540254E+04  0.00000000000E+00 0.  1.
          3   -1    0    0  501    0  0.00000000000E+00 -0.00000000000E+00 -0.11649817863E+04  0.11649817863E+04  0.00000000000E+00 0. -1.
         23    2    1    2    0    0 -0.49797652162E+03 -0.84160490255E+03  0.10474260412E+04  0.14360855831E+04  0.94662887592E+02 0.  0.
         13    1    3    3    0    0 -0.25737001531E+03 -0.46626191052E+03  0.63461731199E+03  0.82847970806E+03  0.00000000000E+00 0.  1.
        -13    1    3    3    0    0 -0.24060650631E+03 -0.37534299202E+03  0.41280872918E+03  0.60760587507E+03  0.00000000000E+00 0. -1.
         22    1    1    2    0    0  0.49797652162E+03  0.84160490255E+03 -0.72435380207E+03  0.12169502285E+04  0.00000000000E+00 0. -1.
<mgrwt>
<rscale>  0 0.26332914E+04</rscale>
<asrwt>0</asrwt>
<pdfrwt beam="1">  1        3 0.17922797E+00 0.26332914E+04</pdfrwt>
<pdfrwt beam="2">  1       -3 0.22893139E+00 0.26332914E+04</pdfrwt>
<totfact> 0.44859939E-02</totfact>
</mgrwt>
</event>
<event>
 6    1  0.1637818E-005  0.5046893E+03  0.7818608E-02  0.1012562E+00
         -2   -1    0    0    0  501 -0.00000000000E+00  0.00000000000E+00  0.24033197118E+03  0.24033197118E+03  0.00000000000E+00 0.  1.
          2   -1    0    0  501    0  0.00000000000E+00 -0.00000000000E+00 -0.26495778686E+03  0.26495778686E+03  0.00000000000E+00 0. -1.
         23    2    1    2    0    0  0.10886547515E+03  0.14675740778E+03  0.14999240961E+03  0.25254294199E+03  0.88830097307E+02 0.  0.
         13    1    3    3    0    0  0.53610720180E+02  0.97194414107E+02  0.36335761524E+02  0.11679533817E+03  0.00000000000E+00 0. -1.
        -13    1    3    3    0    0  0.55254754975E+02  0.49562993678E+02  0.11365664808E+03  0.13574760382E+03  0.00000000000E+00 0.  1.
         22    1    1    2    0    0 -0.10886547515E+03 -0.14675740778E+03 -0.17461822529E+03  0.25274681605E+03  0.00000000000E+00 0. -1.
<mgrwt>
<rscale>  0 0.50468932E+03</rscale>
<asrwt>0</asrwt>
<pdfrwt beam="1">  1        2 0.40762736E-01 0.50468932E+03</pdfrwt>
<pdfrwt beam="2">  1       -2 0.36974150E-01 0.50468932E+03</pdfrwt>
<totfact> 0.87193199E+02</totfact>
</mgrwt>
</event>
<event>
 6    1  0.1637818E-005  0.6178495E+04  0.7818608E-02  0.7668656E-01
          2   -1    0    0  501    0  0.00000000000E+00  0.00000000000E+00  0.22904264015E+04  0.22904264015E+04  0.00000000000E+00 0.  1.
         -2   -1    0    0    0  501 -0.00000000000E+00 -0.00000000000E+00 -0.41666700978E+04  0.41666700978E+04  0.00000000000E+00 0. -1.
         23    2    1    2    0    0  0.13518282751E+04  0.21625269229E+04 -0.27586045586E+04  0.37584814715E+04  0.11100217607E+03 0.  0.
         13    1    3    3    0    0  0.59957875864E+03  0.87195730371E+03 -0.11009614751E+04  0.15270626696E+04  0.00000000000E+00 0.  1.
        -13    1    3    3    0    0  0.75224951644E+03  0.12905696192E+04 -0.16576430835E+04  0.22314188018E+04  0.00000000000E+00 0. -1.
         22    1    1    2    0    0 -0.13518282751E+04 -0.21625269229E+04  0.88236086223E+03  0.26986150279E+04  0.00000000000E+00 0.  1.
<mgrwt>
<rscale>  0 0.61784954E+04</rscale>
<asrwt>0</asrwt>
<pdfrwt beam="1">  1        2 0.35237330E+00 0.61784954E+04</pdfrwt>
<pdfrwt beam="2">  1       -2 0.64102616E+00 0.61784954E+04</pdfrwt>
<totfact> 0.11233700E-03</totfact>
</mgrwt>
</event>
<event>
 6    1  0.1637818E-005  0.4330206E+04  0.7818608E-02  0.7941056E-01
         -1   -1    0    0    0  501 -0.00000000000E+00  0.00000000000E+00  0.16493974376E+04  0.16493974376E+04  0.00000000000E+00 0.  1.
          1   -1    0    0  501    0  0.00000000000E+00 -0.00000000000E+00 -0.28420509336E+04  0.28420509336E+04  0.00000000000E+00 0. -1.
         23    2    1    2    0    0  0.59830998745E+03 -0.75206935692E+03  0.14147355044E+04  0.17125887926E+04  0.88885692818E+02 0.  0.
         11    1    3    3    0    0  0.51664594615E+03 -0.59995493330E+03  0.11863924889E+04  0.14263225769E+04  0.00000000000E+00 0.  1.
        -11    1    3    3    0    0  0.81664041307E+02 -0.15211442362E+03  0.22834301546E+03  0.28626621566E+03  0.00000000000E+00 0. -1.
         22    1    1    2    0    0 -0.59830998745E+03  0.75206935692E+03 -0.26073890004E+04  0.27788595787E+04  0.00000000000E+00 0. -1.
<mgrwt>
<rscale>  0 0.43302062E+04</rscale>
<asrwt>0</asrwt>
<pdfrwt beam="1">  1        1 0.43723860E+00 0.43302062E+04</pdfrwt>
<pdfrwt beam="2">  1       -1 0.25375346E+00 0.43302062E+04</pdfrwt>
<totfact> 0.39033360E-02</totfact>
</mgrwt>
</event>
<event>
 6    1  0.3725159E-005  0.3379154E+04  0.7818608E-02  0.8143042E-01
          2   -1    0    0  501    0  0.00000000000E+00  0.00000000000E+00  0.22398583578E+04  0.22398583578E+04  0.00000000000E+00 0. -1.
         -2   -1    0    0    0  501 -0.00000000000E+00 -0.00000000000E+00 -0.12744867235E+04  0.12744867235E+04  0.00000000000E+00 0.  1.
         23    2    1    2    0    0  0.32848182236E+03 -0.22168254268E+03  0.21898876726E+04  0.22273007988E+04  0.90649722458E+02 0.  0.
         13    1    3    3    0    0  0.12865381069E+03 -0.13775126533E+03  0.93040285685E+03  0.94930326563E+03  0.00000000000E+00 0. -1.
        -13    1    3    3    0    0  0.19982801167E+03 -0.83931277355E+02  0.12594848158E+04  0.12779975331E+04  0.00000000000E+00 0.  1.
         22    1    1    2    0    0 -0.32848182236E+03  0.22168254268E+03 -0.12245160382E+04  0.12870442825E+04  0.00000000000E+00 0.  1.
<mgrwt>
<rscale>  0 0.33791536E+04</rscale>
<asrwt>0</asrwt>
<pdfrwt beam="1">  1        2 0.34459359E+00 0.33791536E+04</pdfrwt>
<pdfrwt beam="2">  1       -2 0.19607488E+00 0.33791536E+04</pdfrwt>
<totfact> 0.57446449E-01</totfact>
</mgrwt>
</event>
<event>
 6    1  0.1637818E-005  0.3563473E+04  0.7818608E-02  0.8098910E-01
          2   -1    0    0  501    0  0.00000000000E+00  0.00000000000E+00  0.28644213062E+04  0.28644213062E+04  0.00000000000E+00 0. -1.
         -2   -1    0    0    0  501 -0.00000000000E+00 -0.00000000000E+00 -0.11082812653E+04  0.11082812653E+04  0.00000000000E+00 0.  1.
         23    2    1    2    0    0 -0.52734180172E+03  0.43314818491E+03  0.27121059295E+04  0.27981483981E+04  0.91701467145E+02 0.  0.
         13    1    3    3    0    0 -0.24409363812E+03  0.24156744463E+03  0.14933901309E+04  0.15323676509E+04  0.00000000000E+00 0. -1.
        -13    1    3    3    0    0 -0.28324816360E+03  0.19158074028E+03  0.12187157986E+04  0.12657807472E+04  0.00000000000E+00 0.  1.
         22    1    1    2    0    0  0.52734180172E+03 -0.43314818491E+03 -0.95596588863E+03  0.11745541734E+04  0.00000000000E+00 0.  1.
<mgrwt>
<rscale>  0 0.35634727E+04</rscale>
<asrwt>0</asrwt>
<pdfrwt beam="1">  1        2 0.44068020E+00 0.35634727E+04</pdfrwt>
<pdfrwt beam="2">  1       -2 0.17050481E+00 0.35634727E+04</pdfrwt>
<totfact> 0.36488617E-01</totfact>
</mgrwt>
</event>
<event>
 6    1  0.1637818E-005  0.2716395E+04  0.7818608E-02  0.8329705E-01
          2   -1    0    0  501    0  0.00000000000E+00  0.00000000000E+00  0.31435200090E+04  0.31435200090E+04  0.00000000000E+00 0. -1.
         -2   -1    0    0    0  501 -0.00000000000E+00 -0.00000000000E+00 -0.58682634066E+03  0.58682634066E+03  0.00000000000E+00 0.  1.
         23    2    1    2    0    0  0.89278784289E+03  0.97600550424E+03  0.16935118998E+04  0.21508718667E+04  0.92792001295E+02 0.  0.
         11    1    3    3    0    0  0.23002797624E+03  0.30897606501E+03  0.51892074849E+03  0.64626451382E+03  0.00000000000E+00 0. -1.
        -11    1    3    3    0    0  0.66275986665E+03  0.66702943922E+03  0.11745911513E+04  0.15046073529E+04  0.00000000000E+00 0.  1.
         22    1    1    2    0    0 -0.89278784289E+03 -0.97600550424E+03  0.86318176847E+03  0.15794744829E+04  0.00000000000E+00 0. -1.
<mgrwt>
<rscale>  0 0.27163949E+04</rscale>
<asrwt>0</asrwt>
<pdfrwt beam="1">  1        2 0.48361845E+00 0.27163949E+04</pdfrwt>
<pdfrwt beam="2">  1       -2 0.90280977E-01 0.27163949E+04</pdfrwt>
<totfact> 0.12967590E+00</totfact>
</mgrwt>
</event>
<event>
 6    1  0.1637818E-005  0.3758374E+04  0.7818608E-02  0.8055147E-01
         -1   -1    0    0    0  501 -0.00000000000E+00  0.00000000000E+00  0.21770609568E+04  0.21770609568E+04  0.00000000000E+00 0.  1.
          1   -1    0    0  501    0  0.00000000000E+00 -0.00000000000E+00 -0.16220695126E+04  0.16220695126E+04  0.00000000000E+00 0. -1.
         23    2    1    2    0    0  0.12711681470E+04  0.11948940373E+04 -0.42506246272E+03  0.17980942682E+04  0.93939776977E+02 0.  0.
         11    1    3    3    0    0  0.60369717169E+03  0.52860315188E+03 -0.15706552796E+03  0.81764365549E+03  0.00000000000E+00 0.  1.
        -11    1    3    3    0    0  0.66747097530E+03  0.66629088542E+03 -0.26799693476E+03  0.98045061268E+03  0.00000000000E+00 0. -1.
         22    1    1    2    0    0 -0.12711681470E+04 -0.11948940373E+04  0.98005390694E+03  0.20010362013E+04  0.00000000000E+00 0. -1.
<mgrwt>
<rscale>  0 0.37583742E+04</rscale>
<asrwt>0</asrwt>
<pdfrwt beam="1">  1        1 0.24954916E+00 0.37583742E+04</pdfrwt>
<pdfrwt beam="2">  1       -1 0.33493245E+00 0.37583742E+04</pdfrwt>
<totfact> 0.84039605E-02</totfact>
</mgrwt>
</event>
<event>
 6    1  0.1637818E-005  0.4065664E+04  0.7818608E-02  0.7991430E-01
         -1   -1    0    0    0  501 -0.00000000000E+00  0.00000000000E+00  0.14053919456E+04  0.14053919456E+04  0.00000000000E+00 0.  1.
          1   -1    0    0  501    0  0.00000000000E+00 -0.00000000000E+00 -0.29403936089E+04  0.29403936089E+04  0.00000000000E+00 0. -1.
         23    2    1    2    0    0 -0.18617439834E+04 -0.70423753725E+03 -0.33202145013E+03  0.20200163136E+04  0.90479252259E+02 0.  0.
         13    1    3    3    0    0 -0.76610399524E+03 -0.31393437152E+03 -0.17709409832E+03  0.84665957787E+03  0.00000000000E+00 0.  1.
        -13    1    3    3    0    0 -0.10956399882E+04 -0.39030316572E+03 -0.15492735182E+03  0.11733567357E+04  0.00000000000E+00 0. -1.
         22    1    1    2    0    0  0.18617439834E+04  0.70423753725E+03 -0.12029802132E+04  0.23257692409E+04  0.00000000000E+00 0. -1.
<mgrwt>
<rscale>  0 0.40656638E+04</rscale>
<asrwt>0</asrwt>
<pdfrwt beam="1">  1        1 0.45236825E+00 0.40656638E+04</pdfrwt>
<pdfrwt beam="2">  1       -1 0.21621415E+00 0.40656638E+04</pdfrwt>
<totfact> 0.59978814E-02</totfact>
</mgrwt>
</event>
<event>
 6    1  0.1637818E-005  0.4704773E+04  0.7818608E-02  0.7875736E-01
         -1   -1    0    0    0  501 -0.00000000000E+00  0.00000000000E+00  0.23828461737E+04  0.23828461737E+04  0.00000000000E+00 0.  1.
          1   -1    0    0  501    0  0.00000000000E+00 -0.00000000000E+00 -0.23223159407E+04  0.23223159407E+04  0.00000000000E+00 0. -1.
         23    2    1    2    0    0 -0.84230368601E+03 -0.77965740441E+03 -0.20222475955E+04  0.23270736697E+04  0.91898634365E+02 0.  0.
         13    1    3    3    0    0 -0.83993868207E+02 -0.10682108215E+03 -0.19974113446E+03  0.24158276901E+03  0.00000000000E+00 0.  1.
        -13    1    3    3    0    0 -0.75830981781E+03 -0.67283632226E+03 -0.18225064611E+04  0.20854909007E+04  0.00000000000E+00 0. -1.
         22    1    1    2    0    0  0.84230368601E+03  0.77965740441E+03  0.20827778285E+04  0.23780884446E+04  0.00000000000E+00 0.  1.
<mgrwt>
<rscale>  0 0.47047727E+04</rscale>
<asrwt>0</asrwt>
<pdfrwt beam="1">  1        1 0.35727937E+00 0.47047727E+04</pdfrwt>
<pdfrwt beam="2">  1       -1 0.36659172E+00 0.47047727E+04</pdfrwt>
<totfact> 0.15992932E-02</totfact>
</mgrwt>
</event>
<event>
 6    1  0.1637818E-005  0.1434148E+04  0.7818608E-02  0.8929465E-01
          1   -1    0    0  501    0  0.00000000000E+00  0.00000000000E+00  0.14624989744E+03  0.14624989744E+03  0.00000000000E+00 0. -1.
         -1   -1    0    0    0  501 -0.00000000000E+00 -0.00000000000E+00 -0.35158653062E+04  0.35158653062E+04  0.00000000000E+00 0.  1.
         23    2    1    2    0    0 -0.56922984415E+03 -0.43124718593E+03 -0.16935781286E+04  0.18402761011E+04  0.91719681416E+02 0.  0.
         11    1    3    3    0    0 -0.53207860576E+03 -0.39184742475E+03 -0.16138770683E+04  0.17439183578E+04  0.00000000000E+00 0. -1.
        -11    1    3    3    0    0 -0.37151238389E+02 -0.39399761179E+02 -0.79701060215E+02  0.96357743302E+02  0.00000000000E+00 0.  1.
         22    1    1    2    0    0  0.56922984415E+03  0.43124718593E+03 -0.16760372802E+04  0.18218391025E+04  0.00000000000E+00 0. -1.
<mgrwt>
<rscale>  0 0.14341477E+04</rscale>
<asrwt>0</asrwt>
<pdfrwt beam="1">  1        1 0.22499984E-01 0.14341477E+04</pdfrwt>
<pdfrwt beam="2">  1       -1 0.54090235E+00 0.14341477E+04</pdfrwt>
<totfact> 0.18222509E-01</totfact>
</mgrwt>
</event>
<event>
 6    1  0.1637818E-005  0.3719460E+04  0.7818608E-02  0.8063663E-01
         -1   -1    0    0    0  501 -0.00000000000E+00  0.00000000000E+00  0.22293195391E+04  0.22293195391E+04  0.00000000000E+00 0.  1.
          1   -1    0    0  501    0  0.00000000000E+00 -0.00000000000E+00 -0.15514128007E+04  0.15514128007E+04  0.00000000000E+00 0. -1.
         23    2    1    2    0    0  0.20206160123E+03 -0.92244701024E+03  0.19664525914E+04  0.21832068181E+04  0.87856921604E+02 0.  0.
         13    1    3    3    0    0  0.13677442856E+03 -0.77136194895E+03  0.16000162196E+04  0.17815045337E+04  0.00000000000E+00 0. -1.
        -13    1    3    3    0    0  0.65287172679E+02 -0.15108506129E+03  0.36643637182E+03  0.40170228435E+03  0.00000000000E+00 0.  1.
         22    1    1    2    0    0 -0.20206160123E+03  0.92244701024E+03 -0.12885458530E+04  0.15975255218E+04  0.00000000000E+00 0. -1.
<mgrwt>
<rscale>  0 0.37194596E+04</rscale>
<asrwt>0</asrwt>
<pdfrwt beam="1">  1        1 0.23867889E+00 0.37194596E+04</pdfrwt>
<pdfrwt beam="2">  1       -1 0.34297224E+00 0.37194596E+04</pdfrwt>
<totfact> 0.83463698E-02</totfact>
</mgrwt>
</event>
<event>
 6    1  0.1637818E-005  0.3404398E+04  0.7818608E-02  0.8136828E-01
         -1   -1    0    0    0  501 -0.00000000000E+00  0.00000000000E+00  0.79485301532E+03  0.79485301532E+03  0.00000000000E+00 0.  1.
          1   -1    0    0  501    0  0.00000000000E+00 -0.00000000000E+00 -0.36453049142E+04  0.36453049142E+04  0.00000000000E+00 0. -1.
         23    2    1    2    0    0 -0.42602038032E+03  0.86260021273E+03 -0.32557489368E+04  0.33962047791E+04  0.93451967009E+02 0.  0.
         11    1    3    3    0    0 -0.11225924515E+03  0.30112145137E+03 -0.11907260193E+04  0.12333307422E+04  0.00000000000E+00 0. -1.
        -11    1    3    3    0    0 -0.31376113516E+03  0.56147876136E+03 -0.20650229175E+04  0.21628740368E+04  0.00000000000E+00 0.  1.
         22    1    1    2    0    0  0.42602038032E+03 -0.86260021273E+03  0.40529703793E+03  0.10439531505E+04  0.00000000000E+00 0.  1.
<mgrwt>
<rscale>  0 0.34043981E+04</rscale>
<asrwt>0</asrwt>
<pdfrwt beam="1">  1        1 0.56081614E+00 0.34043981E+04</pdfrwt>
<pdfrwt beam="2">  1       -1 0.12228508E+00 0.34043981E+04</pdfrwt>
<totfact> 0.92773755E-02</totfact>
</mgrwt>
</event>
<event>
 6    1  0.1637818E-005  0.3019426E+04  0.7818608E-02  0.8238205E-01
          2   -1    0    0  501    0  0.00000000000E+00  0.00000000000E+00  0.24901031507E+04  0.24901031507E+04  0.00000000000E+00 0. -1.
         -2   -1    0    0    0  501 -0.00000000000E+00 -0.00000000000E+00 -0.91531699315E+03  0.91531699315E+03  0.00000000000E+00 0.  1.
         23    2    1    2    0    0 -0.13705993736E+04  0.55857588724E+03  0.11159257447E+04  0.18558710019E+04  0.91745535489E+02 0.  0.
         13    1    3    3    0    0 -0.57423086069E+03  0.24338148873E+03  0.52618263814E+03  0.81599252393E+03  0.00000000000E+00 0. -1.
        -13    1    3    3    0    0 -0.79636851296E+03  0.31519439850E+03  0.58974310653E+03  0.10398784780E+04  0.00000000000E+00 0.  1.
         22    1    1    2    0    0  0.13705993736E+04 -0.55857588724E+03  0.45886041293E+03  0.15495491420E+04  0.00000000000E+00 0.  1.
<mgrwt>
<rscale>  0 0.30194263E+04</rscale>
<asrwt>0</asrwt>
<pdfrwt beam="1">  1        2 0.38309279E+00 0.30194263E+04</pdfrwt>
<pdfrwt beam="2">  1       -2 0.14081800E+00 0.30194263E+04</pdfrwt>
<totfact> 0.10662539E+00</totfact>
</mgrwt>
</event>
<event>
 6    1  0.1637818E-005  0.1123139E+04  0.7818608E-02  0.9182928E-01
          2   -1    0    0  501    0  0.00000000000E+00  0.00000000000E+00  0.25068828988E+04  0.25068828988E+04  0.00000000000E+00 0.  1.
         -2   -1    0    0    0  501 -0.00000000000E+00 -0.00000000000E+00 -0.12579770945E+03  0.12579770945E+03  0.00000000000E+00 0. -1.
         23    2    1    2    0    0  0.26050644181E+03  0.19130612098E+03  0.22643689502E+04  0.22890466189E+04  0.88915930771E+02 0.  0.
         11    1    3    3    0    0  0.65830825825E+02  0.99656963609E+02  0.74351841134E+03  0.75305035425E+03  0.00000000000E+00 0. -1.
        -11    1    3    3    0    0  0.19467561599E+03  0.91649157372E+02  0.15208505389E+04  0.15359962647E+04  0.00000000000E+00 0.  1.
         22    1    1    2    0    0 -0.26050644181E+03 -0.19130612098E+03  0.11671623916E+03  0.34363398935E+03  0.00000000000E+00 0. -1.
<mgrwt>
<rscale>  0 0.11231387E+04</rscale>
<asrwt>0</asrwt>
<pdfrwt beam="1">  1        2 0.38567425E+00 0.11231387E+04</pdfrwt>
<pdfrwt beam="2">  1       -2 0.19353496E-01 0.11231387E+04</pdfrwt>
<totfact> 0.78084039E+01</totfact>
</mgrwt>
</event>
<event>
 6    1  0.1637818E-005  0.3504514E+04  0.7818608E-02  0.8112721E-01
         -1   -1    0    0    0  501 -0.00000000000E+00  0.00000000000E+00  0.10279714499E+04  0.10279714499E+04  0.00000000000E+00 0.  1.
          1   -1    0    0  501    0  0.00000000000E+00 -0.00000000000E+00 -0.29868571677E+04  0.29868571677E+04  0.00000000000E+00 0. -1.
         23    2    1    2    0    0  0.24713841811E+03  0.16713833128E+04 -0.45330135312E+03  0.17517811469E+04  0.93034908048E+02 0.  0.
         13    1    3    3    0    0  0.17128525496E+03  0.12571717800E+04 -0.37894399988E+03  0.13241669374E+04  0.00000000000E+00 0.  1.
        -13    1    3    3    0    0  0.75853163149E+02  0.41421153270E+03 -0.74357353241E+02  0.42761420950E+03  0.00000000000E+00 0. -1.
         22    1    1    2    0    0 -0.24713841811E+03 -0.16713833128E+04 -0.15055843647E+04  0.22630474708E+04  0.00000000000E+00 0. -1.
<mgrwt>
<rscale>  0 0.35045136E+04</rscale>
<asrwt>0</asrwt>
<pdfrwt beam="1">  1        1 0.45951648E+00 0.35045136E+04</pdfrwt>
<pdfrwt beam="2">  1       -1 0.15814946E+00 0.35045136E+04</pdfrwt>
<totfact> 0.15032879E-01</totfact>
</mgrwt>
</event>
<event>
 6    1  0.1637818E-005  0.1012241E+04  0.7818608E-02  0.9295220E-01
         -1   -1    0    0    0  501 -0.00000000000E+00  0.00000000000E+00  0.68804755981E+03  0.68804755981E+03  0.00000000000E+00 0.  1.
          1   -1    0    0  501    0  0.00000000000E+00 -0.00000000000E+00 -0.37229670612E+03  0.37229670612E+03  0.00000000000E+00 0. -1.
         23    2    1    2    0    0  0.20313493677E+03 -0.22146372908E+03  0.58035970550E+03  0.65993468776E+03  0.91577390832E+02 0.  0.
         11    1    3    3    0    0  0.14865264410E+03 -0.15550721688E+03  0.49184801823E+03  0.53683756960E+03  0.00000000000E+00 0. -1.
        -11    1    3    3    0    0  0.54482292669E+02 -0.65956512206E+02  0.88511687273E+02  0.12309711817E+03  0.00000000000E+00 0.  1.
         22    1    1    2    0    0 -0.20313493677E+03  0.22146372908E+03 -0.26460885181E+03  0.40040957817E+03  0.00000000000E+00 0. -1.
<mgrwt>
<rscale>  0 0.10122408E+04</rscale>
<asrwt>0</asrwt>
<pdfrwt beam="1">  1        1 0.57276417E-01 0.10122408E+04</pdfrwt>
<pdfrwt beam="2">  1       -1 0.10585347E+00 0.10122408E+04</pdfrwt>
<totfact> 0.55276344E+01</totfact>
</mgrwt>
</event>
<event>
 6    1  0.1637818E-005  0.1709938E+04  0.7818608E-02  0.8755717E-01
          2   -1    0    0  501    0  0.00000000000E+00  0.00000000000E+00  0.15491568906E+04  0.15491568906E+04  0.00000000000E+00 0. -1.
         -2   -1    0    0    0  501 -0.00000000000E+00 -0.00000000000E+00 -0.47185145266E+03  0.47185145266E+03  0.00000000000E+00 0.  1.
         23    2    1    2    0    0 -0.39863215215E+03  0.67495877617E+03  0.14384297874E+03  0.80206244413E+03  0.90202103591E+02 0.  0.
         11    1    3    3    0    0 -0.21565428244E+03  0.44111419311E+03  0.68824757376E+02  0.49580777336E+03  0.00000000000E+00 0. -1.
        -11    1    3    3    0    0 -0.18297786971E+03  0.23384458306E+03  0.75018221367E+02  0.30625467077E+03  0.00000000000E+00 0.  1.
         22    1    1    2    0    0  0.39863215215E+03 -0.67495877617E+03  0.93346245916E+03  0.12189458991E+04  0.00000000000E+00 0.  1.
<mgrwt>
<rscale>  0 0.17099379E+04</rscale>
<asrwt>0</asrwt>
<pdfrwt beam="1">  1        2 0.23833183E+00 0.17099379E+04</pdfrwt>
<pdfrwt beam="2">  1       -2 0.72592532E-01 0.17099379E+04</pdfrwt>
<totfact> 0.19432739E+01</totfact>
</mgrwt>
</event>
<event>
 6    1  0.1637818E-005  0.4729606E+03  0.7818608E-02  0.1021088E+00
          1   -1    0    0  501    0  0.00000000000E+00  0.00000000000E+00  0.32517416296E+03  0.32517416296E+03  0.00000000000E+00 0. -1.
         -1   -1    0    0    0  501 -0.00000000000E+00 -0.00000000000E+00 -0.17197839190E+03  0.17197839190E+03  0.00000000000E+00 0.  1.
         23    2    1    2    0    0  0.33825718088E+02 -0.17847797709E+02  0.31532599563E+03  0.33057244559E+03  0.91569291663E+02 0.  0.
         11    1    3    3    0    0  0.46792601744E+01  0.35838159142E+02  0.15083060293E+03  0.15510041878E+03  0.00000000000E+00 0. -1.
        -11    1    3    3    0    0  0.29146457914E+02 -0.53685956851E+02  0.16449539270E+03  0.17547202680E+03  0.00000000000E+00 0.  1.
         22    1    1    2    0    0 -0.33825718088E+02  0.17847797709E+02 -0.16213022457E+03  0.16658010928E+03  0.00000000000E+00 0.  1.
<mgrwt>
<rscale>  0 0.47296059E+03</rscale>
<asrwt>0</asrwt>
<pdfrwt beam="1">  1        1 0.50026794E-01 0.47296059E+03</pdfrwt>
<pdfrwt beam="2">  1       -1 0.26458214E-01 0.47296059E+03</pdfrwt>
<totfact> 0.10041245E+03</totfact>
</mgrwt>
</event>
<event>
 6    1  0.1637818E-005  0.2142300E+04  0.7818608E-02  0.8542836E-01
         -1   -1    0    0    0  501 -0.00000000000E+00  0.00000000000E+00  0.39548237792E+03  0.39548237792E+03  0.00000000000E+00 0.  1.
          1   -1    0    0  501    0  0.00000000000E+00 -0.00000000000E+00 -0.29011704955E+04  0.29011704955E+04  0.00000000000E+00 0. -1.
         23    2    1    2    0    0 -0.23081843158E+03 -0.46737548583E+03 -0.26914435045E+04  0.27432795303E+04  0.99987250377E+02 0.  0.
         11    1    3    3    0    0 -0.11262310052E+03 -0.24399126645E+03 -0.11299012314E+04  0.11614183112E+04  0.00000000000E+00 0.  1.
        -11    1    3    3    0    0 -0.11819533106E+03 -0.22338421938E+03 -0.15615422731E+04  0.15818612191E+04  0.00000000000E+00 0. -1.
         22    1    1    2    0    0  0.23081843158E+03  0.46737548583E+03  0.18575538694E+03  0.55337334313E+03  0.00000000000E+00 0.  1.
<mgrwt>
<rscale>  0 0.21422995E+04</rscale>
<asrwt>0</asrwt>
<pdfrwt beam="1">  1        1 0.44633392E+00 0.21422995E+04</pdfrwt>
<pdfrwt beam="2">  1       -1 0.60843443E-01 0.21422995E+04</pdfrwt>
<totfact> 0.17716205E+00</totfact>
</mgrwt>
</event>
<event>
 6    1  0.1637818E-005  0.3726597E+04  0.7818608E-02  0.8062093E-01
         -2   -1    0    0    0  501 -0.00000000000E+00  0.00000000000E+00  0.15390601671E+04  0.15390601671E+04  0.00000000000E+00 0.  1.
          2   -1    0    0  501    0  0.00000000000E+00 -0.00000000000E+00 -0.22558451007E+04  0.22558451007E+04  0.00000000000E+00 0. -1.
         23    2    1    2    0    0  0.10607634670E+04  0.81668593863E+03 -0.16767275048E+04  0.21475787077E+04  0.92109311304E+02 0.  0.
         13    1    3    3    0    0  0.32557923717E+03  0.28232515634E+03 -0.48428814614E+03  0.64826255643E+03  0.00000000000E+00 0.  1.
        -13    1    3    3    0    0  0.73518422984E+03  0.53436078229E+03 -0.11924393587E+04  0.14993161513E+04  0.00000000000E+00 0. -1.
         22    1    1    2    0    0 -0.10607634670E+04 -0.81668593863E+03  0.95994257124E+03  0.16473265600E+04  0.00000000000E+00 0.  1.
<mgrwt>
<rscale>  0 0.37265970E+04</rscale>
<asrwt>0</asrwt>
<pdfrwt beam="1">  1        2 0.34705309E+00 0.37265970E+04</pdfrwt>
<pdfrwt beam="2">  1       -2 0.23677849E+00 0.37265970E+04</pdfrwt>
<totfact> 0.30049153E-01</totfact>
</mgrwt>
</event>
<event>
 6    1  0.1637818E-005  0.3650673E+04  0.7818608E-02  0.8078982E-01
         -1   -1    0    0    0  501 -0.00000000000E+00  0.00000000000E+00  0.11573131361E+04  0.11573131361E+04  0.00000000000E+00 0.  1.
          1   -1    0    0  501    0  0.00000000000E+00 -0.00000000000E+00 -0.28789561998E+04  0.28789561998E+04  0.00000000000E+00 0. -1.
         23    2    1    2    0    0  0.13545626670E+04 -0.10522191441E+04 -0.17481550784E+03  0.17265765785E+04  0.92201265765E+02 0.  0.
         13    1    3    3    0    0  0.23304240449E+03 -0.13851589737E+03 -0.27525411137E+02  0.27249415474E+03  0.00000000000E+00 0. -1.
        -13    1    3    3    0    0  0.11215202625E+04 -0.91370324677E+03 -0.14729009670E+03  0.14540824237E+04  0.00000000000E+00 0.  1.
         22    1    1    2    0    0 -0.13545626670E+04  0.10522191441E+04 -0.15468275558E+04  0.23096927574E+04  0.00000000000E+00 0. -1.
<mgrwt>
<rscale>  0 0.36506733E+04</rscale>
<asrwt>0</asrwt>
<pdfrwt beam="1">  1        1 0.44291634E+00 0.36506733E+04</pdfrwt>
<pdfrwt beam="2">  1       -1 0.17804818E+00 0.36506733E+04</pdfrwt>
<totfact> 0.12663234E-01</totfact>
</mgrwt>
</event>
<event>
 6    1  0.1637818E-005  0.4373711E+04  0.7818608E-02  0.7933127E-01
          2   -1    0    0  501    0  0.00000000000E+00  0.00000000000E+00  0.27355536670E+04  0.27355536670E+04  0.00000000000E+00 0. -1.
         -2   -1    0    0    0  501 -0.00000000000E+00 -0.00000000000E+00 -0.17482150038E+04  0.17482150038E+04  0.00000000000E+00 0.  1.
         23    2    1    2    0    0  0.18376544163E+04 -0.24795224083E+00  0.17073435806E+04  0.25100967385E+04  0.92680736305E+02 0.  0.
         13    1    3    3    0    0  0.12693673357E+04  0.11845926610E+02  0.11224245883E+04  0.16944824329E+04  0.00000000000E+00 0. -1.
        -13    1    3    3    0    0  0.56828708063E+03 -0.12093878850E+02  0.58491899230E+03  0.81561430558E+03  0.00000000000E+00 0.  1.
         22    1    1    2    0    0 -0.18376544163E+04  0.24795224083E+00 -0.72000491748E+03  0.19736719324E+04  0.00000000000E+00 0.  1.
<mgrwt>
<rscale>  0 0.43737105E+04</rscale>
<asrwt>0</asrwt>
<pdfrwt beam="1">  1        2 0.42085441E+00 0.43737105E+04</pdfrwt>
<pdfrwt beam="2">  1       -2 0.26895616E+00 0.43737105E+04</pdfrwt>
<totfact> 0.95186654E-02</totfact>
</mgrwt>
</event>
<event>
 6    1  0.1637818E-005  0.2843995E+04  0.7818608E-02  0.8289738E-01
         -2   -1    0    0    0  501 -0.00000000000E+00  0.00000000000E+00  0.12680359845E+04  0.12680359845E+04  0.00000000000E+00 0. -1.
          2   -1    0    0  501    0  0.00000000000E+00 -0.00000000000E+00 -0.15946522865E+04  0.15946522865E+04  0.00000000000E+00 0.  1.
         23    2    1    2    0    0  0.50645305137E+03 -0.12620261523E+04 -0.57769704511E+03  0.14798483519E+04  0.83741068289E+02 0.  0.
         13    1    3    3    0    0  0.67013811676E+02 -0.21949243956E+03 -0.12450299424E+03  0.26109151184E+03  0.00000000000E+00 0. -1.
        -13    1    3    3    0    0  0.43943923970E+03 -0.10425337127E+04 -0.45319405087E+03  0.12187568401E+04  0.00000000000E+00 0.  1.
         22    1    1    2    0    0 -0.50645305137E+03  0.12620261523E+04  0.25108074313E+03  0.13828399191E+04  0.00000000000E+00 0. -1.
<mgrwt>
<rscale>  0 0.28439947E+04</rscale>
<asrwt>0</asrwt>
<pdfrwt beam="1">  1        2 0.24533112E+00 0.28439947E+04</pdfrwt>
<pdfrwt beam="2">  1       -2 0.19508246E+00 0.28439947E+04</pdfrwt>
<totfact> 0.13956965E+00</totfact>
</mgrwt>
</event>
<event>
 6    1  0.1637818E-005  0.1792894E+04  0.7818608E-02  0.8710087E-01
         -1   -1    0    0    0  501 -0.00000000000E+00  0.00000000000E+00  0.14345510371E+04  0.14345510371E+04  0.00000000000E+00 0.  1.
          1   -1    0    0  501    0  0.00000000000E+00 -0.00000000000E+00 -0.56018731512E+03  0.56018731512E+03  0.00000000000E+00 0. -1.
         23    2    1    2    0    0  0.68431162099E+03  0.32967449497E+03  0.96326603311E+03  0.12299695714E+04  0.89308615578E+02 0.  0.
         11    1    3    3    0    0  0.42722789649E+03  0.22635931166E+03  0.54849085173E+03  0.73116648442E+03  0.00000000000E+00 0.  1.
        -11    1    3    3    0    0  0.25708372449E+03  0.10331518331E+03  0.41477518139E+03  0.49880308699E+03  0.00000000000E+00 0. -1.
         22    1    1    2    0    0 -0.68431162099E+03 -0.32967449497E+03 -0.88902311092E+02  0.76476878085E+03  0.00000000000E+00 0. -1.
<mgrwt>
<rscale>  0 0.17928941E+04</rscale>
<asrwt>0</asrwt>
<pdfrwt beam="1">  1        1 0.86182664E-01 0.17928941E+04</pdfrwt>
<pdfrwt beam="2">  1       -1 0.22070016E+00 0.17928941E+04</pdfrwt>
<totfact> 0.38843116E+00</totfact>
</mgrwt>
</event>
<event>
 6    1  0.1637818E-005  0.9038349E+03  0.7818608E-02  0.9420800E-01
          2   -1    0    0  501    0  0.00000000000E+00  0.00000000000E+00  0.17352921685E+04  0.17352921685E+04  0.00000000000E+00 0.  1.
         -2   -1    0    0    0  501 -0.00000000000E+00 -0.00000000000E+00 -0.11769164919E+03  0.11769164919E+03  0.00000000000E+00 0. -1.
         23    2    1    2    0    0 -0.89081752518E+02  0.33722785358E+03  0.13899193093E+04  0.14364542062E+04  0.99331849353E+02 0.  0.
         11    1    3    3    0    0  0.11038419463E+02  0.87726024734E+01  0.12374041476E+03  0.12454113980E+03  0.00000000000E+00 0.  1.
        -11    1    3    3    0    0 -0.10012017198E+03  0.32845525111E+03  0.12661788945E+04  0.13119130664E+04  0.00000000000E+00 0. -1.
         22    1    1    2    0    0  0.89081752518E+02 -0.33722785358E+03  0.22768121006E+03  0.41652961153E+03  0.00000000000E+00 0. -1.
<mgrwt>
<rscale>  0 0.90383493E+03</rscale>
<asrwt>0</asrwt>
<pdfrwt beam="1">  1        2 0.26696801E+00 0.90383493E+03</pdfrwt>
<pdfrwt beam="2">  1       -2 0.18106409E-01 0.90383493E+03</pdfrwt>
<totfact> 0.23957089E+02</totfact>
</mgrwt>
</event>
<event>
 6    1  0.1637818E-005  0.1435271E+04  0.7818608E-02  0.8928676E-01
          2   -1    0    0  501    0  0.00000000000E+00  0.00000000000E+00  0.14054183751E+04  0.14054183751E+04  0.00000000000E+00 0.  1.
         -2   -1    0    0    0  501 -0.00000000000E+00 -0.00000000000E+00 -0.36643963813E+03  0.36643963813E+03  0.00000000000E+00 0. -1.
         23    2    1    2    0    0 -0.40625226586E+03 -0.56616468921E+03  0.32564720303E+03  0.77464929079E+03  0.91935107844E+02 0.  0.
         11    1    3    3    0    0 -0.11974840618E+03 -0.14375641076E+03  0.46054938588E+02  0.19268275425E+03  0.00000000000E+00 0. -1.
        -11    1    3    3    0    0 -0.28650385968E+03 -0.42240827845E+03  0.27959226444E+03  0.58196653654E+03  0.00000000000E+00 0.  1.
         22    1    1    2    0    0  0.40625226586E+03  0.56616468921E+03  0.71333153393E+03  0.99720872244E+03  0.00000000000E+00 0.  1.
<mgrwt>
<rscale>  0 0.14352714E+04</rscale>
<asrwt>0</asrwt>
<pdfrwt beam="1">  1        2 0.21621821E+00 0.14352714E+04</pdfrwt>
<pdfrwt beam="2">  1       -2 0.56375330E-01 0.14352714E+04</pdfrwt>
<totfact> 0.41180726E+01</totfact>
</mgrwt>
</event>
<event>
 6    1  0.1637818E-005  0.1481380E+04  0.7818608E-02  0.8896930E-01
         -1   -1    0    0    0  501 -0.00000000000E+00  0.00000000000E+00  0.42447079686E+03  0.42447079686E+03  0.00000000000E+00 0.  1.
          1   -1    0    0  501    0  0.00000000000E+00 -0.00000000000E+00 -0.12924835588E+04  0.12924835588E+04  0.00000000000E+00 0. -1.
         23    2    1    2    0    0 -0.16166414862E+03  0.66485803916E+03 -0.75595235118E+03  0.10236080894E+04  0.90211165257E+02 0.  0.
         11    1    3    3    0    0 -0.52656980678E+02  0.17071038824E+03 -0.14345392802E+03  0.22911530663E+03  0.00000000000E+00 0.  1.
        -11    1    3    3    0    0 -0.10900716795E+03  0.49414765091E+03 -0.61249842316E+03  0.79449278281E+03  0.00000000000E+00 0. -1.
         22    1    1    2    0    0  0.16166414862E+03 -0.66485803916E+03 -0.11206041072E+03  0.69334626618E+03  0.00000000000E+00 0.  1.
<mgrwt>
<rscale>  0 0.14813798E+04</rscale>
<asrwt>0</asrwt>
<pdfrwt beam="1">  1        1 0.19884362E+00 0.14813798E+04</pdfrwt>
<pdfrwt beam="2">  1       -1 0.65303200E-01 0.14813798E+04</pdfrwt>
<totfact> 0.21092134E+01</totfact>
</mgrwt>
</event>
<event>
 6    1  0.1637818E-005  0.1372672E+04  0.7818608E-02  0.8973841E-01
         -1   -1    0    0    0  501 -0.00000000000E+00  0.00000000000E+00  0.10817139522E+04  0.10817139522E+04  0.00000000000E+00 0.  1.
          1   -1    0    0  501    0  0.00000000000E+00 -0.00000000000E+00 -0.43547262323E+03  0.43547262323E+03  0.00000000000E+00 0. -1.
         23    2    1    2    0    0 -0.37493928986E+03  0.56028882482E+03  0.44747464977E+03  0.81432725024E+03  0.91609333615E+02 0.  0.
         11    1    3    3    0    0 -0.66405353252E+02  0.16954447694E+03  0.13245991135E+03  0.22516800110E+03  0.00000000000E+00 0. -1.
        -11    1    3    3    0    0 -0.30853393660E+03  0.39074434788E+03  0.31501473842E+03  0.58915924915E+03  0.00000000000E+00 0.  1.
         22    1    1    2    0    0  0.37493928986E+03 -0.56028882482E+03  0.19876667924E+03  0.70285932523E+03  0.00000000000E+00 0. -1.
<mgrwt>
<rscale>  0 0.13726716E+04</rscale>
<asrwt>0</asrwt>
<pdfrwt beam="1">  1        1 0.66995788E-01 0.13726716E+04</pdfrwt>
<pdfrwt beam="2">  1       -1 0.16641753E+00 0.13726716E+04</pdfrwt>
<totfact> 0.13679462E+01</totfact>
</mgrwt>
</event>
<event>
 6    1  0.1637818E-005  0.3825350E+04  0.7818608E-02  0.8040737E-01
          2   -1    0    0  501    0  0.00000000000E+00  0.00000000000E+00  0.44102996865E+04  0.44102996865E+04  0.00000000000E+00 0.  1.
         -2   -1    0    0    0  501 -0.00000000000E+00 -0.00000000000E+00 -0.82949585416E+03  0.82949585416E+03  0.00000000000E+00 0. -1.
         23    2    1    2    0    0 -0.16609908801E+04  0.66207447746E+03  0.27170595620E+04  0.32540242845E+04  0.95016119973E+02 0.  0.
         13    1    3    3    0    0 -0.53111797569E+03  0.23046683673E+03  0.80637488321E+03  0.99269417204E+03  0.00000000000E+00 0.  1.
        -13    1    3    3    0    0 -0.11298729044E+04  0.43160764073E+03  0.19106846788E+04  0.22613301124E+04  0.00000000000E+00 0. -1.
         22    1    1    2    0    0  0.16609908801E+04 -0.66207447746E+03  0.86374427030E+03  0.19857712562E+04  0.00000000000E+00 0. -1.
<mgrwt>
<rscale>  0 0.38253498E+04</rscale>
<asrwt>0</asrwt>
<pdfrwt beam="1">  1        2 0.67850763E+00 0.38253498E+04</pdfrwt>
<pdfrwt beam="2">  1       -2 0.12761475E+00 0.38253498E+04</pdfrwt>
<totfact> 0.54341764E-02</totfact>
</mgrwt>
</event>
<event>
 6    1  0.1637818E-005  0.2650090E+04  0.7818608E-02  0.8351383E-01
          2   -1    0    0  501    0  0.00000000000E+00  0.00000000000E+00  0.17963670189E+04  0.17963670189E+04  0.00000000000E+00 0.  1.
         -2   -1    0    0    0  501 -0.00000000000E+00 -0.00000000000E+00 -0.97738638508E+03  0.97738638508E+03  0.00000000000E+00 0. -1.
         23    2    1    2    0    0  0.26528731980E+02  0.97765808212E+03 -0.52350709061E+03  0.11127921192E+04  0.87906356826E+02 0.  0.
         13    1    3    3    0    0  0.15553236284E+01  0.28188862756E+03 -0.10711662804E+03  0.30155860025E+03  0.00000000000E+00 0.  1.
        -13    1    3    3    0    0  0.24973408352E+02  0.69576945456E+03 -0.41639046257E+03  0.81123351899E+03  0.00000000000E+00 0. -1.
         22    1    1    2    0    0 -0.26528731980E+02 -0.97765808212E+03  0.13424877244E+04  0.16609612847E+04  0.00000000000E+00 0.  1.
<mgrwt>
<rscale>  0 0.26500903E+04</rscale>
<asrwt>0</asrwt>
<pdfrwt beam="1">  1        2 0.27636416E+00 0.26500903E+04</pdfrwt>
<pdfrwt beam="2">  1       -2 0.15036714E+00 0.26500903E+04</pdfrwt>
<totfact> 0.22735747E+00</totfact>
</mgrwt>
</event>
<event>
 6    1  0.1637818E-005  0.1546754E+04  0.7818608E-02  0.8853944E-01
          1   -1    0    0  501    0  0.00000000000E+00  0.00000000000E+00  0.11113691513E+04  0.11113691513E+04  0.00000000000E+00 0. -1.
         -1   -1    0    0    0  501 -0.00000000000E+00 -0.00000000000E+00 -0.53817588293E+03  0.53817588293E+03  0.00000000000E+00 0.  1.
         23    2    1    2    0    0 -0.46923752025E+03 -0.61139735048E+03  0.28946283959E+03  0.82826948555E+03  0.90835205780E+02 0.  0.
         13    1    3    3    0    0 -0.19338182922E+03 -0.19017265450E+03  0.78579931166E+02  0.28237736449E+03  0.00000000000E+00 0. -1.
        -13    1    3    3    0    0 -0.27585569103E+03 -0.42122469598E+03  0.21088290842E+03  0.54589212107E+03  0.00000000000E+00 0.  1.
         22    1    1    2    0    0  0.46923752025E+03  0.61139735048E+03  0.28373042875E+03  0.82127554864E+03  0.00000000000E+00 0.  1.
<mgrwt>
<rscale>  0 0.15467541E+04</rscale>
<asrwt>0</asrwt>
<pdfrwt beam="1">  1        1 0.17097987E+00 0.15467541E+04</pdfrwt>
<pdfrwt beam="2">  1       -1 0.82796290E-01 0.15467541E+04</pdfrwt>
<totfact> 0.17363521E+01</totfact>
</mgrwt>
</event>
<event>
 6    1  0.1637818E-005  0.1553451E+04  0.7818608E-02  0.8849667E-01
         -1   -1    0    0    0  501 -0.00000000000E+00  0.00000000000E+00  0.39056378387E+03  0.39056378387E+03  0.00000000000E+00 0.  1.
          1   -1    0    0  501    0  0.00000000000E+00 -0.00000000000E+00 -0.15446958218E+04  0.15446958218E+04  0.00000000000E+00 0. -1.
         23    2    1    2    0    0  0.36015682810E+03 -0.52440466886E+03 -0.28791374835E+02  0.64254741591E+03  0.85586452612E+02 0.  0.
         13    1    3    3    0    0  0.76672875429E+02 -0.12480526044E+03 -0.42163691504E+02  0.15242329133E+03  0.00000000000E+00 0. -1.
        -13    1    3    3    0    0  0.28348395267E+03 -0.39959940842E+03  0.13372316669E+02  0.49012412457E+03  0.00000000000E+00 0.  1.
         22    1    1    2    0    0 -0.36015682810E+03  0.52440466886E+03 -0.11253406631E+04  0.12927121898E+04  0.00000000000E+00 0. -1.
<mgrwt>
<rscale>  0 0.15534507E+04</rscale>
<asrwt>0</asrwt>
<pdfrwt beam="1">  1        1 0.23764551E+00 0.15534507E+04</pdfrwt>
<pdfrwt beam="2">  1       -1 0.60086736E-01 0.15534507E+04</pdfrwt>
<totfact> 0.16477890E+01</totfact>
</mgrwt>
</event>
<event>
 6    1  0.1637818E-005  0.3047154E+04  0.7818608E-02  0.8230393E-01
          2   -1    0    0  501    0  0.00000000000E+00  0.00000000000E+00  0.29998969957E+04  0.29998969957E+04  0.00000000000E+00 0. -1.
         -2   -1    0    0    0  501 -0.00000000000E+00 -0.00000000000E+00 -0.77378862871E+03  0.77378862871E+03  0.00000000000E+00 0.  1.
         23    2    1    2    0    0  0.45922851735E+03 -0.12820581779E+04  0.19564574651E+04  0.23854221006E+04  0.89155945195E+02 0.  0.
         13    1    3    3    0    0  0.27956637561E+03 -0.88295412834E+03  0.13686676219E+04  0.16525787153E+04  0.00000000000E+00 0.  1.
        -13    1    3    3    0    0  0.17966214174E+03 -0.39910404956E+03  0.58778984324E+03  0.73284338529E+03  0.00000000000E+00 0. -1.
         22    1    1    2    0    0 -0.45922851735E+03  0.12820581779E+04  0.26965090189E+03  0.13882635238E+04  0.00000000000E+00 0.  1.
<mgrwt>
<rscale>  0 0.30471535E+04</rscale>
<asrwt>0</asrwt>
<pdfrwt beam="1">  1        2 0.46152261E+00 0.30471535E+04</pdfrwt>
<pdfrwt beam="2">  1       -2 0.11904441E+00 0.30471535E+04</pdfrwt>
<totfact> 0.80381833E-01</totfact>
</mgrwt>
</event>
<event>
 6    1  0.1637818E-005  0.3320955E+04  0.7818608E-02  0.8157584E-01
          1   -1    0    0  501    0  0.00000000000E+00  0.00000000000E+00  0.27092231015E+04  0.27092231015E+04  0.00000000000E+00 0. -1.
         -1   -1    0    0    0  501 -0.00000000000E+00 -0.00000000000E+00 -0.10177031704E+04  0.10177031704E+04  0.00000000000E+00 0.  1.
         23    2    1    2    0    0 -0.21100051846E+03  0.70489603252E+03 -0.82275211947E+03  0.11072004122E+04  0.87017625532E+02 0.  0.
         11    1    3    3    0    0 -0.15300162652E+03  0.36257267224E+03 -0.44964071385E+03  0.59753260323E+03  0.00000000000E+00 0. -1.
        -11    1    3    3    0    0 -0.57998891941E+02  0.34232336028E+03 -0.37311140563E+03  0.50966780894E+03  0.00000000000E+00 0.  1.
         22    1    1    2    0    0  0.21100051846E+03 -0.70489603252E+03  0.25142720506E+04  0.26197258597E+04  0.00000000000E+00 0. -1.
<mgrwt>
<rscale>  0 0.33209546E+04</rscale>
<asrwt>0</asrwt>
<pdfrwt beam="1">  1        1 0.41680355E+00 0.33209546E+04</pdfrwt>
<pdfrwt beam="2">  1       -1 0.15656972E+00 0.33209546E+04</pdfrwt>
<totfact> 0.24838576E-01</totfact>
</mgrwt>
</event>
<event>
 6    1  0.1637818E-005  0.1171798E+04  0.7818608E-02  0.9137906E-01
          2   -1    0    0  501    0  0.00000000000E+00  0.00000000000E+00  0.27751120738E+04  0.27751120738E+04  0.00000000000E+00 0. -1.
         -2   -1    0    0    0  501 -0.00000000000E+00 -0.00000000000E+00 -0.12369860848E+03  0.12369860848E+03  0.00000000000E+00 0.  1.
         23    2    1    2    0    0 -0.24950918271E+03  0.52530634423E+03  0.12496057901E+04  0.13811590932E+04  0.88793144585E+02 0.  0.
         13    1    3    3    0    0 -0.14659384590E+03  0.20786000840E+03  0.52161337146E+03  0.58032408879E+03  0.00000000000E+00 0.  1.
        -13    1    3    3    0    0 -0.10291533682E+03  0.31744633583E+03  0.72799241860E+03  0.80083500437E+03  0.00000000000E+00 0. -1.
         22    1    1    2    0    0  0.24950918271E+03 -0.52530634423E+03  0.14018076752E+04  0.15176515891E+04  0.00000000000E+00 0.  1.
<mgrwt>
<rscale>  0 0.11717978E+04</rscale>
<asrwt>0</asrwt>
<pdfrwt beam="1">  1        2 0.42694027E+00 0.11717978E+04</pdfrwt>
<pdfrwt beam="2">  1       -2 0.19030557E-01 0.11717978E+04</pdfrwt>
<totfact> 0.55816830E+01</totfact>
</mgrwt>
</event>
<event>
 6    1  0.1637818E-005  0.1709352E+04  0.7818608E-02  0.8756049E-01
          1   -1    0    0  501    0  0.00000000000E+00  0.00000000000E+00  0.16092126184E+04  0.16092126184E+04  0.00000000000E+00 0. -1.
         -1   -1    0    0    0  501 -0.00000000000E+00 -0.00000000000E+00 -0.45393063249E+03  0.45393063249E+03  0.00000000000E+00 0.  1.
         23    2    1    2    0    0 -0.41130152746E+03 -0.74632004622E+03  0.60175372975E+03  0.10469955804E+04  0.89048504916E+02 0.  0.
         13    1    3    3    0    0 -0.36445198577E+03 -0.70555829121E+03  0.54789477642E+03  0.96479346922E+03  0.00000000000E+00 0. -1.
        -13    1    3    3    0    0 -0.46849541695E+02 -0.40761755012E+02  0.53858953331E+02  0.82202111181E+02  0.00000000000E+00 0.  1.
         22    1    1    2    0    0  0.41130152746E+03  0.74632004622E+03  0.55352825617E+03  0.10161476705E+04  0.00000000000E+00 0.  1.
<mgrwt>
<rscale>  0 0.17093518E+04</rscale>
<asrwt>0</asrwt>
<pdfrwt beam="1">  1        1 0.24757117E+00 0.17093518E+04</pdfrwt>
<pdfrwt beam="2">  1       -1 0.69835483E-01 0.17093518E+04</pdfrwt>
<totfact> 0.10840815E+01</totfact>
</mgrwt>
</event>
<event>
 6    1  0.1637818E-005  0.9094292E+03  0.7818608E-02  0.9413871E-01
         -2   -1    0    0    0  501 -0.00000000000E+00  0.00000000000E+00  0.97467324587E+02  0.97467324587E+02  0.00000000000E+00 0.  1.
          2   -1    0    0  501    0  0.00000000000E+00 -0.00000000000E+00 -0.21213815177E+04  0.21213815177E+04  0.00000000000E+00 0. -1.
         23    2    1    2    0    0  0.11726790308E+03 -0.28027507548E+03 -0.21456120330E+03  0.38416518542E+03  0.96127523125E+02 0.  0.
         11    1    3    3    0    0  0.37731810627E+02 -0.20423949288E+03 -0.12607280569E+03  0.24296463183E+03  0.00000000000E+00 0. -1.
        -11    1    3    3    0    0  0.79536092453E+02 -0.76035582597E+02 -0.88488397606E+02  0.14120055359E+03  0.00000000000E+00 0.  1.
         22    1    1    2    0    0 -0.11726790308E+03  0.28027507548E+03 -0.18093529898E+04  0.18346836569E+04  0.00000000000E+00 0. -1.
<mgrwt>
<rscale>  0 0.90942923E+03</rscale>
<asrwt>0</asrwt>
<pdfrwt beam="1">  1        2 0.32636636E+00 0.90942923E+03</pdfrwt>
<pdfrwt beam="2">  1       -2 0.14994974E-01 0.90942923E+03</pdfrwt>
<totfact> 0.20306415E+02</totfact>
</mgrwt>
</event>
<event>
 6    1  0.1637818E-005  0.1069316E+04  0.7818608E-02  0.9235626E-01
          2   -1    0    0  501    0  0.00000000000E+00  0.00000000000E+00  0.14162625909E+04  0.14162625909E+04  0.00000000000E+00 0. -1.
         -2   -1    0    0    0  501 -0.00000000000E+00 -0.00000000000E+00 -0.20184048520E+03  0.20184048520E+03  0.00000000000E+00 0.  1.
         23    2    1    2    0    0  0.67526360727E+02 -0.32242898931E+03 -0.18294631896E+02  0.34212861802E+03  0.90537479367E+02 0.  0.
         13    1    3    3    0    0  0.85775572625E+02 -0.20930451291E+03 -0.70710825951E+00  0.22619975240E+03  0.00000000000E+00 0.  1.
        -13    1    3    3    0    0 -0.18249211899E+02 -0.11312447640E+03 -0.17587523637E+02  0.11592886562E+03  0.00000000000E+00 0. -1.
         22    1    1    2    0    0 -0.67526360727E+02  0.32242898931E+03  0.12327167376E+04  0.12759744581E+04  0.00000000000E+00 0. -1.
<mgrwt>
<rscale>  0 0.10693159E+04</rscale>
<asrwt>0</asrwt>
<pdfrwt beam="1">  1        2 0.21788655E+00 0.10693159E+04</pdfrwt>
<pdfrwt beam="2">  1       -2 0.31052383E-01 0.10693159E+04</pdfrwt>
<totfact> 0.13529115E+02</totfact>
</mgrwt>
</event>
<event>
 6    1  0.1637818E-005  0.2579360E+04  0.7818608E-02  0.8375246E-01
         -2   -1    0    0    0  501 -0.00000000000E+00  0.00000000000E+00  0.90404429500E+03  0.90404429500E+03  0.00000000000E+00 0.  1.
          2   -1    0    0  501    0  0.00000000000E+00 -0.00000000000E+00 -0.18398157784E+04  0.18398157784E+04  0.00000000000E+00 0. -1.
         23    2    1    2    0    0  0.75061764389E+03 -0.98344978681E+03 -0.84999040241E+03  0.15037154349E+04  0.89867094158E+02 0.  0.
         13    1    3    3    0    0  0.53502987607E+03 -0.71574836345E+03 -0.66053239450E+03  0.11112406275E+04  0.00000000000E+00 0.  1.
        -13    1    3    3    0    0  0.21558776782E+03 -0.26770142336E+03 -0.18945800791E+03  0.39247480743E+03  0.00000000000E+00 0. -1.
         22    1    1    2    0    0 -0.75061764389E+03  0.98344978681E+03 -0.85781081010E+02  0.12401446385E+04  0.00000000000E+00 0.  1.
<mgrwt>
<rscale>  0 0.25793604E+04</rscale>
<asrwt>0</asrwt>
<pdfrwt beam="1">  1        2 0.28304858E+00 0.25793604E+04</pdfrwt>
<pdfrwt beam="2">  1       -2 0.13908374E+00 0.25793604E+04</pdfrwt>
<totfact> 0.26549922E+00</totfact>
</mgrwt>
</event>
<event>
 6    1  0.1637818E-005  0.3702779E+04  0.7818608E-02  0.8067346E-01
         -1   -1    0    0    0  501 -0.00000000000E+00  0.00000000000E+00  0.14462308139E+04  0.14462308139E+04  0.00000000000E+00 0.  1.
          1   -1    0    0  501    0  0.00000000000E+00 -0.00000000000E+00 -0.23700525941E+04  0.23700525941E+04  0.00000000000E+00 0. -1.
         23    2    1    2    0    0 -0.66430624554E+03  0.12869067759E+04  0.72493504168E+03  0.16217832609E+04  0.84960536263E+02 0.  0.
         13    1    3    3    0    0 -0.18666848483E+03  0.29958956594E+03  0.15126964751E+03  0.38403325052E+03  0.00000000000E+00 0.  1.
        -13    1    3    3    0    0 -0.47763776070E+03  0.98731721001E+03  0.57366539417E+03  0.12377500103E+04  0.00000000000E+00 0. -1.
         22    1    1    2    0    0  0.66430624554E+03 -0.12869067759E+04 -0.16487568219E+04  0.21945001471E+04  0.00000000000E+00 0. -1.
<mgrwt>
<rscale>  0 0.37027790E+04</rscale>
<asrwt>0</asrwt>
<pdfrwt beam="1">  1        1 0.36462348E+00 0.37027790E+04</pdfrwt>
<pdfrwt beam="2">  1       -1 0.22249705E+00 0.37027790E+04</pdfrwt>
<totfact> 0.14151543E-01</totfact>
</mgrwt>
</event>
<event>
 6    1  0.1637818E-005  0.1942715E+04  0.7818608E-02  0.8633882E-01
         -2   -1    0    0    0  501 -0.00000000000E+00  0.00000000000E+00  0.13064116291E+04  0.13064116291E+04  0.00000000000E+00 0.  1.
          2   -1    0    0  501    0  0.00000000000E+00 -0.00000000000E+00 -0.72223454994E+03  0.72223454994E+03  0.00000000000E+00 0. -1.
         23    2    1    2    0    0 -0.62829108513E+03  0.42764201933E+03 -0.33499406689E+03  0.83595888554E+03  0.94756789304E+02 0.  0.
         13    1    3    3    0    0 -0.46679112437E+03  0.29480943327E+03 -0.20070546547E+03  0.58744296710E+03  0.00000000000E+00 0. -1.
        -13    1    3    3    0    0 -0.16149996076E+03  0.13283258606E+03 -0.13428860142E+03  0.24851591844E+03  0.00000000000E+00 0.  1.
         22    1    1    2    0    0  0.62829108513E+03 -0.42764201933E+03  0.91917114604E+03  0.11926872935E+04  0.00000000000E+00 0.  1.
<mgrwt>
<rscale>  0 0.19427152E+04</rscale>
<asrwt>0</asrwt>
<pdfrwt beam="1">  1        2 0.11111301E+00 0.19427152E+04</pdfrwt>
<pdfrwt beam="2">  1       -2 0.20098640E+00 0.19427152E+04</pdfrwt>
<totfact> 0.48120274E+00</totfact>
</mgrwt>
</event>
<event>
 6    1  0.1637818E-005  0.3231398E+04  0.7818608E-02  0.8180574E-01
         -2   -1    0    0    0  501 -0.00000000000E+00  0.00000000000E+00  0.12270119050E+04  0.12270119050E+04  0.00000000000E+00 0. -1.
          2   -1    0    0  501    0  0.00000000000E+00 -0.00000000000E+00 -0.21275125156E+04  0.21275125156E+04  0.00000000000E+00 0.  1.
         23    2    1    2    0    0  0.82636047064E+02 -0.15826118859E+04 -0.77039457500E+03  0.17644248393E+04  0.90543442083E+02 0.  0.
         13    1    3    3    0    0  0.57242882632E+02 -0.14762963572E+04 -0.70434707327E+03  0.16367139278E+04  0.00000000000E+00 0.  1.
        -13    1    3    3    0    0  0.25393164432E+02 -0.10631552871E+03 -0.66047501733E+02  0.12771091156E+03  0.00000000000E+00 0. -1.
         22    1    1    2    0    0 -0.82636047064E+02  0.15826118859E+04 -0.13010603561E+03  0.15900995812E+04  0.00000000000E+00 0.  1.
<mgrwt>
<rscale>  0 0.32313980E+04</rscale>
<asrwt>0</asrwt>
<pdfrwt beam="1">  1        2 0.32730962E+00 0.32313980E+04</pdfrwt>
<pdfrwt beam="2">  1       -2 0.18877106E+00 0.32313980E+04</pdfrwt>
<totfact> 0.75251017E-01</totfact>
</mgrwt>
</event>
<event>
 6    1  0.1637818E-005  0.1886033E+04  0.7818608E-02  0.8661840E-01
          2   -1    0    0  501    0  0.00000000000E+00  0.00000000000E+00  0.40808096180E+04  0.40808096180E+04  0.00000000000E+00 0. -1.
         -2   -1    0    0    0  501 -0.00000000000E+00 -0.00000000000E+00 -0.21791758530E+03  0.21791758530E+03  0.00000000000E+00 0.  1.
         23    2    1    2    0    0  0.57774050928E+03 -0.49145318393E+03  0.32043357321E+04  0.32942339335E+04  0.94336612247E+02 0.  0.
         13    1    3    3    0    0  0.23505007839E+03 -0.26159788293E+03  0.14841748119E+04  0.15252727179E+04  0.00000000000E+00 0. -1.
        -13    1    3    3    0    0  0.34269043090E+03 -0.22985530100E+03  0.17201609202E+04  0.17689612156E+04  0.00000000000E+00 0.  1.
         22    1    1    2    0    0 -0.57774050928E+03  0.49145318393E+03  0.65855630058E+03  0.10044932698E+04  0.00000000000E+00 0. -1.
<mgrwt>
<rscale>  0 0.18860331E+04</rscale>
<asrwt>0</asrwt>
<pdfrwt beam="1">  1        2 0.62781681E+00 0.18860331E+04</pdfrwt>
<pdfrwt beam="2">  1       -2 0.33525785E-01 0.18860331E+04</pdfrwt>
<totfact> 0.23215344E+00</totfact>
</mgrwt>
</event>
<event>
 6    1  0.1637818E-005  0.2977542E+03  0.7818608E-02  0.1086369E+00
         -2   -1    0    0    0  501 -0.00000000000E+00  0.00000000000E+00  0.85799130886E+02  0.85799130886E+02  0.00000000000E+00 0.  1.
          2   -1    0    0  501    0  0.00000000000E+00 -0.00000000000E+00 -0.25832887980E+03  0.25832887980E+03  0.00000000000E+00 0. -1.
         23    2    1    2    0    0  0.37746568601E+02 -0.69315719494E+02  0.31101414465E+02  0.12573587917E+03  0.92804853957E+02 0.  0.
         11    1    3    3    0    0 -0.17945322003E+02 -0.19566566358E+02  0.42583339557E+02  0.50181928108E+02  0.00000000000E+00 0. -1.
        -11    1    3    3    0    0  0.55691890604E+02 -0.49749153136E+02 -0.11481925092E+02  0.75553951059E+02  0.00000000000E+00 0.  1.
         22    1    1    2    0    0 -0.37746568601E+02  0.69315719494E+02 -0.20363116338E+03  0.21839213152E+03  0.00000000000E+00 0. -1.
<mgrwt>
<rscale>  0 0.29775422E+03</rscale>
<asrwt>0</asrwt>
<pdfrwt beam="1">  1        2 0.39742905E-01 0.29775422E+03</pdfrwt>
<pdfrwt beam="2">  1       -2 0.13199866E-01 0.29775422E+03</pdfrwt>
<totfact> 0.54264325E+03</totfact>
</mgrwt>
</event>
<event>
 6    1  0.1637818E-005  0.1003406E+04  0.7818608E-02  0.9304817E-01
         -1   -1    0    0    0  501 -0.00000000000E+00  0.00000000000E+00  0.23971073191E+03  0.23971073191E+03  0.00000000000E+00 0.  1.
          1   -1    0    0  501    0  0.00000000000E+00 -0.00000000000E+00 -0.10500398909E+04  0.10500398909E+04  0.00000000000E+00 0. -1.
         23    2    1    2    0    0  0.26997216819E+03 -0.38042802783E+03 -0.63101947697E+03  0.78998826128E+03  0.91024264325E+02 0.  0.
         13    1    3    3    0    0  0.15500483611E+03 -0.16877593678E+03 -0.36646105590E+03  0.43221004332E+03  0.00000000000E+00 0.  1.
        -13    1    3    3    0    0  0.11496733208E+03 -0.21165209105E+03 -0.26455842106E+03  0.35777821796E+03  0.00000000000E+00 0. -1.
         22    1    1    2    0    0 -0.26997216819E+03  0.38042802783E+03 -0.17930968207E+03  0.49976236157E+03  0.00000000000E+00 0.  1.
<mgrwt>
<rscale>  0 0.10034059E+04</rscale>
<asrwt>0</asrwt>
<pdfrwt beam="1">  1        1 0.16154460E+00 0.10034059E+04</pdfrwt>
<pdfrwt beam="2">  1       -1 0.36878574E-01 0.10034059E+04</pdfrwt>
<totfact> 0.97857748E+01</totfact>
</mgrwt>
</event>
<event>
 6    1  0.1637818E-005  0.5227771E+04  0.7818608E-02  0.7794301E-01
          1   -1    0    0  501    0  0.00000000000E+00  0.00000000000E+00  0.32293945624E+04  0.32293945624E+04  0.00000000000E+00 0. -1.
         -1   -1    0    0    0  501 -0.00000000000E+00 -0.00000000000E+00 -0.21156894933E+04  0.21156894933E+04  0.00000000000E+00 0.  1.
         23    2    1    2    0    0 -0.19644260293E+04 -0.75618606334E+03  0.21401405600E+04  0.30032136912E+04  0.91125580415E+02 0.  0.
         11    1    3    3    0    0 -0.15757229865E+04 -0.57351491383E+03  0.17317918541E+04  0.24105860931E+04  0.00000000000E+00 0. -1.
        -11    1    3    3    0    0 -0.38870304283E+03 -0.18267114951E+03  0.40834870590E+03  0.59262759806E+03  0.00000000000E+00 0.  1.
         22    1    1    2    0    0  0.19644260293E+04  0.75618606334E+03 -0.10264354910E+04  0.23418703645E+04  0.00000000000E+00 0.  1.
<mgrwt>
<rscale>  0 0.52277705E+04</rscale>
<asrwt>0</asrwt>
<pdfrwt beam="1">  1        1 0.49682993E+00 0.52277705E+04</pdfrwt>
<pdfrwt beam="2">  1       -1 0.32549069E+00 0.52277705E+04</pdfrwt>
<totfact> 0.64524968E-03</totfact>
</mgrwt>
</event>
<event>
 6    1  0.1637818E-005  0.3237186E+04  0.7818608E-02  0.8179065E-01
          2   -1    0    0  501    0  0.00000000000E+00  0.00000000000E+00  0.99464662636E+03  0.99464662636E+03  0.00000000000E+00 0. -1.
         -2   -1    0    0    0  501 -0.00000000000E+00 -0.00000000000E+00 -0.26339432698E+04  0.26339432698E+04  0.00000000000E+00 0.  1.
         23    2    1    2    0    0  0.14490862514E+04  0.29816885785E+03 -0.87390576420E+02  0.14844891353E+04  0.85529223793E+02 0.  0.
         13    1    3    3    0    0  0.27389708759E+03  0.67762473066E+02  0.15027813259E+02  0.28255477791E+03  0.00000000000E+00 0. -1.
        -13    1    3    3    0    0  0.11751891638E+04  0.23040638479E+03 -0.10241838968E+03  0.12019343574E+04  0.00000000000E+00 0.  1.
         22    1    1    2    0    0 -0.14490862514E+04 -0.29816885785E+03 -0.15519060670E+04  0.21441007609E+04  0.00000000000E+00 0.  1.
<mgrwt>
<rscale>  0 0.32371857E+04</rscale>
<asrwt>0</asrwt>
<pdfrwt beam="1">  1        2 0.15302256E+00 0.32371857E+04</pdfrwt>
<pdfrwt beam="2">  1       -2 0.40522203E+00 0.32371857E+04</pdfrwt>
<totfact> 0.14607445E-01</totfact>
</mgrwt>
</event>
<event>
 6    1  0.1637818E-005  0.2030352E+04  0.7818608E-02  0.8592560E-01
         -1   -1    0    0    0  501 -0.00000000000E+00  0.00000000000E+00  0.71152768564E+03  0.71152768564E+03  0.00000000000E+00 0.  1.
          1   -1    0    0  501    0  0.00000000000E+00 -0.00000000000E+00 -0.14484073907E+04  0.14484073907E+04  0.00000000000E+00 0. -1.
         23    2    1    2    0    0  0.20047124031E+03 -0.62743905282E+03 -0.11881550597E+04  0.13614878779E+04  0.89823786108E+02 0.  0.
         11    1    3    3    0    0  0.80493892914E+02 -0.27437575612E+03 -0.60717934279E+03  0.67113938690E+03  0.00000000000E+00 0. -1.
        -11    1    3    3    0    0  0.11997734739E+03 -0.35306329669E+03 -0.58097571689E+03  0.69034849096E+03  0.00000000000E+00 0.  1.
         22    1    1    2    0    0 -0.20047124031E+03  0.62743905282E+03  0.45127535457E+03  0.79844719853E+03  0.00000000000E+00 0.  1.
<mgrwt>
<rscale>  0 0.20303517E+04</rscale>
<asrwt>0</asrwt>
<pdfrwt beam="1">  1        1 0.22283190E+00 0.20303517E+04</pdfrwt>
<pdfrwt beam="2">  1       -1 0.10946580E+00 0.20303517E+04</pdfrwt>
<totfact> 0.50755006E+00</totfact>
</mgrwt>
</event>
<event>
 6    1  0.1637818E-005  0.3334831E+04  0.7818608E-02  0.8154089E-01
         -1   -1    0    0    0  501 -0.00000000000E+00  0.00000000000E+00  0.13123436568E+04  0.13123436568E+04  0.00000000000E+00 0.  1.
          1   -1    0    0  501    0  0.00000000000E+00 -0.00000000000E+00 -0.21185567154E+04  0.21185567154E+04  0.00000000000E+00 0. -1.
         23    2    1    2    0    0 -0.11968708772E+04 -0.23139533405E+03 -0.15719581086E+04  0.19913139111E+04  0.90747451303E+02 0.  0.
         11    1    3    3    0    0 -0.35104802653E+03 -0.98597043788E+02 -0.51683100943E+03  0.63251117483E+03  0.00000000000E+00 0. -1.
        -11    1    3    3    0    0 -0.84582285071E+03 -0.13279829027E+03 -0.10551270992E+04  0.13588027363E+04  0.00000000000E+00 0.  1.
         22    1    1    2    0    0  0.11968708772E+04  0.23139533405E+03  0.76574505001E+03  0.14395864611E+04  0.00000000000E+00 0.  1.
<mgrwt>
<rscale>  0 0.33348310E+04</rscale>
<asrwt>0</asrwt>
<pdfrwt beam="1">  1        1 0.32593180E+00 0.33348310E+04</pdfrwt>
<pdfrwt beam="2">  1       -1 0.20189903E+00 0.33348310E+04</pdfrwt>
<totfact> 0.29904394E-01</totfact>
</mgrwt>
</event>
<event>
 6    1  0.1637818E-005  0.3888009E+04  0.7818608E-02  0.8027528E-01
          2   -1    0    0  501    0  0.00000000000E+00  0.00000000000E+00  0.25973211151E+04  0.25973211151E+04  0.00000000000E+00 0. -1.
         -2   -1    0    0    0  501 -0.00000000000E+00 -0.00000000000E+00 -0.14550197674E+04  0.14550197674E+04  0.00000000000E+00 0.  1.
         23    2    1    2    0    0 -0.10107212905E+04 -0.98020141695E+03  0.19669531706E+04  0.24206537269E+04  0.91144640877E+02 0.  0.
         13    1    3    3    0    0 -0.49241332493E+03 -0.54039848062E+03  0.10298659967E+04  0.12629827281E+04  0.00000000000E+00 0.  1.
        -13    1    3    3    0    0 -0.51830796552E+03 -0.43980293633E+03  0.93708717390E+03  0.11576709988E+04  0.00000000000E+00 0. -1.
         22    1    1    2    0    0  0.10107212905E+04  0.98020141695E+03 -0.82465182292E+03  0.16316871556E+04  0.00000000000E+00 0.  1.
<mgrwt>
<rscale>  0 0.38880090E+04</rscale>
<asrwt>0</asrwt>
<pdfrwt beam="1">  1        2 0.39958786E+00 0.38880090E+04</pdfrwt>
<pdfrwt beam="2">  1       -2 0.22384919E+00 0.38880090E+04</pdfrwt>
<totfact> 0.22719402E-01</totfact>
</mgrwt>
</event>
<event>
 6    1  0.1637818E-005  0.2723178E+04  0.7818608E-02  0.8327524E-01
          2   -1    0    0  501    0  0.00000000000E+00  0.00000000000E+00  0.22600042910E+04  0.22600042910E+04  0.00000000000E+00 0. -1.
         -2   -1    0    0    0  501 -0.00000000000E+00 -0.00000000000E+00 -0.82031901856E+03  0.82031901856E+03  0.00000000000E+00 0.  1.
         23    2    1    2    0    0 -0.10636680337E+04  0.82329648667E+03  0.49157614291E+03  0.14346873497E+04  0.86451699932E+02 0.  0.
         13    1    3    3    0    0 -0.44227074200E+03  0.29170877125E+03  0.17898019069E+03  0.55922385957E+03  0.00000000000E+00 0. -1.
        -13    1    3    3    0    0 -0.62139729165E+03  0.53158771542E+03  0.31259595223E+03  0.87546349016E+03  0.00000000000E+00 0.  1.
         22    1    1    2    0    0  0.10636680337E+04 -0.82329648667E+03  0.94810912955E+03  0.16456359598E+04  0.00000000000E+00 0.  1.
<mgrwt>
<rscale>  0 0.27231779E+04</rscale>
<asrwt>0</asrwt>
<pdfrwt beam="1">  1        2 0.34769297E+00 0.27231779E+04</pdfrwt>
<pdfrwt beam="2">  1       -2 0.12620293E+00 0.27231779E+04</pdfrwt>
<totfact> 0.19574910E+00</totfact>
</mgrwt>
</event>
<event>
 6    1  0.1637818E-005  0.1304446E+04  0.7818608E-02  0.9026047E-01
          2   -1    0    0  501    0  0.00000000000E+00  0.00000000000E+00  0.10808226653E+04  0.10808226653E+04  0.00000000000E+00 0. -1.
         -2   -1    0    0    0  501 -0.00000000000E+00 -0.00000000000E+00 -0.39358438694E+03  0.39358438694E+03  0.00000000000E+00 0.  1.
         23    2    1    2    0    0  0.52645752984E+03 -0.32014972967E+03  0.11394558010E+03  0.63279081071E+03  0.88245310131E+02 0.  0.
         11    1    3    3    0    0  0.17054689568E+03 -0.57041511991E+02  0.31290184764E+02  0.18253507438E+03  0.00000000000E+00 0. -1.
        -11    1    3    3    0    0  0.35591063415E+03 -0.26310821768E+03  0.82655395334E+02  0.45025573632E+03  0.00000000000E+00 0.  1.
         22    1    1    2    0    0 -0.52645752984E+03  0.32014972967E+03  0.57329269828E+03  0.84161624155E+03  0.00000000000E+00 0.  1.
<mgrwt>
<rscale>  0 0.13044461E+04</rscale>
<asrwt>0</asrwt>
<pdfrwt beam="1">  1        2 0.16628041E+00 0.13044461E+04</pdfrwt>
<pdfrwt beam="2">  1       -2 0.60551445E-01 0.13044461E+04</pdfrwt>
<totfact> 0.55737178E+01</totfact>
</mgrwt>
</event>
<event>
 6    1  0.1637818E-005  0.4242776E+04  0.7818608E-02  0.7957285E-01
          2   -1    0    0  501    0  0.00000000000E+00  0.00000000000E+00  0.38277989854E+04  0.38277989854E+04  0.00000000000E+00 0.  1.
         -2   -1    0    0    0  501 -0.00000000000E+00 -0.00000000000E+00 -0.11756855547E+04  0.11756855547E+04  0.00000000000E+00 0. -1.
         23    2    1    2    0    0 -0.16093471334E+04 -0.13689385381E+04  0.11155169757E+04  0.23909915578E+04  0.92041238114E+02 0.  0.
         11    1    3    3    0    0 -0.47057409259E+03 -0.44129688963E+03  0.30824432685E+03  0.71498075950E+03  0.00000000000E+00 0.  1.
        -11    1    3    3    0    0 -0.11387730408E+04 -0.92764164851E+03  0.80727264881E+03  0.16760107983E+04  0.00000000000E+00 0. -1.
         22    1    1    2    0    0  0.16093471334E+04  0.13689385381E+04  0.15365964551E+04  0.26124929823E+04  0.00000000000E+00 0. -1.
<mgrwt>
<rscale>  0 0.42427764E+04</rscale>
<asrwt>0</asrwt>
<pdfrwt beam="1">  1        2 0.58889215E+00 0.42427764E+04</pdfrwt>
<pdfrwt beam="2">  1       -2 0.18087470E+00 0.42427764E+04</pdfrwt>
<totfact> 0.64494766E-02</totfact>
</mgrwt>
</event>
<event>
 6    1  0.1637818E-005  0.1450304E+04  0.7818608E-02  0.8918190E-01
         -1   -1    0    0    0  501 -0.00000000000E+00  0.00000000000E+00  0.17537483240E+03  0.17537483240E+03  0.00000000000E+00 0.  1.
          1   -1    0    0  501    0  0.00000000000E+00 -0.00000000000E+00 -0.29984072120E+04  0.29984072120E+04  0.00000000000E+00 0. -1.
         23    2    1    2    0    0 -0.24498501170E+03  0.15180395986E+03 -0.28664244155E+04  0.28823288459E+04  0.91479766227E+02 0.  0.
         11    1    3    3    0    0 -0.10981453950E+03  0.67842806408E+02 -0.17313299669E+04  0.17361351716E+04  0.00000000000E+00 0. -1.
        -11    1    3    3    0    0 -0.13517047220E+03  0.83961153449E+02 -0.11350944486E+04  0.11461936743E+04  0.00000000000E+00 0.  1.
         22    1    1    2    0    0  0.24498501170E+03 -0.15180395986E+03  0.43392035881E+02  0.29145319858E+03  0.00000000000E+00 0.  1.
<mgrwt>
<rscale>  0 0.14503036E+04</rscale>
<asrwt>0</asrwt>
<pdfrwt beam="1">  1        1 0.46129335E+00 0.14503036E+04</pdfrwt>
<pdfrwt beam="2">  1       -1 0.26980748E-01 0.14503036E+04</pdfrwt>
<totfact> 0.71984500E+00</totfact>
</mgrwt>
</event>
<event>
 6    1  0.1637818E-005  0.2502410E+04  0.7818608E-02  0.8402127E-01
         -1   -1    0    0    0  501 -0.00000000000E+00  0.00000000000E+00  0.12046699635E+04  0.12046699635E+04  0.00000000000E+00 0.  1.
          1   -1    0    0  501    0  0.00000000000E+00 -0.00000000000E+00 -0.12995377941E+04  0.12995377941E+04  0.00000000000E+00 0. -1.
         23    2    1    2    0    0  0.89038741204E+02  0.90483289631E+03 -0.90655044387E+03  0.12854054224E+04  0.61505486317E+02 0.  0.
         11    1    3    3    0    0  0.25914817737E+02  0.43240797752E+03 -0.46820028715E+03  0.63785558373E+03  0.00000000000E+00 0. -1.
        -11    1    3    3    0    0  0.63123923467E+02  0.47242491879E+03 -0.43835015672E+03  0.64754983863E+03  0.00000000000E+00 0.  1.
         22    1    1    2    0    0 -0.89038741204E+02 -0.90483289631E+03  0.81168261327E+03  0.12188023352E+04  0.00000000000E+00 0.  1.
<mgrwt>
<rscale>  0 0.25024102E+04</rscale>
<asrwt>0</asrwt>
<pdfrwt beam="1">  1        1 0.19992889E+00 0.25024102E+04</pdfrwt>
<pdfrwt beam="2">  1       -1 0.18533384E+00 0.25024102E+04</pdfrwt>
<totfact> 0.15328513E+00</totfact>
</mgrwt>
</event>
<event>
 6    1  0.1637818E-005  0.3452113E+04  0.7818608E-02  0.8125233E-01
          1   -1    0    0  501    0  0.00000000000E+00  0.00000000000E+00  0.22619400564E+04  0.22619400564E+04  0.00000000000E+00 0. -1.
         -1   -1    0    0    0  501 -0.00000000000E+00 -0.00000000000E+00 -0.13171310145E+04  0.13171310145E+04  0.00000000000E+00 0.  1.
         23    2    1    2    0    0  0.26303559237E+03  0.51750665564E+03  0.21566743539E+04  0.22353380632E+04  0.92147308241E+02 0.  0.
         13    1    3    3    0    0  0.19987624536E+03  0.35105982898E+03  0.16331910770E+04  0.16824109518E+04  0.00000000000E+00 0. -1.
        -13    1    3    3    0    0  0.63159347004E+02  0.16644682666E+03  0.52348327691E+03  0.55292711132E+03  0.00000000000E+00 0.  1.
         22    1    1    2    0    0 -0.26303559237E+03 -0.51750665564E+03 -0.12118653120E+04  0.13437330077E+04  0.00000000000E+00 0.  1.
<mgrwt>
<rscale>  0 0.34521132E+04</rscale>
<asrwt>0</asrwt>
<pdfrwt beam="1">  1        1 0.34799078E+00 0.34521132E+04</pdfrwt>
<pdfrwt beam="2">  1       -1 0.20263554E+00 0.34521132E+04</pdfrwt>
<totfact> 0.23365957E-01</totfact>
</mgrwt>
</event>
<event>
 6    1  0.1637818E-005  0.8350427E+03  0.7818608E-02  0.9510635E-01
         -2   -1    0    0    0  501 -0.00000000000E+00  0.00000000000E+00  0.21551299933E+03  0.21551299933E+03  0.00000000000E+00 0.  1.
          2   -1    0    0  501    0  0.00000000000E+00 -0.00000000000E+00 -0.80887971671E+03  0.80887971671E+03  0.00000000000E+00 0. -1.
         23    2    1    2    0    0  0.26431076361E+03 -0.75374400110E+02  0.66473628098E+02  0.30959850687E+03  0.12605955844E+03 0.  0.
         13    1    3    3    0    0  0.32167278224E+02 -0.31951353849E+02  0.57544827335E+02  0.73260016067E+02  0.00000000000E+00 0.  1.
        -13    1    3    3    0    0  0.23214348538E+03 -0.43423046261E+02  0.89288007631E+01  0.23633849080E+03  0.00000000000E+00 0. -1.
         22    1    1    2    0    0 -0.26431076361E+03  0.75374400110E+02 -0.65984034547E+03  0.71479420917E+03  0.00000000000E+00 0. -1.
<mgrwt>
<rscale>  0 0.83504274E+03</rscale>
<asrwt>0</asrwt>
<pdfrwt beam="1">  1        2 0.12444303E+00 0.83504274E+03</pdfrwt>
<pdfrwt beam="2">  1       -2 0.33155847E-01 0.83504274E+03</pdfrwt>
<totfact> 0.28938361E+02</totfact>
</mgrwt>
</event>
<event>
 6    1  0.1637818E-005  0.1169946E+04  0.7818608E-02  0.9139577E-01
          1   -1    0    0  501    0  0.00000000000E+00  0.00000000000E+00  0.27961743333E+03  0.27961743333E+03  0.00000000000E+00 0. -1.
         -1   -1    0    0    0  501 -0.00000000000E+00 -0.00000000000E+00 -0.12237915965E+04  0.12237915965E+04  0.00000000000E+00 0.  1.
         23    2    1    2    0    0  0.20536053559E+03  0.41579014533E+03 -0.92572803676E+03  0.10393027337E+04  0.90129793415E+02 0.  0.
         13    1    3    3    0    0  0.46864319295E+02  0.12944821304E+03 -0.36430613275E+03  0.38945097591E+03  0.00000000000E+00 0. -1.
        -13    1    3    3    0    0  0.15849621630E+03  0.28634193230E+03 -0.56142190401E+03  0.64985175777E+03  0.00000000000E+00 0.  1.
         22    1    1    2    0    0 -0.20536053559E+03 -0.41579014533E+03 -0.18446126390E+02  0.46410629614E+03  0.00000000000E+00 0. -1.
<mgrwt>
<rscale>  0 0.11699461E+04</rscale>
<asrwt>0</asrwt>
<pdfrwt beam="1">  1        1 0.43018067E-01 0.11699461E+04</pdfrwt>
<pdfrwt beam="2">  1       -1 0.18827563E+00 0.11699461E+04</pdfrwt>
<totfact> 0.17324337E+01</totfact>
</mgrwt>
</event>
<event>
 6    1  0.1637818E-005  0.1767222E+04  0.7818608E-02  0.8723927E-01
          2   -1    0    0  501    0  0.00000000000E+00  0.00000000000E+00  0.12904440589E+04  0.12904440589E+04  0.00000000000E+00 0. -1.
         -2   -1    0    0    0  501 -0.00000000000E+00 -0.00000000000E+00 -0.60503841993E+03  0.60503841993E+03  0.00000000000E+00 0.  1.
         23    2    1    2    0    0  0.25910618501E+03 -0.11954406735E+03 -0.55078758625E+03  0.62678216384E+03  0.89789289950E+02 0.  0.
         11    1    3    3    0    0  0.11699366243E+03 -0.58640448198E+01 -0.21922640750E+03  0.24856009699E+03  0.00000000000E+00 0. -1.
        -11    1    3    3    0    0  0.14211252258E+03 -0.11368002253E+03 -0.33156117875E+03  0.37822206685E+03  0.00000000000E+00 0.  1.
         22    1    1    2    0    0 -0.25910618501E+03  0.11954406735E+03  0.12361932252E+04  0.12687003149E+04  0.00000000000E+00 0. -1.
<mgrwt>
<rscale>  0 0.17672218E+04</rscale>
<asrwt>0</asrwt>
<pdfrwt beam="1">  1        2 0.19852985E+00 0.17672218E+04</pdfrwt>
<pdfrwt beam="2">  1       -2 0.93082834E-01 0.17672218E+04</pdfrwt>
<totfact> 0.15494257E+01</totfact>
</mgrwt>
</event>
<event>
 6    1  0.1637818E-005  0.1728236E+04  0.7818608E-02  0.8745422E-01
          2   -1    0    0  501    0  0.00000000000E+00  0.00000000000E+00  0.19324361766E+04  0.19324361766E+04  0.00000000000E+00 0.  1.
         -2   -1    0    0    0  501 -0.00000000000E+00 -0.00000000000E+00 -0.38640331339E+03  0.38640331339E+03  0.00000000000E+00 0. -1.
         23    2    1    2    0    0 -0.26039956992E+03  0.25617602635E+03 -0.27357356735E+03  0.46292956366E+03  0.77634989987E+02 0.  0.
         11    1    3    3    0    0 -0.17676631368E+03  0.13155726965E+03 -0.19114591220E+03  0.29170259615E+03  0.00000000000E+00 0.  1.
        -11    1    3    3    0    0 -0.83633256236E+02  0.12461875670E+03 -0.82427655155E+02  0.17122696751E+03  0.00000000000E+00 0. -1.
         22    1    1    2    0    0  0.26039956992E+03 -0.25617602635E+03  0.18196064305E+04  0.18559099263E+04  0.00000000000E+00 0.  1.
<mgrwt>
<rscale>  0 0.17282358E+04</rscale>
<asrwt>0</asrwt>
<pdfrwt beam="1">  1        2 0.29729787E+00 0.17282358E+04</pdfrwt>
<pdfrwt beam="2">  1       -2 0.59446665E-01 0.17282358E+04</pdfrwt>
<totfact> 0.18268088E+01</totfact>
</mgrwt>
</event>
<event>
 6    1  0.2076646E-005  0.4286380E+04  0.7818608E-02  0.7949141E-01
          2   -1    0    0  501    0  0.00000000000E+00  0.00000000000E+00  0.31941513917E+04  0.31941513917E+04  0.00000000000E+00 0. -1.
         -2   -1    0    0    0  501 -0.00000000000E+00 -0.00000000000E+00 -0.14380229965E+04  0.14380229965E+04  0.00000000000E+00 0.  1.
         23    2    1    2    0    0 -0.36877294888E+03 -0.11786084139E+04  0.27699912728E+04  0.30343542432E+04  0.96657854007E+02 0.  0.
         13    1    3    3    0    0 -0.24943438416E+03 -0.93056089238E+03  0.21422121326E+04  0.23488792876E+04  0.00000000000E+00 0. -1.
        -13    1    3    3    0    0 -0.11933856472E+03 -0.24804752152E+03  0.62777914018E+03  0.68547495564E+03  0.00000000000E+00 0.  1.
         22    1    1    2    0    0  0.36877294888E+03  0.11786084139E+04 -0.10138628776E+04  0.15978201450E+04  0.00000000000E+00 0.  1.
<mgrwt>
<rscale>  0 0.42863799E+04</rscale>
<asrwt>0</asrwt>
<pdfrwt beam="1">  1        2 0.49140790E+00 0.42863799E+04</pdfrwt>
<pdfrwt beam="2">  1       -2 0.22123431E+00 0.42863799E+04</pdfrwt>
<totfact> 0.97799072E-02</totfact>
</mgrwt>
</event>
<event>
 6    1  0.1637818E-005  0.2720683E+04  0.7818608E-02  0.8328325E-01
         -2   -1    0    0    0  501 -0.00000000000E+00  0.00000000000E+00  0.21786314505E+04  0.21786314505E+04  0.00000000000E+00 0.  1.
          2   -1    0    0  501    0  0.00000000000E+00 -0.00000000000E+00 -0.84939981075E+03  0.84939981075E+03  0.00000000000E+00 0. -1.
         23    2    1    2    0    0 -0.50898897137E+03 -0.21013553973E+03  0.20478795025E+04  0.21226686441E+04  0.93193334268E+02 0.  0.
         11    1    3    3    0    0 -0.19577007578E+03 -0.43793125534E+02  0.63354327901E+03  0.66454559422E+03  0.00000000000E+00 0. -1.
        -11    1    3    3    0    0 -0.31321889558E+03 -0.16634241419E+03  0.14143362235E+04  0.14581230499E+04  0.00000000000E+00 0.  1.
         22    1    1    2    0    0  0.50898897137E+03  0.21013553973E+03 -0.71864786275E+03  0.90536261723E+03  0.00000000000E+00 0. -1.
<mgrwt>
<rscale>  0 0.27206831E+04</rscale>
<asrwt>0</asrwt>
<pdfrwt beam="1">  1        2 0.13067690E+00 0.27206831E+04</pdfrwt>
<pdfrwt beam="2">  1       -2 0.33517407E+00 0.27206831E+04</pdfrwt>
<totfact> 0.53632106E-01</totfact>
</mgrwt>
</event>
<event>
 6    1  0.1637818E-005  0.1816079E+04  0.7818608E-02  0.8697795E-01
         -1   -1    0    0    0  501 -0.00000000000E+00  0.00000000000E+00  0.15206976018E+04  0.15206976018E+04  0.00000000000E+00 0.  1.
          1   -1    0    0  501    0  0.00000000000E+00 -0.00000000000E+00 -0.54220876062E+03  0.54220876062E+03  0.00000000000E+00 0. -1.
         23    2    1    2    0    0  0.87699277402E+03  0.20396131968E+03  0.37832784127E+03  0.98082051950E+03  0.90334879092E+02 0.  0.
         11    1    3    3    0    0  0.81169142004E+03  0.19805769207E+03  0.37315568740E+03  0.91504916687E+03  0.00000000000E+00 0.  1.
        -11    1    3    3    0    0  0.65301353980E+02  0.59036276131E+01  0.51721538671E+01  0.65771352626E+02  0.00000000000E+00 0. -1.
         22    1    1    2    0    0 -0.87699277402E+03 -0.20396131968E+03  0.60016099988E+03  0.10820858429E+04  0.00000000000E+00 0.  1.
<mgrwt>
<rscale>  0 0.18160788E+04</rscale>
<asrwt>0</asrwt>
<pdfrwt beam="1">  1        1 0.83416733E-01 0.18160788E+04</pdfrwt>
<pdfrwt beam="2">  1       -1 0.23395348E+00 0.18160788E+04</pdfrwt>
<totfact> 0.33143361E+00</totfact>
</mgrwt>
</event>
<event>
 6    1  0.1637818E-005  0.1120524E+04  0.7818608E-02  0.9185416E-01
          2   -1    0    0  501    0  0.00000000000E+00  0.00000000000E+00  0.34251305998E+03  0.34251305998E+03  0.00000000000E+00 0. -1.
         -2   -1    0    0    0  501 -0.00000000000E+00 -0.00000000000E+00 -0.91644180026E+03  0.91644180026E+03  0.00000000000E+00 0.  1.
         23    2    1    2    0    0  0.53375232759E+03 -0.15445164396E+03 -0.32444204409E+03  0.64986499076E+03  0.91186669573E+02 0.  0.
         11    1    3    3    0    0  0.22879795253E+03 -0.81249598191E+02 -0.92593861750E+02  0.25985308065E+03  0.00000000000E+00 0.  1.
        -11    1    3    3    0    0  0.30495437506E+03 -0.73202045767E+02 -0.23184818234E+03  0.39001191011E+03  0.00000000000E+00 0. -1.
         22    1    1    2    0    0 -0.53375232759E+03  0.15445164396E+03 -0.24948669620E+03  0.60908986949E+03  0.00000000000E+00 0. -1.
<mgrwt>
<rscale>  0 0.11205236E+04</rscale>
<asrwt>0</asrwt>
<pdfrwt beam="1">  1        2 0.52694318E-01 0.11205236E+04</pdfrwt>
<pdfrwt beam="2">  1       -2 0.14099104E+00 0.11205236E+04</pdfrwt>
<totfact> 0.33075042E+01</totfact>
</mgrwt>
</event>
<event>
 6    1  0.1637818E-005  0.6175308E+03  0.7818608E-02  0.9869688E-01
          1   -1    0    0  501    0  0.00000000000E+00  0.00000000000E+00  0.12713421667E+04  0.12713421667E+04  0.00000000000E+00 0. -1.
         -1   -1    0    0    0  501 -0.00000000000E+00 -0.00000000000E+00 -0.74988532269E+02  0.74988532269E+02  0.00000000000E+00 0.  1.
         23    2    1    2    0    0 -0.19851018058E+03 -0.19658424437E+03  0.36510181816E+03  0.46938643678E+03  0.94723980502E+02 0.  0.
         11    1    3    3    0    0 -0.35959445615E+02 -0.71405246284E+02  0.53111081457E+02  0.95982174904E+02  0.00000000000E+00 0.  1.
        -11    1    3    3    0    0 -0.16255073497E+03 -0.12517899809E+03  0.31199073671E+03  0.37340426188E+03  0.00000000000E+00 0. -1.
         22    1    1    2    0    0  0.19851018058E+03  0.19658424437E+03  0.83125181629E+03  0.87694426221E+03  0.00000000000E+00 0.  1.
<mgrwt>
<rscale>  0 0.61753084E+03</rscale>
<asrwt>0</asrwt>
<pdfrwt beam="1">  1        1 0.19559109E+00 0.61753084E+03</pdfrwt>
<pdfrwt beam="2">  1       -1 0.11536698E-01 0.61753084E+03</pdfrwt>
<totfact> 0.48621781E+02</totfact>
</mgrwt>
</event>
<event>
 6    1  0.1637818E-005  0.1728356E+04  0.7818608E-02  0.8745355E-01
         -1   -1    0    0    0  501 -0.00000000000E+00  0.00000000000E+00  0.22814422170E+03  0.22814422170E+03  0.00000000000E+00 0.  1.
          1   -1    0    0  501    0  0.00000000000E+00 -0.00000000000E+00 -0.32733854161E+04  0.32733854161E+04  0.00000000000E+00 0. -1.
         23    2    1    2    0    0  0.71683506606E+03 -0.41096688356E+03 -0.20228621150E+04  0.21869934940E+04  0.90681393963E+02 0.  0.
         11    1    3    3    0    0  0.67052097965E+03 -0.35642089733E+03 -0.18308265173E+04  0.19820595291E+04  0.00000000000E+00 0.  1.
        -11    1    3    3    0    0  0.46314086417E+02 -0.54545986233E+02 -0.19203559772E+03  0.20493396499E+03  0.00000000000E+00 0. -1.
         22    1    1    2    0    0 -0.71683506606E+03  0.41096688356E+03 -0.10223790793E+04  0.13145361437E+04  0.00000000000E+00 0.  1.
<mgrwt>
<rscale>  0 0.17283564E+04</rscale>
<asrwt>0</asrwt>
<pdfrwt beam="1">  1        1 0.50359776E+00 0.17283564E+04</pdfrwt>
<pdfrwt beam="2">  1       -1 0.35099111E-01 0.17283564E+04</pdfrwt>
<totfact> 0.27579956E+00</totfact>
</mgrwt>
</event>
<event>
 6    1  0.1637818E-005  0.2417982E+04  0.7818608E-02  0.8432802E-01
         -2   -1    0    0    0  501 -0.00000000000E+00  0.00000000000E+00  0.35214824748E+03  0.35214824748E+03  0.00000000000E+00 0.  1.
          2   -1    0    0  501    0  0.00000000000E+00 -0.00000000000E+00 -0.41506935196E+04  0.41506935196E+04  0.00000000000E+00 0. -1.
         23    2    1    2    0    0 -0.52722336250E+02 -0.11497169501E+04 -0.25807335387E+04  0.28272242307E+04  0.91556227222E+02 0.  0.
         11    1    3    3    0    0 -0.38761840263E+02 -0.82831329406E+03 -0.19564606339E+04  0.21249337885E+04  0.00000000000E+00 0.  1.
        -11    1    3    3    0    0 -0.13960495987E+02 -0.32140365608E+03 -0.62427290478E+03  0.70229044222E+03  0.00000000000E+00 0. -1.
         22    1    1    2    0    0  0.52722336250E+02  0.11497169501E+04 -0.12178117334E+04  0.16756175364E+04  0.00000000000E+00 0.  1.
<mgrwt>
<rscale>  0 0.24179822E+04</rscale>
<asrwt>0</asrwt>
<pdfrwt beam="1">  1        2 0.63856823E+00 0.24179822E+04</pdfrwt>
<pdfrwt beam="2">  1       -2 0.54176654E-01 0.24179822E+04</pdfrwt>
<totfact> 0.74244271E-01</totfact>
</mgrwt>
</event>
<event>
 6    1  0.1637818E-005  0.2253173E+04  0.7818608E-02  0.8496617E-01
         -2   -1    0    0    0  501 -0.00000000000E+00  0.00000000000E+00  0.33364341892E+03  0.33364341892E+03  0.00000000000E+00 0.  1.
          2   -1    0    0  501    0  0.00000000000E+00 -0.00000000000E+00 -0.38040528992E+04  0.38040528992E+04  0.00000000000E+00 0. -1.
         23    2    1    2    0    0  0.17067009025E+03  0.93819735731E+03 -0.65031027299E+03  0.11607344272E+04  0.12271266601E+03 0.  0.
         13    1    3    3    0    0  0.16411975847E+03  0.75025102726E+03 -0.56919504786E+03  0.95592620089E+03  0.00000000000E+00 0. -1.
        -13    1    3    3    0    0  0.65503317801E+01  0.18794633004E+03 -0.81115225122E+02  0.20480822632E+03  0.00000000000E+00 0.  1.
         22    1    1    2    0    0 -0.17067009025E+03 -0.93819735731E+03 -0.28200992073E+04  0.29769618909E+04  0.00000000000E+00 0. -1.
<mgrwt>
<rscale>  0 0.22531731E+04</rscale>
<asrwt>0</asrwt>
<pdfrwt beam="1">  1        2 0.58523893E+00 0.22531731E+04</pdfrwt>
<pdfrwt beam="2">  1       -2 0.51329755E-01 0.22531731E+04</pdfrwt>
<totfact> 0.15994030E+00</totfact>
</mgrwt>
</event>
<event>
 6    1  0.1918341E-005  0.3641933E+04  0.7818608E-02  0.8080953E-01
          2   -1    0    0  501    0  0.00000000000E+00  0.00000000000E+00  0.11732320666E+04  0.11732320666E+04  0.00000000000E+00 0. -1.
         -2   -1    0    0    0  501 -0.00000000000E+00 -0.00000000000E+00 -0.28263110456E+04  0.28263110456E+04  0.00000000000E+00 0.  1.
         23    2    1    2    0    0  0.28487358001E+03  0.40156554643E+03  0.10970644859E+04  0.12056753768E+04  0.87719914313E+02 0.  0.
         11    1    3    3    0    0  0.18452346719E+03  0.21423594886E+03  0.54197621514E+03  0.61129712048E+03  0.00000000000E+00 0. -1.
        -11    1    3    3    0    0  0.10035011282E+03  0.18732959757E+03  0.55508827080E+03  0.59437825637E+03  0.00000000000E+00 0.  1.
         22    1    1    2    0    0 -0.28487358001E+03 -0.40156554643E+03 -0.27501434650E+04  0.27938677353E+04  0.00000000000E+00 0.  1.
<mgrwt>
<rscale>  0 0.36419329E+04</rscale>
<asrwt>0</asrwt>
<pdfrwt beam="1">  1        2 0.18049724E+00 0.36419329E+04</pdfrwt>
<pdfrwt beam="2">  1       -2 0.43481708E+00 0.36419329E+04</pdfrwt>
<totfact> 0.69785136E-02</totfact>
</mgrwt>
</event>
<event>
 6    1  0.1637818E-005  0.5872439E+03  0.7818608E-02  0.9932230E-01
          2   -1    0    0  501    0  0.00000000000E+00  0.00000000000E+00  0.52092658437E+03  0.52092658437E+03  0.00000000000E+00 0. -1.
         -2   -1    0    0    0  501 -0.00000000000E+00 -0.00000000000E+00 -0.16550095522E+03  0.16550095522E+03  0.00000000000E+00 0.  1.
         23    2    1    2    0    0 -0.23042696795E+03 -0.25869651625E+01 -0.20927696955E+02  0.24512820124E+03  0.80910979446E+02 0.  0.
         13    1    3    3    0    0 -0.12767748365E+03 -0.54041771621E+01 -0.51668277740E+02  0.13784177845E+03  0.00000000000E+00 0. -1.
        -13    1    3    3    0    0 -0.10274948431E+03  0.28172119997E+01  0.30740580785E+02  0.10728642279E+03  0.00000000000E+00 0.  1.
         22    1    1    2    0    0  0.23042696795E+03  0.25869651625E+01  0.37635332611E+03  0.44129933834E+03  0.00000000000E+00 0. -1.
<mgrwt>
<rscale>  0 0.58724389E+03</rscale>
<asrwt>0</asrwt>
<pdfrwt beam="1">  1        2 0.80142551E-01 0.58724389E+03</pdfrwt>
<pdfrwt beam="2">  1       -2 0.25461686E-01 0.58724389E+03</pdfrwt>
<totfact> 0.81754126E+02</totfact>
</mgrwt>
</event>
<event>
 6    1  0.1637818E-005  0.4489312E+04  0.7818608E-02  0.7912511E-01
         -2   -1    0    0    0  501 -0.00000000000E+00  0.00000000000E+00  0.16629541578E+04  0.16629541578E+04  0.00000000000E+00 0.  1.
          2   -1    0    0  501    0  0.00000000000E+00 -0.00000000000E+00 -0.30298374474E+04  0.30298374474E+04  0.00000000000E+00 0. -1.
         23    2    1    2    0    0 -0.20580175522E+03  0.20146464483E+03 -0.30097604242E+04  0.30248624565E+04  0.90513558041E+02 0.  0.
         13    1    3    3    0    0 -0.16964645510E+03  0.11444680500E+03 -0.22482102411E+04  0.22575046576E+04  0.00000000000E+00 0. -1.
        -13    1    3    3    0    0 -0.36155300118E+02  0.87017839831E+02 -0.76155018307E+03  0.76735779889E+03  0.00000000000E+00 0.  1.
         22    1    1    2    0    0  0.20580175522E+03 -0.20146464483E+03  0.16428771346E+04  0.16679291487E+04  0.00000000000E+00 0.  1.
<mgrwt>
<rscale>  0 0.44893121E+04</rscale>
<asrwt>0</asrwt>
<pdfrwt beam="1">  1        2 0.46612883E+00 0.44893121E+04</pdfrwt>
<pdfrwt beam="2">  1       -2 0.25583910E+00 0.44893121E+04</pdfrwt>
<totfact> 0.74775116E-02</totfact>
</mgrwt>
</event>
<event>
 6    1  0.1637818E-005  0.3823665E+04  0.7818608E-02  0.8041096E-01
          1   -1    0    0  501    0  0.00000000000E+00  0.00000000000E+00  0.24933982219E+04  0.24933982219E+04  0.00000000000E+00 0. -1.
         -1   -1    0    0    0  501 -0.00000000000E+00 -0.00000000000E+00 -0.14659120776E+04  0.14659120776E+04  0.00000000000E+00 0.  1.
         23    2    1    2    0    0  0.24180750943E+03 -0.63448030884E+03  0.23634397652E+04  0.24607082139E+04  0.90560790328E+02 0.  0.
         13    1    3    3    0    0  0.10633461428E+03 -0.26945638254E+03  0.11717328712E+04  0.12070094091E+04  0.00000000000E+00 0. -1.
        -13    1    3    3    0    0  0.13547289514E+03 -0.36502392630E+03  0.11917068940E+04  0.12536988048E+04  0.00000000000E+00 0.  1.
         22    1    1    2    0    0 -0.24180750943E+03  0.63448030884E+03 -0.13359536208E+04  0.14986020855E+04  0.00000000000E+00 0.  1.
<mgrwt>
<rscale>  0 0.38236645E+04</rscale>
<asrwt>0</asrwt>
<pdfrwt beam="1">  1        1 0.38359973E+00 0.38236645E+04</pdfrwt>
<pdfrwt beam="2">  1       -1 0.22552494E+00 0.38236645E+04</pdfrwt>
<totfact> 0.10989590E-01</totfact>
</mgrwt>
</event>
<event>
 6    1  0.1637818E-005  0.3905237E+04  0.7818608E-02  0.8023941E-01
         -1   -1    0    0    0  501 -0.00000000000E+00  0.00000000000E+00  0.21651626821E+04  0.21651626821E+04  0.00000000000E+00 0.  1.
          1   -1    0    0  501    0  0.00000000000E+00 -0.00000000000E+00 -0.17609385302E+04  0.17609385302E+04  0.00000000000E+00 0. -1.
         23    2    1    2    0    0 -0.14516869163E+04  0.12515889288E+04  0.57135094037E+03  0.20020946861E+04  0.89841445890E+02 0.  0.
         11    1    3    3    0    0 -0.45470364176E+03  0.42474847747E+03  0.15008502139E+03  0.64007201516E+03  0.00000000000E+00 0.  1.
        -11    1    3    3    0    0 -0.99698327450E+03  0.82684045133E+03  0.42126591898E+03  0.13620226709E+04  0.00000000000E+00 0. -1.
         22    1    1    2    0    0  0.14516869163E+04 -0.12515889288E+04 -0.16712678853E+03  0.19240065262E+04  0.00000000000E+00 0. -1.
<mgrwt>
<rscale>  0 0.39052367E+04</rscale>
<asrwt>0</asrwt>
<pdfrwt beam="1">  1        1 0.27091362E+00 0.39052367E+04</pdfrwt>
<pdfrwt beam="2">  1       -1 0.33310195E+00 0.39052367E+04</pdfrwt>
<totfact> 0.68602654E-02</totfact>
</mgrwt>
</event>
<event>
 6    1  0.1637818E-005  0.2833436E+04  0.7818608E-02  0.8292962E-01
         -2   -1    0    0    0  501 -0.00000000000E+00  0.00000000000E+00  0.66219004531E+03  0.66219004531E+03  0.00000000000E+00 0.  1.
          2   -1    0    0  501    0  0.00000000000E+00 -0.00000000000E+00 -0.30309871898E+04  0.30309871898E+04  0.00000000000E+00 0. -1.
         23    2    1    2    0    0  0.69298630945E+03 -0.69426997507E+03 -0.25152882407E+04  0.27013604856E+04  0.91829822969E+02 0.  0.
         13    1    3    3    0    0  0.40294523869E+03 -0.34912894821E+03 -0.12950191663E+04  0.14004751083E+04  0.00000000000E+00 0. -1.
        -13    1    3    3    0    0  0.29004107076E+03 -0.34514102686E+03 -0.12202690744E+04  0.13008853773E+04  0.00000000000E+00 0.  1.
         22    1    1    2    0    0 -0.69298630945E+03  0.69426997507E+03  0.14649109613E+03  0.99181674951E+03  0.00000000000E+00 0.  1.
<mgrwt>
<rscale>  0 0.28334358E+04</rscale>
<asrwt>0</asrwt>
<pdfrwt beam="1">  1        2 0.46630573E+00 0.28334358E+04</pdfrwt>
<pdfrwt beam="2">  1       -2 0.10187539E+00 0.28334358E+04</pdfrwt>
<totfact> 0.11410766E+00</totfact>
</mgrwt>
</event>
<event>
 6    1  0.1637818E-005  0.6799666E+03  0.7818608E-02  0.9752119E-01
         -2   -1    0    0    0  501 -0.00000000000E+00  0.00000000000E+00  0.19749609504E+03  0.19749609504E+03  0.00000000000E+00 0.  1.
          2   -1    0    0  501    0  0.00000000000E+00 -0.00000000000E+00 -0.58527051106E+03  0.58527051106E+03  0.00000000000E+00 0. -1.
         23    2    1    2    0    0 -0.78817350097E+01 -0.32364028440E+03 -0.29149221699E+03  0.44501608089E+03  0.90919988198E+02 0.  0.
         11    1    3    3    0    0 -0.36191436966E+02 -0.24486576721E+03 -0.18220985193E+03  0.30735890129E+03  0.00000000000E+00 0. -1.
        -11    1    3    3    0    0  0.28309701956E+02 -0.78774517188E+02 -0.10928236506E+03  0.13765717960E+03  0.00000000000E+00 0.  1.
         22    1    1    2    0    0  0.78817350097E+01  0.32364028440E+03 -0.96282199037E+02  0.33775052521E+03  0.00000000000E+00 0.  1.
<mgrwt>
<rscale>  0 0.67996659E+03</rscale>
<asrwt>0</asrwt>
<pdfrwt beam="1">  1        2 0.90041615E-01 0.67996659E+03</pdfrwt>
<pdfrwt beam="2">  1       -2 0.30384015E-01 0.67996659E+03</pdfrwt>
<totfact> 0.51491966E+02</totfact>
</mgrwt>
</event>
<event>
 6    1  0.1637818E-005  0.2297131E+04  0.7818608E-02  0.8479053E-01
         -2   -1    0    0    0  501 -0.00000000000E+00  0.00000000000E+00  0.67922692395E+03  0.67922692395E+03  0.00000000000E+00 0. -1.
          2   -1    0    0  501    0  0.00000000000E+00 -0.00000000000E+00 -0.19422128030E+04  0.19422128030E+04  0.00000000000E+00 0.  1.
         23    2    1    2    0    0  0.98657525055E+03  0.27247192953E+03 -0.42740216952E+02  0.10287780701E+04  0.94794060936E+02 0.  0.
         11    1    3    3    0    0  0.22261418468E+03  0.40587344940E+02  0.24329791037E+02  0.22758810716E+03  0.00000000000E+00 0. -1.
        -11    1    3    3    0    0  0.76396106587E+03  0.23188458459E+03 -0.67070007989E+02  0.80118996293E+03  0.00000000000E+00 0.  1.
         22    1    1    2    0    0 -0.98657525055E+03 -0.27247192953E+03 -0.12202456621E+04  0.15926616569E+04  0.00000000000E+00 0.  1.
<mgrwt>
<rscale>  0 0.22971315E+04</rscale>
<asrwt>0</asrwt>
<pdfrwt beam="1">  1        2 0.29880196E+00 0.22971315E+04</pdfrwt>
<pdfrwt beam="2">  1       -2 0.10449645E+00 0.22971315E+04</pdfrwt>
<totfact> 0.48512377E+00</totfact>
</mgrwt>
</event>
<event>
 6    1  0.1637818E-005  0.1256189E+04  0.7818608E-02  0.9065048E-01
         -2   -1    0    0    0  501 -0.00000000000E+00  0.00000000000E+00  0.47000218999E+03  0.47000218999E+03  0.00000000000E+00 0.  1.
          2   -1    0    0  501    0  0.00000000000E+00 -0.00000000000E+00 -0.83936343628E+03  0.83936343628E+03  0.00000000000E+00 0. -1.
         23    2    1    2    0    0  0.26268952112E+03  0.33898358281E+03  0.28792706161E+03  0.52454489920E+03  0.91267215066E+02 0.  0.
         11    1    3    3    0    0  0.47959148055E+02  0.98661354728E+02  0.35910151029E+02  0.11542825367E+03  0.00000000000E+00 0. -1.
        -11    1    3    3    0    0  0.21473037307E+03  0.24032222808E+03  0.25201691058E+03  0.40911664553E+03  0.00000000000E+00 0.  1.
         22    1    1    2    0    0 -0.26268952112E+03 -0.33898358281E+03 -0.65728830790E+03  0.78482072706E+03  0.00000000000E+00 0. -1.
<mgrwt>
<rscale>  0 0.12561889E+04</rscale>
<asrwt>0</asrwt>
<pdfrwt beam="1">  1        2 0.12913283E+00 0.12561889E+04</pdfrwt>
<pdfrwt beam="2">  1       -2 0.72308030E-01 0.12561889E+04</pdfrwt>
<totfact> 0.54975229E+01</totfact>
</mgrwt>
</event>
<event>
 6    1  0.1637818E-005  0.1618546E+04  0.7818608E-02  0.8809235E-01
         -2   -1    0    0    0  501 -0.00000000000E+00  0.00000000000E+00  0.26836366258E+03  0.26836366258E+03  0.00000000000E+00 0.  1.
          2   -1    0    0  501    0  0.00000000000E+00 -0.00000000000E+00 -0.24404300628E+04  0.24404300628E+04  0.00000000000E+00 0. -1.
         23    2    1    2    0    0 -0.89424247927E+02  0.65233858546E+03 -0.30830142991E+03  0.73213943320E+03  0.86232544672E+02 0.  0.
         11    1    3    3    0    0 -0.55469902907E+02  0.15172009842E+03 -0.60313864245E+02  0.17243451108E+03  0.00000000000E+00 0. -1.
        -11    1    3    3    0    0 -0.33954345020E+02  0.50061848704E+03 -0.24798756566E+03  0.55970492211E+03  0.00000000000E+00 0.  1.
         22    1    1    2    0    0  0.89424247927E+02 -0.65233858546E+03 -0.18637649703E+04  0.19766542921E+04  0.00000000000E+00 0. -1.
<mgrwt>
<rscale>  0 0.16185460E+04</rscale>
<asrwt>0</asrwt>
<pdfrwt beam="1">  1        2 0.37545076E+00 0.16185460E+04</pdfrwt>
<pdfrwt beam="2">  1       -2 0.41286719E-01 0.16185460E+04</pdfrwt>
<totfact> 0.20088317E+01</totfact>
</mgrwt>
</event>
<event>
 6    1  0.1637818E-005  0.2089369E+04  0.7818608E-02  0.8565941E-01
         -2   -1    0    0    0  501 -0.00000000000E+00  0.00000000000E+00  0.10651802171E+04  0.10651802171E+04  0.00000000000E+00 0.  1.
          2   -1    0    0  501    0  0.00000000000E+00 -0.00000000000E+00 -0.10245829947E+04  0.10245829947E+04  0.00000000000E+00 0. -1.
         23    2    1    2    0    0 -0.99697070560E+03  0.27753871367E+03 -0.10783715289E+03  0.10442915053E+04  0.89093047346E+02 0.  0.
         13    1    3    3    0    0 -0.84933962875E+03  0.24304412456E+03 -0.12290020978E+03  0.89193761722E+03  0.00000000000E+00 0. -1.
        -13    1    3    3    0    0 -0.14763107685E+03  0.34494589110E+02  0.15063056890E+02  0.15235388808E+03  0.00000000000E+00 0.  1.
         22    1    1    2    0    0  0.99697070560E+03 -0.27753871367E+03  0.14843437527E+03  0.10454717065E+04  0.00000000000E+00 0. -1.
<mgrwt>
<rscale>  0 0.20893688E+04</rscale>
<asrwt>0</asrwt>
<pdfrwt beam="1">  1        2 0.15762815E+00 0.20893688E+04</pdfrwt>
<pdfrwt beam="2">  1       -2 0.16387388E+00 0.20893688E+04</pdfrwt>
<totfact> 0.52853621E+00</totfact>
</mgrwt>
</event>
<event>
 6    1  0.1637818E-005  0.2378002E+04  0.7818608E-02  0.8447785E-01
         -2   -1    0    0    0  501 -0.00000000000E+00  0.00000000000E+00  0.51916267643E+03  0.51916267643E+03  0.00000000000E+00 0.  1.
          2   -1    0    0  501    0  0.00000000000E+00 -0.00000000000E+00 -0.27230840154E+04  0.27230840154E+04  0.00000000000E+00 0. -1.
         23    2    1    2    0    0  0.11391654090E+04  0.17373077917E+03 -0.71432397944E+03  0.13589568824E+04  0.92870059661E+02 0.  0.
         13    1    3    3    0    0  0.45850074254E+03  0.38165621505E+02 -0.32367280790E+03  0.56253322759E+03  0.00000000000E+00 0. -1.
        -13    1    3    3    0    0  0.68066466646E+03  0.13556515767E+03 -0.39065117154E+03  0.79642365482E+03  0.00000000000E+00 0.  1.
         22    1    1    2    0    0 -0.11391654090E+04 -0.17373077917E+03 -0.14895973595E+04  0.18832898094E+04  0.00000000000E+00 0. -1.
<mgrwt>
<rscale>  0 0.23780022E+04</rscale>
<asrwt>0</asrwt>
<pdfrwt beam="1">  1        2 0.41893599E+00 0.23780022E+04</pdfrwt>
<pdfrwt beam="2">  1       -2 0.79871183E-01 0.23780022E+04</pdfrwt>
<totfact> 0.32153626E+00</totfact>
</mgrwt>
</event>
<event>
 6    1  0.1637818E-005  0.4150100E+03  0.7818608E-02  0.1038703E+00
         -2   -1    0    0    0  501 -0.00000000000E+00  0.00000000000E+00  0.14817309455E+03  0.14817309455E+03  0.00000000000E+00 0.  1.
          2   -1    0    0  501    0  0.00000000000E+00 -0.00000000000E+00 -0.29059480744E+03  0.29059480744E+03  0.00000000000E+00 0. -1.
         23    2    1    2    0    0  0.39692575513E+02  0.16201462554E+03 -0.18645666716E+03  0.26624742020E+03  0.91089849019E+02 0.  0.
         11    1    3    3    0    0  0.63246369793E+02  0.68913024357E+02 -0.10151281255E+03  0.13803607981E+03  0.00000000000E+00 0.  1.
        -11    1    3    3    0    0 -0.23553794280E+02  0.93101601182E+02 -0.84943854610E+02  0.12821134039E+03  0.00000000000E+00 0. -1.
         22    1    1    2    0    0 -0.39692575513E+02 -0.16201462554E+03  0.44034954277E+02  0.17252048179E+03  0.00000000000E+00 0.  1.
<mgrwt>
<rscale>  0 0.41501003E+03</rscale>
<asrwt>0</asrwt>
<pdfrwt beam="1">  1        2 0.44706892E-01 0.41501003E+03</pdfrwt>
<pdfrwt beam="2">  1       -2 0.22795861E-01 0.41501003E+03</pdfrwt>
<totfact> 0.19074452E+03</totfact>
</mgrwt>
</event>
<event>
 6    1  0.1637818E-005  0.3255215E+04  0.7818608E-02  0.8174385E-01
          2   -1    0    0  501    0  0.00000000000E+00  0.00000000000E+00  0.20627347219E+04  0.20627347219E+04  0.00000000000E+00 0. -1.
         -2   -1    0    0    0  501 -0.00000000000E+00 -0.00000000000E+00 -0.12842692702E+04  0.12842692702E+04  0.00000000000E+00 0.  1.
         23    2    1    2    0    0 -0.51912940771E+03  0.83589827878E+03 -0.94168110596E+03  0.13653063728E+04  0.95272828051E+02 0.  0.
         11    1    3    3    0    0 -0.14027625173E+03  0.30799682928E+03 -0.30487486055E+03  0.45550867637E+03  0.00000000000E+00 0. -1.
        -11    1    3    3    0    0 -0.37885315598E+03  0.52790144950E+03 -0.63680624541E+03  0.90979769640E+03  0.00000000000E+00 0.  1.
         22    1    1    2    0    0  0.51912940771E+03 -0.83589827878E+03  0.17201465576E+04  0.19816976193E+04  0.00000000000E+00 0. -1.
<mgrwt>
<rscale>  0 0.32552154E+04</rscale>
<asrwt>0</asrwt>
<pdfrwt beam="1">  1        2 0.31734380E+00 0.32552154E+04</pdfrwt>
<pdfrwt beam="2">  1       -2 0.19757989E+00 0.32552154E+04</pdfrwt>
<totfact> 0.71300982E-01</totfact>
</mgrwt>
</event>
<event>
 6    1  0.1637818E-005  0.1722744E+04  0.7818608E-02  0.8748498E-01
         -2   -1    0    0    0  501 -0.00000000000E+00  0.00000000000E+00  0.89752715382E+03  0.89752715382E+03  0.00000000000E+00 0. -1.
          2   -1    0    0  501    0  0.00000000000E+00 -0.00000000000E+00 -0.82667317711E+03  0.82667317711E+03  0.00000000000E+00 0.  1.
         23    2    1    2    0    0  0.66627630213E+03  0.40595023710E+03 -0.32522518832E+03  0.84921552492E+03  0.81706051553E+02 0.  0.
         13    1    3    3    0    0  0.46534557149E+03  0.32453350411E+03 -0.22409567725E+03  0.60998964644E+03  0.00000000000E+00 0.  1.
        -13    1    3    3    0    0  0.20093073064E+03  0.81416732990E+02 -0.10112951106E+03  0.23922587848E+03  0.00000000000E+00 0. -1.
         22    1    1    2    0    0 -0.66627630213E+03 -0.40595023710E+03  0.39607916502E+03  0.87498480601E+03  0.00000000000E+00 0.  1.
<mgrwt>
<rscale>  0 0.17227439E+04</rscale>
<asrwt>0</asrwt>
<pdfrwt beam="1">  1        2 0.12718049E+00 0.17227439E+04</pdfrwt>
<pdfrwt beam="2">  1       -2 0.13808110E+00 0.17227439E+04</pdfrwt>
<totfact> 0.11652498E+01</totfact>
</mgrwt>
</event>
<event>
 6    1  0.1637818E-005  0.2032292E+04  0.7818608E-02  0.8591670E-01
          1   -1    0    0  501    0  0.00000000000E+00  0.00000000000E+00  0.18695682686E+04  0.18695682686E+04  0.00000000000E+00 0. -1.
         -1   -1    0    0    0  501 -0.00000000000E+00 -0.00000000000E+00 -0.55229459308E+03  0.55229459308E+03  0.00000000000E+00 0.  1.
         23    2    1    2    0    0  0.94405709036E+03 -0.36513836931E+03  0.73618334754E+03  0.12547142902E+04  0.88160139923E+02 0.  0.
         11    1    3    3    0    0  0.38305462995E+03 -0.11107909820E+03  0.32125787626E+03  0.51212892775E+03  0.00000000000E+00 0. -1.
        -11    1    3    3    0    0  0.56100246041E+03 -0.25405927111E+03  0.41492547128E+03  0.74258536246E+03  0.00000000000E+00 0.  1.
         22    1    1    2    0    0 -0.94405709036E+03  0.36513836931E+03  0.58109032800E+03  0.11671485715E+04  0.00000000000E+00 0. -1.
<mgrwt>
<rscale>  0 0.20322918E+04</rscale>
<asrwt>0</asrwt>
<pdfrwt beam="1">  1        1 0.28762588E+00 0.20322918E+04</pdfrwt>
<pdfrwt beam="2">  1       -1 0.84968400E-01 0.20322918E+04</pdfrwt>
<totfact> 0.46308506E+00</totfact>
</mgrwt>
</event>
<event>
 6    1  0.1637818E-005  0.4549281E+04  0.7818608E-02  0.7902066E-01
          2   -1    0    0  501    0  0.00000000000E+00  0.00000000000E+00  0.48757439014E+04  0.48757439014E+04  0.00000000000E+00 0.  1.
         -2   -1    0    0    0  501 -0.00000000000E+00 -0.00000000000E+00 -0.10611690293E+04  0.10611690293E+04  0.00000000000E+00 0. -1.
         23    2    1    2    0    0  0.13060620199E+04 -0.22125263317E+03  0.43197389040E+04  0.45191889002E+04  0.90406804289E+02 0.  0.
         11    1    3    3    0    0  0.10075598876E+04 -0.16155246345E+03  0.34479529471E+04  0.35957830373E+04  0.00000000000E+00 0.  1.
        -11    1    3    3    0    0  0.29850213227E+03 -0.59700169713E+02  0.87178595684E+03  0.92340586298E+03  0.00000000000E+00 0. -1.
         22    1    1    2    0    0 -0.13060620199E+04  0.22125263317E+03 -0.50516403190E+03  0.14177240305E+04  0.00000000000E+00 0. -1.
<mgrwt>
<rscale>  0 0.45492806E+04</rscale>
<asrwt>0</asrwt>
<pdfrwt beam="1">  1        2 0.75011443E+00 0.45492806E+04</pdfrwt>
<pdfrwt beam="2">  1       -2 0.16325678E+00 0.45492806E+04</pdfrwt>
<totfact> 0.86397971E-03</totfact>
</mgrwt>
</event>
<event>
 6    1  0.1637818E-005  0.1033035E+04  0.7818608E-02  0.9273036E-01
          2   -1    0    0  501    0  0.00000000000E+00  0.00000000000E+00  0.20242709794E+03  0.20242709794E+03  0.00000000000E+00 0. -1.
         -2   -1    0    0    0  501 -0.00000000000E+00 -0.00000000000E+00 -0.13179585854E+04  0.13179585854E+04  0.00000000000E+00 0.  1.
         23    2    1    2    0    0  0.34743615913E+03 -0.57056042382E+01 -0.78914658250E+01  0.35951925859E+03  0.91909648435E+02 0.  0.
         11    1    3    3    0    0  0.97689070658E+02  0.33220037610E+02  0.20394262524E+02  0.10517913942E+03  0.00000000000E+00 0.  1.
        -11    1    3    3    0    0  0.24974708847E+03 -0.38925641848E+02 -0.28285728349E+02  0.25434011917E+03  0.00000000000E+00 0. -1.
         22    1    1    2    0    0 -0.34743615913E+03  0.57056042382E+01 -0.11076400217E+04  0.11608664248E+04  0.00000000000E+00 0.  1.
<mgrwt>
<rscale>  0 0.10330354E+04</rscale>
<asrwt>0</asrwt>
<pdfrwt beam="1">  1        2 0.31142629E-01 0.10330354E+04</pdfrwt>
<pdfrwt beam="2">  1       -2 0.20276287E+00 0.10330354E+04</pdfrwt>
<totfact> 0.21719483E+01</totfact>
</mgrwt>
</event>
<event>
 6    1  0.1637818E-005  0.1443038E+04  0.7818608E-02  0.8923241E-01
         -2   -1    0    0    0  501 -0.00000000000E+00  0.00000000000E+00  0.20286943370E+03  0.20286943370E+03  0.00000000000E+00 0.  1.
          2   -1    0    0  501    0  0.00000000000E+00 -0.00000000000E+00 -0.25661313682E+04  0.25661313682E+04  0.00000000000E+00 0. -1.
         23    2    1    2    0    0  0.25533070473E+03 -0.41496237194E+03 -0.21999406370E+04  0.22551317669E+04  0.92157152475E+02 0.  0.
         13    1    3    3    0    0  0.12516366666E+03 -0.25484715552E+03 -0.11033748546E+04  0.11393195714E+04  0.00000000000E+00 0.  1.
        -13    1    3    3    0    0  0.13016703807E+03 -0.16011521642E+03 -0.10965657825E+04  0.11158121955E+04  0.00000000000E+00 0. -1.
         22    1    1    2    0    0 -0.25533070473E+03  0.41496237194E+03 -0.16332129744E+03  0.51386903497E+03  0.00000000000E+00 0.  1.
<mgrwt>
<rscale>  0 0.14430379E+04</rscale>
<asrwt>0</asrwt>
<pdfrwt beam="1">  1        2 0.39478945E+00 0.14430379E+04</pdfrwt>
<pdfrwt beam="2">  1       -2 0.31210681E-01 0.14430379E+04</pdfrwt>
<totfact> 0.29543053E+01</totfact>
</mgrwt>
</event>
<event>
 6    1  0.1637818E-005  0.8057019E+03  0.7818608E-02  0.9551800E-01
          2   -1    0    0  501    0  0.00000000000E+00  0.00000000000E+00  0.16859862989E+04  0.16859862989E+04  0.00000000000E+00 0. -1.
         -2   -1    0    0    0  501 -0.00000000000E+00 -0.00000000000E+00 -0.96257541102E+02  0.96257541102E+02  0.00000000000E+00 0.  1.
         23    2    1    2    0    0 -0.45555037139E+02  0.39306708367E+03  0.89137414614E+03  0.97957569107E+03  0.91889457847E+02 0.  0.
         11    1    3    3    0    0 -0.23803966230E+02  0.20036682715E+03  0.34331690056E+03  0.39822102963E+03  0.00000000000E+00 0. -1.
        -11    1    3    3    0    0 -0.21751070909E+02  0.19270025652E+03  0.54805724558E+03  0.58135466144E+03  0.00000000000E+00 0.  1.
         22    1    1    2    0    0  0.45555037139E+02 -0.39306708367E+03  0.69835461161E+03  0.80266814888E+03  0.00000000000E+00 0.  1.
<mgrwt>
<rscale>  0 0.80570192E+03</rscale>
<asrwt>0</asrwt>
<pdfrwt beam="1">  1        2 0.25938249E+00 0.80570192E+03</pdfrwt>
<pdfrwt beam="2">  1       -2 0.14808854E-01 0.80570192E+03</pdfrwt>
<totfact> 0.36200996E+02</totfact>
</mgrwt>
</event>
<event>
 6    1  0.1637818E-005  0.1194703E+04  0.7818608E-02  0.9117505E-01
         -2   -1    0    0    0  501 -0.00000000000E+00  0.00000000000E+00  0.39424939143E+03  0.39424939143E+03  0.00000000000E+00 0.  1.
          2   -1    0    0  501    0  0.00000000000E+00 -0.00000000000E+00 -0.90508432735E+03  0.90508432735E+03  0.00000000000E+00 0. -1.
         23    2    1    2    0    0 -0.35473375512E+03 -0.42217043106E+03 -0.49670179982E+03  0.74773272583E+03  0.91255911862E+02 0.  0.
         13    1    3    3    0    0 -0.34625615766E+03 -0.39754478297E+03 -0.44523004993E+03  0.69004708429E+03  0.00000000000E+00 0. -1.
        -13    1    3    3    0    0 -0.84775974592E+01 -0.24625648093E+02 -0.51471749889E+02  0.57685641535E+02  0.00000000000E+00 0.  1.
         22    1    1    2    0    0  0.35473375512E+03  0.42217043106E+03 -0.14133136101E+02  0.55160099295E+03  0.00000000000E+00 0.  1.
<mgrwt>
<rscale>  0 0.11947032E+04</rscale>
<asrwt>0</asrwt>
<pdfrwt beam="1">  1        2 0.13924374E+00 0.11947032E+04</pdfrwt>
<pdfrwt beam="2">  1       -2 0.60653753E-01 0.11947032E+04</pdfrwt>
<totfact> 0.72695935E+01</totfact>
</mgrwt>
</event>
<event>
 6    1  0.1637818E-005  0.2031169E+04  0.7818608E-02  0.8592185E-01
         -1   -1    0    0    0  501 -0.00000000000E+00  0.00000000000E+00  0.14284731767E+04  0.14284731767E+04  0.00000000000E+00 0.  1.
          1   -1    0    0  501    0  0.00000000000E+00 -0.00000000000E+00 -0.72203793873E+03  0.72203793873E+03  0.00000000000E+00 0. -1.
         23    2    1    2    0    0  0.98360499359E+03 -0.12283407149E+03  0.57778788766E+03  0.11509526462E+04  0.91028337520E+02 0.  0.
         13    1    3    3    0    0  0.35493279610E+03 -0.41701292110E+01  0.22675087441E+03  0.42120142304E+03  0.00000000000E+00 0.  1.
        -13    1    3    3    0    0  0.62867219749E+03 -0.11866394228E+03  0.35103701325E+03  0.72975122320E+03  0.00000000000E+00 0. -1.
         22    1    1    2    0    0 -0.98360499359E+03  0.12283407149E+03  0.12864735029E+03  0.99955846916E+03  0.00000000000E+00 0.  1.
<mgrwt>
<rscale>  0 0.20311690E+04</rscale>
<asrwt>0</asrwt>
<pdfrwt beam="1">  1        1 0.11108276E+00 0.20311690E+04</pdfrwt>
<pdfrwt beam="2">  1       -1 0.21976510E+00 0.20311690E+04</pdfrwt>
<totfact> 0.26544551E+00</totfact>
</mgrwt>
</event>
<event>
 6    1  0.1637818E-005  0.4958941E+04  0.7818608E-02  0.7834872E-01
         -2   -1    0    0    0  501 -0.00000000000E+00  0.00000000000E+00  0.19928128921E+04  0.19928128921E+04  0.00000000000E+00 0. -1.
          2   -1    0    0  501    0  0.00000000000E+00 -0.00000000000E+00 -0.30849724508E+04  0.30849724508E+04  0.00000000000E+00 0.  1.
         23    2    1    2    0    0 -0.37103873624E+03  0.22765275150E+04  0.38286290722E+03  0.23399141726E+04  0.91471630439E+02 0.  0.
         11    1    3    3    0    0 -0.23661736618E+03  0.15821102994E+04  0.22829459372E+03  0.16159143538E+04  0.00000000000E+00 0.  1.
        -11    1    3    3    0    0 -0.13442137006E+03  0.69441721560E+03  0.15456831350E+03  0.72399981877E+03  0.00000000000E+00 0. -1.
         22    1    1    2    0    0  0.37103873624E+03 -0.22765275150E+04 -0.14750224659E+04  0.27378711703E+04  0.00000000000E+00 0. -1.
<mgrwt>
<rscale>  0 0.49589406E+04</rscale>
<asrwt>0</asrwt>
<pdfrwt beam="1">  1        2 0.47461114E+00 0.49589406E+04</pdfrwt>
<pdfrwt beam="2">  1       -2 0.30658660E+00 0.49589406E+04</pdfrwt>
<totfact> 0.32521450E-02</totfact>
</mgrwt>
</event>
<event>
 6    1  0.1637818E-005  0.3666090E+04  0.7818608E-02  0.8075519E-01
          2   -1    0    0  501    0  0.00000000000E+00  0.00000000000E+00  0.30968773504E+04  0.30968773504E+04  0.00000000000E+00 0. -1.
         -2   -1    0    0    0  501 -0.00000000000E+00 -0.00000000000E+00 -0.10849812300E+04  0.10849812300E+04  0.00000000000E+00 0.  1.
         23    2    1    2    0    0 -0.99361209952E+03  0.11175082106E+04  0.22137091012E+04  0.26729456988E+04  0.89672283795E+02 0.  0.
         13    1    3    3    0    0 -0.49776632988E+03  0.60925132571E+03  0.11091419511E+04  0.13598361536E+04  0.00000000000E+00 0.  1.
        -13    1    3    3    0    0 -0.49584576964E+03  0.50825688493E+03  0.11045671501E+04  0.13131095451E+04  0.00000000000E+00 0. -1.
         22    1    1    2    0    0  0.99361209952E+03 -0.11175082106E+04 -0.20181298075E+03  0.15089128816E+04  0.00000000000E+00 0.  1.
<mgrwt>
<rscale>  0 0.36660899E+04</rscale>
<asrwt>0</asrwt>
<pdfrwt beam="1">  1        2 0.47644267E+00 0.36660899E+04</pdfrwt>
<pdfrwt beam="2">  1       -2 0.16692019E+00 0.36660899E+04</pdfrwt>
<totfact> 0.27457223E-01</totfact>
</mgrwt>
</event>
<event>
 6    1  0.1637818E-005  0.5304284E+03  0.7818608E-02  0.1006128E+00
          4   -1    0    0  501    0  0.00000000000E+00  0.00000000000E+00  0.36725941555E+03  0.36725941555E+03  0.00000000000E+00 0. -1.
         -4   -1    0    0    0  501 -0.00000000000E+00 -0.00000000000E+00 -0.19152285146E+03  0.19152285146E+03  0.00000000000E+00 0.  1.
         23    2    1    2    0    0 -0.16129648748E+03  0.16500379104E+03 -0.29458943765E+02  0.24999754528E+03  0.91586764055E+02 0.  0.
         11    1    3    3    0    0 -0.82792718077E+02  0.23472052455E+02 -0.16596505218E+02  0.87641402308E+02  0.00000000000E+00 0.  1.
        -11    1    3    3    0    0 -0.78503769402E+02  0.14153173858E+03 -0.12862438547E+02  0.16235614297E+03  0.00000000000E+00 0. -1.
         22    1    1    2    0    0  0.16129648748E+03 -0.16500379104E+03  0.20519550785E+03  0.30878472173E+03  0.00000000000E+00 0.  1.
<mgrwt>
<rscale>  0 0.53042839E+03</rscale>
<asrwt>0</asrwt>
<pdfrwt beam="1">  1        4 0.56501449E-01 0.53042839E+03</pdfrwt>
<pdfrwt beam="2">  1       -4 0.29465054E-01 0.53042839E+03</pdfrwt>
<totfact> 0.64937260E+01</totfact>
</mgrwt>
</event>
<event>
 6    1  0.1637818E-005  0.2699273E+04  0.7818608E-02  0.8335241E-01
         -1   -1    0    0    0  501 -0.00000000000E+00  0.00000000000E+00  0.15526765531E+04  0.15526765531E+04  0.00000000000E+00 0.  1.
          1   -1    0    0  501    0  0.00000000000E+00 -0.00000000000E+00 -0.11731473507E+04  0.11731473507E+04  0.00000000000E+00 0. -1.
         23    2    1    2    0    0  0.95970921080E+03  0.91406872181E+03  0.43883362855E+03  0.13991436814E+04  0.92003751353E+02 0.  0.
         13    1    3    3    0    0  0.66452151809E+03  0.62054915618E+03  0.25665340154E+03  0.94474391862E+03  0.00000000000E+00 0. -1.
        -13    1    3    3    0    0  0.29518769271E+03  0.29351956563E+03  0.18218022701E+03  0.45439976281E+03  0.00000000000E+00 0.  1.
         22    1    1    2    0    0 -0.95970921080E+03 -0.91406872181E+03 -0.59304426221E+02  0.13266802224E+04  0.00000000000E+00 0.  1.
<mgrwt>
<rscale>  0 0.26992728E+04</rscale>
<asrwt>0</asrwt>
<pdfrwt beam="1">  1        1 0.18048421E+00 0.26992728E+04</pdfrwt>
<pdfrwt beam="2">  1       -1 0.23887332E+00 0.26992728E+04</pdfrwt>
<totfact> 0.80526042E-01</totfact>
</mgrwt>
</event>
<event>
 6    1  0.1637818E-005  0.1822584E+04  0.7818608E-02  0.8694381E-01
         -1   -1    0    0    0  501 -0.00000000000E+00  0.00000000000E+00  0.35837155160E+03  0.35837155160E+03  0.00000000000E+00 0.  1.
          1   -1    0    0  501    0  0.00000000000E+00 -0.00000000000E+00 -0.23172973360E+04  0.23172973360E+04  0.00000000000E+00 0. -1.
         23    2    1    2    0    0 -0.57334294071E+03  0.44850071453E+03 -0.17812448756E+04  0.19263722014E+04  0.90562314509E+02 0.  0.
         13    1    3    3    0    0 -0.42469082410E+03  0.33555445782E+03 -0.14217067190E+04  0.15212524725E+04  0.00000000000E+00 0.  1.
        -13    1    3    3    0    0 -0.14865211662E+03  0.11294625671E+03 -0.35953815660E+03  0.40511972888E+03  0.00000000000E+00 0. -1.
         22    1    1    2    0    0  0.57334294071E+03 -0.44850071453E+03 -0.17768090878E+03  0.74929668620E+03  0.00000000000E+00 0.  1.
<mgrwt>
<rscale>  0 0.18225844E+04</rscale>
<asrwt>0</asrwt>
<pdfrwt beam="1">  1        1 0.35650727E+00 0.18225844E+04</pdfrwt>
<pdfrwt beam="2">  1       -1 0.55134087E-01 0.18225844E+04</pdfrwt>
<totfact> 0.56748058E+00</totfact>
</mgrwt>
</event>
<event>
 6    1  0.1637818E-005  0.1600473E+04  0.7818608E-02  0.8820257E-01
         -2   -1    0    0    0  501 -0.00000000000E+00  0.00000000000E+00  0.27561060758E+03  0.27561060758E+03  0.00000000000E+00 0.  1.
          2   -1    0    0  501    0  0.00000000000E+00 -0.00000000000E+00 -0.23234905985E+04  0.23234905985E+04  0.00000000000E+00 0. -1.
         23    2    1    2    0    0  0.10049323454E+03 -0.57529926853E+03 -0.14526030354E+03  0.60886759833E+03  0.92471930650E+02 0.  0.
         11    1    3    3    0    0  0.46733722618E+02 -0.14636261430E+03 -0.26702791393E+01  0.15366582602E+03  0.00000000000E+00 0. -1.
        -11    1    3    3    0    0  0.53759511926E+02 -0.42893665423E+03 -0.14259002440E+03  0.45520177232E+03  0.00000000000E+00 0.  1.
         22    1    1    2    0    0 -0.10049323454E+03  0.57529926853E+03 -0.19026196873E+04  0.19902336077E+04  0.00000000000E+00 0. -1.
<mgrwt>
<rscale>  0 0.16004732E+04</rscale>
<asrwt>0</asrwt>
<pdfrwt beam="1">  1        2 0.35746011E+00 0.16004732E+04</pdfrwt>
<pdfrwt beam="2">  1       -2 0.42401629E-01 0.16004732E+04</pdfrwt>
<totfact> 0.22253740E+01</totfact>
</mgrwt>
</event>
<event>
 6    1  0.1637818E-005  0.7971464E+03  0.7818608E-02  0.9564157E-01
         -2   -1    0    0    0  501 -0.00000000000E+00  0.00000000000E+00  0.72617475496E+02  0.72617475496E+02  0.00000000000E+00 0.  1.
          2   -1    0    0  501    0  0.00000000000E+00 -0.00000000000E+00 -0.21876360513E+04  0.21876360513E+04  0.00000000000E+00 0. -1.
         23    2    1    2    0    0 -0.30757862563E+03  0.16093425468E+03 -0.54932989572E+03  0.65654361281E+03  0.93710916751E+02 0.  0.
         13    1    3    3    0    0 -0.27685838296E+03  0.11926647760E+03 -0.41786714339E+03  0.51525528277E+03  0.00000000000E+00 0.  1.
        -13    1    3    3    0    0 -0.30720242665E+02  0.41667777074E+02 -0.13146275233E+03  0.14128833004E+03  0.00000000000E+00 0. -1.
         22    1    1    2    0    0  0.30757862563E+03 -0.16093425468E+03 -0.15656886801E+04  0.16037099140E+04  0.00000000000E+00 0. -1.
<mgrwt>
<rscale>  0 0.79714643E+03</rscale>
<asrwt>0</asrwt>
<pdfrwt beam="1">  1        2 0.33655940E+00 0.79714643E+03</pdfrwt>
<pdfrwt beam="2">  1       -2 0.11171919E-01 0.79714643E+03</pdfrwt>
<totfact> 0.30786040E+02</totfact>
</mgrwt>
</event>
<event>
 6    1  0.1637818E-005  0.1009004E+04  0.7818608E-02  0.9298724E-01
         -1   -1    0    0    0  501 -0.00000000000E+00  0.00000000000E+00  0.23303185484E+03  0.23303185484E+03  0.00000000000E+00 0.  1.
          1   -1    0    0  501    0  0.00000000000E+00 -0.00000000000E+00 -0.10922203755E+04  0.10922203755E+04  0.00000000000E+00 0. -1.
         23    2    1    2    0    0  0.70341645855E+02  0.49381317319E+03 -0.48437606466E+03  0.70132613350E+03  0.91862812727E+02 0.  0.
         11    1    3    3    0    0 -0.78845992195E+00  0.31131468098E+03 -0.29683320184E+03  0.43014811632E+03  0.00000000000E+00 0. -1.
        -11    1    3    3    0    0  0.71130105777E+02  0.18249849222E+03 -0.18754286282E+03  0.27117801719E+03  0.00000000000E+00 0.  1.
         22    1    1    2    0    0 -0.70341645855E+02 -0.49381317319E+03 -0.37481245602E+03  0.62392609687E+03  0.00000000000E+00 0. -1.
<mgrwt>
<rscale>  0 0.10090037E+04</rscale>
<asrwt>0</asrwt>
<pdfrwt beam="1">  1        1 0.16803390E+00 0.10090037E+04</pdfrwt>
<pdfrwt beam="2">  1       -1 0.35851055E-01 0.10090037E+04</pdfrwt>
<totfact> 0.95604431E+01</totfact>
</mgrwt>
</event>
<event>
 6    1  0.1637818E-005  0.2474168E+04  0.7818608E-02  0.8412247E-01
          2   -1    0    0  501    0  0.00000000000E+00  0.00000000000E+00  0.17724559895E+04  0.17724559895E+04  0.00000000000E+00 0.  1.
         -2   -1    0    0    0  501 -0.00000000000E+00 -0.00000000000E+00 -0.86342158558E+03  0.86342158558E+03  0.00000000000E+00 0. -1.
         23    2    1    2    0    0  0.25148624079E+02 -0.94173052139E+03  0.13065108391E+04  0.16133921988E+04  0.92601221034E+02 0.  0.
         11    1    3    3    0    0 -0.26272428062E+02 -0.48661875178E+03  0.71524035788E+03  0.86548068702E+03  0.00000000000E+00 0. -1.
        -11    1    3    3    0    0  0.51421052141E+02 -0.45511176962E+03  0.59127048123E+03  0.74791151176E+03  0.00000000000E+00 0.  1.
         22    1    1    2    0    0 -0.25148624079E+02  0.94173052139E+03 -0.39747643520E+03  0.10224853763E+04  0.00000000000E+00 0. -1.
<mgrwt>
<rscale>  0 0.24741679E+04</rscale>
<asrwt>0</asrwt>
<pdfrwt beam="1">  1        2 0.27268554E+00 0.24741679E+04</pdfrwt>
<pdfrwt beam="2">  1       -2 0.13283409E+00 0.24741679E+04</pdfrwt>
<totfact> 0.32848773E+00</totfact>
</mgrwt>
</event>
<event>
 6    1  0.1637818E-005  0.4498022E+04  0.7818608E-02  0.7910983E-01
          2   -1    0    0  501    0  0.00000000000E+00  0.00000000000E+00  0.43260174575E+04  0.43260174575E+04  0.00000000000E+00 0. -1.
         -2   -1    0    0    0  501 -0.00000000000E+00 -0.00000000000E+00 -0.11692165996E+04  0.11692165996E+04  0.00000000000E+00 0.  1.
         23    2    1    2    0    0  0.16564494855E+04 -0.12105131401E+04  0.45612395154E+03  0.21036529047E+04  0.90219311795E+02 0.  0.
         11    1    3    3    0    0  0.12976427315E+04 -0.96018752523E+03  0.32205804553E+03  0.16460735485E+04  0.00000000000E+00 0. -1.
        -11    1    3    3    0    0  0.35880675394E+03 -0.25032561485E+03  0.13406590601E+03  0.45757935626E+03  0.00000000000E+00 0.  1.
         22    1    1    2    0    0 -0.16564494855E+04  0.12105131401E+04  0.27006769064E+04  0.33915811524E+04  0.00000000000E+00 0. -1.
<mgrwt>
<rscale>  0 0.44980224E+04</rscale>
<asrwt>0</asrwt>
<pdfrwt beam="1">  1        2 0.66554114E+00 0.44980224E+04</pdfrwt>
<pdfrwt beam="2">  1       -2 0.17987948E+00 0.44980224E+04</pdfrwt>
<totfact> 0.24566993E-02</totfact>
</mgrwt>
</event>
<event>
 6    1  0.1718906E-005  0.2663912E+04  0.7818608E-02  0.8346810E-01
          2   -1    0    0  501    0  0.00000000000E+00  0.00000000000E+00  0.14157480085E+04  0.14157480085E+04  0.00000000000E+00 0.  1.
         -2   -1    0    0    0  501 -0.00000000000E+00 -0.00000000000E+00 -0.12531230755E+04  0.12531230755E+04  0.00000000000E+00 0. -1.
         23    2    1    2    0    0  0.36273212761E+03  0.21622838792E+03 -0.11825498533E+04  0.12589687761E+04  0.90823519322E+02 0.  0.
         13    1    3    3    0    0  0.12850250598E+03  0.48610079921E+02 -0.49039441856E+03  0.50927646683E+03  0.00000000000E+00 0. -1.
        -13    1    3    3    0    0  0.23422962163E+03  0.16761830800E+03 -0.69215543472E+03  0.74969230931E+03  0.00000000000E+00 0.  1.
         22    1    1    2    0    0 -0.36273212761E+03 -0.21622838792E+03  0.13451747863E+04  0.14099023079E+04  0.00000000000E+00 0.  1.
<mgrwt>
<rscale>  0 0.26639118E+04</rscale>
<asrwt>0</asrwt>
<pdfrwt beam="1">  1        2 0.21780738E+00 0.26639118E+04</pdfrwt>
<pdfrwt beam="2">  1       -2 0.19278817E+00 0.26639118E+04</pdfrwt>
<totfact> 0.18518708E+00</totfact>
</mgrwt>
</event>
<event>
 6    1  0.1637818E-005  0.4164329E+04  0.7818608E-02  0.7972192E-01
          2   -1    0    0  501    0  0.00000000000E+00  0.00000000000E+00  0.23056625081E+04  0.23056625081E+04  0.00000000000E+00 0. -1.
         -2   -1    0    0    0  501 -0.00000000000E+00 -0.00000000000E+00 -0.18803312046E+04  0.18803312046E+04  0.00000000000E+00 0.  1.
         23    2    1    2    0    0  0.11025554550E+04  0.42549251551E+03 -0.15091781964E+04  0.19190575827E+04  0.92145347435E+02 0.  0.
         11    1    3    3    0    0  0.47600676649E+03  0.13881547594E+03 -0.66029767912E+03  0.82573918592E+03  0.00000000000E+00 0.  1.
        -11    1    3    3    0    0  0.62654868851E+03  0.28667703958E+03 -0.84888051732E+03  0.10933183968E+04  0.00000000000E+00 0. -1.
         22    1    1    2    0    0 -0.11025554550E+04 -0.42549251551E+03  0.19345094999E+04  0.22669361300E+04  0.00000000000E+00 0. -1.
<mgrwt>
<rscale>  0 0.41643291E+04</rscale>
<asrwt>0</asrwt>
<pdfrwt beam="1">  1        2 0.35471731E+00 0.41643291E+04</pdfrwt>
<pdfrwt beam="2">  1       -2 0.28928172E+00 0.41643291E+04</pdfrwt>
<totfact> 0.12949616E-01</totfact>
</mgrwt>
</event>
<event>
 6    1  0.1637818E-005  0.6275958E+04  0.7818608E-02  0.7657097E-01
         -1   -1    0    0    0  501 -0.00000000000E+00  0.00000000000E+00  0.55866221864E+04  0.55866221864E+04  0.00000000000E+00 0.  1.
          1   -1    0    0  501    0  0.00000000000E+00 -0.00000000000E+00 -0.17625878081E+04  0.17625878081E+04  0.00000000000E+00 0. -1.
         23    2    1    2    0    0  0.98956743063E+03  0.21934795073E+04 -0.44459993339E+03  0.24490227598E+04  0.97197367558E+02 0.  0.
         13    1    3    3    0    0  0.55080201158E+03  0.13322507770E+04 -0.27953830561E+03  0.14684742603E+04  0.00000000000E+00 0.  1.
        -13    1    3    3    0    0  0.43876541905E+03  0.86122873029E+03 -0.16506162778E+03  0.98054849946E+03  0.00000000000E+00 0. -1.
         22    1    1    2    0    0 -0.98956743063E+03 -0.21934795073E+04  0.42686343117E+04  0.49001872348E+04  0.00000000000E+00 0.  1.
<mgrwt>
<rscale>  0 0.62759580E+04</rscale>
<asrwt>0</asrwt>
<pdfrwt beam="1">  1        1 0.27116736E+00 0.62759580E+04</pdfrwt>
<pdfrwt beam="2">  1       -1 0.85948033E+00 0.62759580E+04</pdfrwt>
<totfact> 0.67601886E-05</totfact>
</mgrwt>
</event>
<event>
 6    1  0.1637818E-005  0.3119155E+04  0.7818608E-02  0.8210501E-01
          1   -1    0    0  501    0  0.00000000000E+00  0.00000000000E+00  0.23458690636E+04  0.23458690636E+04  0.00000000000E+00 0. -1.
         -1   -1    0    0    0  501 -0.00000000000E+00 -0.00000000000E+00 -0.10368360277E+04  0.10368360277E+04  0.00000000000E+00 0.  1.
         23    2    1    2    0    0 -0.14367389401E+04  0.60093797494E+03  0.71093033387E+03  0.17144508919E+04  0.92599619119E+02 0.  0.
         11    1    3    3    0    0 -0.89861146484E+03  0.42366578127E+03  0.45944485055E+03  0.10945706143E+04  0.00000000000E+00 0. -1.
        -11    1    3    3    0    0 -0.53812747525E+03  0.17727219367E+03  0.25148548333E+03  0.61988027763E+03  0.00000000000E+00 0.  1.
         22    1    1    2    0    0  0.14367389401E+04 -0.60093797494E+03  0.59810270207E+03  0.16682541994E+04  0.00000000000E+00 0.  1.
<mgrwt>
<rscale>  0 0.31191547E+04</rscale>
<asrwt>0</asrwt>
<pdfrwt beam="1">  1        1 0.36090293E+00 0.31191547E+04</pdfrwt>
<pdfrwt beam="2">  1       -1 0.15951324E+00 0.31191547E+04</pdfrwt>
<totfact> 0.42971732E-01</totfact>
</mgrwt>
</event>
<event>
 6    1  0.1637818E-005  0.1827777E+04  0.7818608E-02  0.8691666E-01
         -2   -1    0    0    0  501 -0.00000000000E+00  0.00000000000E+00  0.52982907512E+03  0.52982907512E+03  0.00000000000E+00 0.  1.
          2   -1    0    0  501    0  0.00000000000E+00 -0.00000000000E+00 -0.15763431211E+04  0.15763431211E+04  0.00000000000E+00 0. -1.
         23    2    1    2    0    0  0.22934651648E+03 -0.16875228417E+03 -0.15221396748E+04  0.15518285331E+04  0.10092298344E+03 0.  0.
         13    1    3    3    0    0  0.53621277427E+02 -0.10278219241E+02 -0.48359850865E+03  0.48667073135E+03  0.00000000000E+00 0. -1.
        -13    1    3    3    0    0  0.17572523906E+03 -0.15847406493E+03 -0.10385411661E+04  0.10651578018E+04  0.00000000000E+00 0.  1.
         22    1    1    2    0    0 -0.22934651648E+03  0.16875228417E+03  0.47562562881E+03  0.55434366310E+03  0.00000000000E+00 0.  1.
<mgrwt>
<rscale>  0 0.18277772E+04</rscale>
<asrwt>0</asrwt>
<pdfrwt beam="1">  1        2 0.24251432E+00 0.18277772E+04</pdfrwt>
<pdfrwt beam="2">  1       -2 0.81512167E-01 0.18277772E+04</pdfrwt>
<totfact> 0.14351356E+01</totfact>
</mgrwt>
</event>
<event>
 6    1  0.2941077E-005  0.3170551E+04  0.7818608E-02  0.8196638E-01
          2   -1    0    0  501    0  0.00000000000E+00  0.00000000000E+00  0.26371184251E+04  0.26371184251E+04  0.00000000000E+00 0. -1.
         -2   -1    0    0    0  501 -0.00000000000E+00 -0.00000000000E+00 -0.95297115043E+03  0.95297115043E+03  0.00000000000E+00 0.  1.
         23    2    1    2    0    0 -0.56412257381E+03  0.34718276182E+02 -0.83272295319E+03  0.10105401224E+04  0.91236973463E+02 0.  0.
         11    1    3    3    0    0 -0.25140555281E+03  0.41878318627E+02 -0.43979952063E+03  0.50831305698E+03  0.00000000000E+00 0. -1.
        -11    1    3    3    0    0 -0.31271702100E+03 -0.71600424446E+01 -0.39292343257E+03  0.50222706547E+03  0.00000000000E+00 0.  1.
         22    1    1    2    0    0  0.56412257381E+03 -0.34718276182E+02  0.25168702279E+04  0.25795494531E+04  0.00000000000E+00 0. -1.
<mgrwt>
<rscale>  0 0.31705506E+04</rscale>
<asrwt>0</asrwt>
<pdfrwt beam="1">  1        2 0.40571052E+00 0.31705506E+04</pdfrwt>
<pdfrwt beam="2">  1       -2 0.14661095E+00 0.31705506E+04</pdfrwt>
<totfact> 0.77721389E-01</totfact>
</mgrwt>
</event>
<event>
 6    1  0.1637818E-005  0.4594508E+03  0.7818608E-02  0.1024941E+00
         -2   -1    0    0    0  501 -0.00000000000E+00  0.00000000000E+00  0.59435776332E+02  0.59435776332E+02  0.00000000000E+00 0.  1.
          2   -1    0    0  501    0  0.00000000000E+00 -0.00000000000E+00 -0.88791243104E+03  0.88791243104E+03  0.00000000000E+00 0. -1.
         23    2    1    2    0    0  0.32056180518E+02 -0.16440491091E+03 -0.13514188982E+03  0.23406728820E+03  0.92019517396E+02 0.  0.
         13    1    3    3    0    0  0.36032960974E+02 -0.14615369036E+03 -0.14822802187E+03  0.21126008130E+03  0.00000000000E+00 0.  1.
        -13    1    3    3    0    0 -0.39767804560E+01 -0.18251220553E+02  0.13086132057E+02  0.22807206903E+02  0.00000000000E+00 0. -1.
         22    1    1    2    0    0 -0.32056180518E+02  0.16440491091E+03 -0.69333476489E+03  0.71328091917E+03  0.00000000000E+00 0. -1.
<mgrwt>
<rscale>  0 0.45945082E+03</rscale>
<asrwt>0</asrwt>
<pdfrwt beam="1">  1        2 0.13660190E+00 0.45945082E+03</pdfrwt>
<pdfrwt beam="2">  1       -2 0.91439663E-02 0.45945082E+03</pdfrwt>
<totfact> 0.23752627E+03</totfact>
</mgrwt>
</event>
<event>
 6    1  0.1637818E-005  0.3266649E+03  0.7818608E-02  0.1072622E+00
          1   -1    0    0  501    0  0.00000000000E+00  0.00000000000E+00  0.30485435666E+03  0.30485435666E+03  0.00000000000E+00 0. -1.
         -1   -1    0    0    0  501 -0.00000000000E+00 -0.00000000000E+00 -0.87508952250E+02  0.87508952250E+02  0.00000000000E+00 0.  1.
         23    2    1    2    0    0 -0.14682942431E+03 -0.27211489216E+02  0.13930988647E+03  0.22387328829E+03  0.91720552498E+02 0.  0.
         13    1    3    3    0    0 -0.97861915711E+02  0.23680182430E+02  0.10458163904E+03  0.14517239686E+03  0.00000000000E+00 0. -1.
        -13    1    3    3    0    0 -0.48967508603E+02 -0.50891671647E+02  0.34728247438E+02  0.78700891430E+02  0.00000000000E+00 0.  1.
         22    1    1    2    0    0  0.14682942431E+03  0.27211489216E+02  0.78035517938E+02  0.16849002062E+03  0.00000000000E+00 0.  1.
<mgrwt>
<rscale>  0 0.32666488E+03</rscale>
<asrwt>0</asrwt>
<pdfrwt beam="1">  1        1 0.46900670E-01 0.32666488E+03</pdfrwt>
<pdfrwt beam="2">  1       -1 0.13462916E-01 0.32666488E+03</pdfrwt>
<totfact> 0.32817406E+03</totfact>
</mgrwt>
</event>
<event>
 6    1  0.1637818E-005  0.4915952E+04  0.7818608E-02  0.7841605E-01
          2   -1    0    0  501    0  0.00000000000E+00  0.00000000000E+00  0.23290919403E+04  0.23290919403E+04  0.00000000000E+00 0. -1.
         -2   -1    0    0    0  501 -0.00000000000E+00 -0.00000000000E+00 -0.25939919454E+04  0.25939919454E+04  0.00000000000E+00 0.  1.
         23    2    1    2    0    0 -0.52394367941E+03 -0.28949178217E+03  0.22540538800E+04  0.23339815034E+04  0.91587625309E+02 0.  0.
         13    1    3    3    0    0 -0.31453914075E+03 -0.22366462946E+03  0.14576253114E+04  0.15078568520E+04  0.00000000000E+00 0.  1.
        -13    1    3    3    0    0 -0.20940453866E+03 -0.65827152717E+02  0.79642856854E+03  0.82612465139E+03  0.00000000000E+00 0. -1.
         22    1    1    2    0    0  0.52394367941E+03  0.28949178217E+03 -0.25189538851E+04  0.25891023824E+04  0.00000000000E+00 0.  1.
<mgrwt>
<rscale>  0 0.49159519E+04</rscale>
<asrwt>0</asrwt>
<pdfrwt beam="1">  1        2 0.35832183E+00 0.49159519E+04</pdfrwt>
<pdfrwt beam="2">  1       -2 0.39907569E+00 0.49159519E+04</pdfrwt>
<totfact> 0.24087849E-02</totfact>
</mgrwt>
</event>
<event>
 6    1  0.1637818E-005  0.6038608E+04  0.7818608E-02  0.7685633E-01
         -2   -1    0    0    0  501 -0.00000000000E+00  0.00000000000E+00  0.37706228050E+04  0.37706228050E+04  0.00000000000E+00 0.  1.
          2   -1    0    0  501    0  0.00000000000E+00 -0.00000000000E+00 -0.24176897519E+04  0.24176897519E+04  0.00000000000E+00 0. -1.
         23    2    1    2    0    0  0.13629543471E+04  0.96559629862E+03 -0.19000743250E+04  0.25315273888E+04  0.91256318149E+02 0.  0.
         13    1    3    3    0    0  0.57707407073E+03  0.39124805834E+03 -0.85794186874E+03  0.11055106406E+04  0.00000000000E+00 0. -1.
        -13    1    3    3    0    0  0.78588027632E+03  0.57434824028E+03 -0.10421324563E+04  0.14260167482E+04  0.00000000000E+00 0.  1.
         22    1    1    2    0    0 -0.13629543471E+04 -0.96559629862E+03  0.32530073780E+04  0.36567851681E+04  0.00000000000E+00 0.  1.
<mgrwt>
<rscale>  0 0.60386078E+04</rscale>
<asrwt>0</asrwt>
<pdfrwt beam="1">  1        2 0.37195227E+00 0.60386078E+04</pdfrwt>
<pdfrwt beam="2">  1       -2 0.58009582E+00 0.60386078E+04</pdfrwt>
<totfact> 0.16337554E-03</totfact>
</mgrwt>
</event>
<event>
 6    1  0.1637818E-005  0.2114376E+04  0.7818608E-02  0.8554937E-01
         -2   -1    0    0    0  501 -0.00000000000E+00  0.00000000000E+00  0.61343941718E+03  0.61343941718E+03  0.00000000000E+00 0.  1.
          2   -1    0    0  501    0  0.00000000000E+00 -0.00000000000E+00 -0.18219343318E+04  0.18219343318E+04  0.00000000000E+00 0. -1.
         23    2    1    2    0    0  0.54825096495E+03 -0.75896483070E+03 -0.11643825256E+04  0.14980623612E+04  0.10861600845E+03 0.  0.
         13    1    3    3    0    0  0.47355423081E+03 -0.66966064767E+03 -0.10700151728E+04  0.13481956321E+04  0.00000000000E+00 0.  1.
        -13    1    3    3    0    0  0.74696734143E+02 -0.89304183033E+02 -0.94367352836E+02  0.14986672906E+03  0.00000000000E+00 0. -1.
         22    1    1    2    0    0 -0.54825096495E+03  0.75896483070E+03 -0.44112389016E+02  0.93731138779E+03  0.00000000000E+00 0.  1.
<mgrwt>
<rscale>  0 0.21143759E+04</rscale>
<asrwt>0</asrwt>
<pdfrwt beam="1">  1        2 0.28029759E+00 0.21143759E+04</pdfrwt>
<pdfrwt beam="2">  1       -2 0.94375296E-01 0.21143759E+04</pdfrwt>
<totfact> 0.73095225E+00</totfact>
</mgrwt>
</event>
<event>
 6    1  0.1637818E-005  0.5207591E+04  0.7818608E-02  0.7797258E-01
          2   -1    0    0  501    0  0.00000000000E+00  0.00000000000E+00  0.37203444079E+04  0.37203444079E+04  0.00000000000E+00 0. -1.
         -2   -1    0    0    0  501 -0.00000000000E+00 -0.00000000000E+00 -0.18223451575E+04  0.18223451575E+04  0.00000000000E+00 0.  1.
         23    2    1    2    0    0 -0.15312456528E+03 -0.23696531252E+04 -0.18549217396E+03  0.23836328104E+04  0.92709015553E+02 0.  0.
         11    1    3    3    0    0 -0.10193568728E+03 -0.20456134745E+04 -0.17040186359E+03  0.20552280084E+04  0.00000000000E+00 0.  1.
        -11    1    3    3    0    0 -0.51188877991E+02 -0.32403965071E+03 -0.15090310370E+02  0.32840480192E+03  0.00000000000E+00 0. -1.
         22    1    1    2    0    0  0.15312456528E+03  0.23696531252E+04  0.20834914244E+04  0.31590567551E+04  0.00000000000E+00 0. -1.
<mgrwt>
<rscale>  0 0.52075912E+04</rscale>
<asrwt>0</asrwt>
<pdfrwt beam="1">  1        2 0.57236068E+00 0.52075912E+04</pdfrwt>
<pdfrwt beam="2">  1       -2 0.28036079E+00 0.52075912E+04</pdfrwt>
<totfact> 0.16865059E-02</totfact>
</mgrwt>
</event>
<event>
 6    1  0.1637818E-005  0.2551624E+04  0.7818608E-02  0.8384822E-01
         -1   -1    0    0    0  501 -0.00000000000E+00  0.00000000000E+00  0.58429029942E+03  0.58429029942E+03  0.00000000000E+00 0.  1.
          1   -1    0    0  501    0  0.00000000000E+00 -0.00000000000E+00 -0.27857661543E+04  0.27857661543E+04  0.00000000000E+00 0. -1.
         23    2    1    2    0    0  0.63462586491E+03  0.78748260306E+03 -0.21257123239E+04  0.23558479194E+04  0.92128695477E+02 0.  0.
         11    1    3    3    0    0  0.14369435748E+03  0.20896756872E+03 -0.45464936632E+03  0.52059731025E+03  0.00000000000E+00 0.  1.
        -11    1    3    3    0    0  0.49093150743E+03  0.57851503434E+03 -0.16710629576E+04  0.18352506091E+04  0.00000000000E+00 0. -1.
         22    1    1    2    0    0 -0.63462586491E+03 -0.78748260306E+03 -0.75763530947E+02  0.10142085344E+04  0.00000000000E+00 0.  1.
<mgrwt>
<rscale>  0 0.25516239E+04</rscale>
<asrwt>0</asrwt>
<pdfrwt beam="1">  1        1 0.42857941E+00 0.25516239E+04</pdfrwt>
<pdfrwt beam="2">  1       -1 0.89890814E-01 0.25516239E+04</pdfrwt>
<totfact> 0.91358461E-01</totfact>
</mgrwt>
</event>
<event>
 6    1  0.1637818E-005  0.5268775E+04  0.7818608E-02  0.7788333E-01
          1   -1    0    0  501    0  0.00000000000E+00  0.00000000000E+00  0.30854091335E+04  0.30854091335E+04  0.00000000000E+00 0. -1.
         -1   -1    0    0    0  501 -0.00000000000E+00 -0.00000000000E+00 -0.22492953507E+04  0.22492953507E+04  0.00000000000E+00 0.  1.
         23    2    1    2    0    0  0.18427903041E+03  0.17952627658E+04 -0.15244141688E+04  0.23633379015E+04  0.67825653181E+02 0.  0.
         11    1    3    3    0    0  0.97561937083E+02  0.82654408811E+03 -0.66199531710E+03  0.10634525194E+04  0.00000000000E+00 0.  1.
        -11    1    3    3    0    0  0.86717093324E+02  0.96871867764E+03 -0.86241885171E+03  0.12998853820E+04  0.00000000000E+00 0. -1.
         22    1    1    2    0    0 -0.18427903041E+03 -0.17952627658E+04  0.23605279515E+04  0.29713665828E+04  0.00000000000E+00 0. -1.
<mgrwt>
<rscale>  0 0.52687746E+04</rscale>
<asrwt>0</asrwt>
<pdfrwt beam="1">  1        1 0.47467833E+00 0.52687746E+04</pdfrwt>
<pdfrwt beam="2">  1       -1 0.34604544E+00 0.52687746E+04</pdfrwt>
<totfact> 0.60345054E-03</totfact>
</mgrwt>
</event>
<event>
 6    1  0.1637818E-005  0.1217607E+04  0.7818608E-02  0.9097584E-01
         -2   -1    0    0    0  501 -0.00000000000E+00  0.00000000000E+00  0.23854398498E+03  0.23854398498E+03  0.00000000000E+00 0.  1.
          2   -1    0    0  501    0  0.00000000000E+00 -0.00000000000E+00 -0.15537657381E+04  0.15537657381E+04  0.00000000000E+00 0. -1.
         23    2    1    2    0    0 -0.22569007013E+03 -0.12069458317E+03 -0.14689417103E+04  0.14937581942E+04  0.89557827502E+02 0.  0.
         13    1    3    3    0    0 -0.17748460019E+03 -0.11967554726E+03 -0.10190746793E+04  0.10413146604E+04  0.00000000000E+00 0. -1.
        -13    1    3    3    0    0 -0.48205469937E+02 -0.10190359086E+01 -0.44986703098E+03  0.45244353386E+03  0.00000000000E+00 0.  1.
         22    1    1    2    0    0  0.22569007013E+03  0.12069458317E+03  0.15371995714E+03  0.29855152886E+03  0.00000000000E+00 0.  1.
<mgrwt>
<rscale>  0 0.12176066E+04</rscale>
<asrwt>0</asrwt>
<pdfrwt beam="1">  1        2 0.23904088E+00 0.12176066E+04</pdfrwt>
<pdfrwt beam="2">  1       -2 0.36699075E-01 0.12176066E+04</pdfrwt>
<totfact> 0.81557800E+01</totfact>
</mgrwt>
</event>
<event>
 6    1  0.1637818E-005  0.2334133E+04  0.7818608E-02  0.8464583E-01
         -2   -1    0    0    0  501 -0.00000000000E+00  0.00000000000E+00  0.43185206660E+03  0.43185206660E+03  0.00000000000E+00 0.  1.
          2   -1    0    0  501    0  0.00000000000E+00 -0.00000000000E+00 -0.31539595100E+04  0.31539595100E+04  0.00000000000E+00 0. -1.
         23    2    1    2    0    0 -0.84004906501E+02 -0.48701575787E+02 -0.31467413699E+04  0.31502169952E+04  0.11161182952E+03 0.  0.
         11    1    3    3    0    0 -0.19709719507E+02 -0.36034643170E+02 -0.24630121464E+04  0.24633545831E+04  0.00000000000E+00 0. -1.
        -11    1    3    3    0    0 -0.64295186994E+02 -0.12666932617E+02 -0.68372922343E+03  0.68686241215E+03  0.00000000000E+00 0.  1.
         22    1    1    2    0    0  0.84004906501E+02  0.48701575787E+02  0.42463392647E+03  0.43559458136E+03  0.00000000000E+00 0.  1.
<mgrwt>
<rscale>  0 0.23341328E+04</rscale>
<asrwt>0</asrwt>
<pdfrwt beam="1">  1        2 0.48522455E+00 0.23341328E+04</pdfrwt>
<pdfrwt beam="2">  1       -2 0.66438778E-01 0.23341328E+04</pdfrwt>
<totfact> 0.26184715E+00</totfact>
</mgrwt>
</event>
<event>
 6    1  0.1637818E-005  0.1198755E+04  0.7818608E-02  0.9113947E-01
          2   -1    0    0  501    0  0.00000000000E+00  0.00000000000E+00  0.11516065860E+04  0.11516065860E+04  0.00000000000E+00 0. -1.
         -2   -1    0    0    0  501 -0.00000000000E+00 -0.00000000000E+00 -0.31195837247E+03  0.31195837247E+03  0.00000000000E+00 0.  1.
         23    2    1    2    0    0  0.33387836533E+03  0.42885087167E+03  0.12370422478E+03  0.56469698820E+03  0.90510332467E+02 0.  0.
         13    1    3    3    0    0  0.30267867341E+03  0.33886321659E+03  0.86927362026E+02  0.46260028660E+03  0.00000000000E+00 0.  1.
        -13    1    3    3    0    0  0.31199691919E+02  0.89987655077E+02  0.36776862755E+02  0.10209670159E+03  0.00000000000E+00 0. -1.
         22    1    1    2    0    0 -0.33387836533E+03 -0.42885087167E+03  0.71594398876E+03  0.89886797029E+03  0.00000000000E+00 0. -1.
<mgrwt>
<rscale>  0 0.11987549E+04</rscale>
<asrwt>0</asrwt>
<pdfrwt beam="1">  1        2 0.17717024E+00 0.11987549E+04</pdfrwt>
<pdfrwt beam="2">  1       -2 0.47993596E-01 0.11987549E+04</pdfrwt>
<totfact> 0.82194751E+01</totfact>
</mgrwt>
</event>
<event>
 6    1  0.1637818E-005  0.1320560E+04  0.7818608E-02  0.9013418E-01
          2   -1    0    0  501    0  0.00000000000E+00  0.00000000000E+00  0.21324650228E+04  0.21324650228E+04  0.00000000000E+00 0. -1.
         -2   -1    0    0    0  501 -0.00000000000E+00 -0.00000000000E+00 -0.20444405460E+03  0.20444405460E+03  0.00000000000E+00 0.  1.
         23    2    1    2    0    0 -0.55493862960E+03 -0.97122253837E+02  0.36967426167E+03  0.67985323266E+03  0.90287005714E+02 0.  0.
         13    1    3    3    0    0 -0.41230513185E+03 -0.10354764854E+03  0.24729966456E+03  0.49180764671E+03  0.00000000000E+00 0. -1.
        -13    1    3    3    0    0 -0.14263349776E+03  0.64253947058E+01  0.12237459711E+03  0.18804558596E+03  0.00000000000E+00 0.  1.
         22    1    1    2    0    0  0.55493862960E+03  0.97122253837E+02  0.15583467066E+04  0.16570558448E+04  0.00000000000E+00 0. -1.
<mgrwt>
<rscale>  0 0.13205602E+04</rscale>
<asrwt>0</asrwt>
<pdfrwt beam="1">  1        2 0.32807153E+00 0.13205602E+04</pdfrwt>
<pdfrwt beam="2">  1       -2 0.31452933E-01 0.13205602E+04</pdfrwt>
<totfact> 0.51838695E+01</totfact>
</mgrwt>
</event>
<event>
 6    1  0.1637818E-005  0.3586609E+04  0.7818608E-02  0.8093566E-01
          1   -1    0    0  501    0  0.00000000000E+00  0.00000000000E+00  0.18600042742E+04  0.18600042742E+04  0.00000000000E+00 0. -1.
         -1   -1    0    0    0  501 -0.00000000000E+00 -0.00000000000E+00 -0.17289967084E+04  0.17289967084E+04  0.00000000000E+00 0.  1.
         23    2    1    2    0    0  0.17020549148E+04 -0.55886307391E+03  0.14290002367E+02  0.17937456086E+04  0.89444036164E+02 0.  0.
         13    1    3    3    0    0  0.43945566708E+03 -0.18463110531E+03  0.13358061724E+02  0.47685256232E+03  0.00000000000E+00 0.  1.
        -13    1    3    3    0    0  0.12625992478E+04 -0.37423196860E+03  0.93194064326E+00  0.13168930463E+04  0.00000000000E+00 0. -1.
         22    1    1    2    0    0 -0.17020549148E+04  0.55886307391E+03  0.11671756348E+03  0.17952553741E+04  0.00000000000E+00 0. -1.
<mgrwt>
<rscale>  0 0.35866091E+04</rscale>
<asrwt>0</asrwt>
<pdfrwt beam="1">  1        1 0.28615451E+00 0.35866091E+04</pdfrwt>
<pdfrwt beam="2">  1       -1 0.26599949E+00 0.35866091E+04</pdfrwt>
<totfact> 0.16478594E-01</totfact>
</mgrwt>
</event>
<event>
 6    1  0.1637818E-005  0.1820033E+04  0.7818608E-02  0.8695718E-01
         -1   -1    0    0    0  501 -0.00000000000E+00  0.00000000000E+00  0.15886603860E+04  0.15886603860E+04  0.00000000000E+00 0.  1.
          1   -1    0    0  501    0  0.00000000000E+00 -0.00000000000E+00 -0.52127557012E+03  0.52127557012E+03  0.00000000000E+00 0. -1.
         23    2    1    2    0    0  0.56085273041E+03  0.27125713448E+02  0.13618193539E+04  0.14759144369E+04  0.92086279172E+02 0.  0.
         13    1    3    3    0    0  0.17302018258E+03  0.34701982194E+02  0.51723446276E+03  0.54650864642E+03  0.00000000000E+00 0. -1.
        -13    1    3    3    0    0  0.38783254783E+03 -0.75762687460E+01  0.84458489118E+03  0.92940579050E+03  0.00000000000E+00 0.  1.
         22    1    1    2    0    0 -0.56085273041E+03 -0.27125713448E+02 -0.29443453809E+03  0.63402151916E+03  0.00000000000E+00 0. -1.
<mgrwt>
<rscale>  0 0.18200328E+04</rscale>
<asrwt>0</asrwt>
<pdfrwt beam="1">  1        1 0.80196242E-01 0.18200328E+04</pdfrwt>
<pdfrwt beam="2">  1       -1 0.24440929E+00 0.18200328E+04</pdfrwt>
<totfact> 0.29886318E+00</totfact>
</mgrwt>
</event>
<event>
 6    1  0.1637818E-005  0.1813600E+04  0.7818608E-02  0.8699101E-01
          2   -1    0    0  501    0  0.00000000000E+00  0.00000000000E+00  0.10639592689E+04  0.10639592689E+04  0.00000000000E+00 0.  1.
         -2   -1    0    0    0  501 -0.00000000000E+00 -0.00000000000E+00 -0.77285474605E+03  0.77285474605E+03  0.00000000000E+00 0. -1.
         23    2    1    2    0    0 -0.37466666076E+03  0.66576467794E+03 -0.34417651588E+03  0.84323477238E+03  0.94708469525E+02 0.  0.
         11    1    3    3    0    0 -0.12366764368E+03  0.18989131786E+03 -0.58307717378E+02  0.23399185583E+03  0.00000000000E+00 0.  1.
        -11    1    3    3    0    0 -0.25099901708E+03  0.47587336008E+03 -0.28586879850E+03  0.60924291655E+03  0.00000000000E+00 0. -1.
         22    1    1    2    0    0  0.37466666076E+03 -0.66576467794E+03  0.63528103869E+03  0.99357924253E+03  0.00000000000E+00 0.  1.
<mgrwt>
<rscale>  0 0.18135997E+04</rscale>
<asrwt>0</asrwt>
<pdfrwt beam="1">  1        2 0.16368604E+00 0.18135997E+04</pdfrwt>
<pdfrwt beam="2">  1       -2 0.11890073E+00 0.18135997E+04</pdfrwt>
<totfact> 0.11754671E+01</totfact>
</mgrwt>
</event>
<event>
 6    1  0.1637818E-005  0.3167382E+04  0.7818608E-02  0.8197485E-01
          2   -1    0    0  501    0  0.00000000000E+00  0.00000000000E+00  0.19345730773E+04  0.19345730773E+04  0.00000000000E+00 0. -1.
         -2   -1    0    0    0  501 -0.00000000000E+00 -0.00000000000E+00 -0.12964498310E+04  0.12964498310E+04  0.00000000000E+00 0.  1.
         23    2    1    2    0    0  0.52478383290E+03 -0.58634912508E+03 -0.10811469507E+04  0.13402311751E+04  0.90208125062E+02 0.  0.
         11    1    3    3    0    0  0.11570889049E+03 -0.79677203815E+02 -0.20766082369E+03  0.25071900973E+03  0.00000000000E+00 0. -1.
        -11    1    3    3    0    0  0.40907494242E+03 -0.50667192126E+03 -0.87348612703E+03  0.10895121653E+04  0.00000000000E+00 0.  1.
         22    1    1    2    0    0 -0.52478383290E+03  0.58634912508E+03  0.17192701971E+04  0.18907917332E+04  0.00000000000E+00 0. -1.
<mgrwt>
<rscale>  0 0.31673818E+04</rscale>
<asrwt>0</asrwt>
<pdfrwt beam="1">  1        2 0.29762663E+00 0.31673818E+04</pdfrwt>
<pdfrwt beam="2">  1       -2 0.19945382E+00 0.31673818E+04</pdfrwt>
<totfact> 0.82267622E-01</totfact>
</mgrwt>
</event>
<event>
 6    1  0.1637818E-005  0.9850681E+03  0.7818608E-02  0.9325075E-01
         -1   -1    0    0    0  501 -0.00000000000E+00  0.00000000000E+00  0.40179787822E+03  0.40179787822E+03  0.00000000000E+00 0.  1.
          1   -1    0    0  501    0  0.00000000000E+00 -0.00000000000E+00 -0.60376079379E+03  0.60376079379E+03  0.00000000000E+00 0. -1.
         23    2    1    2    0    0 -0.14161342603E+03 -0.81690078811E+02 -0.57155611599E+03  0.60142160961E+03  0.91125887501E+02 0.  0.
         11    1    3    3    0    0 -0.85804233999E+02 -0.68101270996E+02 -0.22629560790E+03  0.25141569529E+03  0.00000000000E+00 0. -1.
        -11    1    3    3    0    0 -0.55809192032E+02 -0.13588807815E+02 -0.34526050809E+03  0.35000591432E+03  0.00000000000E+00 0.  1.
         22    1    1    2    0    0  0.14161342603E+03  0.81690078811E+02  0.36959320042E+03  0.40413706240E+03  0.00000000000E+00 0.  1.
<mgrwt>
<rscale>  0 0.98506813E+03</rscale>
<asrwt>0</asrwt>
<pdfrwt beam="1">  1        1 0.92886276E-01 0.98506813E+03</pdfrwt>
<pdfrwt beam="2">  1       -1 0.61815058E-01 0.98506813E+03</pdfrwt>
<totfact> 0.90422261E+01</totfact>
</mgrwt>
</event>
<event>
 6    1  0.1637818E-005  0.1904772E+04  0.7818608E-02  0.8652485E-01
          1   -1    0    0  501    0  0.00000000000E+00  0.00000000000E+00  0.15414415018E+04  0.15414415018E+04  0.00000000000E+00 0. -1.
         -1   -1    0    0    0  501 -0.00000000000E+00 -0.00000000000E+00 -0.58843581497E+03  0.58843581497E+03  0.00000000000E+00 0.  1.
         23    2    1    2    0    0  0.74511602043E+03  0.58758855302E+03  0.42201602328E+03  0.10424913621E+04  0.90733261030E+02 0.  0.
         13    1    3    3    0    0  0.25420475139E+03  0.18827200160E+03  0.95643801953E+02  0.33047562552E+03  0.00000000000E+00 0. -1.
        -13    1    3    3    0    0  0.49091126905E+03  0.39931655143E+03  0.32637222132E+03  0.71201573660E+03  0.00000000000E+00 0.  1.
         22    1    1    2    0    0 -0.74511602043E+03 -0.58758855302E+03  0.53098966354E+03  0.10873859546E+04  0.00000000000E+00 0. -1.
<mgrwt>
<rscale>  0 0.19047723E+04</rscale>
<asrwt>0</asrwt>
<pdfrwt beam="1">  1        1 0.23714485E+00 0.19047723E+04</pdfrwt>
<pdfrwt beam="2">  1       -1 0.90528587E-01 0.19047723E+04</pdfrwt>
<totfact> 0.68282627E+00</totfact>
</mgrwt>
</event>
<event>
 6    1  0.1637818E-005  0.1854898E+04  0.7818608E-02  0.8677638E-01
          2   -1    0    0  501    0  0.00000000000E+00  0.00000000000E+00  0.16477703508E+04  0.16477703508E+04  0.00000000000E+00 0.  1.
         -2   -1    0    0    0  501 -0.00000000000E+00 -0.00000000000E+00 -0.52201531345E+03  0.52201531345E+03  0.00000000000E+00 0. -1.
         23    2    1    2    0    0  0.47910717108E+02  0.89564547369E+03  0.83009824403E+03  0.12253868127E+04  0.89629764534E+02 0.  0.
         13    1    3    3    0    0  0.63376559738E+02  0.57226043799E+03  0.56881113087E+03  0.80934831798E+03  0.00000000000E+00 0. -1.
        -13    1    3    3    0    0 -0.15465842630E+02  0.32338503570E+03  0.26128711316E+03  0.41603849474E+03  0.00000000000E+00 0.  1.
         22    1    1    2    0    0 -0.47910717108E+02 -0.89564547369E+03  0.29565679335E+03  0.94439885155E+03  0.00000000000E+00 0. -1.
<mgrwt>
<rscale>  0 0.18548977E+04</rscale>
<asrwt>0</asrwt>
<pdfrwt beam="1">  1        2 0.25350313E+00 0.18548977E+04</pdfrwt>
<pdfrwt beam="2">  1       -2 0.80310049E-01 0.18548977E+04</pdfrwt>
<totfact> 0.13506388E+01</totfact>
</mgrwt>
</event>
<event>
 6    1  0.1637818E-005  0.2384350E+04  0.7818608E-02  0.8445386E-01
         -2   -1    0    0    0  501 -0.00000000000E+00  0.00000000000E+00  0.59113485994E+03  0.59113485994E+03  0.00000000000E+00 0. -1.
          2   -1    0    0  501    0  0.00000000000E+00 -0.00000000000E+00 -0.24043263626E+04  0.24043263626E+04  0.00000000000E+00 0.  1.
         23    2    1    2    0    0 -0.26771453307E+03 -0.96908415009E+03 -0.17086565385E+04  0.19846582151E+04  0.92552163475E+02 0.  0.
         13    1    3    3    0    0 -0.17609660759E+03 -0.50534652773E+03 -0.96591768767E+03  0.11042563596E+04  0.00000000000E+00 0. -1.
        -13    1    3    3    0    0 -0.91617925484E+02 -0.46373762236E+03 -0.74273885084E+03  0.88040185553E+03  0.00000000000E+00 0.  1.
         22    1    1    2    0    0  0.26771453307E+03  0.96908415009E+03 -0.10453496417E+03  0.10108030075E+04  0.00000000000E+00 0.  1.
<mgrwt>
<rscale>  0 0.23843499E+04</rscale>
<asrwt>0</asrwt>
<pdfrwt beam="1">  1        2 0.36989635E+00 0.23843499E+04</pdfrwt>
<pdfrwt beam="2">  1       -2 0.90943827E-01 0.23843499E+04</pdfrwt>
<totfact> 0.36711269E+00</totfact>
</mgrwt>
</event>
<event>
 6    1  0.1637818E-005  0.4659310E+04  0.7818608E-02  0.7883325E-01
          2   -1    0    0  501    0  0.00000000000E+00  0.00000000000E+00  0.14637270420E+04  0.14637270420E+04  0.00000000000E+00 0. -1.
         -2   -1    0    0    0  501 -0.00000000000E+00 -0.00000000000E+00 -0.37078587723E+04  0.37078587723E+04  0.00000000000E+00 0.  1.
         23    2    1    2    0    0 -0.17487125667E+04 -0.47170324185E+03  0.50223514806E+03  0.18817483380E+04  0.90758329853E+02 0.  0.
         11    1    3    3    0    0 -0.15205214242E+04 -0.38254247247E+03  0.45068060286E+03  0.16313911702E+04  0.00000000000E+00 0. -1.
        -11    1    3    3    0    0 -0.22819114255E+03 -0.89160769378E+02  0.51554545199E+02  0.25035716779E+03  0.00000000000E+00 0.  1.
         22    1    1    2    0    0  0.17487125667E+04  0.47170324185E+03 -0.27463668784E+04  0.32898374762E+04  0.00000000000E+00 0. -1.
<mgrwt>
<rscale>  0 0.46593103E+04</rscale>
<asrwt>0</asrwt>
<pdfrwt beam="1">  1        2 0.22518877E+00 0.46593103E+04</pdfrwt>
<pdfrwt beam="2">  1       -2 0.57043981E+00 0.46593103E+04</pdfrwt>
<totfact> 0.68021023E-03</totfact>
</mgrwt>
</event>
<event>
 6    1  0.1637818E-005  0.9479103E+03  0.7818608E-02  0.9367596E-01
         -2   -1    0    0    0  501 -0.00000000000E+00  0.00000000000E+00  0.35668020398E+03  0.35668020398E+03  0.00000000000E+00 0.  1.
          2   -1    0    0  501    0  0.00000000000E+00 -0.00000000000E+00 -0.62978963075E+03  0.62978963075E+03  0.00000000000E+00 0. -1.
         23    2    1    2    0    0  0.26906623369E+03  0.24177163125E+03  0.17368680021E+03  0.41159852023E+03  0.91630112417E+02 0.  0.
         11    1    3    3    0    0  0.12368079447E+03  0.68442519221E+02  0.10188901645E+03  0.17424892835E+03  0.00000000000E+00 0.  1.
        -11    1    3    3    0    0  0.14538543922E+03  0.17332911203E+03  0.71797783758E+02  0.23734959188E+03  0.00000000000E+00 0. -1.
         22    1    1    2    0    0 -0.26906623369E+03 -0.24177163125E+03 -0.44679622698E+03  0.57487131450E+03  0.00000000000E+00 0. -1.
<mgrwt>
<rscale>  0 0.94791032E+03</rscale>
<asrwt>0</asrwt>
<pdfrwt beam="1">  1        2 0.96890712E-01 0.94791032E+03</pdfrwt>
<pdfrwt beam="2">  1       -2 0.54873878E-01 0.94791032E+03</pdfrwt>
<totfact> 0.14624426E+02</totfact>
</mgrwt>
</event>
<event>
 6    1  0.1637818E-005  0.2313176E+04  0.7818608E-02  0.8472744E-01
          2   -1    0    0  501    0  0.00000000000E+00  0.00000000000E+00  0.41600060348E+04  0.41600060348E+04  0.00000000000E+00 0. -1.
         -2   -1    0    0    0  501 -0.00000000000E+00 -0.00000000000E+00 -0.32156101409E+03  0.32156101409E+03  0.00000000000E+00 0.  1.
         23    2    1    2    0    0  0.36646766115E+03 -0.27258735736E+03  0.39771144432E+04  0.40042499397E+04  0.89307732426E+02 0.  0.
         13    1    3    3    0    0  0.30433415610E+03 -0.18950663871E+03  0.28761534979E+04  0.28984118045E+04  0.00000000000E+00 0. -1.
        -13    1    3    3    0    0  0.62133505055E+02 -0.83080718657E+02  0.11009609453E+04  0.11058381352E+04  0.00000000000E+00 0.  1.
         22    1    1    2    0    0 -0.36646766115E+03  0.27258735736E+03 -0.13866942245E+03  0.47731710925E+03  0.00000000000E+00 0.  1.
<mgrwt>
<rscale>  0 0.23131760E+04</rscale>
<asrwt>0</asrwt>
<pdfrwt beam="1">  1        2 0.64000089E+00 0.23131760E+04</pdfrwt>
<pdfrwt beam="2">  1       -2 0.49470928E-01 0.23131760E+04</pdfrwt>
<totfact> 0.88769756E-01</totfact>
</mgrwt>
</event>
<event>
 6    1  0.1637818E-005  0.2494397E+04  0.7818608E-02  0.8404984E-01
         -1   -1    0    0    0  501 -0.00000000000E+00  0.00000000000E+00  0.85444194141E+03  0.85444194141E+03  0.00000000000E+00 0.  1.
          1   -1    0    0  501    0  0.00000000000E+00 -0.00000000000E+00 -0.18204914202E+04  0.18204914202E+04  0.00000000000E+00 0. -1.
         23    2    1    2    0    0  0.71020479982E+03 -0.10184431510E+04 -0.37571367697E+03  0.13001193129E+04  0.86787967186E+02 0.  0.
         13    1    3    3    0    0  0.52815293425E+03 -0.72241187718E+03 -0.23539002882E+03  0.92532854053E+03  0.00000000000E+00 0. -1.
        -13    1    3    3    0    0  0.18205186558E+03 -0.29603127386E+03 -0.14032364815E+03  0.37479077242E+03  0.00000000000E+00 0.  1.
         22    1    1    2    0    0 -0.71020479982E+03  0.10184431510E+04 -0.59033580185E+03  0.13748140487E+04  0.00000000000E+00 0.  1.
<mgrwt>
<rscale>  0 0.24943971E+04</rscale>
<asrwt>0</asrwt>
<pdfrwt beam="1">  1        1 0.28007560E+00 0.24943971E+04</pdfrwt>
<pdfrwt beam="2">  1       -1 0.13145261E+00 0.24943971E+04</pdfrwt>
<totfact> 0.17289152E+00</totfact>
</mgrwt>
</event>
<event>
 6    1  0.1637818E-005  0.5649884E+03  0.7818608E-02  0.9980830E-01
         -1   -1    0    0    0  501 -0.00000000000E+00  0.00000000000E+00  0.27185859674E+03  0.27185859674E+03  0.00000000000E+00 0.  1.
          1   -1    0    0  501    0  0.00000000000E+00 -0.00000000000E+00 -0.29354589136E+03  0.29354589136E+03  0.00000000000E+00 0. -1.
         23    2    1    2    0    0  0.37425047200E+02 -0.12198172044E+03 -0.25507318800E+03  0.29941736528E+03  0.91149619384E+02 0.  0.
         11    1    3    3    0    0  0.42224937629E+01 -0.11950088277E+03 -0.16811557331E+03  0.20630350561E+03  0.00000000000E+00 0.  1.
        -11    1    3    3    0    0  0.33202553437E+02 -0.24808376712E+01 -0.86957614685E+02  0.93113859667E+02  0.00000000000E+00 0. -1.
         22    1    1    2    0    0 -0.37425047200E+02  0.12198172044E+03  0.23338589337E+03  0.26598712282E+03  0.00000000000E+00 0.  1.
<mgrwt>
<rscale>  0 0.56498840E+03</rscale>
<asrwt>0</asrwt>
<pdfrwt beam="1">  1        1 0.45160906E-01 0.56498840E+03</pdfrwt>
<pdfrwt beam="2">  1       -1 0.41824399E-01 0.56498840E+03</pdfrwt>
<totfact> 0.51166684E+02</totfact>
</mgrwt>
</event>
<event>
 6    1  0.1637818E-005  0.1656251E+04  0.7818608E-02  0.8786717E-01
         -2   -1    0    0    0  501 -0.00000000000E+00  0.00000000000E+00  0.39277249798E+03  0.39277249798E+03  0.00000000000E+00 0.  1.
          2   -1    0    0  501    0  0.00000000000E+00 -0.00000000000E+00 -0.17460288957E+04  0.17460288957E+04  0.00000000000E+00 0. -1.
         23    2    1    2    0    0  0.26521955713E+03  0.35457932057E+03  0.22122055978E+03  0.50324473071E+03  0.90822986426E+02 0.  0.
         11    1    3    3    0    0  0.94031376508E+02  0.11459775427E+03  0.28216828485E+02  0.15089974971E+03  0.00000000000E+00 0. -1.
        -11    1    3    3    0    0  0.17118818062E+03  0.23998156630E+03  0.19300373129E+03  0.35234498100E+03  0.00000000000E+00 0.  1.
         22    1    1    2    0    0 -0.26521955713E+03 -0.35457932057E+03 -0.15744769575E+04  0.16355566629E+04  0.00000000000E+00 0. -1.
<mgrwt>
<rscale>  0 0.16562513E+04</rscale>
<asrwt>0</asrwt>
<pdfrwt beam="1">  1        2 0.26861984E+00 0.16562513E+04</pdfrwt>
<pdfrwt beam="2">  1       -2 0.60426537E-01 0.16562513E+04</pdfrwt>
<totfact> 0.22519932E+01</totfact>
</mgrwt>
</event>
<event>
 6    1  0.1637818E-005  0.7996931E+03  0.7818608E-02  0.9560461E-01
         -1   -1    0    0    0  501 -0.00000000000E+00  0.00000000000E+00  0.47190186576E+03  0.47190186576E+03  0.00000000000E+00 0.  1.
          1   -1    0    0  501    0  0.00000000000E+00 -0.00000000000E+00 -0.33879343303E+03  0.33879343303E+03  0.00000000000E+00 0. -1.
         23    2    1    2    0    0 -0.15914362993E+03 -0.35676579360E+03  0.12113254888E+03  0.41986036148E+03  0.94874139310E+02 0.  0.
         13    1    3    3    0    0 -0.12423229821E+03 -0.24804271834E+03  0.41162219057E+02  0.28045174686E+03  0.00000000000E+00 0.  1.
        -13    1    3    3    0    0 -0.34911331728E+02 -0.10872307525E+03  0.79970329827E+02  0.13940861461E+03  0.00000000000E+00 0. -1.
         22    1    1    2    0    0  0.15914362993E+03  0.35676579360E+03  0.11975883847E+02  0.39083493731E+03  0.00000000000E+00 0. -1.
<mgrwt>
<rscale>  0 0.79969307E+03</rscale>
<asrwt>0</asrwt>
<pdfrwt beam="1">  1        1 0.52122066E-01 0.79969307E+03</pdfrwt>
<pdfrwt beam="2">  1       -1 0.72600287E-01 0.79969307E+03</pdfrwt>
<totfact> 0.14481831E+02</totfact>
</mgrwt>
</event>
<event>
 6    1  0.1850950E-005  0.2936096E+04  0.7818608E-02  0.8262218E-01
         -3   -1    0    0    0  501 -0.00000000000E+00  0.00000000000E+00  0.17883737809E+04  0.17883737809E+04  0.00000000000E+00 0.  1.
          3   -1    0    0  501    0  0.00000000000E+00 -0.00000000000E+00 -0.12050971789E+04  0.12050971789E+04  0.00000000000E+00 0. -1.
         23    2    1    2    0    0  0.94002176913E+03  0.32566380647E+02 -0.85534290667E+03  0.12746552086E+04  0.91830916800E+02 0.  0.
         13    1    3    3    0    0  0.33998570718E+03  0.46930180935E+02 -0.34769386898E+03  0.48855270902E+03  0.00000000000E+00 0.  1.
        -13    1    3    3    0    0  0.60003606196E+03 -0.14363800288E+02 -0.50764903769E+03  0.78610249960E+03  0.00000000000E+00 0. -1.
         22    1    1    2    0    0 -0.94002176913E+03 -0.32566380647E+02  0.14386195087E+04  0.17188157511E+04  0.00000000000E+00 0.  1.
<mgrwt>
<rscale>  0 0.29360955E+04</rscale>
<asrwt>0</asrwt>
<pdfrwt beam="1">  1        3 0.18539957E+00 0.29360955E+04</pdfrwt>
<pdfrwt beam="2">  1       -3 0.27513443E+00 0.29360955E+04</pdfrwt>
<totfact> 0.21426250E-02</totfact>
</mgrwt>
</event>
<event>
 6    1  0.1637818E-005  0.4914376E+04  0.7818608E-02  0.7841853E-01
         -1   -1    0    0    0  501 -0.00000000000E+00  0.00000000000E+00  0.17210416015E+04  0.17210416015E+04  0.00000000000E+00 0.  1.
          1   -1    0    0  501    0  0.00000000000E+00 -0.00000000000E+00 -0.35082087825E+04  0.35082087825E+04  0.00000000000E+00 0. -1.
         23    2    1    2    0    0 -0.21585610094E+04 -0.37647921793E+03  0.28731137018E+03  0.22118701475E+04  0.93271073093E+02 0.  0.
         11    1    3    3    0    0 -0.10141885611E+04 -0.18701693879E+03  0.18109680982E+03  0.10470672507E+04  0.00000000000E+00 0.  1.
        -11    1    3    3    0    0 -0.11443724483E+04 -0.18946227914E+03  0.10621456036E+03  0.11648028968E+04  0.00000000000E+00 0. -1.
         22    1    1    2    0    0  0.21585610094E+04  0.37647921793E+03 -0.20744785512E+04  0.30173802366E+04  0.00000000000E+00 0. -1.
<mgrwt>
<rscale>  0 0.49143762E+04</rscale>
<asrwt>0</asrwt>
<pdfrwt beam="1">  1        1 0.53972442E+00 0.49143762E+04</pdfrwt>
<pdfrwt beam="2">  1       -1 0.26477563E+00 0.49143762E+04</pdfrwt>
<totfact> 0.99850574E-03</totfact>
</mgrwt>
</event>
<event>
 6    1  0.1637818E-005  0.1783852E+04  0.7818608E-02  0.8714934E-01
          2   -1    0    0  501    0  0.00000000000E+00  0.00000000000E+00  0.25769163544E+04  0.25769163544E+04  0.00000000000E+00 0. -1.
         -2   -1    0    0    0  501 -0.00000000000E+00 -0.00000000000E+00 -0.30871468645E+03  0.30871468645E+03  0.00000000000E+00 0.  1.
         23    2    1    2    0    0 -0.35183917227E+03  0.60440648230E+03  0.24796675956E+03  0.74777064220E+03  0.92603566387E+02 0.  0.
         11    1    3    3    0    0 -0.25796018299E+03  0.37041960574E+03  0.13225229304E+03  0.47036667541E+03  0.00000000000E+00 0.  1.
        -11    1    3    3    0    0 -0.93878989282E+02  0.23398687656E+03  0.11571446651E+03  0.27740396679E+03  0.00000000000E+00 0. -1.
         22    1    1    2    0    0  0.35183917227E+03 -0.60440648230E+03  0.20202349084E+04  0.21378603987E+04  0.00000000000E+00 0.  1.
<mgrwt>
<rscale>  0 0.17838519E+04</rscale>
<asrwt>0</asrwt>
<pdfrwt beam="1">  1        2 0.39644866E+00 0.17838519E+04</pdfrwt>
<pdfrwt beam="2">  1       -2 0.47494569E-01 0.17838519E+04</pdfrwt>
<totfact> 0.12488130E+01</totfact>
</mgrwt>
</event>
<event>
 6    1  0.1637818E-005  0.2335507E+04  0.7818608E-02  0.8464052E-01
         -1   -1    0    0    0  501 -0.00000000000E+00  0.00000000000E+00  0.12755788282E+04  0.12755788282E+04  0.00000000000E+00 0.  1.
          1   -1    0    0  501    0  0.00000000000E+00 -0.00000000000E+00 -0.10690422790E+04  0.10690422790E+04  0.00000000000E+00 0. -1.
         23    2    1    2    0    0  0.16313331726E+02 -0.84422206743E+03 -0.70348988380E+03  0.11032004964E+04  0.95792978702E+02 0.  0.
         13    1    3    3    0    0 -0.16823712388E+02 -0.39554865876E+03 -0.27619208219E+03  0.48272543439E+03  0.00000000000E+00 0.  1.
        -13    1    3    3    0    0  0.33137044113E+02 -0.44867340868E+03 -0.42729780161E+03  0.62047506203E+03  0.00000000000E+00 0. -1.
         22    1    1    2    0    0 -0.16313331726E+02  0.84422206743E+03  0.91002643305E+03  0.12414206107E+04  0.00000000000E+00 0.  1.
<mgrwt>
<rscale>  0 0.23355065E+04</rscale>
<asrwt>0</asrwt>
<pdfrwt beam="1">  1        1 0.16446804E+00 0.23355065E+04</pdfrwt>
<pdfrwt beam="2">  1       -1 0.19624290E+00 0.23355065E+04</pdfrwt>
<totfact> 0.19271359E+00</totfact>
</mgrwt>
</event>
<event>
 6    1  0.1637818E-005  0.2322610E+04  0.7818608E-02  0.8469059E-01
         -2   -1    0    0    0  501 -0.00000000000E+00  0.00000000000E+00  0.11209677994E+04  0.11209677994E+04  0.00000000000E+00 0.  1.
          2   -1    0    0  501    0  0.00000000000E+00 -0.00000000000E+00 -0.12030936982E+04  0.12030936982E+04  0.00000000000E+00 0. -1.
         23    2    1    2    0    0  0.54089675162E+03  0.99759694175E+03 -0.27969819164E+03  0.11721918153E+04  0.89630459542E+02 0.  0.
         11    1    3    3    0    0  0.24057724167E+03  0.47467837939E+03 -0.17464536166E+03  0.56008747122E+03  0.00000000000E+00 0. -1.
        -11    1    3    3    0    0  0.30031950995E+03  0.52291856236E+03 -0.10505282998E+03  0.61210434405E+03  0.00000000000E+00 0.  1.
         22    1    1    2    0    0 -0.54089675162E+03 -0.99759694175E+03  0.19757229286E+03  0.11518696823E+04  0.00000000000E+00 0. -1.
<mgrwt>
<rscale>  0 0.23226100E+04</rscale>
<asrwt>0</asrwt>
<pdfrwt beam="1">  1        2 0.18509134E+00 0.23226100E+04</pdfrwt>
<pdfrwt beam="2">  1       -2 0.17245658E+00 0.23226100E+04</pdfrwt>
<totfact> 0.34947189E+00</totfact>
</mgrwt>
</event>
<event>
 6    1  0.1637818E-005  0.1612955E+04  0.7818608E-02  0.8812629E-01
         -2   -1    0    0    0  501 -0.00000000000E+00  0.00000000000E+00  0.42600722293E+03  0.42600722293E+03  0.00000000000E+00 0.  1.
          2   -1    0    0  501    0  0.00000000000E+00 -0.00000000000E+00 -0.15267481340E+04  0.15267481340E+04  0.00000000000E+00 0. -1.
         23    2    1    2    0    0  0.23274944074E+03  0.14100263572E+03 -0.14680275182E+04  0.14956410417E+04  0.88222933220E+02 0.  0.
         13    1    3    3    0    0  0.15234165691E+03  0.91629220990E+02 -0.11582013911E+04  0.11717654872E+04  0.00000000000E+00 0.  1.
        -13    1    3    3    0    0  0.80407783824E+02  0.49373414735E+02 -0.30982612706E+03  0.32387555448E+03  0.00000000000E+00 0. -1.
         22    1    1    2    0    0 -0.23274944074E+03 -0.14100263572E+03  0.36728660711E+03  0.45711431525E+03  0.00000000000E+00 0.  1.
<mgrwt>
<rscale>  0 0.16129547E+04</rscale>
<asrwt>0</asrwt>
<pdfrwt beam="1">  1        2 0.23488433E+00 0.16129547E+04</pdfrwt>
<pdfrwt beam="2">  1       -2 0.65539573E-01 0.16129547E+04</pdfrwt>
<totfact> 0.25185964E+01</totfact>
</mgrwt>
</event>
<event>
 6    1  0.1637818E-005  0.2174073E+04  0.7818608E-02  0.8529298E-01
         -1   -1    0    0    0  501 -0.00000000000E+00  0.00000000000E+00  0.59679288338E+03  0.59679288338E+03  0.00000000000E+00 0.  1.
          1   -1    0    0  501    0  0.00000000000E+00 -0.00000000000E+00 -0.19799969712E+04  0.19799969712E+04  0.00000000000E+00 0. -1.
         23    2    1    2    0    0  0.20636184833E+03 -0.82197861317E+03 -0.14959853702E+04  0.17218315687E+04  0.92182808413E+02 0.  0.
         11    1    3    3    0    0  0.39827799002E+02 -0.34124044379E+03 -0.61956967337E+03  0.70844750985E+03  0.00000000000E+00 0. -1.
        -11    1    3    3    0    0  0.16653404933E+03 -0.48073816938E+03 -0.87641569681E+03  0.10133840588E+04  0.00000000000E+00 0.  1.
         22    1    1    2    0    0 -0.20636184833E+03  0.82197861317E+03  0.11278128237E+03  0.85495828589E+03  0.00000000000E+00 0.  1.
<mgrwt>
<rscale>  0 0.21740728E+04</rscale>
<asrwt>0</asrwt>
<pdfrwt beam="1">  1        1 0.30461493E+00 0.21740728E+04</pdfrwt>
<pdfrwt beam="2">  1       -1 0.91814287E-01 0.21740728E+04</pdfrwt>
<totfact> 0.32463362E+00</totfact>
</mgrwt>
</event>
<event>
 6    1  0.1637818E-005  0.2205299E+04  0.7818608E-02  0.8516226E-01
         -2   -1    0    0    0  501 -0.00000000000E+00  0.00000000000E+00  0.18827108859E+04  0.18827108859E+04  0.00000000000E+00 0.  1.
          2   -1    0    0  501    0  0.00000000000E+00 -0.00000000000E+00 -0.64578997279E+03  0.64578997279E+03  0.00000000000E+00 0. -1.
         23    2    1    2    0    0  0.97976916106E+03  0.84992003295E+02  0.11866273599E+04  0.15437670413E+04  0.89224083343E+02 0.  0.
         13    1    3    3    0    0  0.48939134529E+03  0.20654705330E+02  0.52954575972E+03  0.72135235311E+03  0.00000000000E+00 0. -1.
        -13    1    3    3    0    0  0.49037781577E+03  0.64337297965E+02  0.65708160020E+03  0.82241468823E+03  0.00000000000E+00 0.  1.
         22    1    1    2    0    0 -0.97976916106E+03 -0.84992003295E+02  0.50293553229E+02  0.98473381737E+03  0.00000000000E+00 0. -1.
<mgrwt>
<rscale>  0 0.22052989E+04</rscale>
<asrwt>0</asrwt>
<pdfrwt beam="1">  1        2 0.99352305E-01 0.22052989E+04</pdfrwt>
<pdfrwt beam="2">  1       -2 0.28964782E+00 0.22052989E+04</pdfrwt>
<totfact> 0.15233125E+00</totfact>
</mgrwt>
</event>
<event>
 6    1  0.1637818E-005  0.1297398E+04  0.7818608E-02  0.9031631E-01
          2   -1    0    0  501    0  0.00000000000E+00  0.00000000000E+00  0.84931425448E+03  0.84931425448E+03  0.00000000000E+00 0. -1.
         -2   -1    0    0    0  501 -0.00000000000E+00 -0.00000000000E+00 -0.49547070477E+03  0.49547070477E+03  0.00000000000E+00 0.  1.
         23    2    1    2    0    0 -0.55863588277E+03  0.12960854231E+03 -0.12848329980E+03  0.59544417328E+03  0.95777770933E+02 0.  0.
         13    1    3    3    0    0 -0.30939485846E+03  0.40974825425E+02 -0.10745982782E+03  0.33007836851E+03  0.00000000000E+00 0.  1.
        -13    1    3    3    0    0 -0.24924102431E+03  0.88633716886E+02 -0.21023471977E+02  0.26536580477E+03  0.00000000000E+00 0. -1.
         22    1    1    2    0    0  0.55863588277E+03 -0.12960854231E+03  0.48232684951E+03  0.74934078597E+03  0.00000000000E+00 0. -1.
<mgrwt>
<rscale>  0 0.12973979E+04</rscale>
<asrwt>0</asrwt>
<pdfrwt beam="1">  1        2 0.13066373E+00 0.12973979E+04</pdfrwt>
<pdfrwt beam="2">  1       -2 0.76226262E-01 0.12973979E+04</pdfrwt>
<totfact> 0.47996825E+01</totfact>
</mgrwt>
</event>
<event>
 6    1  0.1637818E-005  0.3151373E+04  0.7818608E-02  0.8201779E-01
         -2   -1    0    0    0  501 -0.00000000000E+00  0.00000000000E+00  0.15771218921E+04  0.15771218921E+04  0.00000000000E+00 0.  1.
          2   -1    0    0  501    0  0.00000000000E+00 -0.00000000000E+00 -0.15742526881E+04  0.15742526881E+04  0.00000000000E+00 0. -1.
         23    2    1    2    0    0 -0.54256726272E+03  0.13335229309E+04 -0.63580455194E+03  0.15763930538E+04  0.90027717372E+02 0.  0.
         11    1    3    3    0    0 -0.13397827283E+03  0.27511121053E+03 -0.16905696824E+03  0.34959492883E+03  0.00000000000E+00 0. -1.
        -11    1    3    3    0    0 -0.40858898989E+03  0.10584117204E+04 -0.46674758370E+03  0.12267981250E+04  0.00000000000E+00 0.  1.
         22    1    1    2    0    0  0.54256726272E+03 -0.13335229309E+04  0.63867375592E+03  0.15749815264E+04  0.00000000000E+00 0. -1.
<mgrwt>
<rscale>  0 0.31513733E+04</rscale>
<asrwt>0</asrwt>
<pdfrwt beam="1">  1        2 0.24219272E+00 0.31513733E+04</pdfrwt>
<pdfrwt beam="2">  1       -2 0.24263414E+00 0.31513733E+04</pdfrwt>
<totfact> 0.69543439E-01</totfact>
</mgrwt>
</event>
<event>
 6    1  0.1637818E-005  0.4020391E+04  0.7818608E-02  0.8000446E-01
         -2   -1    0    0    0  501 -0.00000000000E+00  0.00000000000E+00  0.10357977712E+04  0.10357977712E+04  0.00000000000E+00 0.  1.
          2   -1    0    0  501    0  0.00000000000E+00 -0.00000000000E+00 -0.39012308742E+04  0.39012308742E+04  0.00000000000E+00 0. -1.
         23    2    1    2    0    0  0.18434548634E+04 -0.77883092588E+03 -0.16529774011E+04  0.25971670526E+04  0.89660280779E+02 0.  0.
         13    1    3    3    0    0  0.38414405548E+03 -0.20014285689E+03 -0.37322327950E+03  0.57176869002E+03  0.00000000000E+00 0.  1.
        -13    1    3    3    0    0  0.14593108080E+04 -0.57868806899E+03 -0.12797541216E+04  0.20253983626E+04  0.00000000000E+00 0. -1.
         22    1    1    2    0    0 -0.18434548634E+04  0.77883092588E+03 -0.12124557019E+04  0.23398615928E+04  0.00000000000E+00 0.  1.
<mgrwt>
<rscale>  0 0.40203911E+04</rscale>
<asrwt>0</asrwt>
<pdfrwt beam="1">  1        2 0.60018936E+00 0.40203911E+04</pdfrwt>
<pdfrwt beam="2">  1       -2 0.15935350E+00 0.40203911E+04</pdfrwt>
<totfact> 0.82004113E-02</totfact>
</mgrwt>
</event>
<event>
 6    1  0.1637818E-005  0.2957297E+04  0.7818608E-02  0.8256031E-01
          2   -1    0    0  501    0  0.00000000000E+00  0.00000000000E+00  0.12358942134E+04  0.12358942134E+04  0.00000000000E+00 0. -1.
         -2   -1    0    0    0  501 -0.00000000000E+00 -0.00000000000E+00 -0.17690844069E+04  0.17690844069E+04  0.00000000000E+00 0.  1.
         23    2    1    2    0    0 -0.77438307536E+03 -0.48053662633E+03 -0.14483326234E+04  0.17134406752E+04  0.87332484500E+02 0.  0.
         11    1    3    3    0    0 -0.33845433344E+03 -0.24191402421E+03 -0.59664528067E+03  0.72736464162E+03  0.00000000000E+00 0.  1.
        -11    1    3    3    0    0 -0.43592874192E+03 -0.23862260212E+03 -0.85168734274E+03  0.98607603361E+03  0.00000000000E+00 0. -1.
         22    1    1    2    0    0  0.77438307536E+03  0.48053662633E+03  0.91514242990E+03  0.12915379451E+04  0.00000000000E+00 0. -1.
<mgrwt>
<rscale>  0 0.29572969E+04</rscale>
<asrwt>0</asrwt>
<pdfrwt beam="1">  1        2 0.19013757E+00 0.29572969E+04</pdfrwt>
<pdfrwt beam="2">  1       -2 0.27216683E+00 0.29572969E+04</pdfrwt>
<totfact> 0.72815482E-01</totfact>
</mgrwt>
</event>
<event>
 6    1  0.1637818E-005  0.3605462E+04  0.7818608E-02  0.8089242E-01
         -2   -1    0    0    0  501 -0.00000000000E+00  0.00000000000E+00  0.95936374385E+03  0.95936374385E+03  0.00000000000E+00 0.  1.
          2   -1    0    0  501    0  0.00000000000E+00 -0.00000000000E+00 -0.33874941375E+04  0.33874941375E+04  0.00000000000E+00 0. -1.
         23    2    1    2    0    0  0.92623216678E+02  0.81897871025E+03  0.71660479387E+03  0.10959096216E+04  0.90500165350E+02 0.  0.
         11    1    3    3    0    0  0.59969192666E+02  0.51450650922E+03  0.39149237299E+03  0.64929156025E+03  0.00000000000E+00 0.  1.
        -11    1    3    3    0    0  0.32654024012E+02  0.30447220103E+03  0.32511242088E+03  0.44661806132E+03  0.00000000000E+00 0. -1.
         22    1    1    2    0    0 -0.92623216678E+02 -0.81897871025E+03 -0.31447351876E+04  0.32509482598E+04  0.00000000000E+00 0. -1.
<mgrwt>
<rscale>  0 0.36054620E+04</rscale>
<asrwt>0</asrwt>
<pdfrwt beam="1">  1        2 0.52115294E+00 0.36054620E+04</pdfrwt>
<pdfrwt beam="2">  1       -2 0.14759442E+00 0.36054620E+04</pdfrwt>
<totfact> 0.24735845E-01</totfact>
</mgrwt>
</event>
<event>
 6    1  0.1637818E-005  0.2786370E+04  0.7818608E-02  0.8307512E-01
          1   -1    0    0  501    0  0.00000000000E+00  0.00000000000E+00  0.10949361251E+04  0.10949361251E+04  0.00000000000E+00 0. -1.
         -1   -1    0    0    0  501 -0.00000000000E+00 -0.00000000000E+00 -0.17726737971E+04  0.17726737971E+04  0.00000000000E+00 0.  1.
         23    2    1    2    0    0  0.24456689068E+03 -0.53077531061E+03  0.96067362098E+03  0.11280907474E+04  0.90330138630E+02 0.  0.
         11    1    3    3    0    0  0.21078273442E+03 -0.44171981131E+03  0.73395174007E+03  0.88217396787E+03  0.00000000000E+00 0.  1.
        -11    1    3    3    0    0  0.33784156256E+02 -0.89055499297E+02  0.22672188091E+03  0.24591677952E+03  0.00000000000E+00 0. -1.
         22    1    1    2    0    0 -0.24456689068E+03  0.53077531061E+03 -0.16384112930E+04  0.17395191748E+04  0.00000000000E+00 0.  1.
<mgrwt>
<rscale>  0 0.27863701E+04</rscale>
<asrwt>0</asrwt>
<pdfrwt beam="1">  1        1 0.16845171E+00 0.27863701E+04</pdfrwt>
<pdfrwt beam="2">  1       -1 0.27271904E+00 0.27863701E+04</pdfrwt>
<totfact> 0.54998667E-01</totfact>
</mgrwt>
</event>
<event>
 6    1  0.1637818E-005  0.2726131E+04  0.7818608E-02  0.8326576E-01
          1   -1    0    0  501    0  0.00000000000E+00  0.00000000000E+00  0.32109173472E+04  0.32109173472E+04  0.00000000000E+00 0. -1.
         -1   -1    0    0    0  501 -0.00000000000E+00 -0.00000000000E+00 -0.57863467879E+03  0.57863467879E+03  0.00000000000E+00 0.  1.
         23    2    1    2    0    0  0.33095001827E+03  0.66019668675E+03  0.29076898903E+04  0.30013663133E+04  0.90286591012E+02 0.  0.
         13    1    3    3    0    0  0.15402344710E+03  0.35738467392E+03  0.13708859560E+04  0.14250527470E+04  0.00000000000E+00 0. -1.
        -13    1    3    3    0    0  0.17692657116E+03  0.30281201283E+03  0.15368039343E+04  0.15763135663E+04  0.00000000000E+00 0.  1.
         22    1    1    2    0    0 -0.33095001827E+03 -0.66019668675E+03 -0.27540722193E+03  0.78818571268E+03  0.00000000000E+00 0.  1.
<mgrwt>
<rscale>  0 0.27261314E+04</rscale>
<asrwt>0</asrwt>
<pdfrwt beam="1">  1        1 0.49398727E+00 0.27261314E+04</pdfrwt>
<pdfrwt beam="2">  1       -1 0.89020722E-01 0.27261314E+04</pdfrwt>
<totfact> 0.44951857E-01</totfact>
</mgrwt>
</event>
<event>
 6    1  0.1637818E-005  0.5471041E+03  0.7818608E-02  0.1002166E+00
         -1   -1    0    0    0  501 -0.00000000000E+00  0.00000000000E+00  0.45076623709E+02  0.45076623709E+02  0.00000000000E+00 0.  1.
          1   -1    0    0  501    0  0.00000000000E+00 -0.00000000000E+00 -0.16600783140E+04  0.16600783140E+04  0.00000000000E+00 0. -1.
         23    2    1    2    0    0 -0.11172322910E+03 -0.22733576617E+03 -0.10867690465E+04  0.11193278673E+04  0.87545893726E+02 0.  0.
         11    1    3    3    0    0 -0.28812238116E+02 -0.86370699167E+02 -0.57211400180E+03  0.57931379562E+03  0.00000000000E+00 0. -1.
        -11    1    3    3    0    0 -0.82910990981E+02 -0.14096506700E+03 -0.51465504469E+03  0.54001407163E+03  0.00000000000E+00 0.  1.
         22    1    1    2    0    0  0.11172322910E+03  0.22733576617E+03 -0.52823264384E+03  0.58582707049E+03  0.00000000000E+00 0.  1.
<mgrwt>
<rscale>  0 0.54710411E+03</rscale>
<asrwt>0</asrwt>
<pdfrwt beam="1">  1        1 0.25539660E+00 0.54710411E+03</pdfrwt>
<pdfrwt beam="2">  1       -1 0.69348669E-02 0.54710411E+03</pdfrwt>
<totfact> 0.58776054E+02</totfact>
</mgrwt>
</event>
<event>
 6    1  0.1637818E-005  0.9702336E+03  0.7818608E-02  0.9341808E-01
         -1   -1    0    0    0  501 -0.00000000000E+00  0.00000000000E+00  0.20792406893E+03  0.20792406893E+03  0.00000000000E+00 0.  1.
          1   -1    0    0  501    0  0.00000000000E+00 -0.00000000000E+00 -0.11318473101E+04  0.11318473101E+04  0.00000000000E+00 0. -1.
         23    2    1    2    0    0  0.40631708302E+03 -0.14296098591E+03 -0.76112451477E+03  0.87929896863E+03  0.91239979139E+02 0.  0.
         13    1    3    3    0    0  0.28043554254E+03 -0.13697848284E+03 -0.50113007104E+03  0.59037153249E+03  0.00000000000E+00 0.  1.
        -13    1    3    3    0    0  0.12588154048E+03 -0.59825030650E+01 -0.25999444374E+03  0.28892743613E+03  0.00000000000E+00 0. -1.
         22    1    1    2    0    0 -0.40631708302E+03  0.14296098591E+03 -0.16279872644E+03  0.46047241044E+03  0.00000000000E+00 0.  1.
<mgrwt>
<rscale>  0 0.97023358E+03</rscale>
<asrwt>0</asrwt>
<pdfrwt beam="1">  1        1 0.17413036E+00 0.97023358E+03</pdfrwt>
<pdfrwt beam="2">  1       -1 0.31988318E-01 0.97023358E+03</pdfrwt>
<totfact> 0.10966350E+02</totfact>
</mgrwt>
</event>
<event>
 6    1  0.1637818E-005  0.3148691E+04  0.7818608E-02  0.8202501E-01
         -1   -1    0    0    0  501 -0.00000000000E+00  0.00000000000E+00  0.29780806680E+04  0.29780806680E+04  0.00000000000E+00 0.  1.
          1   -1    0    0  501    0  0.00000000000E+00 -0.00000000000E+00 -0.83226893483E+03  0.83226893483E+03  0.00000000000E+00 0. -1.
         23    2    1    2    0    0 -0.23983412421E+03 -0.84280356099E+03  0.26547194757E+04  0.27970256960E+04  0.89325246683E+02 0.  0.
         13    1    3    3    0    0 -0.10564584952E+03 -0.50358601602E+03  0.14732872310E+04  0.15605560503E+04  0.00000000000E+00 0.  1.
        -13    1    3    3    0    0 -0.13418827469E+03 -0.33921754496E+03  0.11814322448E+04  0.12364696457E+04  0.00000000000E+00 0. -1.
         22    1    1    2    0    0  0.23983412421E+03  0.84280356099E+03 -0.50890774262E+03  0.10133239068E+04  0.00000000000E+00 0. -1.
<mgrwt>
<rscale>  0 0.31486912E+04</rscale>
<asrwt>0</asrwt>
<pdfrwt beam="1">  1        1 0.12804138E+00 0.31486912E+04</pdfrwt>
<pdfrwt beam="2">  1       -1 0.45816625E+00 0.31486912E+04</pdfrwt>
<totfact> 0.49475391E-02</totfact>
</mgrwt>
</event>
<event>
 6    1  0.1637818E-005  0.2640152E+04  0.7818608E-02  0.8354689E-01
         -2   -1    0    0    0  501 -0.00000000000E+00  0.00000000000E+00  0.21773675324E+04  0.21773675324E+04  0.00000000000E+00 0.  1.
          2   -1    0    0  501    0  0.00000000000E+00 -0.00000000000E+00 -0.80032426910E+03  0.80032426910E+03  0.00000000000E+00 0. -1.
         23    2    1    2    0    0 -0.11166983870E+04  0.26552567201E+03 -0.42468777245E+02  0.11521689714E+04  0.90391214372E+02 0.  0.
         11    1    3    3    0    0 -0.52671943051E+03  0.15306902905E+03  0.15881305164E+02  0.54874010423E+03  0.00000000000E+00 0.  1.
        -11    1    3    3    0    0 -0.58997895647E+03  0.11245664296E+03 -0.58350082409E+02  0.60342886717E+03  0.00000000000E+00 0. -1.
         22    1    1    2    0    0  0.11166983870E+04 -0.26552567201E+03  0.14195120406E+04  0.18255228301E+04  0.00000000000E+00 0.  1.
<mgrwt>
<rscale>  0 0.26401516E+04</rscale>
<asrwt>0</asrwt>
<pdfrwt beam="1">  1        2 0.12312681E+00 0.26401516E+04</pdfrwt>
<pdfrwt beam="2">  1       -2 0.33497962E+00 0.26401516E+04</pdfrwt>
<totfact> 0.58675594E-01</totfact>
</mgrwt>
</event>
<event>
 6    1  0.1637818E-005  0.2280570E+04  0.7818608E-02  0.8485622E-01
          3   -1    0    0  501    0  0.00000000000E+00  0.00000000000E+00  0.12606311763E+04  0.12606311763E+04  0.00000000000E+00 0. -1.
         -3   -1    0    0    0  501 -0.00000000000E+00 -0.00000000000E+00 -0.10314277200E+04  0.10314277200E+04  0.00000000000E+00 0.  1.
         23    2    1    2    0    0  0.68235478302E+03  0.70845449408E+03 -0.46146128318E+03  0.10901713797E+04  0.89505872160E+02 0.  0.
         11    1    3    3    0    0  0.60618598956E+03  0.62832107329E+03 -0.37673978690E+03  0.95088468918E+03  0.00000000000E+00 0. -1.
        -11    1    3    3    0    0  0.76168793462E+02  0.80133420787E+02 -0.84721496282E+02  0.13928669052E+03  0.00000000000E+00 0.  1.
         22    1    1    2    0    0 -0.68235478302E+03 -0.70845449408E+03  0.69066473949E+03  0.12018875166E+04  0.00000000000E+00 0. -1.
<mgrwt>
<rscale>  0 0.22805701E+04</rscale>
<asrwt>0</asrwt>
<pdfrwt beam="1">  1        3 0.19394326E+00 0.22805701E+04</pdfrwt>
<pdfrwt beam="2">  1       -3 0.15868119E+00 0.22805701E+04</pdfrwt>
<totfact> 0.10608880E-01</totfact>
</mgrwt>
</event>
<event>
 6    1  0.1637818E-005  0.1552812E+04  0.7818608E-02  0.8850074E-01
          1   -1    0    0  501    0  0.00000000000E+00  0.00000000000E+00  0.50375639478E+03  0.50375639478E+03  0.00000000000E+00 0. -1.
         -1   -1    0    0    0  501 -0.00000000000E+00 -0.00000000000E+00 -0.11966220247E+04  0.11966220247E+04  0.00000000000E+00 0.  1.
         23    2    1    2    0    0 -0.36228684970E+03  0.20848754037E+03  0.36463671653E+03  0.56326363693E+03  0.97914113861E+02 0.  0.
         11    1    3    3    0    0 -0.21225136863E+03  0.16440695102E+03  0.19037177410E+03  0.32912262366E+03  0.00000000000E+00 0. -1.
        -11    1    3    3    0    0 -0.15003548106E+03  0.44080589349E+02  0.17426494243E+03  0.23414101327E+03  0.00000000000E+00 0.  1.
         22    1    1    2    0    0  0.36228684970E+03 -0.20848754037E+03 -0.10575023464E+04  0.11371147825E+04  0.00000000000E+00 0.  1.
<mgrwt>
<rscale>  0 0.15528116E+04</rscale>
<asrwt>0</asrwt>
<pdfrwt beam="1">  1        1 0.77500985E-01 0.15528116E+04</pdfrwt>
<pdfrwt beam="2">  1       -1 0.18409569E+00 0.15528116E+04</pdfrwt>
<totfact> 0.82180787E+00</totfact>
</mgrwt>
</event>
<event>
 6    1  0.1637818E-005  0.1314013E+04  0.7818608E-02  0.9018526E-01
         -2   -1    0    0    0  501 -0.00000000000E+00  0.00000000000E+00  0.34592803889E+03  0.34592803889E+03  0.00000000000E+00 0.  1.
          2   -1    0    0  501    0  0.00000000000E+00 -0.00000000000E+00 -0.12478247033E+04  0.12478247033E+04  0.00000000000E+00 0. -1.
         23    2    1    2    0    0 -0.60514541946E+03  0.24632585832E+03 -0.48267414126E+03  0.81746353634E+03  0.91623683845E+02 0.  0.
         13    1    3    3    0    0 -0.52694557348E+03  0.18122043768E+03 -0.39356236328E+03  0.68220511449E+03  0.00000000000E+00 0. -1.
        -13    1    3    3    0    0 -0.78199845974E+02  0.65105420640E+02 -0.89111777984E+02  0.13525842185E+03  0.00000000000E+00 0.  1.
         22    1    1    2    0    0  0.60514541946E+03 -0.24632585832E+03 -0.41922252311E+03  0.77628920580E+03  0.00000000000E+00 0.  1.
<mgrwt>
<rscale>  0 0.13140130E+04</rscale>
<asrwt>0</asrwt>
<pdfrwt beam="1">  1        2 0.19197304E+00 0.13140130E+04</pdfrwt>
<pdfrwt beam="2">  1       -2 0.53219697E-01 0.13140130E+04</pdfrwt>
<totfact> 0.57814195E+01</totfact>
</mgrwt>
</event>
<event>
 6    1  0.1637818E-005  0.4701998E+04  0.7818608E-02  0.7876197E-01
         -1   -1    0    0    0  501 -0.00000000000E+00  0.00000000000E+00  0.21121324218E+04  0.21121324218E+04  0.00000000000E+00 0.  1.
          1   -1    0    0  501    0  0.00000000000E+00 -0.00000000000E+00 -0.26168793961E+04  0.26168793961E+04  0.00000000000E+00 0. -1.
         23    2    1    2    0    0 -0.10895912864E+04 -0.98823593333E+03  0.15909130064E+04  0.21686192336E+04  0.89920827097E+02 0.  0.
         13    1    3    3    0    0 -0.67333771545E+03 -0.59474567503E+03  0.10330270854E+04  0.13690328909E+04  0.00000000000E+00 0. -1.
        -13    1    3    3    0    0 -0.41625357096E+03 -0.39349025831E+03  0.55788592093E+03  0.79958634274E+03  0.00000000000E+00 0.  1.
         22    1    1    2    0    0  0.10895912864E+04  0.98823593333E+03 -0.20956599807E+04  0.25603925844E+04  0.00000000000E+00 0. -1.
<mgrwt>
<rscale>  0 0.47019978E+04</rscale>
<asrwt>0</asrwt>
<pdfrwt beam="1">  1        1 0.40259683E+00 0.47019978E+04</pdfrwt>
<pdfrwt beam="2">  1       -1 0.32494345E+00 0.47019978E+04</pdfrwt>
<totfact> 0.18860052E-02</totfact>
</mgrwt>
</event>
<event>
 6    1  0.1637818E-005  0.2267458E+04  0.7818608E-02  0.8490864E-01
          2   -1    0    0  501    0  0.00000000000E+00  0.00000000000E+00  0.15711153447E+04  0.15711153447E+04  0.00000000000E+00 0. -1.
         -2   -1    0    0    0  501 -0.00000000000E+00 -0.00000000000E+00 -0.81810746873E+03  0.81810746873E+03  0.00000000000E+00 0.  1.
         23    2    1    2    0    0 -0.37818622927E+03 -0.50745708497E+03 -0.61150722734E+03  0.88508220023E+03  0.94296845076E+02 0.  0.
         13    1    3    3    0    0 -0.17975743206E+03 -0.29509364682E+03 -0.28453104066E+03  0.44760575049E+03  0.00000000000E+00 0.  1.
        -13    1    3    3    0    0 -0.19842879720E+03 -0.21236343815E+03 -0.32697618668E+03  0.43747644974E+03  0.00000000000E+00 0. -1.
         22    1    1    2    0    0  0.37818622927E+03  0.50745708497E+03  0.13645151033E+04  0.15041406132E+04  0.00000000000E+00 0. -1.
<mgrwt>
<rscale>  0 0.22674578E+04</rscale>
<asrwt>0</asrwt>
<pdfrwt beam="1">  1        2 0.24171005E+00 0.22674578E+04</pdfrwt>
<pdfrwt beam="2">  1       -2 0.12586269E+00 0.22674578E+04</pdfrwt>
<totfact> 0.49596195E+00</totfact>
</mgrwt>
</event>
<event>
 6    1  0.1637818E-005  0.2693295E+04  0.7818608E-02  0.8337184E-01
         -1   -1    0    0    0  501 -0.00000000000E+00  0.00000000000E+00  0.92626252352E+03  0.92626252352E+03  0.00000000000E+00 0.  1.
          1   -1    0    0  501    0  0.00000000000E+00 -0.00000000000E+00 -0.19578250038E+04  0.19578250038E+04  0.00000000000E+00 0. -1.
         23    2    1    2    0    0  0.59240503046E+03  0.62827504563E+03  0.58794416896E+03  0.10487469486E+04  0.92296063017E+02 0.  0.
         11    1    3    3    0    0  0.20363215612E+03  0.28185787420E+03  0.23628479324E+03  0.42040506630E+03  0.00000000000E+00 0.  1.
        -11    1    3    3    0    0  0.38877287434E+03  0.34641717143E+03  0.35165937573E+03  0.62834188227E+03  0.00000000000E+00 0. -1.
         22    1    1    2    0    0 -0.59240503046E+03 -0.62827504563E+03 -0.16195066492E+04  0.18353405787E+04  0.00000000000E+00 0. -1.
<mgrwt>
<rscale>  0 0.26932953E+04</rscale>
<asrwt>0</asrwt>
<pdfrwt beam="1">  1        1 0.30120385E+00 0.26932953E+04</pdfrwt>
<pdfrwt beam="2">  1       -1 0.14250193E+00 0.26932953E+04</pdfrwt>
<totfact> 0.11124704E+00</totfact>
</mgrwt>
</event>
<event>
 6    1  0.1637818E-005  0.4813135E+04  0.7818608E-02  0.7857998E-01
          2   -1    0    0  501    0  0.00000000000E+00  0.00000000000E+00  0.38391698965E+04  0.38391698965E+04  0.00000000000E+00 0. -1.
         -2   -1    0    0    0  501 -0.00000000000E+00 -0.00000000000E+00 -0.15085464279E+04  0.15085464279E+04  0.00000000000E+00 0.  1.
         23    2    1    2    0    0  0.81409887992E+03  0.22567898645E+04  0.13609366598E+04  0.27600243053E+04  0.98631104910E+02 0.  0.
         13    1    3    3    0    0  0.39306809992E+03  0.12267516467E+04  0.74850474958E+03  0.14898595551E+04  0.00000000000E+00 0.  1.
        -13    1    3    3    0    0  0.42103078000E+03  0.10300382179E+04  0.61243191024E+03  0.12701647502E+04  0.00000000000E+00 0. -1.
         22    1    1    2    0    0 -0.81409887992E+03 -0.22567898645E+04  0.96968680876E+03  0.25876920191E+04  0.00000000000E+00 0. -1.
<mgrwt>
<rscale>  0 0.48131345E+04</rscale>
<asrwt>0</asrwt>
<pdfrwt beam="1">  1        2 0.59064152E+00 0.48131345E+04</pdfrwt>
<pdfrwt beam="2">  1       -2 0.23208407E+00 0.48131345E+04</pdfrwt>
<totfact> 0.28000789E-02</totfact>
</mgrwt>
</event>
<event>
 6    1  0.1637818E-005  0.1301782E+04  0.7818608E-02  0.9028153E-01
          2   -1    0    0  501    0  0.00000000000E+00  0.00000000000E+00  0.71109449025E+03  0.71109449025E+03  0.00000000000E+00 0. -1.
         -2   -1    0    0    0  501 -0.00000000000E+00 -0.00000000000E+00 -0.59578445420E+03  0.59578445420E+03  0.00000000000E+00 0.  1.
         23    2    1    2    0    0  0.23113843557E+03  0.31274596323E+03  0.57826331864E+03  0.70226273910E+03  0.86887715627E+02 0.  0.
         13    1    3    3    0    0  0.52448020823E+02  0.12674908749E+03  0.15875903141E+03  0.20981076264E+03  0.00000000000E+00 0.  1.
        -13    1    3    3    0    0  0.17869041475E+03  0.18599687574E+03  0.41950428723E+03  0.49245197646E+03  0.00000000000E+00 0. -1.
         22    1    1    2    0    0 -0.23113843557E+03 -0.31274596323E+03 -0.46295328259E+03  0.60461620535E+03  0.00000000000E+00 0.  1.
<mgrwt>
<rscale>  0 0.13017819E+04</rscale>
<asrwt>0</asrwt>
<pdfrwt beam="1">  1        2 0.10939915E+00 0.13017819E+04</pdfrwt>
<pdfrwt beam="2">  1       -2 0.91659147E-01 0.13017819E+04</pdfrwt>
<totfact> 0.39889217E+01</totfact>
</mgrwt>
</event>
<event>
 6    1  0.1637818E-005  0.1971830E+04  0.7818608E-02  0.8619905E-01
          1   -1    0    0  501    0  0.00000000000E+00  0.00000000000E+00  0.85228808375E+03  0.85228808375E+03  0.00000000000E+00 0. -1.
         -1   -1    0    0    0  501 -0.00000000000E+00 -0.00000000000E+00 -0.11404930200E+04  0.11404930200E+04  0.00000000000E+00 0.  1.
         23    2    1    2    0    0 -0.21372890860E+03 -0.74747893088E+03  0.46483961515E+03  0.91043139368E+03  0.91676912596E+02 0.  0.
         13    1    3    3    0    0 -0.24475647104E+02 -0.22205604433E+03  0.11276476072E+03  0.25024754820E+03  0.00000000000E+00 0. -1.
        -13    1    3    3    0    0 -0.18925326149E+03 -0.52542288655E+03  0.35207485443E+03  0.66018384547E+03  0.00000000000E+00 0.  1.
         22    1    1    2    0    0  0.21372890860E+03  0.74747893088E+03 -0.75304455137E+03  0.10823497100E+04  0.00000000000E+00 0.  1.
<mgrwt>
<rscale>  0 0.19718302E+04</rscale>
<asrwt>0</asrwt>
<pdfrwt beam="1">  1        1 0.13112124E+00 0.19718302E+04</pdfrwt>
<pdfrwt beam="2">  1       -1 0.17546047E+00 0.19718302E+04</pdfrwt>
<totfact> 0.41614231E+00</totfact>
</mgrwt>
</event>
<event>
 6    1  0.1637818E-005  0.7448704E+03  0.7818608E-02  0.9643432E-01
          1   -1    0    0  501    0  0.00000000000E+00  0.00000000000E+00  0.11132302179E+03  0.11132302179E+03  0.00000000000E+00 0. -1.
         -1   -1    0    0    0  501 -0.00000000000E+00 -0.00000000000E+00 -0.12459954194E+04  0.12459954194E+04  0.00000000000E+00 0.  1.
         23    2    1    2    0    0 -0.24600304902E+02  0.20713437204E+03 -0.28720475500E+02  0.23186765279E+03  0.97097474824E+02 0.  0.
         13    1    3    3    0    0  0.63671441317E+01  0.12931020305E+03  0.25684893003E+02  0.13199008624E+03  0.00000000000E+00 0. -1.
        -13    1    3    3    0    0 -0.30967449034E+02  0.77824168994E+02 -0.54405368503E+02  0.99877566556E+02  0.00000000000E+00 0.  1.
         22    1    1    2    0    0  0.24600304902E+02 -0.20713437204E+03 -0.11059519222E+04  0.11254507884E+04  0.00000000000E+00 0.  1.
<mgrwt>
<rscale>  0 0.74487039E+03</rscale>
<asrwt>0</asrwt>
<pdfrwt beam="1">  1        1 0.17126618E-01 0.74487039E+03</pdfrwt>
<pdfrwt beam="2">  1       -1 0.19169161E+00 0.74487039E+03</pdfrwt>
<totfact> 0.56698230E+01</totfact>
</mgrwt>
</event>
<event>
 6    1  0.1637818E-005  0.5135398E+03  0.7818608E-02  0.1010304E+00
          2   -1    0    0  501    0  0.00000000000E+00  0.00000000000E+00  0.20596084353E+03  0.20596084353E+03  0.00000000000E+00 0. -1.
         -2   -1    0    0    0  501 -0.00000000000E+00 -0.00000000000E+00 -0.32011320718E+03  0.32011320718E+03  0.00000000000E+00 0.  1.
         23    2    1    2    0    0  0.11162429076E+02 -0.96138235876E+02 -0.29356124926E+03  0.32222433043E+03  0.91011822479E+02 0.  0.
         13    1    3    3    0    0 -0.35235069854E+02 -0.65912401707E+02 -0.13552484707E+03  0.15476737066E+03  0.00000000000E+00 0.  1.
        -13    1    3    3    0    0  0.46397498930E+02 -0.30225834170E+02 -0.15803640219E+03  0.16745695977E+03  0.00000000000E+00 0. -1.
         22    1    1    2    0    0 -0.11162429076E+02  0.96138235876E+02  0.17940888561E+03  0.20384972028E+03  0.00000000000E+00 0. -1.
<mgrwt>
<rscale>  0 0.51353982E+03</rscale>
<asrwt>0</asrwt>
<pdfrwt beam="1">  1        2 0.31686284E-01 0.51353982E+03</pdfrwt>
<pdfrwt beam="2">  1       -2 0.49248186E-01 0.51353982E+03</pdfrwt>
<totfact> 0.65698633E+02</totfact>
</mgrwt>
</event>
<event>
 6    1  0.1637818E-005  0.1227741E+04  0.7818608E-02  0.9088916E-01
         -1   -1    0    0    0  501 -0.00000000000E+00  0.00000000000E+00  0.33933187562E+03  0.33933187562E+03  0.00000000000E+00 0.  1.
          1   -1    0    0  501    0  0.00000000000E+00 -0.00000000000E+00 -0.11105261390E+04  0.11105261390E+04  0.00000000000E+00 0. -1.
         23    2    1    2    0    0  0.47088030355E+03 -0.12169175758E+03  0.47961192467E+02  0.49720235544E+03  0.91502798534E+02 0.  0.
         13    1    3    3    0    0  0.42207607692E+02 -0.16733419002E+02  0.32058662890E+02  0.55580997876E+02  0.00000000000E+00 0. -1.
        -13    1    3    3    0    0  0.42867269586E+03 -0.10495833858E+03  0.15902529577E+02  0.44162135757E+03  0.00000000000E+00 0.  1.
         22    1    1    2    0    0 -0.47088030355E+03  0.12169175758E+03 -0.81915545587E+03  0.95265565920E+03  0.00000000000E+00 0. -1.
<mgrwt>
<rscale>  0 0.12277409E+04</rscale>
<asrwt>0</asrwt>
<pdfrwt beam="1">  1        1 0.17085018E+00 0.12277409E+04</pdfrwt>
<pdfrwt beam="2">  1       -1 0.52204904E-01 0.12277409E+04</pdfrwt>
<totfact> 0.45434351E+01</totfact>
</mgrwt>
</event>
<event>
 6    1  0.1637818E-005  0.3000727E+04  0.7818608E-02  0.8243523E-01
         -1   -1    0    0    0  501 -0.00000000000E+00  0.00000000000E+00  0.14343858568E+04  0.14343858568E+04  0.00000000000E+00 0.  1.
          1   -1    0    0  501    0  0.00000000000E+00 -0.00000000000E+00 -0.15693762305E+04  0.15693762305E+04  0.00000000000E+00 0. -1.
         23    2    1    2    0    0  0.31067273500E+03  0.58473418970E+03 -0.14137473076E+04  0.15637444079E+04  0.90462714748E+02 0.  0.
         13    1    3    3    0    0  0.13993545734E+03  0.20854588761E+03 -0.45342124042E+03  0.51832821718E+03  0.00000000000E+00 0.  1.
        -13    1    3    3    0    0  0.17073727766E+03  0.37618830209E+03 -0.96032606716E+03  0.10454161907E+04  0.00000000000E+00 0. -1.
         22    1    1    2    0    0 -0.31067273500E+03 -0.58473418970E+03  0.12787569339E+04  0.14400176794E+04  0.00000000000E+00 0.  1.
<mgrwt>
<rscale>  0 0.30007273E+04</rscale>
<asrwt>0</asrwt>
<pdfrwt beam="1">  1        1 0.24144249E+00 0.30007273E+04</pdfrwt>
<pdfrwt beam="2">  1       -1 0.22067475E+00 0.30007273E+04</pdfrwt>
<totfact> 0.54292570E-01</totfact>
</mgrwt>
</event>
<event>
 6    1  0.1637818E-005  0.2347601E+04  0.7818608E-02  0.8459386E-01
          2   -1    0    0  501    0  0.00000000000E+00  0.00000000000E+00  0.19845520500E+04  0.19845520500E+04  0.00000000000E+00 0. -1.
         -2   -1    0    0    0  501 -0.00000000000E+00 -0.00000000000E+00 -0.69426606538E+03  0.69426606538E+03  0.00000000000E+00 0.  1.
         23    2    1    2    0    0 -0.85594870909E+03 -0.46165441519E+03  0.13926621527E+04  0.17009357751E+04  0.88891214473E+02 0.  0.
         11    1    3    3    0    0 -0.45961417311E+03 -0.27429844428E+03  0.83072254203E+03  0.98822303479E+03  0.00000000000E+00 0.  1.
        -11    1    3    3    0    0 -0.39633453598E+03 -0.18735597090E+03  0.56193961065E+03  0.71271274035E+03  0.00000000000E+00 0. -1.
         22    1    1    2    0    0  0.85594870909E+03  0.46165441519E+03 -0.10237616802E+03  0.97788234028E+03  0.00000000000E+00 0.  1.
<mgrwt>
<rscale>  0 0.23476006E+04</rscale>
<asrwt>0</asrwt>
<pdfrwt beam="1">  1        2 0.30531570E+00 0.23476006E+04</pdfrwt>
<pdfrwt beam="2">  1       -2 0.10681016E+00 0.23476006E+04</pdfrwt>
<totfact> 0.43414967E+00</totfact>
</mgrwt>
</event>
<event>
 6    1  0.1637818E-005  0.2631912E+04  0.7818608E-02  0.8357442E-01
          1   -1    0    0  501    0  0.00000000000E+00  0.00000000000E+00  0.18081337716E+04  0.18081337716E+04  0.00000000000E+00 0. -1.
         -1   -1    0    0    0  501 -0.00000000000E+00 -0.00000000000E+00 -0.95775004781E+03  0.95775004781E+03  0.00000000000E+00 0.  1.
         23    2    1    2    0    0 -0.63659988186E+03  0.31295900294E+03  0.15884704542E+04  0.17421774315E+04  0.93493699304E+02 0.  0.
         13    1    3    3    0    0 -0.51393607638E+03  0.23163420047E+03  0.13338687374E+04  0.14480989269E+04  0.00000000000E+00 0.  1.
        -13    1    3    3    0    0 -0.12266380549E+03  0.81324802462E+02  0.25460171680E+03  0.29407850460E+03  0.00000000000E+00 0. -1.
         22    1    1    2    0    0  0.63659988186E+03 -0.31295900294E+03 -0.73808673040E+03  0.10237063879E+04  0.00000000000E+00 0.  1.
<mgrwt>
<rscale>  0 0.26319120E+04</rscale>
<asrwt>0</asrwt>
<pdfrwt beam="1">  1        1 0.27817443E+00 0.26319120E+04</pdfrwt>
<pdfrwt beam="2">  1       -1 0.14734616E+00 0.26319120E+04</pdfrwt>
<totfact> 0.12932120E+00</totfact>
</mgrwt>
</event>
<event>
 6    1  0.1637818E-005  0.4254760E+04  0.7818608E-02  0.7955037E-01
         -2   -1    0    0    0  501 -0.00000000000E+00  0.00000000000E+00  0.15569078688E+04  0.15569078688E+04  0.00000000000E+00 0.  1.
          2   -1    0    0  501    0  0.00000000000E+00 -0.00000000000E+00 -0.29068812157E+04  0.29068812157E+04  0.00000000000E+00 0. -1.
         23    2    1    2    0    0 -0.75322913155E+03 -0.13036336539E+04 -0.22507080209E+04  0.27093268362E+04  0.89165474619E+02 0.  0.
         13    1    3    3    0    0 -0.52857857508E+03 -0.83330790432E+03 -0.14935307372E+04  0.17900925776E+04  0.00000000000E+00 0. -1.
        -13    1    3    3    0    0 -0.22465055647E+03 -0.47032574957E+03 -0.75717728365E+03  0.91923425856E+03  0.00000000000E+00 0.  1.
         22    1    1    2    0    0  0.75322913155E+03  0.13036336539E+04  0.90073467392E+03  0.17544622484E+04  0.00000000000E+00 0.  1.
<mgrwt>
<rscale>  0 0.42547603E+04</rscale>
<asrwt>0</asrwt>
<pdfrwt beam="1">  1        2 0.44721249E+00 0.42547603E+04</pdfrwt>
<pdfrwt beam="2">  1       -2 0.23952429E+00 0.42547603E+04</pdfrwt>
<totfact> 0.11462894E-01</totfact>
</mgrwt>
</event>
<event>
 6    1  0.1637818E-005  0.3111763E+04  0.7818608E-02  0.8212517E-01
         -2   -1    0    0    0  501 -0.00000000000E+00  0.00000000000E+00  0.68304943170E+03  0.68304943170E+03  0.00000000000E+00 0.  1.
          2   -1    0    0  501    0  0.00000000000E+00 -0.00000000000E+00 -0.35440589349E+04  0.35440589349E+04  0.00000000000E+00 0. -1.
         23    2    1    2    0    0  0.93715470036E+03 -0.99256520008E+03 -0.42133138517E+03  0.14314914529E+04  0.90570606149E+02 0.  0.
         13    1    3    3    0    0  0.28629647980E+03 -0.30121910435E+03 -0.85023409576E+02  0.42417873986E+03  0.00000000000E+00 0.  1.
        -13    1    3    3    0    0  0.65085822056E+03 -0.69134609572E+03 -0.33630797559E+03  0.10073127130E+04  0.00000000000E+00 0. -1.
         22    1    1    2    0    0 -0.93715470036E+03  0.99256520008E+03 -0.24396781181E+04  0.27956169138E+04  0.00000000000E+00 0. -1.
<mgrwt>
<rscale>  0 0.31117631E+04</rscale>
<asrwt>0</asrwt>
<pdfrwt beam="1">  1        2 0.54523984E+00 0.31117631E+04</pdfrwt>
<pdfrwt beam="2">  1       -2 0.10508453E+00 0.31117631E+04</pdfrwt>
<totfact> 0.47048288E-01</totfact>
</mgrwt>
</event>
<event>
 6    1  0.1637818E-005  0.3299199E+04  0.7818608E-02  0.8163099E-01
          2   -1    0    0  501    0  0.00000000000E+00  0.00000000000E+00  0.23431795600E+04  0.23431795600E+04  0.00000000000E+00 0. -1.
         -2   -1    0    0    0  501 -0.00000000000E+00 -0.00000000000E+00 -0.11613185952E+04  0.11613185952E+04  0.00000000000E+00 0.  1.
         23    2    1    2    0    0  0.15528370705E+04 -0.15279657888E+03  0.26756527102E+02  0.15631285294E+04  0.89471366830E+02 0.  0.
         11    1    3    3    0    0  0.24390840010E+03  0.85870341252E+01  0.42291295574E+01  0.24409614977E+03  0.00000000000E+00 0.  1.
        -11    1    3    3    0    0  0.13089286704E+04 -0.16138361301E+03  0.22527397544E+02  0.13190323796E+04  0.00000000000E+00 0. -1.
         22    1    1    2    0    0 -0.15528370705E+04  0.15279657888E+03  0.11551044377E+04  0.19413696258E+04  0.00000000000E+00 0.  1.
<mgrwt>
<rscale>  0 0.32991987E+04</rscale>
<asrwt>0</asrwt>
<pdfrwt beam="1">  1        2 0.36048916E+00 0.32991987E+04</pdfrwt>
<pdfrwt beam="2">  1       -2 0.17866440E+00 0.32991987E+04</pdfrwt>
<totfact> 0.66281975E-01</totfact>
</mgrwt>
</event>
<event>
 6    1  0.1637818E-005  0.5941177E+03  0.7818608E-02  0.9917686E-01
          2   -1    0    0  501    0  0.00000000000E+00  0.00000000000E+00  0.11019571009E+04  0.11019571009E+04  0.00000000000E+00 0. -1.
         -2   -1    0    0    0  501 -0.00000000000E+00 -0.00000000000E+00 -0.80079302838E+02  0.80079302838E+02  0.00000000000E+00 0.  1.
         23    2    1    2    0    0 -0.27566491275E+03 -0.63212693344E+02  0.65494894254E+03  0.71876135182E+03  0.87594376615E+02 0.  0.
         13    1    3    3    0    0 -0.12073953529E+03  0.94512019132E+01  0.21597426194E+03  0.24761309016E+03  0.00000000000E+00 0. -1.
        -13    1    3    3    0    0 -0.15492537747E+03 -0.72663895257E+02  0.43897468060E+03  0.47114826166E+03  0.00000000000E+00 0.  1.
         22    1    1    2    0    0  0.27566491275E+03  0.63212693344E+02  0.36692885556E+03  0.46327505196E+03  0.00000000000E+00 0.  1.
<mgrwt>
<rscale>  0 0.59411769E+03</rscale>
<asrwt>0</asrwt>
<pdfrwt beam="1">  1        2 0.16953185E+00 0.59411769E+03</pdfrwt>
<pdfrwt beam="2">  1       -2 0.12319894E-01 0.59411769E+03</pdfrwt>
<totfact> 0.10689619E+03</totfact>
</mgrwt>
</event>
<event>
 6    1  0.1637818E-005  0.2123831E+04  0.7818608E-02  0.8550818E-01
         -2   -1    0    0    0  501 -0.00000000000E+00  0.00000000000E+00  0.54241830935E+03  0.54241830935E+03  0.00000000000E+00 0.  1.
          2   -1    0    0  501    0  0.00000000000E+00 -0.00000000000E+00 -0.20789578267E+04  0.20789578267E+04  0.00000000000E+00 0. -1.
         23    2    1    2    0    0 -0.12367044893E+03  0.64783168578E+03 -0.17938377559E+04  0.19134335843E+04  0.91618305347E+02 0.  0.
         11    1    3    3    0    0 -0.86504052959E+02  0.22248433092E+03 -0.62171989321E+03  0.66597136147E+03  0.00000000000E+00 0.  1.
        -11    1    3    3    0    0 -0.37166395975E+02  0.42534735487E+03 -0.11721178627E+04  0.12474622228E+04  0.00000000000E+00 0. -1.
         22    1    1    2    0    0  0.12367044893E+03 -0.64783168578E+03  0.25729823856E+03  0.70794255177E+03  0.00000000000E+00 0.  1.
<mgrwt>
<rscale>  0 0.21238312E+04</rscale>
<asrwt>0</asrwt>
<pdfrwt beam="1">  1        2 0.31983967E+00 0.21238312E+04</pdfrwt>
<pdfrwt beam="2">  1       -2 0.83448971E-01 0.21238312E+04</pdfrwt>
<totfact> 0.69760823E+00</totfact>
</mgrwt>
</event>
<event>
 6    1  0.1637818E-005  0.1768683E+04  0.7818608E-02  0.8723133E-01
         -1   -1    0    0    0  501 -0.00000000000E+00  0.00000000000E+00  0.65413795109E+03  0.65413795109E+03  0.00000000000E+00 0.  1.
          1   -1    0    0  501    0  0.00000000000E+00 -0.00000000000E+00 -0.11955581772E+04  0.11955581772E+04  0.00000000000E+00 0. -1.
         23    2    1    2    0    0  0.83174029235E+03 -0.17753397522E+03 -0.27344092585E+02  0.85592326827E+03  0.92448447756E+02 0.  0.
         11    1    3    3    0    0  0.34389757527E+03 -0.97792441383E+02 -0.50412771868E+02  0.36106834732E+03  0.00000000000E+00 0.  1.
        -11    1    3    3    0    0  0.48784271707E+03 -0.79741533835E+02  0.23068679282E+02  0.49485492095E+03  0.00000000000E+00 0. -1.
         22    1    1    2    0    0 -0.83174029235E+03  0.17753397522E+03 -0.51407613353E+03  0.99377286003E+03  0.00000000000E+00 0. -1.
<mgrwt>
<rscale>  0 0.17686831E+04</rscale>
<asrwt>0</asrwt>
<pdfrwt beam="1">  1        1 0.18393203E+00 0.17686831E+04</pdfrwt>
<pdfrwt beam="2">  1       -1 0.10063661E+00 0.17686831E+04</pdfrwt>
<totfact> 0.95690848E+00</totfact>
</mgrwt>
</event>
<event>
 6    1  0.1637818E-005  0.3698277E+04  0.7818608E-02  0.8068344E-01
         -1   -1    0    0    0  501 -0.00000000000E+00  0.00000000000E+00  0.27367039860E+04  0.27367039860E+04  0.00000000000E+00 0.  1.
          1   -1    0    0  501    0  0.00000000000E+00 -0.00000000000E+00 -0.12494276339E+04  0.12494276339E+04  0.00000000000E+00 0. -1.
         23    2    1    2    0    0 -0.25496549825E+03 -0.12623008582E+04 -0.68454846954E+03  0.14612090630E+04  0.90080280075E+02 0.  0.
         11    1    3    3    0    0 -0.13530554848E+03 -0.50654718099E+03 -0.24430170547E+03  0.57842973757E+03  0.00000000000E+00 0. -1.
        -11    1    3    3    0    0 -0.11965994977E+03 -0.75575367722E+03 -0.44024676407E+03  0.88277932548E+03  0.00000000000E+00 0.  1.
         22    1    1    2    0    0  0.25496549825E+03  0.12623008582E+04  0.21718248217E+04  0.25249225568E+04  0.00000000000E+00 0.  1.
<mgrwt>
<rscale>  0 0.36982772E+04</rscale>
<asrwt>0</asrwt>
<pdfrwt beam="1">  1        1 0.19221964E+00 0.36982772E+04</pdfrwt>
<pdfrwt beam="2">  1       -1 0.42103138E+00 0.36982772E+04</pdfrwt>
<totfact> 0.40450435E-02</totfact>
</mgrwt>
</event>
<event>
 6    1  0.1637818E-005  0.2531544E+04  0.7818608E-02  0.8391833E-01
         -2   -1    0    0    0  501 -0.00000000000E+00  0.00000000000E+00  0.79562081644E+03  0.79562081644E+03  0.00000000000E+00 0. -1.
          2   -1    0    0  501    0  0.00000000000E+00 -0.00000000000E+00 -0.20137460936E+04  0.20137460936E+04  0.00000000000E+00 0.  1.
         23    2    1    2    0    0  0.54612340947E+03 -0.10027652158E+04 -0.78071921449E+01  0.11454382086E+04  0.90437166404E+02 0.  0.
         13    1    3    3    0    0  0.30363409984E+02 -0.29474452557E+02  0.11200917059E+02  0.43773742842E+02  0.00000000000E+00 0. -1.
        -13    1    3    3    0    0  0.51575999948E+03 -0.97329076329E+03 -0.19008109204E+02  0.11016644658E+04  0.00000000000E+00 0.  1.
         22    1    1    2    0    0 -0.54612340947E+03  0.10027652158E+04 -0.12103180850E+04  0.16639287014E+04  0.00000000000E+00 0.  1.
<mgrwt>
<rscale>  0 0.25315436E+04</rscale>
<asrwt>0</asrwt>
<pdfrwt beam="1">  1        2 0.30980709E+00 0.25315436E+04</pdfrwt>
<pdfrwt beam="2">  1       -2 0.12240320E+00 0.25315436E+04</pdfrwt>
<totfact> 0.29512209E+00</totfact>
</mgrwt>
</event>
<event>
 6    1  0.1637818E-005  0.9324636E+03  0.7818608E-02  0.9385886E-01
         -1   -1    0    0    0  501 -0.00000000000E+00  0.00000000000E+00  0.27233506997E+03  0.27233506997E+03  0.00000000000E+00 0.  1.
          1   -1    0    0  501    0  0.00000000000E+00 -0.00000000000E+00 -0.79817878974E+03  0.79817878974E+03  0.00000000000E+00 0. -1.
         23    2    1    2    0    0  0.23084708831E+03 -0.24352361231E+03  0.99579178054E+02  0.36076184031E+03  0.87401171558E+02 0.  0.
         11    1    3    3    0    0  0.13577832106E+03 -0.15947203209E+03  0.18690717705E+02  0.21027701828E+03  0.00000000000E+00 0. -1.
        -11    1    3    3    0    0  0.95068767250E+02 -0.84051580215E+02  0.80888460349E+02  0.15048482203E+03  0.00000000000E+00 0.  1.
         22    1    1    2    0    0 -0.23084708831E+03  0.24352361231E+03 -0.62542289782E+03  0.70975201941E+03  0.00000000000E+00 0. -1.
<mgrwt>
<rscale>  0 0.93246357E+03</rscale>
<asrwt>0</asrwt>
<pdfrwt beam="1">  1        1 0.12279674E+00 0.93246357E+03</pdfrwt>
<pdfrwt beam="2">  1       -1 0.41897703E-01 0.93246357E+03</pdfrwt>
<totfact> 0.12477304E+02</totfact>
</mgrwt>
</event>
<event>
 6    1  0.1637818E-005  0.2937647E+04  0.7818608E-02  0.8261764E-01
         -1   -1    0    0    0  501 -0.00000000000E+00  0.00000000000E+00  0.15213561749E+04  0.15213561749E+04  0.00000000000E+00 0.  1.
          1   -1    0    0  501    0  0.00000000000E+00 -0.00000000000E+00 -0.14181043611E+04  0.14181043611E+04  0.00000000000E+00 0. -1.
         23    2    1    2    0    0 -0.59149745025E+02 -0.99380731939E+03 -0.10274137256E+04  0.14329558921E+04  0.81436752046E+02 0.  0.
         11    1    3    3    0    0 -0.32718250269E+02 -0.12307489060E+03 -0.11768233745E+03  0.17339851541E+03  0.00000000000E+00 0.  1.
        -11    1    3    3    0    0 -0.26431494756E+02 -0.87073242878E+03 -0.90973138817E+03  0.12595573766E+04  0.00000000000E+00 0. -1.
         22    1    1    2    0    0  0.59149745025E+02  0.99380731939E+03  0.11306655394E+04  0.15065046440E+04  0.00000000000E+00 0.  1.
<mgrwt>
<rscale>  0 0.29376466E+04</rscale>
<asrwt>0</asrwt>
<pdfrwt beam="1">  1        1 0.21816990E+00 0.29376466E+04</pdfrwt>
<pdfrwt beam="2">  1       -1 0.23405480E+00 0.29376466E+04</pdfrwt>
<totfact> 0.56645270E-01</totfact>
</mgrwt>
</event>
<event>
 6    1  0.1637818E-005  0.7764047E+03  0.7818608E-02  0.9594813E-01
         -2   -1    0    0    0  501 -0.00000000000E+00  0.00000000000E+00  0.26735966295E+03  0.26735966295E+03  0.00000000000E+00 0.  1.
          2   -1    0    0  501    0  0.00000000000E+00 -0.00000000000E+00 -0.56366424105E+03  0.56366424105E+03  0.00000000000E+00 0. -1.
         23    2    1    2    0    0  0.79648207437E+02  0.37425144904E+03 -0.13769006573E+03  0.41681797986E+03  0.91491475437E+02 0.  0.
         13    1    3    3    0    0  0.97410465248E+02  0.29790035264E+03 -0.94714415261E+02  0.32742058472E+03  0.00000000000E+00 0. -1.
        -13    1    3    3    0    0 -0.17762257811E+02  0.76351096408E+02 -0.42975650467E+02  0.89397395143E+02  0.00000000000E+00 0.  1.
         22    1    1    2    0    0 -0.79648207437E+02 -0.37425144904E+03 -0.15861451236E+03  0.41420592414E+03  0.00000000000E+00 0.  1.
<mgrwt>
<rscale>  0 0.77640474E+03</rscale>
<asrwt>0</asrwt>
<pdfrwt beam="1">  1        2 0.86717576E-01 0.77640474E+03</pdfrwt>
<pdfrwt beam="2">  1       -2 0.41132256E-01 0.77640474E+03</pdfrwt>
<totfact> 0.30135144E+02</totfact>
</mgrwt>
</event>
<event>
 6    1  0.1637818E-005  0.1873019E+04  0.7818608E-02  0.8668405E-01
          2   -1    0    0  501    0  0.00000000000E+00  0.00000000000E+00  0.20527237635E+04  0.20527237635E+04  0.00000000000E+00 0. -1.
         -2   -1    0    0    0  501 -0.00000000000E+00 -0.00000000000E+00 -0.42726140757E+03  0.42726140757E+03  0.00000000000E+00 0.  1.
         23    2    1    2    0    0  0.35205248814E+03  0.80420240436E+03  0.39152461892E+03  0.96562563635E+03  0.91972173922E+02 0.  0.
         13    1    3    3    0    0  0.24831171824E+03  0.60323893574E+03  0.24871991467E+03  0.69815293379E+03  0.00000000000E+00 0. -1.
        -13    1    3    3    0    0  0.10374076990E+03  0.20096346862E+03  0.14280470425E+03  0.26747270256E+03  0.00000000000E+00 0.  1.
         22    1    1    2    0    0 -0.35205248814E+03 -0.80420240436E+03  0.12339377370E+04  0.15143595347E+04  0.00000000000E+00 0. -1.
<mgrwt>
<rscale>  0 0.18730186E+04</rscale>
<asrwt>0</asrwt>
<pdfrwt beam="1">  1        2 0.31580365E+00 0.18730186E+04</pdfrwt>
<pdfrwt beam="2">  1       -2 0.65732525E-01 0.18730186E+04</pdfrwt>
<totfact> 0.12489351E+01</totfact>
</mgrwt>
</event>
<event>
 6    1  0.1637818E-005  0.5263678E+04  0.7818608E-02  0.7789071E-01
          1   -1    0    0  501    0  0.00000000000E+00  0.00000000000E+00  0.49929463061E+04  0.49929463061E+04  0.00000000000E+00 0. -1.
         -1   -1    0    0    0  501 -0.00000000000E+00 -0.00000000000E+00 -0.13872725450E+04  0.13872725450E+04  0.00000000000E+00 0.  1.
         23    2    1    2    0    0  0.22760116351E+04 -0.14203496515E+03  0.33939773286E+04  0.40899746995E+04  0.91695368947E+02 0.  0.
         13    1    3    3    0    0  0.42297979908E+03 -0.12702906419E+02  0.57217644891E+03  0.71165944310E+03  0.00000000000E+00 0. -1.
        -13    1    3    3    0    0  0.18530318360E+04 -0.12933205873E+03  0.28218008797E+04  0.33783152564E+04  0.00000000000E+00 0.  1.
         22    1    1    2    0    0 -0.22760116351E+04  0.14203496515E+03  0.21169643250E+03  0.22902441516E+04  0.00000000000E+00 0.  1.
<mgrwt>
<rscale>  0 0.52636783E+04</rscale>
<asrwt>0</asrwt>
<pdfrwt beam="1">  1        1 0.76814558E+00 0.52636783E+04</pdfrwt>
<pdfrwt beam="2">  1       -1 0.21342655E+00 0.52636783E+04</pdfrwt>
<totfact> 0.74925698E-04</totfact>
</mgrwt>
</event>
<event>
 6    1  0.1637818E-005  0.1061505E+04  0.7818608E-02  0.9243546E-01
          1   -1    0    0  501    0  0.00000000000E+00  0.00000000000E+00  0.77594482499E+03  0.77594482499E+03  0.00000000000E+00 0. -1.
         -1   -1    0    0    0  501 -0.00000000000E+00 -0.00000000000E+00 -0.36303887192E+03  0.36303887192E+03  0.00000000000E+00 0.  1.
         23    2    1    2    0    0  0.20410834687E+03 -0.25834944379E+03  0.64932839118E+03  0.73364405955E+03  0.90562653129E+02 0.  0.
         11    1    3    3    0    0  0.15266441892E+03 -0.13861436620E+03  0.33507230549E+03  0.39343845418E+03  0.00000000000E+00 0. -1.
        -11    1    3    3    0    0  0.51443927959E+02 -0.11973507760E+03  0.31425608569E+03  0.34020560537E+03  0.00000000000E+00 0.  1.
         22    1    1    2    0    0 -0.20410834687E+03  0.25834944379E+03 -0.23642243811E+03  0.40533963736E+03  0.00000000000E+00 0.  1.
<mgrwt>
<rscale>  0 0.10615048E+04</rscale>
<asrwt>0</asrwt>
<pdfrwt beam="1">  1        1 0.11937613E+00 0.10615048E+04</pdfrwt>
<pdfrwt beam="2">  1       -1 0.55852134E-01 0.10615048E+04</pdfrwt>
<totfact> 0.75190493E+01</totfact>
</mgrwt>
</event>
<event>
 6    1  0.1637818E-005  0.2131109E+04  0.7818608E-02  0.8547662E-01
          2   -1    0    0  501    0  0.00000000000E+00  0.00000000000E+00  0.13818941542E+04  0.13818941542E+04  0.00000000000E+00 0. -1.
         -2   -1    0    0    0  501 -0.00000000000E+00 -0.00000000000E+00 -0.82163045826E+03  0.82163045826E+03  0.00000000000E+00 0.  1.
         23    2    1    2    0    0  0.26700733550E+03 -0.99117186003E+03 -0.74731188397E+01  0.10304774420E+04  0.90074067351E+02 0.  0.
         11    1    3    3    0    0  0.11503974583E+03 -0.59690258876E+03 -0.12225116342E+01  0.60788842572E+03  0.00000000000E+00 0.  1.
        -11    1    3    3    0    0  0.15196758967E+03 -0.39426927127E+03 -0.62506072054E+01  0.42258901626E+03  0.00000000000E+00 0. -1.
         22    1    1    2    0    0 -0.26700733550E+03  0.99117186003E+03  0.56773681480E+03  0.11730471705E+04  0.00000000000E+00 0. -1.
<mgrwt>
<rscale>  0 0.21311089E+04</rscale>
<asrwt>0</asrwt>
<pdfrwt beam="1">  1        2 0.21259910E+00 0.21311089E+04</pdfrwt>
<pdfrwt beam="2">  1       -2 0.12640469E+00 0.21311089E+04</pdfrwt>
<totfact> 0.63524046E+00</totfact>
</mgrwt>
</event>
<event>
 6    1  0.1637818E-005  0.2711629E+04  0.7818608E-02  0.8331241E-01
         -2   -1    0    0    0  501 -0.00000000000E+00  0.00000000000E+00  0.96143750267E+03  0.96143750267E+03  0.00000000000E+00 0.  1.
          2   -1    0    0  501    0  0.00000000000E+00 -0.00000000000E+00 -0.19119637144E+04  0.19119637144E+04  0.00000000000E+00 0. -1.
         23    2    1    2    0    0  0.66609240612E+03  0.71997648143E+03  0.51355759642E+03  0.11111337503E+04  0.93976480206E+02 0.  0.
         11    1    3    3    0    0  0.63473484664E+03  0.71003112442E+03  0.49434715416E+03  0.10730385044E+04  0.00000000000E+00 0.  1.
        -11    1    3    3    0    0  0.31357559477E+02  0.99453570082E+01  0.19210442253E+02  0.38095245818E+02  0.00000000000E+00 0. -1.
         22    1    1    2    0    0 -0.66609240612E+03 -0.71997648143E+03 -0.14640838082E+04  0.17622674668E+04  0.00000000000E+00 0. -1.
<mgrwt>
<rscale>  0 0.27116295E+04</rscale>
<asrwt>0</asrwt>
<pdfrwt beam="1">  1        2 0.29414826E+00 0.27116295E+04</pdfrwt>
<pdfrwt beam="2">  1       -2 0.14791346E+00 0.27116295E+04</pdfrwt>
<totfact> 0.20382328E+00</totfact>
</mgrwt>
</event>
<event>
 6    1  0.1637818E-005  0.1672554E+04  0.7818608E-02  0.8777175E-01
         -1   -1    0    0    0  501 -0.00000000000E+00  0.00000000000E+00  0.41957114836E+03  0.41957114836E+03  0.00000000000E+00 0.  1.
          1   -1    0    0  501    0  0.00000000000E+00 -0.00000000000E+00 -0.16668422605E+04  0.16668422605E+04  0.00000000000E+00 0. -1.
         23    2    1    2    0    0  0.57298803227E+03 -0.21015187759E+03  0.85214513728E+02  0.62080874188E+03  0.75252135264E+02 0.  0.
         13    1    3    3    0    0  0.51828982603E+03 -0.18259472863E+03  0.54267951063E+02  0.55218673400E+03  0.00000000000E+00 0.  1.
        -13    1    3    3    0    0  0.54698206240E+02 -0.27557148962E+02  0.30946562665E+02  0.68622007880E+02  0.00000000000E+00 0. -1.
         22    1    1    2    0    0 -0.57298803227E+03  0.21015187759E+03 -0.13324856259E+04  0.14656046670E+04  0.00000000000E+00 0. -1.
<mgrwt>
<rscale>  0 0.16725536E+04</rscale>
<asrwt>0</asrwt>
<pdfrwt beam="1">  1        1 0.25643727E+00 0.16725536E+04</pdfrwt>
<pdfrwt beam="2">  1       -1 0.64549408E-01 0.16725536E+04</pdfrwt>
<totfact> 0.11654955E+01</totfact>
</mgrwt>
</event>
<event>
 6    1  0.1637818E-005  0.2229342E+04  0.7818608E-02  0.8506314E-01
         -1   -1    0    0    0  501 -0.00000000000E+00  0.00000000000E+00  0.11659820006E+04  0.11659820006E+04  0.00000000000E+00 0.  1.
          1   -1    0    0  501    0  0.00000000000E+00 -0.00000000000E+00 -0.10656177839E+04  0.10656177839E+04  0.00000000000E+00 0. -1.
         23    2    1    2    0    0 -0.48377794011E+02  0.78532079053E+03 -0.73732701018E+03  0.10823410032E+04  0.93497444817E+02 0.  0.
         13    1    3    3    0    0 -0.47092507166E+02  0.57304285853E+03 -0.48189097238E+03  0.75020979146E+03  0.00000000000E+00 0. -1.
        -13    1    3    3    0    0 -0.12852868449E+01  0.21227793200E+03 -0.25543603781E+03  0.33213121170E+03  0.00000000000E+00 0.  1.
         22    1    1    2    0    0  0.48377794011E+02 -0.78532079053E+03  0.83769122690E+03  0.11492587814E+04  0.00000000000E+00 0.  1.
<mgrwt>
<rscale>  0 0.22293417E+04</rscale>
<asrwt>0</asrwt>
<pdfrwt beam="1">  1        1 0.16394120E+00 0.22293417E+04</pdfrwt>
<pdfrwt beam="2">  1       -1 0.17938185E+00 0.22293417E+04</pdfrwt>
<totfact> 0.25743541E+00</totfact>
</mgrwt>
</event>
<event>
 6    1  0.1637818E-005  0.4595928E+04  0.7818608E-02  0.7894055E-01
          2   -1    0    0  501    0  0.00000000000E+00  0.00000000000E+00  0.26162750560E+04  0.26162750560E+04  0.00000000000E+00 0.  1.
         -2   -1    0    0    0  501 -0.00000000000E+00 -0.00000000000E+00 -0.20183806863E+04  0.20183806863E+04  0.00000000000E+00 0. -1.
         23    2    1    2    0    0  0.43747666264E+03  0.15636387084E+04 -0.13394896152E+04  0.21068486797E+04  0.90703302857E+02 0.  0.
         11    1    3    3    0    0  0.88832823476E+02  0.23299808343E+03 -0.23669357109E+03  0.34380695747E+03  0.00000000000E+00 0. -1.
        -11    1    3    3    0    0  0.34864383917E+03  0.13306406250E+04 -0.11027960441E+04  0.17630417222E+04  0.00000000000E+00 0.  1.
         22    1    1    2    0    0 -0.43747666264E+03 -0.15636387084E+04  0.19373839849E+04  0.25278070626E+04  0.00000000000E+00 0.  1.
<mgrwt>
<rscale>  0 0.45959282E+04</rscale>
<asrwt>0</asrwt>
<pdfrwt beam="1">  1        2 0.40250386E+00 0.45959282E+04</pdfrwt>
<pdfrwt beam="2">  1       -2 0.31052010E+00 0.45959282E+04</pdfrwt>
<totfact> 0.61307571E-02</totfact>
</mgrwt>
</event>
<event>
 6    1  0.1637818E-005  0.1449801E+04  0.7818608E-02  0.8918538E-01
         -4   -1    0    0    0  501 -0.00000000000E+00  0.00000000000E+00  0.42317998269E+03  0.42317998269E+03  0.00000000000E+00 0.  1.
          4   -1    0    0  501    0  0.00000000000E+00 -0.00000000000E+00 -0.12417428919E+04  0.12417428919E+04  0.00000000000E+00 0. -1.
         23    2    1    2    0    0 -0.91409049284E+02 -0.62155205539E+03 -0.81940232048E+03  0.10366846424E+04  0.92802548972E+02 0.  0.
         11    1    3    3    0    0  0.76140693162E+01 -0.16617729680E+03 -0.17520046129E+03  0.24159484610E+03  0.00000000000E+00 0.  1.
        -11    1    3    3    0    0 -0.99023118600E+02 -0.45537475858E+03 -0.64420185919E+03  0.79508979628E+03  0.00000000000E+00 0. -1.
         22    1    1    2    0    0  0.91409049284E+02  0.62155205539E+03  0.83941124050E+00  0.62823823225E+03  0.00000000000E+00 0.  1.
<mgrwt>
<rscale>  0 0.14498010E+04</rscale>
<asrwt>0</asrwt>
<pdfrwt beam="1">  1        4 0.19103736E+00 0.14498010E+04</pdfrwt>
<pdfrwt beam="2">  1       -4 0.65104614E-01 0.14498010E+04</pdfrwt>
<totfact> 0.64324731E-01</totfact>
</mgrwt>
</event>
<event>
 6    1  0.1637818E-005  0.1612276E+04  0.7818608E-02  0.8813042E-01
         -4   -1    0    0    0  501 -0.00000000000E+00  0.00000000000E+00  0.29059447538E+03  0.29059447538E+03  0.00000000000E+00 0.  1.
          4   -1    0    0  501    0  0.00000000000E+00 -0.00000000000E+00 -0.22363071596E+04  0.22363071596E+04  0.00000000000E+00 0. -1.
         23    2    1    2    0    0 -0.38960738724E+03  0.64852115869E+03 -0.14010505667E+04  0.15946836177E+04  0.87747026430E+02 0.  0.
         11    1    3    3    0    0 -0.27706821804E+02  0.39841026368E+02 -0.14317953548E+03  0.15117987544E+03  0.00000000000E+00 0. -1.
        -11    1    3    3    0    0 -0.36190056544E+03  0.60868013232E+03 -0.12578710313E+04  0.14435037423E+04  0.00000000000E+00 0.  1.
         22    1    1    2    0    0  0.38960738724E+03 -0.64852115869E+03 -0.54466211746E+03  0.93221801724E+03  0.00000000000E+00 0.  1.
<mgrwt>
<rscale>  0 0.16122760E+04</rscale>
<asrwt>0</asrwt>
<pdfrwt beam="1">  1        4 0.34404727E+00 0.16122760E+04</pdfrwt>
<pdfrwt beam="2">  1       -4 0.44706841E-01 0.16122760E+04</pdfrwt>
<totfact> 0.15241633E-01</totfact>
</mgrwt>
</event>
<event>
 6    1  0.1637818E-005  0.2619247E+04  0.7818608E-02  0.8361693E-01
         -2   -1    0    0    0  501 -0.00000000000E+00  0.00000000000E+00  0.82720910635E+03  0.82720910635E+03  0.00000000000E+00 0.  1.
          2   -1    0    0  501    0  0.00000000000E+00 -0.00000000000E+00 -0.20733736939E+04  0.20733736939E+04  0.00000000000E+00 0. -1.
         23    2    1    2    0    0 -0.10166506043E+04  0.31978875270E+03 -0.14637213270E+04  0.18128446734E+04  0.89902110057E+02 0.  0.
         11    1    3    3    0    0 -0.59767229447E+03  0.23388727231E+03 -0.88647194380E+03  0.10944167099E+04  0.00000000000E+00 0.  1.
        -11    1    3    3    0    0 -0.41897830985E+03  0.85901480393E+02 -0.57724938315E+03  0.71842796355E+03  0.00000000000E+00 0. -1.
         22    1    1    2    0    0  0.10166506043E+04 -0.31978875270E+03  0.21755673941E+03  0.10877381268E+04  0.00000000000E+00 0.  1.
<mgrwt>
<rscale>  0 0.26192469E+04</rscale>
<asrwt>0</asrwt>
<pdfrwt beam="1">  1        2 0.31898056E+00 0.26192469E+04</pdfrwt>
<pdfrwt beam="2">  1       -2 0.12726294E+00 0.26192469E+04</pdfrwt>
<totfact> 0.24611681E+00</totfact>
</mgrwt>
</event>
<event>
 6    1  0.1637818E-005  0.4175452E+04  0.7818608E-02  0.7970058E-01
         -1   -1    0    0    0  501 -0.00000000000E+00  0.00000000000E+00  0.27332403337E+04  0.27332403337E+04  0.00000000000E+00 0.  1.
          1   -1    0    0  501    0  0.00000000000E+00 -0.00000000000E+00 -0.15946638414E+04  0.15946638414E+04  0.00000000000E+00 0. -1.
         23    2    1    2    0    0  0.17640483523E+03 -0.11645463275E+04 -0.12158492186E+04  0.16952995251E+04  0.92001862267E+02 0.  0.
         13    1    3    3    0    0  0.12939879490E+03 -0.56009559099E+03 -0.61067976111E+03  0.83867806087E+03  0.00000000000E+00 0. -1.
        -13    1    3    3    0    0  0.47006040339E+02 -0.60445073653E+03 -0.60516945751E+03  0.85662146425E+03  0.00000000000E+00 0.  1.
         22    1    1    2    0    0 -0.17640483523E+03  0.11645463275E+04  0.23544257109E+04  0.26326046499E+04  0.00000000000E+00 0.  1.
<mgrwt>
<rscale>  0 0.41754518E+04</rscale>
<asrwt>0</asrwt>
<pdfrwt beam="1">  1        1 0.24533290E+00 0.41754518E+04</pdfrwt>
<pdfrwt beam="2">  1       -1 0.42049851E+00 0.41754518E+04</pdfrwt>
<totfact> 0.22449800E-02</totfact>
</mgrwt>
</event>
<event>
 6    1  0.1637818E-005  0.1146125E+04  0.7818608E-02  0.9161366E-01
         -3   -1    0    0    0  501 -0.00000000000E+00  0.00000000000E+00  0.17748419265E+03  0.17748419265E+03  0.00000000000E+00 0.  1.
          3   -1    0    0  501    0  0.00000000000E+00 -0.00000000000E+00 -0.18503096610E+04  0.18503096610E+04  0.00000000000E+00 0. -1.
         23    2    1    2    0    0  0.16186508567E+03 -0.26673300808E+03 -0.16844652898E+04  0.17155723153E+04  0.91751036981E+02 0.  0.
         13    1    3    3    0    0  0.14336727908E+03 -0.21129599641E+03 -0.11548322431E+04  0.11827246867E+04  0.00000000000E+00 0. -1.
        -13    1    3    3    0    0  0.18497806589E+02 -0.55437011669E+02 -0.52963304676E+03  0.53284762863E+03  0.00000000000E+00 0.  1.
         22    1    1    2    0    0 -0.16186508567E+03  0.26673300808E+03  0.11639821504E+02  0.31222153834E+03  0.00000000000E+00 0.  1.
<mgrwt>
<rscale>  0 0.11461252E+04</rscale>
<asrwt>0</asrwt>
<pdfrwt beam="1">  1        3 0.28466304E+00 0.11461252E+04</pdfrwt>
<pdfrwt beam="2">  1       -3 0.27305259E-01 0.11461252E+04</pdfrwt>
<totfact> 0.15969126E+00</totfact>
</mgrwt>
</event>
<event>
 6    1  0.1637818E-005  0.4009402E+04  0.7818608E-02  0.8002653E-01
         -2   -1    0    0    0  501 -0.00000000000E+00  0.00000000000E+00  0.26081114841E+04  0.26081114841E+04  0.00000000000E+00 0.  1.
          2   -1    0    0  501    0  0.00000000000E+00 -0.00000000000E+00 -0.15408950756E+04  0.15408950756E+04  0.00000000000E+00 0. -1.
         23    2    1    2    0    0  0.23711479764E+03 -0.19258806072E+04  0.10506942588E+04  0.22085137043E+04  0.91295213041E+02 0.  0.
         13    1    3    3    0    0  0.38192670630E+02 -0.51828857331E+03  0.31733380251E+03  0.60891909769E+03  0.00000000000E+00 0.  1.
        -13    1    3    3    0    0  0.19892212701E+03 -0.14075920339E+04  0.73336045631E+03  0.15995946066E+04  0.00000000000E+00 0. -1.
         22    1    1    2    0    0 -0.23711479764E+03  0.19258806072E+04  0.16522149715E+02  0.19404928554E+04  0.00000000000E+00 0. -1.
<mgrwt>
<rscale>  0 0.40094020E+04</rscale>
<asrwt>0</asrwt>
<pdfrwt beam="1">  1        2 0.23706078E+00 0.40094020E+04</pdfrwt>
<pdfrwt beam="2">  1       -2 0.40124792E+00 0.40094020E+04</pdfrwt>
<totfact> 0.69084787E-02</totfact>
</mgrwt>
</event>
<event>
 6    1  0.1637818E-005  0.1419766E+04  0.7818608E-02  0.8939634E-01
          1   -1    0    0  501    0  0.00000000000E+00  0.00000000000E+00  0.13256268352E+04  0.13256268352E+04  0.00000000000E+00 0. -1.
         -1   -1    0    0    0  501 -0.00000000000E+00 -0.00000000000E+00 -0.38014769234E+03  0.38014769234E+03  0.00000000000E+00 0.  1.
         23    2    1    2    0    0 -0.37265852496E+02  0.26485858878E+03 -0.31164559625E+03  0.42051135391E+03  0.90377017489E+02 0.  0.
         11    1    3    3    0    0  0.21584039400E+02  0.13078778929E+03 -0.11601336764E+03  0.17615452891E+03  0.00000000000E+00 0. -1.
        -11    1    3    3    0    0 -0.58849891895E+02  0.13407079949E+03 -0.19563222861E+03  0.24435682499E+03  0.00000000000E+00 0.  1.
         22    1    1    2    0    0  0.37265852496E+02 -0.26485858878E+03  0.12571247391E+04  0.12852631736E+04  0.00000000000E+00 0. -1.
<mgrwt>
<rscale>  0 0.14197662E+04</rscale>
<asrwt>0</asrwt>
<pdfrwt beam="1">  1        1 0.20394259E+00 0.14197662E+04</pdfrwt>
<pdfrwt beam="2">  1       -1 0.58484261E-01 0.14197662E+04</pdfrwt>
<totfact> 0.25012341E+01</totfact>
</mgrwt>
</event>
<event>
 6    1  0.1637818E-005  0.7496834E+04  0.7818608E-02  0.7528260E-01
         -1   -1    0    0    0  501 -0.00000000000E+00  0.00000000000E+00  0.45076605741E+04  0.45076605741E+04  0.00000000000E+00 0.  1.
          1   -1    0    0  501    0  0.00000000000E+00 -0.00000000000E+00 -0.31170558935E+04  0.31170558935E+04  0.00000000000E+00 0. -1.
         23    2    1    2    0    0  0.22018854679E+04  0.58535042832E+03 -0.23313258372E+04  0.32608074954E+04  0.82768506173E+02 0.  0.
         11    1    3    3    0    0  0.70557723177E+03  0.20657363733E+03 -0.80131009944E+03  0.10874786311E+04  0.00000000000E+00 0.  1.
        -11    1    3    3    0    0  0.14963082361E+04  0.37877679099E+03 -0.15300157377E+04  0.21733288643E+04  0.00000000000E+00 0. -1.
         22    1    1    2    0    0 -0.22018854679E+04 -0.58535042832E+03  0.37219305178E+04  0.43639089722E+04  0.00000000000E+00 0.  1.
<mgrwt>
<rscale>  0 0.74968340E+04</rscale>
<asrwt>0</asrwt>
<pdfrwt beam="1">  1        1 0.47954706E+00 0.74968340E+04</pdfrwt>
<pdfrwt beam="2">  1       -1 0.69348624E+00 0.74968340E+04</pdfrwt>
<totfact> 0.63622341E-05</totfact>
</mgrwt>
</event>
<event>
 6    1  0.1637818E-005  0.1618695E+04  0.7818608E-02  0.8809144E-01
         -2   -1    0    0    0  501 -0.00000000000E+00  0.00000000000E+00  0.10820098096E+04  0.10820098096E+04  0.00000000000E+00 0.  1.
          2   -1    0    0  501    0  0.00000000000E+00 -0.00000000000E+00 -0.60539540573E+03  0.60539540573E+03  0.00000000000E+00 0. -1.
         23    2    1    2    0    0  0.43030763554E+03  0.34629403004E+03  0.85294378913E+03  0.10190430211E+04  0.76494150555E+02 0.  0.
         11    1    3    3    0    0  0.16875244469E+03  0.11547434396E+03  0.25592997667E+03  0.32758489688E+03  0.00000000000E+00 0. -1.
        -11    1    3    3    0    0  0.26155519085E+03  0.23081968608E+03  0.59701381246E+03  0.69145812426E+03  0.00000000000E+00 0.  1.
         22    1    1    2    0    0 -0.43030763554E+03 -0.34629403004E+03 -0.37632938525E+03  0.66836219421E+03  0.00000000000E+00 0. -1.
<mgrwt>
<rscale>  0 0.16186955E+04</rscale>
<asrwt>0</asrwt>
<pdfrwt beam="1">  1        2 0.93137755E-01 0.16186955E+04</pdfrwt>
<pdfrwt beam="2">  1       -2 0.16646305E+00 0.16186955E+04</pdfrwt>
<totfact> 0.10605289E+01</totfact>
</mgrwt>
</event>
<event>
 6    1  0.1637818E-005  0.1411937E+04  0.7818608E-02  0.8945223E-01
         -1   -1    0    0    0  501 -0.00000000000E+00  0.00000000000E+00  0.30736030875E+03  0.30736030875E+03  0.00000000000E+00 0.  1.
          1   -1    0    0  501    0  0.00000000000E+00 -0.00000000000E+00 -0.16215219731E+04  0.16215219731E+04  0.00000000000E+00 0. -1.
         23    2    1    2    0    0 -0.30492424110E+03 -0.50500924450E+02  0.20300487769E+03  0.38055303636E+03  0.89891584357E+02 0.  0.
         11    1    3    3    0    0 -0.28736123971E+02 -0.32230334063E+02  0.42520537953E+02  0.60601612210E+02  0.00000000000E+00 0. -1.
        -11    1    3    3    0    0 -0.27618811712E+03 -0.18270590387E+02  0.16048433974E+03  0.31995142415E+03  0.00000000000E+00 0.  1.
         22    1    1    2    0    0  0.30492424110E+03  0.50500924450E+02 -0.15171665420E+04  0.15483292455E+04  0.00000000000E+00 0. -1.
<mgrwt>
<rscale>  0 0.14119370E+04</rscale>
<asrwt>0</asrwt>
<pdfrwt beam="1">  1        1 0.24946492E+00 0.14119370E+04</pdfrwt>
<pdfrwt beam="2">  1       -1 0.47286202E-01 0.14119370E+04</pdfrwt>
<totfact> 0.23444211E+01</totfact>
</mgrwt>
</event>
<event>
 6    1  0.1637818E-005  0.2598823E+04  0.7818608E-02  0.8368601E-01
          2   -1    0    0  501    0  0.00000000000E+00  0.00000000000E+00  0.22790765284E+04  0.22790765284E+04  0.00000000000E+00 0. -1.
         -2   -1    0    0    0  501 -0.00000000000E+00 -0.00000000000E+00 -0.74085730581E+03  0.74085730581E+03  0.00000000000E+00 0.  1.
         23    2    1    2    0    0  0.11638620491E+04 -0.42168584089E+03  0.31704085086E+03  0.12810633867E+04  0.90634881683E+02 0.  0.
         13    1    3    3    0    0  0.40030694785E+03 -0.99663351655E+02  0.10404357754E+03  0.42544506365E+03  0.00000000000E+00 0.  1.
        -13    1    3    3    0    0  0.76355510126E+03 -0.32202248924E+03  0.21299727331E+03  0.85561832301E+03  0.00000000000E+00 0. -1.
         22    1    1    2    0    0 -0.11638620491E+04  0.42168584089E+03  0.12211783718E+04  0.17388704476E+04  0.00000000000E+00 0. -1.
<mgrwt>
<rscale>  0 0.25988232E+04</rscale>
<asrwt>0</asrwt>
<pdfrwt beam="1">  1        2 0.35062715E+00 0.25988232E+04</pdfrwt>
<pdfrwt beam="2">  1       -2 0.11397805E+00 0.25988232E+04</pdfrwt>
<totfact> 0.24835878E+00</totfact>
</mgrwt>
</event>
<event>
 6    1  0.1637818E-005  0.6707908E+03  0.7818608E-02  0.9768530E-01
         -2   -1    0    0    0  501 -0.00000000000E+00  0.00000000000E+00  0.27160273675E+03  0.27160273675E+03  0.00000000000E+00 0.  1.
          2   -1    0    0  501    0  0.00000000000E+00 -0.00000000000E+00 -0.41417131294E+03  0.41417131294E+03  0.00000000000E+00 0. -1.
         23    2    1    2    0    0  0.20125789169E+03  0.78803465667E+02 -0.32717569993E+03  0.40153028934E+03  0.86417066965E+02 0.  0.
         13    1    3    3    0    0  0.90267446035E+02 -0.89189719456E+01 -0.11402087029E+03  0.14570009861E+03  0.00000000000E+00 0. -1.
        -13    1    3    3    0    0  0.11099044565E+03  0.87722437613E+02 -0.21315482964E+03  0.25583019073E+03  0.00000000000E+00 0.  1.
         22    1    1    2    0    0 -0.20125789169E+03 -0.78803465667E+02  0.18460712373E+03  0.28424376035E+03  0.00000000000E+00 0.  1.
<mgrwt>
<rscale>  0 0.67079076E+03</rscale>
<asrwt>0</asrwt>
<pdfrwt beam="1">  1        2 0.63718664E-01 0.67079076E+03</pdfrwt>
<pdfrwt beam="2">  1       -2 0.41785036E-01 0.67079076E+03</pdfrwt>
<totfact> 0.41838490E+02</totfact>
</mgrwt>
</event>
<event>
 6    1  0.1637818E-005  0.3084074E+04  0.7818608E-02  0.8220122E-01
         -1   -1    0    0    0  501 -0.00000000000E+00  0.00000000000E+00  0.20378216011E+04  0.20378216011E+04  0.00000000000E+00 0.  1.
          1   -1    0    0  501    0  0.00000000000E+00 -0.00000000000E+00 -0.11668728696E+04  0.11668728696E+04  0.00000000000E+00 0. -1.
         23    2    1    2    0    0 -0.54837159801E+03  0.11603806124E+04 -0.45000840051E+03  0.13629229540E+04  0.88638832767E+02 0.  0.
         11    1    3    3    0    0 -0.90825393546E+02  0.15634166608E+03 -0.92330394002E+02  0.20301938410E+03  0.00000000000E+00 0. -1.
        -11    1    3    3    0    0 -0.45754620447E+03  0.10040389464E+04 -0.35767800651E+03  0.11599035699E+04  0.00000000000E+00 0.  1.
         22    1    1    2    0    0  0.54837159801E+03 -0.11603806124E+04  0.13209571320E+04  0.18417715167E+04  0.00000000000E+00 0.  1.
<mgrwt>
<rscale>  0 0.30840744E+04</rscale>
<asrwt>0</asrwt>
<pdfrwt beam="1">  1        1 0.17951890E+00 0.30840744E+04</pdfrwt>
<pdfrwt beam="2">  1       -1 0.31351102E+00 0.30840744E+04</pdfrwt>
<totfact> 0.25760863E-01</totfact>
</mgrwt>
</event>
<event>
 6    1  0.1637818E-005  0.2693208E+04  0.7818608E-02  0.8337212E-01
         -2   -1    0    0    0  501 -0.00000000000E+00  0.00000000000E+00  0.12810739644E+04  0.12810739644E+04  0.00000000000E+00 0.  1.
          2   -1    0    0  501    0  0.00000000000E+00 -0.00000000000E+00 -0.14154865486E+04  0.14154865486E+04  0.00000000000E+00 0. -1.
         23    2    1    2    0    0 -0.62680137198E+03 -0.29078063101E+03 -0.12226885485E+04  0.14074608622E+04  0.92441639500E+02 0.  0.
         13    1    3    3    0    0 -0.28261001910E+03 -0.13304200443E+03 -0.46092606402E+03  0.55679568455E+03  0.00000000000E+00 0.  1.
        -13    1    3    3    0    0 -0.34419135288E+03 -0.15773862658E+03 -0.76176248450E+03  0.85066517767E+03  0.00000000000E+00 0. -1.
         22    1    1    2    0    0  0.62680137198E+03  0.29078063101E+03  0.10882759643E+04  0.12890996508E+04  0.00000000000E+00 0.  1.
<mgrwt>
<rscale>  0 0.26932085E+04</rscale>
<asrwt>0</asrwt>
<pdfrwt beam="1">  1        2 0.21776716E+00 0.26932085E+04</pdfrwt>
<pdfrwt beam="2">  1       -2 0.19708830E+00 0.26932085E+04</pdfrwt>
<totfact> 0.17302360E+00</totfact>
</mgrwt>
</event>
<event>
 6    1  0.1637818E-005  0.5410065E+04  0.7818608E-02  0.7768187E-01
         -1   -1    0    0    0  501 -0.00000000000E+00  0.00000000000E+00  0.15769543382E+04  0.15769543382E+04  0.00000000000E+00 0.  1.
          1   -1    0    0  501    0  0.00000000000E+00 -0.00000000000E+00 -0.46400836545E+04  0.46400836545E+04  0.00000000000E+00 0. -1.
         23    2    1    2    0    0 -0.12433404396E+04  0.15136808978E+04 -0.36744204042E+04  0.41650140886E+04  0.94083696867E+02 0.  0.
         11    1    3    3    0    0 -0.21067638813E+03  0.20946236536E+03 -0.59070242389E+03  0.66120222066E+03  0.00000000000E+00 0.  1.
        -11    1    3    3    0    0 -0.10326640514E+04  0.13042185325E+04 -0.30837179803E+04  0.35038118679E+04  0.00000000000E+00 0. -1.
         22    1    1    2    0    0  0.12433404396E+04 -0.15136808978E+04  0.61129108793E+03  0.20520239042E+04  0.00000000000E+00 0.  1.
<mgrwt>
<rscale>  0 0.54100647E+04</rscale>
<asrwt>0</asrwt>
<pdfrwt beam="1">  1        1 0.71385901E+00 0.54100647E+04</pdfrwt>
<pdfrwt beam="2">  1       -1 0.24260836E+00 0.54100647E+04</pdfrwt>
<totfact> 0.12364327E-03</totfact>
</mgrwt>
</event>
<event>
 6    1  0.1637818E-005  0.3899203E+04  0.7818608E-02  0.8025195E-01
          2   -1    0    0  501    0  0.00000000000E+00  0.00000000000E+00  0.15302193253E+04  0.15302193253E+04  0.00000000000E+00 0.  1.
         -2   -1    0    0    0  501 -0.00000000000E+00 -0.00000000000E+00 -0.24839223714E+04  0.24839223714E+04  0.00000000000E+00 0. -1.
         23    2    1    2    0    0  0.54548920775E+03 -0.16916666807E+04  0.34490168987E+03  0.18128536886E+04  0.90480309242E+02 0.  0.
         13    1    3    3    0    0  0.35302152951E+03 -0.95202973970E+03  0.20624649490E+03  0.10361092810E+04  0.00000000000E+00 0.  1.
        -13    1    3    3    0    0  0.19246767824E+03 -0.73963694100E+03  0.13865519497E+03  0.77674440760E+03  0.00000000000E+00 0. -1.
         22    1    1    2    0    0 -0.54548920775E+03  0.16916666807E+04 -0.12986047360E+04  0.22012880081E+04  0.00000000000E+00 0.  1.
<mgrwt>
<rscale>  0 0.38992030E+04</rscale>
<asrwt>0</asrwt>
<pdfrwt beam="1">  1        2 0.23541836E+00 0.38992030E+04</pdfrwt>
<pdfrwt beam="2">  1       -2 0.38214190E+00 0.38992030E+04</pdfrwt>
<totfact> 0.94092159E-02</totfact>
</mgrwt>
</event>
<event>
 6    1  0.1637818E-005  0.2292570E+04  0.7818608E-02  0.8480856E-01
          2   -1    0    0  501    0  0.00000000000E+00  0.00000000000E+00  0.58744658956E+03  0.58744658956E+03  0.00000000000E+00 0. -1.
         -2   -1    0    0    0  501 -0.00000000000E+00 -0.00000000000E+00 -0.22367465461E+04  0.22367465461E+04  0.00000000000E+00 0.  1.
         23    2    1    2    0    0 -0.24244847846E+03  0.64944695687E+03  0.29606355398E+03  0.75900505643E+03  0.88726733303E+02 0.  0.
         13    1    3    3    0    0 -0.21753030752E+03  0.62408262751E+03  0.29411192140E+03  0.72339503935E+03  0.00000000000E+00 0.  1.
        -13    1    3    3    0    0 -0.24918170941E+02  0.25364329352E+02  0.19516325841E+01  0.35610017077E+02  0.00000000000E+00 0. -1.
         22    1    1    2    0    0  0.24244847846E+03 -0.64944695687E+03 -0.19453635105E+04  0.20651880792E+04  0.00000000000E+00 0.  1.
<mgrwt>
<rscale>  0 0.22925699E+04</rscale>
<asrwt>0</asrwt>
<pdfrwt beam="1">  1        2 0.90376398E-01 0.22925699E+04</pdfrwt>
<pdfrwt beam="2">  1       -2 0.34411485E+00 0.22925699E+04</pdfrwt>
<totfact> 0.78285284E-01</totfact>
</mgrwt>
</event>
<event>
 6    1  0.1637818E-005  0.1487219E+04  0.7818608E-02  0.8892997E-01
          2   -1    0    0  501    0  0.00000000000E+00  0.00000000000E+00  0.43897185066E+04  0.43897185066E+04  0.00000000000E+00 0. -1.
         -2   -1    0    0    0  501 -0.00000000000E+00 -0.00000000000E+00 -0.12596602336E+03  0.12596602336E+03  0.00000000000E+00 0.  1.
         23    2    1    2    0    0 -0.56827872154E+03 -0.37487022837E+03  0.30270362646E+04  0.31039708908E+04  0.90655118364E+02 0.  0.
         11    1    3    3    0    0 -0.38445115820E+03 -0.20129901014E+03  0.19200532703E+04  0.19684838189E+04  0.00000000000E+00 0. -1.
        -11    1    3    3    0    0 -0.18382756333E+03 -0.17357121823E+03  0.11069829943E+04  0.11354870719E+04  0.00000000000E+00 0.  1.
         22    1    1    2    0    0  0.56827872154E+03  0.37487022837E+03  0.12367162187E+04  0.14117136392E+04  0.00000000000E+00 0.  1.
<mgrwt>
<rscale>  0 0.14872194E+04</rscale>
<asrwt>0</asrwt>
<pdfrwt beam="1">  1        2 0.67534119E+00 0.14872194E+04</pdfrwt>
<pdfrwt beam="2">  1       -2 0.19379392E-01 0.14872194E+04</pdfrwt>
<totfact> 0.35450990E+00</totfact>
</mgrwt>
</event>
<event>
 6    1  0.1637818E-005  0.2808855E+04  0.7818608E-02  0.8300524E-01
          2   -1    0    0  501    0  0.00000000000E+00  0.00000000000E+00  0.20723482976E+04  0.20723482976E+04  0.00000000000E+00 0. -1.
         -2   -1    0    0    0  501 -0.00000000000E+00 -0.00000000000E+00 -0.95177858568E+03  0.95177858568E+03  0.00000000000E+00 0.  1.
         23    2    1    2    0    0 -0.39481953940E+02 -0.52151508442E+03  0.19624509065E+04  0.20330160147E+04  0.91671957163E+02 0.  0.
         11    1    3    3    0    0  0.23596654203E+02 -0.16796647158E+03  0.71948084962E+03  0.73920378154E+03  0.00000000000E+00 0. -1.
        -11    1    3    3    0    0 -0.63078608143E+02 -0.35354861284E+03  0.12429700569E+04  0.12938122332E+04  0.00000000000E+00 0.  1.
         22    1    1    2    0    0  0.39481953940E+02  0.52151508442E+03 -0.84188119459E+03  0.99111086855E+03  0.00000000000E+00 0.  1.
<mgrwt>
<rscale>  0 0.28088551E+04</rscale>
<asrwt>0</asrwt>
<pdfrwt beam="1">  1        2 0.31882281E+00 0.28088551E+04</pdfrwt>
<pdfrwt beam="2">  1       -2 0.14642747E+00 0.28088551E+04</pdfrwt>
<totfact> 0.16907192E+00</totfact>
</mgrwt>
</event>
<event>
 6    1  0.1637818E-005  0.2044043E+04  0.7818608E-02  0.8586301E-01
         -1   -1    0    0    0  501 -0.00000000000E+00  0.00000000000E+00  0.38882760993E+03  0.38882760993E+03  0.00000000000E+00 0.  1.
          1   -1    0    0  501    0  0.00000000000E+00 -0.00000000000E+00 -0.26863535053E+04  0.26863535053E+04  0.00000000000E+00 0. -1.
         23    2    1    2    0    0  0.83143600502E+03 -0.68331014715E+02 -0.26827478562E+03  0.88114031696E+03  0.92097446042E+02 0.  0.
         11    1    3    3    0    0  0.19295969707E+03 -0.12750922129E+02 -0.22277152406E+02  0.19465945194E+03  0.00000000000E+00 0. -1.
        -11    1    3    3    0    0  0.63847630794E+03 -0.55580092586E+02 -0.24599763321E+03  0.68648086502E+03  0.00000000000E+00 0.  1.
         22    1    1    2    0    0 -0.83143600502E+03  0.68331014715E+02 -0.20292511098E+04  0.21940407983E+04  0.00000000000E+00 0. -1.
<mgrwt>
<rscale>  0 0.20440435E+04</rscale>
<asrwt>0</asrwt>
<pdfrwt beam="1">  1        1 0.41328517E+00 0.20440435E+04</pdfrwt>
<pdfrwt beam="2">  1       -1 0.59819631E-01 0.20440435E+04</pdfrwt>
<totfact> 0.26292893E+00</totfact>
</mgrwt>
</event>
<event>
 6    1  0.1637818E-005  0.6028883E+04  0.7818608E-02  0.7686831E-01
         -2   -1    0    0    0  501 -0.00000000000E+00  0.00000000000E+00  0.21691929883E+04  0.21691929883E+04  0.00000000000E+00 0.  1.
          2   -1    0    0  501    0  0.00000000000E+00 -0.00000000000E+00 -0.41890504694E+04  0.41890504694E+04  0.00000000000E+00 0. -1.
         23    2    1    2    0    0 -0.25893155125E+04 -0.13416732113E+04 -0.20841399685E+03  0.29251735014E+04  0.92529940667E+02 0.  0.
         11    1    3    3    0    0 -0.14137107946E+04 -0.77800955396E+03 -0.13735992047E+03  0.16194890628E+04  0.00000000000E+00 0.  1.
        -11    1    3    3    0    0 -0.11756047179E+04 -0.56366365738E+03 -0.71054076381E+02  0.13056844386E+04  0.00000000000E+00 0. -1.
         22    1    1    2    0    0  0.25893155125E+04  0.13416732113E+04 -0.18114434842E+04  0.34330699564E+04  0.00000000000E+00 0.  1.
<mgrwt>
<rscale>  0 0.60288834E+04</rscale>
<asrwt>0</asrwt>
<pdfrwt beam="1">  1        2 0.64446930E+00 0.60288834E+04</pdfrwt>
<pdfrwt beam="2">  1       -2 0.33372200E+00 0.60288834E+04</pdfrwt>
<totfact> 0.31181832E-03</totfact>
</mgrwt>
</event>
<event>
 6    1  0.1637818E-005  0.3967087E+04  0.7818608E-02  0.8011219E-01
         -1   -1    0    0    0  501 -0.00000000000E+00  0.00000000000E+00  0.15988258665E+04  0.15988258665E+04  0.00000000000E+00 0.  1.
          1   -1    0    0  501    0  0.00000000000E+00 -0.00000000000E+00 -0.24608335359E+04  0.24608335359E+04  0.00000000000E+00 0. -1.
         23    2    1    2    0    0 -0.10444311623E+04  0.10002977623E+04 -0.18188992463E+04  0.23255678374E+04  0.91865293127E+02 0.  0.
         11    1    3    3    0    0 -0.16980356234E+03  0.18021449919E+03 -0.26169960462E+03  0.36027378278E+03  0.00000000000E+00 0.  1.
        -11    1    3    3    0    0 -0.87462760000E+03  0.82008326309E+03 -0.15571996417E+04  0.19652940546E+04  0.00000000000E+00 0. -1.
         22    1    1    2    0    0  0.10444311623E+04 -0.10002977623E+04  0.95689157686E+03  0.17340915650E+04  0.00000000000E+00 0.  1.
<mgrwt>
<rscale>  0 0.39670867E+04</rscale>
<asrwt>0</asrwt>
<pdfrwt beam="1">  1        1 0.37858977E+00 0.39670867E+04</pdfrwt>
<pdfrwt beam="2">  1       -1 0.24597321E+00 0.39670867E+04</pdfrwt>
<totfact> 0.83840599E-02</totfact>
</mgrwt>
</event>
<event>
 6    1  0.1637818E-005  0.3002111E+04  0.7818608E-02  0.8243128E-01
         -2   -1    0    0    0  501 -0.00000000000E+00  0.00000000000E+00  0.92988960075E+03  0.92988960075E+03  0.00000000000E+00 0.  1.
          2   -1    0    0  501    0  0.00000000000E+00 -0.00000000000E+00 -0.24230484987E+04  0.24230484987E+04  0.00000000000E+00 0. -1.
         23    2    1    2    0    0  0.12425407076E+04  0.78260236046E+03 -0.10865947907E+04  0.18292359508E+04  0.95089746315E+02 0.  0.
         11    1    3    3    0    0  0.62689452155E+03  0.34969387868E+03 -0.56561860874E+03  0.91389658085E+03  0.00000000000E+00 0. -1.
        -11    1    3    3    0    0  0.61564618604E+03  0.43290848179E+03 -0.52097618192E+03  0.91533936991E+03  0.00000000000E+00 0.  1.
         22    1    1    2    0    0 -0.12425407076E+04 -0.78260236046E+03 -0.40656410729E+03  0.15237021487E+04  0.00000000000E+00 0.  1.
<mgrwt>
<rscale>  0 0.30021110E+04</rscale>
<asrwt>0</asrwt>
<pdfrwt beam="1">  1        2 0.37277668E+00 0.30021110E+04</pdfrwt>
<pdfrwt beam="2">  1       -2 0.14305994E+00 0.30021110E+04</pdfrwt>
<totfact> 0.11201662E+00</totfact>
</mgrwt>
</event>
<event>
 6    1  0.1637818E-005  0.3594379E+04  0.7818608E-02  0.8091781E-01
         -2   -1    0    0    0  501 -0.00000000000E+00  0.00000000000E+00  0.82670672256E+03  0.82670672256E+03  0.00000000000E+00 0.  1.
          2   -1    0    0  501    0  0.00000000000E+00 -0.00000000000E+00 -0.39069351947E+04  0.39069351947E+04  0.00000000000E+00 0. -1.
         23    2    1    2    0    0 -0.11330001103E+04  0.83021716128E+03 -0.67096130362E+02  0.14091996642E+04  0.91607959231E+02 0.  0.
         11    1    3    3    0    0 -0.74057995962E+03  0.57638421336E+03 -0.11212823444E+02  0.93851114293E+03  0.00000000000E+00 0.  1.
        -11    1    3    3    0    0 -0.39242015064E+03  0.25383294792E+03 -0.55883306918E+02  0.47068852128E+03  0.00000000000E+00 0. -1.
         22    1    1    2    0    0  0.11330001103E+04 -0.83021716128E+03 -0.30131323418E+04  0.33244422530E+04  0.00000000000E+00 0. -1.
<mgrwt>
<rscale>  0 0.35943787E+04</rscale>
<asrwt>0</asrwt>
<pdfrwt beam="1">  1        2 0.60106695E+00 0.35943787E+04</pdfrwt>
<pdfrwt beam="2">  1       -2 0.12718565E+00 0.35943787E+04</pdfrwt>
<totfact> 0.15153472E-01</totfact>
</mgrwt>
</event>
<event>
 6    1  0.1637818E-005  0.2547134E+04  0.7818608E-02  0.8386384E-01
          2   -1    0    0  501    0  0.00000000000E+00  0.00000000000E+00  0.11494333918E+04  0.11494333918E+04  0.00000000000E+00 0. -1.
         -2   -1    0    0    0  501 -0.00000000000E+00 -0.00000000000E+00 -0.14111060374E+04  0.14111060374E+04  0.00000000000E+00 0.  1.
         23    2    1    2    0    0 -0.11809113920E+04 -0.46287038320E+03 -0.35680527392E+02  0.12721787868E+04  0.91460692405E+02 0.  0.
         13    1    3    3    0    0 -0.69641242882E+03 -0.24522640824E+03 -0.57751616683E+02  0.74058187362E+03  0.00000000000E+00 0.  1.
        -13    1    3    3    0    0 -0.48449896319E+03 -0.21764397495E+03  0.22071089291E+02  0.53159691322E+03  0.00000000000E+00 0. -1.
         22    1    1    2    0    0  0.11809113920E+04  0.46287038320E+03 -0.22599211824E+03  0.12883606424E+04  0.00000000000E+00 0.  1.
<mgrwt>
<rscale>  0 0.25471336E+04</rscale>
<asrwt>0</asrwt>
<pdfrwt beam="1">  1        2 0.17683591E+00 0.25471336E+04</pdfrwt>
<pdfrwt beam="2">  1       -2 0.21709324E+00 0.25471336E+04</pdfrwt>
<totfact> 0.18615106E+00</totfact>
</mgrwt>
</event>
<event>
 6    1  0.1637818E-005  0.3393145E+04  0.7818608E-02  0.8139591E-01
         -2   -1    0    0    0  501 -0.00000000000E+00  0.00000000000E+00  0.15946598151E+04  0.15946598151E+04  0.00000000000E+00 0.  1.
          2   -1    0    0  501    0  0.00000000000E+00 -0.00000000000E+00 -0.18049983115E+04  0.18049983115E+04  0.00000000000E+00 0. -1.
         23    2    1    2    0    0 -0.12845589966E+04 -0.68400330006E+03 -0.97655484331E+03  0.17549576005E+04  0.90909225169E+02 0.  0.
         11    1    3    3    0    0 -0.28653397508E+03 -0.12884738889E+03 -0.24873238886E+03  0.40071332617E+03  0.00000000000E+00 0.  1.
        -11    1    3    3    0    0 -0.99802502155E+03 -0.55515591117E+03 -0.72782245445E+03  0.13542442743E+04  0.00000000000E+00 0. -1.
         22    1    1    2    0    0  0.12845589966E+04  0.68400330006E+03  0.76621634688E+03  0.16447005261E+04  0.00000000000E+00 0.  1.
<mgrwt>
<rscale>  0 0.33931450E+04</rscale>
<asrwt>0</asrwt>
<pdfrwt beam="1">  1        2 0.27769205E+00 0.33931450E+04</pdfrwt>
<pdfrwt beam="2">  1       -2 0.24533228E+00 0.33931450E+04</pdfrwt>
<totfact> 0.48799810E-01</totfact>
</mgrwt>
</event>
<event>
 6    1  0.1637818E-005  0.2521877E+04  0.7818608E-02  0.8395233E-01
         -2   -1    0    0    0  501 -0.00000000000E+00  0.00000000000E+00  0.12656300798E+04  0.12656300798E+04  0.00000000000E+00 0.  1.
          2   -1    0    0  501    0  0.00000000000E+00 -0.00000000000E+00 -0.12562638883E+04  0.12562638883E+04  0.00000000000E+00 0. -1.
         23    2    1    2    0    0 -0.24198792612E+03 -0.75833520508E+03 -0.97110992558E+03  0.12589751838E+04  0.91288478386E+02 0.  0.
         11    1    3    3    0    0 -0.22414536724E+03 -0.65654363325E+03 -0.88466735028E+03  0.11242450839E+04  0.00000000000E+00 0. -1.
        -11    1    3    3    0    0 -0.17842558881E+02 -0.10179157183E+03 -0.86442575302E+02  0.13473009994E+03  0.00000000000E+00 0.  1.
         22    1    1    2    0    0  0.24198792612E+03  0.75833520508E+03  0.98047611708E+03  0.12629187843E+04  0.00000000000E+00 0.  1.
<mgrwt>
<rscale>  0 0.25218766E+04</rscale>
<asrwt>0</asrwt>
<pdfrwt beam="1">  1        2 0.19327137E+00 0.25218766E+04</pdfrwt>
<pdfrwt beam="2">  1       -2 0.19471232E+00 0.25218766E+04</pdfrwt>
<totfact> 0.22507461E+00</totfact>
</mgrwt>
</event>
<event>
 6    1  0.1637818E-005  0.8002294E+03  0.7818608E-02  0.9559685E-01
         -2   -1    0    0    0  501 -0.00000000000E+00  0.00000000000E+00  0.15949011121E+03  0.15949011121E+03  0.00000000000E+00 0. -1.
          2   -1    0    0  501    0  0.00000000000E+00 -0.00000000000E+00 -0.10037725093E+04  0.10037725093E+04  0.00000000000E+00 0.  1.
         23    2    1    2    0    0  0.37863928434E+02  0.39053476221E+03 -0.49545258509E+03  0.63825470056E+03  0.89133165178E+02 0.  0.
         13    1    3    3    0    0 -0.18238103997E+02  0.12062299723E+03 -0.10931624401E+03  0.16380652339E+03  0.00000000000E+00 0.  1.
        -13    1    3    3    0    0  0.56102032431E+02  0.26991176498E+03 -0.38613634108E+03  0.47444817717E+03  0.00000000000E+00 0. -1.
         22    1    1    2    0    0 -0.37863928434E+02 -0.39053476221E+03 -0.34882981300E+03  0.52500791995E+03  0.00000000000E+00 0. -1.
<mgrwt>
<rscale>  0 0.80022944E+03</rscale>
<asrwt>0</asrwt>
<pdfrwt beam="1">  1        2 0.15442654E+00 0.80022944E+03</pdfrwt>
<pdfrwt beam="2">  1       -2 0.24536940E-01 0.80022944E+03</pdfrwt>
<totfact> 0.37313341E+02</totfact>
</mgrwt>
</event>
<event>
 6    1  0.1637818E-005  0.8012467E+03  0.7818608E-02  0.9558214E-01
          2   -1    0    0  501    0  0.00000000000E+00  0.00000000000E+00  0.12145924797E+04  0.12145924797E+04  0.00000000000E+00 0. -1.
         -2   -1    0    0    0  501 -0.00000000000E+00 -0.00000000000E+00 -0.13214233152E+03  0.13214233152E+03  0.00000000000E+00 0.  1.
         23    2    1    2    0    0 -0.45511166049E+02 -0.30214338880E+03  0.97019817374E+03  0.10212161491E+04  0.90752592991E+02 0.  0.
         13    1    3    3    0    0 -0.22276670168E+02 -0.97899512038E+01  0.10037097316E+03  0.10327838801E+03  0.00000000000E+00 0.  1.
        -13    1    3    3    0    0 -0.23234495881E+02 -0.29235343760E+03  0.86982720058E+03  0.91793776104E+03  0.00000000000E+00 0. -1.
         22    1    1    2    0    0  0.45511166049E+02  0.30214338880E+03  0.11225197440E+03  0.32551866212E+03  0.00000000000E+00 0.  1.
<mgrwt>
<rscale>  0 0.80124673E+03</rscale>
<asrwt>0</asrwt>
<pdfrwt beam="1">  1        2 0.18686037E+00 0.80124673E+03</pdfrwt>
<pdfrwt beam="2">  1       -2 0.20329590E-01 0.80124673E+03</pdfrwt>
<totfact> 0.38727693E+02</totfact>
</mgrwt>
</event>
<event>
 6    1  0.1637818E-005  0.1765624E+04  0.7818608E-02  0.8724797E-01
          2   -1    0    0  501    0  0.00000000000E+00  0.00000000000E+00  0.12033971439E+04  0.12033971439E+04  0.00000000000E+00 0. -1.
         -2   -1    0    0    0  501 -0.00000000000E+00 -0.00000000000E+00 -0.64763054529E+03  0.64763054529E+03  0.00000000000E+00 0.  1.
         23    2    1    2    0    0  0.27287141081E+03  0.71045517956E+03  0.74279097917E+03  0.10673290941E+04  0.90816228214E+02 0.  0.
         13    1    3    3    0    0  0.91157575374E+02  0.13428082943E+03  0.15900426016E+03  0.22720783316E+03  0.00000000000E+00 0. -1.
        -13    1    3    3    0    0  0.18171383544E+03  0.57617435013E+03  0.58378671901E+03  0.84012126091E+03  0.00000000000E+00 0.  1.
         22    1    1    2    0    0 -0.27287141081E+03 -0.71045517956E+03 -0.18702438060E+03  0.78369859509E+03  0.00000000000E+00 0.  1.
<mgrwt>
<rscale>  0 0.17656237E+04</rscale>
<asrwt>0</asrwt>
<pdfrwt beam="1">  1        2 0.18513802E+00 0.17656237E+04</pdfrwt>
<pdfrwt beam="2">  1       -2 0.99635469E-01 0.17656237E+04</pdfrwt>
<totfact> 0.14872203E+01</totfact>
</mgrwt>
</event>
<event>
 6    1  0.1637818E-005  0.3534694E+04  0.7818608E-02  0.8105617E-01
         -2   -1    0    0    0  501 -0.00000000000E+00  0.00000000000E+00  0.15979795072E+04  0.15979795072E+04  0.00000000000E+00 0.  1.
          2   -1    0    0  501    0  0.00000000000E+00 -0.00000000000E+00 -0.19546655480E+04  0.19546655480E+04  0.00000000000E+00 0. -1.
         23    2    1    2    0    0 -0.17634283976E+04  0.72294783556E+02 -0.11137773639E+03  0.17707689614E+04  0.91167236951E+02 0.  0.
         11    1    3    3    0    0 -0.78678721536E+03  0.53055637224E+02 -0.90121359861E+02  0.79370705074E+03  0.00000000000E+00 0. -1.
        -11    1    3    3    0    0 -0.97664118228E+03  0.19239146332E+02 -0.21256376530E+02  0.97706191064E+03  0.00000000000E+00 0.  1.
         22    1    1    2    0    0  0.17634283976E+04 -0.72294783556E+02 -0.24530830439E+03  0.17818760938E+04  0.00000000000E+00 0.  1.
<mgrwt>
<rscale>  0 0.35346940E+04</rscale>
<asrwt>0</asrwt>
<pdfrwt beam="1">  1        2 0.30071777E+00 0.35346940E+04</pdfrwt>
<pdfrwt beam="2">  1       -2 0.24584300E+00 0.35346940E+04</pdfrwt>
<totfact> 0.39550981E-01</totfact>
</mgrwt>
</event>
<event>
 6    1  0.1637818E-005  0.1219886E+04  0.7818608E-02  0.9095626E-01
         -2   -1    0    0    0  501 -0.00000000000E+00  0.00000000000E+00  0.18853479029E+03  0.18853479029E+03  0.00000000000E+00 0.  1.
          2   -1    0    0  501    0  0.00000000000E+00 -0.00000000000E+00 -0.19732731853E+04  0.19732731853E+04  0.00000000000E+00 0. -1.
         23    2    1    2    0    0  0.60198300627E+03 -0.70496396538E+02 -0.85287168280E+03  0.10501745598E+04  0.90128890954E+02 0.  0.
         13    1    3    3    0    0  0.30651805249E+03 -0.84749265132E+01 -0.49123620607E+03  0.57908388947E+03  0.00000000000E+00 0. -1.
        -13    1    3    3    0    0  0.29546495378E+03 -0.62021470024E+02 -0.36163547672E+03  0.47109067034E+03  0.00000000000E+00 0.  1.
         22    1    1    2    0    0 -0.60198300627E+03  0.70496396538E+02 -0.93186671216E+03  0.11116334157E+04  0.00000000000E+00 0.  1.
<mgrwt>
<rscale>  0 0.12198863E+04</rscale>
<asrwt>0</asrwt>
<pdfrwt beam="1">  1        2 0.30358049E+00 0.12198863E+04</pdfrwt>
<pdfrwt beam="2">  1       -2 0.29005352E-01 0.12198863E+04</pdfrwt>
<totfact> 0.74478625E+01</totfact>
</mgrwt>
</event>
<event>
 6    1  0.1637818E-005  0.2031716E+04  0.7818608E-02  0.8591934E-01
          1   -1    0    0  501    0  0.00000000000E+00  0.00000000000E+00  0.84904479686E+03  0.84904479686E+03  0.00000000000E+00 0. -1.
         -1   -1    0    0    0  501 -0.00000000000E+00 -0.00000000000E+00 -0.12154456724E+04  0.12154456724E+04  0.00000000000E+00 0.  1.
         23    2    1    2    0    0 -0.48948581805E+03  0.80657549840E+03 -0.56051438824E+03  0.11012457151E+04  0.91680667740E+02 0.  0.
         11    1    3    3    0    0 -0.35407284751E+03  0.63672798950E+03 -0.46232113578E+03  0.86286206693E+03  0.00000000000E+00 0. -1.
        -11    1    3    3    0    0 -0.13541297054E+03  0.16984750890E+03 -0.98193252453E+02  0.23838364813E+03  0.00000000000E+00 0.  1.
         22    1    1    2    0    0  0.48948581805E+03 -0.80657549840E+03  0.19411351269E+03  0.96324475420E+03  0.00000000000E+00 0. -1.
<mgrwt>
<rscale>  0 0.20317163E+04</rscale>
<asrwt>0</asrwt>
<pdfrwt beam="1">  1        1 0.13062228E+00 0.20317163E+04</pdfrwt>
<pdfrwt beam="2">  1       -1 0.18699164E+00 0.20317163E+04</pdfrwt>
<totfact> 0.34439221E+00</totfact>
</mgrwt>
</event>
<event>
 6    1  0.1637818E-005  0.1695042E+04  0.7818608E-02  0.8764197E-01
          2   -1    0    0  501    0  0.00000000000E+00  0.00000000000E+00  0.18914050224E+04  0.18914050224E+04  0.00000000000E+00 0. -1.
         -2   -1    0    0    0  501 -0.00000000000E+00 -0.00000000000E+00 -0.37976630311E+03  0.37976630311E+03  0.00000000000E+00 0.  1.
         23    2    1    2    0    0  0.39904532190E+03 -0.10741809743E+02  0.17560062464E+04  0.18031242726E+04  0.91359999147E+02 0.  0.
         11    1    3    3    0    0  0.22334288154E+03  0.19051169131E+02  0.11414253819E+04  0.11632269306E+04  0.00000000000E+00 0. -1.
        -11    1    3    3    0    0  0.17570244036E+03 -0.29792978875E+02  0.61458086456E+03  0.63989734194E+03  0.00000000000E+00 0.  1.
         22    1    1    2    0    0 -0.39904532190E+03  0.10741809743E+02 -0.24436752717E+03  0.46804705291E+03  0.00000000000E+00 0.  1.
<mgrwt>
<rscale>  0 0.16950421E+04</rscale>
<asrwt>0</asrwt>
<pdfrwt beam="1">  1        2 0.29098538E+00 0.16950421E+04</pdfrwt>
<pdfrwt beam="2">  1       -2 0.58425586E-01 0.16950421E+04</pdfrwt>
<totfact> 0.20020521E+01</totfact>
</mgrwt>
</event>
<event>
 6    1  0.1637818E-005  0.1754701E+04  0.7818608E-02  0.8730767E-01
         -1   -1    0    0    0  501 -0.00000000000E+00  0.00000000000E+00  0.86604364853E+03  0.86604364853E+03  0.00000000000E+00 0.  1.
          1   -1    0    0  501    0  0.00000000000E+00 -0.00000000000E+00 -0.88880485467E+03  0.88880485467E+03  0.00000000000E+00 0. -1.
         23    2    1    2    0    0 -0.14139758643E+03 -0.14149810113E+03 -0.86343401984E+03  0.89070397261E+03  0.88432291321E+02 0.  0.
         11    1    3    3    0    0 -0.93458840356E+01 -0.28760914393E+02 -0.28965704949E+03  0.29123142355E+03  0.00000000000E+00 0.  1.
        -11    1    3    3    0    0 -0.13205170240E+03 -0.11273718674E+03 -0.57377697035E+03  0.59947254907E+03  0.00000000000E+00 0. -1.
         22    1    1    2    0    0  0.14139758643E+03  0.14149810113E+03  0.84067281369E+03  0.86414453059E+03  0.00000000000E+00 0.  1.
<mgrwt>
<rscale>  0 0.17547009E+04</rscale>
<asrwt>0</asrwt>
<pdfrwt beam="1">  1        1 0.13673921E+00 0.17547009E+04</pdfrwt>
<pdfrwt beam="2">  1       -1 0.13323749E+00 0.17547009E+04</pdfrwt>
<totfact> 0.83892811E+00</totfact>
</mgrwt>
</event>
<event>
 6    1  0.1637818E-005  0.4750228E+04  0.7818608E-02  0.7868236E-01
          2   -1    0    0  501    0  0.00000000000E+00  0.00000000000E+00  0.13736594596E+04  0.13736594596E+04  0.00000000000E+00 0. -1.
         -2   -1    0    0    0  501 -0.00000000000E+00 -0.00000000000E+00 -0.41066706543E+04  0.41066706543E+04  0.00000000000E+00 0.  1.
         23    2    1    2    0    0  0.57849340287E+03 -0.10649858979E+04  0.98832658918E+03  0.15666100829E+04  0.92887701829E+02 0.  0.
         11    1    3    3    0    0  0.37975213113E+02 -0.74620995435E+02  0.10121370520E+03  0.13135685704E+03  0.00000000000E+00 0. -1.
        -11    1    3    3    0    0  0.54051818976E+03 -0.99036490245E+03  0.88711288398E+03  0.14352532259E+04  0.00000000000E+00 0.  1.
         22    1    1    2    0    0 -0.57849340287E+03  0.10649858979E+04 -0.37213377839E+04  0.39137200311E+04  0.00000000000E+00 0.  1.
<mgrwt>
<rscale>  0 0.47502282E+04</rscale>
<asrwt>0</asrwt>
<pdfrwt beam="1">  1        2 0.21133223E+00 0.47502282E+04</pdfrwt>
<pdfrwt beam="2">  1       -2 0.63179547E+00 0.47502282E+04</pdfrwt>
<totfact> 0.43448161E-03</totfact>
</mgrwt>
</event>
<event>
 6    1  0.1637818E-005  0.1967547E+04  0.7818608E-02  0.8621946E-01
         -2   -1    0    0    0  501 -0.00000000000E+00  0.00000000000E+00  0.34409811523E+03  0.34409811523E+03  0.00000000000E+00 0.  1.
          2   -1    0    0  501    0  0.00000000000E+00 -0.00000000000E+00 -0.28125994119E+04  0.28125994119E+04  0.00000000000E+00 0. -1.
         23    2    1    2    0    0  0.54748603092E+02 -0.86816626421E+03 -0.19666762608E+04  0.21524373823E+04  0.91984227242E+02 0.  0.
         13    1    3    3    0    0  0.52383485348E+02 -0.26703570469E+03 -0.67209623549E+03  0.72509685345E+03  0.00000000000E+00 0.  1.
        -13    1    3    3    0    0  0.23651177447E+01 -0.60113055952E+03 -0.12945800253E+04  0.14273405289E+04  0.00000000000E+00 0. -1.
         22    1    1    2    0    0 -0.54748603092E+02  0.86816626421E+03 -0.50182503586E+03  0.10042601448E+04  0.00000000000E+00 0.  1.
<mgrwt>
<rscale>  0 0.19675469E+04</rscale>
<asrwt>0</asrwt>
<pdfrwt beam="1">  1        2 0.43270758E+00 0.19675469E+04</pdfrwt>
<pdfrwt beam="2">  1       -2 0.52938174E-01 0.19675469E+04</pdfrwt>
<totfact> 0.71348171E+00</totfact>
</mgrwt>
</event>
<event>
 6    1  0.1637818E-005  0.2377509E+04  0.7818608E-02  0.8447972E-01
         -2   -1    0    0    0  501 -0.00000000000E+00  0.00000000000E+00  0.12379735242E+04  0.12379735242E+04  0.00000000000E+00 0.  1.
          2   -1    0    0  501    0  0.00000000000E+00 -0.00000000000E+00 -0.11414920677E+04  0.11414920677E+04  0.00000000000E+00 0. -1.
         23    2    1    2    0    0 -0.25135019618E+03  0.11556281850E+04  0.14976970328E+03  0.11956188704E+04  0.91761082193E+02 0.  0.
         11    1    3    3    0    0 -0.91609199143E+02  0.32567473584E+03  0.65052007813E+01  0.33837641255E+03  0.00000000000E+00 0. -1.
        -11    1    3    3    0    0 -0.15974099704E+03  0.82995344911E+03  0.14326450250E+03  0.85724245783E+03  0.00000000000E+00 0.  1.
         22    1    1    2    0    0  0.25135019618E+03 -0.11556281850E+04 -0.53288246756E+02  0.11838467216E+04  0.00000000000E+00 0.  1.
<mgrwt>
<rscale>  0 0.23775087E+04</rscale>
<asrwt>0</asrwt>
<pdfrwt beam="1">  1        2 0.17561416E+00 0.23775087E+04</pdfrwt>
<pdfrwt beam="2">  1       -2 0.19045747E+00 0.23775087E+04</pdfrwt>
<totfact> 0.28485781E+00</totfact>
</mgrwt>
</event>
<event>
 6    1  0.1637818E-005  0.2339881E+04  0.7818608E-02  0.8462361E-01
         -1   -1    0    0    0  501 -0.00000000000E+00  0.00000000000E+00  0.11627320099E+04  0.11627320099E+04  0.00000000000E+00 0.  1.
          1   -1    0    0  501    0  0.00000000000E+00 -0.00000000000E+00 -0.11771936971E+04  0.11771936971E+04  0.00000000000E+00 0. -1.
         23    2    1    2    0    0 -0.10724113997E+04 -0.40520795325E+03  0.21950451065E+03  0.11698830252E+04  0.78640745137E+02 0.  0.
         13    1    3    3    0    0 -0.75946167776E+03 -0.31975404641E+03  0.17541893556E+03  0.84249420955E+03  0.00000000000E+00 0.  1.
        -13    1    3    3    0    0 -0.31294972195E+03 -0.85453906840E+02  0.44085575091E+02  0.32738881562E+03  0.00000000000E+00 0. -1.
         22    1    1    2    0    0  0.10724113997E+04  0.40520795325E+03 -0.23396619786E+03  0.11700426818E+04  0.00000000000E+00 0. -1.
<mgrwt>
<rscale>  0 0.23398810E+04</rscale>
<asrwt>0</asrwt>
<pdfrwt beam="1">  1        1 0.18110672E+00 0.23398810E+04</pdfrwt>
<pdfrwt beam="2">  1       -1 0.17888185E+00 0.23398810E+04</pdfrwt>
<totfact> 0.21209975E+00</totfact>
</mgrwt>
</event>
<event>
 6    1  0.1637818E-005  0.2002916E+04  0.7818608E-02  0.8605259E-01
         -2   -1    0    0    0  501 -0.00000000000E+00  0.00000000000E+00  0.15102055540E+04  0.15102055540E+04  0.00000000000E+00 0.  1.
          2   -1    0    0  501    0  0.00000000000E+00 -0.00000000000E+00 -0.66409351490E+03  0.66409351490E+03  0.00000000000E+00 0. -1.
         23    2    1    2    0    0  0.48264817824E+03 -0.14723835979E+03 -0.51244341668E+03  0.72505743102E+03  0.92095735056E+02 0.  0.
         11    1    3    3    0    0  0.54673295139E+02  0.12386770572E+02 -0.60775413727E+02  0.82681631577E+02  0.00000000000E+00 0. -1.
        -11    1    3    3    0    0  0.42797488311E+03 -0.15962513036E+03 -0.45166800296E+03  0.64237579944E+03  0.00000000000E+00 0.  1.
         22    1    1    2    0    0 -0.48264817824E+03  0.14723835979E+03  0.13585554558E+04  0.14492416379E+04  0.00000000000E+00 0.  1.
<mgrwt>
<rscale>  0 0.20029156E+04</rscale>
<asrwt>0</asrwt>
<pdfrwt beam="1">  1        2 0.10216823E+00 0.20029156E+04</pdfrwt>
<pdfrwt beam="2">  1       -2 0.23233931E+00 0.20029156E+04</pdfrwt>
<totfact> 0.33600481E+00</totfact>
</mgrwt>
</event>
<event>
 6    1  0.1637818E-005  0.3534751E+04  0.7818608E-02  0.8105603E-01
          1   -1    0    0  501    0  0.00000000000E+00  0.00000000000E+00  0.44408293870E+04  0.44408293870E+04  0.00000000000E+00 0. -1.
         -1   -1    0    0    0  501 -0.00000000000E+00 -0.00000000000E+00 -0.70338589240E+03  0.70338589240E+03  0.00000000000E+00 0.  1.
         23    2    1    2    0    0 -0.19252147466E+03  0.96656105691E+03 -0.26301302492E+03  0.10241476635E+04  0.91639458951E+02 0.  0.
         13    1    3    3    0    0 -0.12010607017E+03  0.47507058389E+03 -0.90871938673E+02  0.49837258854E+03  0.00000000000E+00 0. -1.
        -13    1    3    3    0    0 -0.72415404490E+02  0.49149047302E+03 -0.17214108624E+03  0.52577507496E+03  0.00000000000E+00 0.  1.
         22    1    1    2    0    0  0.19252147466E+03 -0.96656105691E+03  0.40004565195E+04  0.41200676159E+04  0.00000000000E+00 0. -1.
<mgrwt>
<rscale>  0 0.35347513E+04</rscale>
<asrwt>0</asrwt>
<pdfrwt beam="1">  1        1 0.68320450E+00 0.35347513E+04</pdfrwt>
<pdfrwt beam="2">  1       -1 0.10821322E+00 0.35347513E+04</pdfrwt>
<totfact> 0.23784561E-02</totfact>
</mgrwt>
</event>
<event>
 6    1  0.1637818E-005  0.2410930E+04  0.7818608E-02  0.8435423E-01
          1   -1    0    0  501    0  0.00000000000E+00  0.00000000000E+00  0.26160366319E+04  0.26160366319E+04  0.00000000000E+00 0. -1.
         -1   -1    0    0    0  501 -0.00000000000E+00 -0.00000000000E+00 -0.55547607728E+03  0.55547607728E+03  0.00000000000E+00 0.  1.
         23    2    1    2    0    0 -0.39209328110E+03  0.92136841041E+03  0.15338461310E+03  0.10174521342E+04  0.95000616120E+02 0.  0.
         11    1    3    3    0    0 -0.34293567604E+02  0.16432845451E+03  0.12346793899E+02  0.16832211103E+03  0.00000000000E+00 0. -1.
        -11    1    3    3    0    0 -0.35779971350E+03  0.75703995590E+03  0.14103781920E+03  0.84913002317E+03  0.00000000000E+00 0.  1.
         22    1    1    2    0    0  0.39209328110E+03 -0.92136841041E+03  0.19071759416E+04  0.21540605750E+04  0.00000000000E+00 0. -1.
<mgrwt>
<rscale>  0 0.24109299E+04</rscale>
<asrwt>0</asrwt>
<pdfrwt beam="1">  1        1 0.40246717E+00 0.24109299E+04</pdfrwt>
<pdfrwt beam="2">  1       -1 0.85457860E-01 0.24109299E+04</pdfrwt>
<totfact> 0.13619234E+00</totfact>
</mgrwt>
</event>
<event>
 6    1  0.1637818E-005  0.3279016E+04  0.7818608E-02  0.8168255E-01
          1   -1    0    0  501    0  0.00000000000E+00  0.00000000000E+00  0.26653788420E+04  0.26653788420E+04  0.00000000000E+00 0. -1.
         -1   -1    0    0    0  501 -0.00000000000E+00 -0.00000000000E+00 -0.10084818648E+04  0.10084818648E+04  0.00000000000E+00 0.  1.
         23    2    1    2    0    0 -0.62190691106E+03 -0.15150043323E+04  0.87876754824E+03  0.18607165478E+04  0.89595392639E+02 0.  0.
         13    1    3    3    0    0 -0.52676891721E+03 -0.13524356142E+04  0.76507477247E+03  0.16407031999E+04  0.00000000000E+00 0. -1.
        -13    1    3    3    0    0 -0.95137993850E+02 -0.16256871815E+03  0.11369277578E+03  0.22001334791E+03  0.00000000000E+00 0.  1.
         22    1    1    2    0    0  0.62190691106E+03  0.15150043323E+04  0.77812942902E+03  0.18131441590E+04  0.00000000000E+00 0. -1.
<mgrwt>
<rscale>  0 0.32790158E+04</rscale>
<asrwt>0</asrwt>
<pdfrwt beam="1">  1        1 0.41005828E+00 0.32790158E+04</pdfrwt>
<pdfrwt beam="2">  1       -1 0.15515106E+00 0.32790158E+04</pdfrwt>
<totfact> 0.27447407E-01</totfact>
</mgrwt>
</event>
<event>
 6    1  0.1637818E-005  0.2185180E+04  0.7818608E-02  0.8524622E-01
          2   -1    0    0  501    0  0.00000000000E+00  0.00000000000E+00  0.63069040430E+03  0.63069040430E+03  0.00000000000E+00 0. -1.
         -2   -1    0    0    0  501 -0.00000000000E+00 -0.00000000000E+00 -0.18927715990E+04  0.18927715990E+04  0.00000000000E+00 0.  1.
         23    2    1    2    0    0 -0.10107432419E+03 -0.90495624386E+03 -0.13249880068E+04  0.16107084280E+04  0.98115236509E+02 0.  0.
         11    1    3    3    0    0  0.14584628184E+02 -0.97960433340E+02 -0.17470664729E+03  0.20082671756E+03  0.00000000000E+00 0.  1.
        -11    1    3    3    0    0 -0.11565895237E+03 -0.80699581052E+03 -0.11502813595E+04  0.14098817104E+04  0.00000000000E+00 0. -1.
         22    1    1    2    0    0  0.10107432419E+03  0.90495624386E+03  0.62906812021E+02  0.91275357535E+03  0.00000000000E+00 0.  1.
<mgrwt>
<rscale>  0 0.21851800E+04</rscale>
<asrwt>0</asrwt>
<pdfrwt beam="1">  1        2 0.97029294E-01 0.21851800E+04</pdfrwt>
<pdfrwt beam="2">  1       -2 0.29119563E+00 0.21851800E+04</pdfrwt>
<totfact> 0.15372390E+00</totfact>
</mgrwt>
</event>
<event>
 6    1  0.1637818E-005  0.1327490E+04  0.7818608E-02  0.9008045E-01
          2   -1    0    0  501    0  0.00000000000E+00  0.00000000000E+00  0.36211637300E+03  0.36211637300E+03  0.00000000000E+00 0. -1.
         -2   -1    0    0    0  501 -0.00000000000E+00 -0.00000000000E+00 -0.12166189508E+04  0.12166189508E+04  0.00000000000E+00 0.  1.
         23    2    1    2    0    0  0.37139190218E+03 -0.36147252976E+03  0.57424862114E+02  0.52982827812E+03  0.93947084742E+02 0.  0.
         11    1    3    3    0    0  0.28487527921E+03 -0.23121944300E+03  0.12414599859E+02  0.36711098841E+03  0.00000000000E+00 0.  1.
        -11    1    3    3    0    0  0.86516622972E+02 -0.13025308676E+03  0.45010262255E+02  0.16271728971E+03  0.00000000000E+00 0. -1.
         22    1    1    2    0    0 -0.37139190218E+03  0.36147252976E+03 -0.91192743989E+03  0.10489070456E+04  0.00000000000E+00 0.  1.
<mgrwt>
<rscale>  0 0.13274903E+04</rscale>
<asrwt>0</asrwt>
<pdfrwt beam="1">  1        2 0.55710211E-01 0.13274903E+04</pdfrwt>
<pdfrwt beam="2">  1       -2 0.18717215E+00 0.13274903E+04</pdfrwt>
<totfact> 0.14077465E+01</totfact>
</mgrwt>
</event>
<event>
 6    1  0.1637818E-005  0.9690449E+03  0.7818608E-02  0.9343163E-01
         -2   -1    0    0    0  501 -0.00000000000E+00  0.00000000000E+00  0.20772345411E+03  0.20772345411E+03  0.00000000000E+00 0.  1.
          2   -1    0    0  501    0  0.00000000000E+00 -0.00000000000E+00 -0.11301659813E+04  0.11301659813E+04  0.00000000000E+00 0. -1.
         23    2    1    2    0    0 -0.27905689312E+03  0.34059730931E+03 -0.20073991230E+03  0.49247004774E+03  0.91383580707E+02 0.  0.
         11    1    3    3    0    0 -0.19272124294E+03  0.17166419946E+03 -0.93249140137E+02  0.27441843413E+03  0.00000000000E+00 0. -1.
        -11    1    3    3    0    0 -0.86335650186E+02  0.16893310985E+03 -0.10749077217E+03  0.21805161361E+03  0.00000000000E+00 0.  1.
         22    1    1    2    0    0  0.27905689312E+03 -0.34059730931E+03 -0.72170261486E+03  0.84541938764E+03  0.00000000000E+00 0. -1.
<mgrwt>
<rscale>  0 0.96904485E+03</rscale>
<asrwt>0</asrwt>
<pdfrwt beam="1">  1        2 0.17387169E+00 0.96904485E+03</pdfrwt>
<pdfrwt beam="2">  1       -2 0.31957454E-01 0.96904485E+03</pdfrwt>
<totfact> 0.18980436E+02</totfact>
</mgrwt>
</event>
<event>
 6    1  0.1637818E-005  0.5147295E+04  0.7818608E-02  0.7806179E-01
         -2   -1    0    0    0  501 -0.00000000000E+00  0.00000000000E+00  0.19179379702E+04  0.19179379702E+04  0.00000000000E+00 0.  1.
          2   -1    0    0  501    0  0.00000000000E+00 -0.00000000000E+00 -0.34535325820E+04  0.34535325820E+04  0.00000000000E+00 0. -1.
         23    2    1    2    0    0 -0.75559000714E+02 -0.23810362093E+04  0.24613427566E+03  0.23966427552E+04  0.90949555956E+02 0.  0.
         13    1    3    3    0    0 -0.84614125504E+02 -0.17929907921E+04  0.21324619795E+03  0.18076087717E+04  0.00000000000E+00 0.  1.
        -13    1    3    3    0    0  0.90551247901E+01 -0.58804541729E+03  0.32888077706E+02  0.58903398351E+03  0.00000000000E+00 0. -1.
         22    1    1    2    0    0  0.75559000714E+02  0.23810362093E+04 -0.17817288875E+04  0.29748277969E+04  0.00000000000E+00 0. -1.
<mgrwt>
<rscale>  0 0.51472949E+04</rscale>
<asrwt>0</asrwt>
<pdfrwt beam="1">  1        2 0.53131270E+00 0.51472949E+04</pdfrwt>
<pdfrwt beam="2">  1       -2 0.29506738E+00 0.51472949E+04</pdfrwt>
<totfact> 0.21434832E-02</totfact>
</mgrwt>
</event>
<event>
 6    1  0.1637818E-005  0.1567091E+04  0.7818608E-02  0.8841024E-01
         -2   -1    0    0    0  501 -0.00000000000E+00  0.00000000000E+00  0.41175706714E+03  0.41175706714E+03  0.00000000000E+00 0.  1.
          2   -1    0    0  501    0  0.00000000000E+00 -0.00000000000E+00 -0.14910334557E+04  0.14910334557E+04  0.00000000000E+00 0. -1.
         23    2    1    2    0    0 -0.19139918462E+02 -0.68881564251E+03 -0.98795722711E+03  0.12076844050E+04  0.87228513730E+02 0.  0.
         13    1    3    3    0    0 -0.20213890545E+02 -0.64316496176E+03 -0.87743173745E+03  0.10880975247E+04  0.00000000000E+00 0.  1.
        -13    1    3    3    0    0  0.10739720827E+01 -0.45650680750E+02 -0.11052548966E+03  0.11958688027E+03  0.00000000000E+00 0. -1.
         22    1    1    2    0    0  0.19139918462E+02  0.68881564251E+03 -0.91319161463E+02  0.69510611787E+03  0.00000000000E+00 0.  1.
<mgrwt>
<rscale>  0 0.15670910E+04</rscale>
<asrwt>0</asrwt>
<pdfrwt beam="1">  1        2 0.22938976E+00 0.15670910E+04</pdfrwt>
<pdfrwt beam="2">  1       -2 0.63347241E-01 0.15670910E+04</pdfrwt>
<totfact> 0.28483106E+01</totfact>
</mgrwt>
</event>
<event>
 6    1  0.1637818E-005  0.3728358E+04  0.7818608E-02  0.8061706E-01
          2   -1    0    0  501    0  0.00000000000E+00  0.00000000000E+00  0.43189393332E+04  0.43189393332E+04  0.00000000000E+00 0.  1.
         -2   -1    0    0    0  501 -0.00000000000E+00 -0.00000000000E+00 -0.80463337614E+03  0.80463337614E+03  0.00000000000E+00 0. -1.
         23    2    1    2    0    0  0.11690111720E+04  0.49866226461E+03  0.36302510183E+04  0.38473695783E+04  0.90989237933E+02 0.  0.
         13    1    3    3    0    0  0.74146506908E+03  0.31858952158E+03  0.21704901183E+04  0.23156634223E+04  0.00000000000E+00 0. -1.
        -13    1    3    3    0    0  0.42754610296E+03  0.18007274303E+03  0.14597609001E+04  0.15317061560E+04  0.00000000000E+00 0.  1.
         22    1    1    2    0    0 -0.11690111720E+04 -0.49866226461E+03 -0.11594506125E+03  0.12762031311E+04  0.00000000000E+00 0. -1.
<mgrwt>
<rscale>  0 0.37283577E+04</rscale>
<asrwt>0</asrwt>
<pdfrwt beam="1">  1        2 0.66445219E+00 0.37283577E+04</pdfrwt>
<pdfrwt beam="2">  1       -2 0.12378975E+00 0.37283577E+04</pdfrwt>
<totfact> 0.71907879E-02</totfact>
</mgrwt>
</event>
<event>
 6    1  0.1637818E-005  0.1546585E+04  0.7818608E-02  0.8854052E-01
          1   -1    0    0  501    0  0.00000000000E+00  0.00000000000E+00  0.20293512059E+04  0.20293512059E+04  0.00000000000E+00 0. -1.
         -1   -1    0    0    0  501 -0.00000000000E+00 -0.00000000000E+00 -0.29466636391E+03  0.29466636391E+03  0.00000000000E+00 0.  1.
         23    2    1    2    0    0  0.61432621194E+03 -0.37626740872E+03  0.45810923195E+03  0.85820068300E+03  0.87581312869E+02 0.  0.
         11    1    3    3    0    0  0.31117619394E+03 -0.21574080315E+03  0.19515641112E+03  0.42598209191E+03  0.00000000000E+00 0.  1.
        -11    1    3    3    0    0  0.30315001799E+03 -0.16052660556E+03  0.26295282083E+03  0.43221859109E+03  0.00000000000E+00 0. -1.
         22    1    1    2    0    0 -0.61432621194E+03  0.37626740872E+03  0.12765756101E+04  0.14658168869E+04  0.00000000000E+00 0.  1.
<mgrwt>
<rscale>  0 0.15465853E+04</rscale>
<asrwt>0</asrwt>
<pdfrwt beam="1">  1        1 0.31220787E+00 0.15465853E+04</pdfrwt>
<pdfrwt beam="2">  1       -1 0.45333288E-01 0.15465853E+04</pdfrwt>
<totfact> 0.13257517E+01</totfact>
</mgrwt>
</event>
<event>
 6    1  0.1637818E-005  0.3500036E+04  0.7818608E-02  0.8113781E-01
         -2   -1    0    0    0  501 -0.00000000000E+00  0.00000000000E+00  0.21638870743E+04  0.21638870743E+04  0.00000000000E+00 0.  1.
          2   -1    0    0  501    0  0.00000000000E+00 -0.00000000000E+00 -0.14153064925E+04  0.14153064925E+04  0.00000000000E+00 0. -1.
         23    2    1    2    0    0 -0.15226839695E+04 -0.43564299087E+03  0.11330211678E+04  0.19494249173E+04  0.90383930148E+02 0.  0.
         13    1    3    3    0    0 -0.88557739598E+03 -0.27911421786E+03  0.70917483884E+03  0.11683668187E+04  0.00000000000E+00 0.  1.
        -13    1    3    3    0    0 -0.63710657356E+03 -0.15652877300E+03  0.42384632893E+03  0.78105809861E+03  0.00000000000E+00 0. -1.
         22    1    1    2    0    0  0.15226839695E+04  0.43564299087E+03 -0.38444058599E+03  0.16297686495E+04  0.00000000000E+00 0.  1.
<mgrwt>
<rscale>  0 0.35000362E+04</rscale>
<asrwt>0</asrwt>
<pdfrwt beam="1">  1        2 0.21773946E+00 0.35000362E+04</pdfrwt>
<pdfrwt beam="2">  1       -2 0.33290570E+00 0.35000362E+04</pdfrwt>
<totfact> 0.23196864E-01</totfact>
</mgrwt>
</event>
<event>
 6    1  0.1637818E-005  0.1515912E+04  0.7818608E-02  0.8873940E-01
          1   -1    0    0  501    0  0.00000000000E+00  0.00000000000E+00  0.38999763351E+03  0.38999763351E+03  0.00000000000E+00 0. -1.
         -1   -1    0    0    0  501 -0.00000000000E+00 -0.00000000000E+00 -0.14730794804E+04  0.14730794804E+04  0.00000000000E+00 0.  1.
         23    2    1    2    0    0 -0.42634775099E+03  0.58007417477E+03 -0.26275914700E+03  0.77166161790E+03  0.90337313450E+02 0.  0.
         11    1    3    3    0    0 -0.10848369520E+03  0.89172560982E+02 -0.42296132423E+02  0.14666090336E+03  0.00000000000E+00 0.  1.
        -11    1    3    3    0    0 -0.31786405579E+03  0.49090161379E+03 -0.22046301458E+03  0.62500071455E+03  0.00000000000E+00 0. -1.
         22    1    1    2    0    0  0.42634775099E+03 -0.58007417477E+03 -0.82032269990E+03  0.10914154960E+04  0.00000000000E+00 0.  1.
<mgrwt>
<rscale>  0 0.15159123E+04</rscale>
<asrwt>0</asrwt>
<pdfrwt beam="1">  1        1 0.59999636E-01 0.15159123E+04</pdfrwt>
<pdfrwt beam="2">  1       -1 0.22662761E+00 0.15159123E+04</pdfrwt>
<totfact> 0.59591964E+00</totfact>
</mgrwt>
</event>
<event>
 6    1  0.1637818E-005  0.2121818E+04  0.7818608E-02  0.8551693E-01
          2   -1    0    0  501    0  0.00000000000E+00  0.00000000000E+00  0.13339505991E+04  0.13339505991E+04  0.00000000000E+00 0. -1.
         -2   -1    0    0    0  501 -0.00000000000E+00 -0.00000000000E+00 -0.84375558528E+03  0.84375558528E+03  0.00000000000E+00 0.  1.
         23    2    1    2    0    0  0.60713244114E+03 -0.72316894254E+03 -0.24671922049E+03  0.97994756544E+03  0.88564872946E+02 0.  0.
         13    1    3    3    0    0  0.45528469204E+03 -0.56597408295E+03 -0.22445783628E+03  0.76025793889E+03  0.00000000000E+00 0.  1.
        -13    1    3    3    0    0  0.15184774910E+03 -0.15719485959E+03 -0.22261384206E+02  0.21968962655E+03  0.00000000000E+00 0. -1.
         22    1    1    2    0    0 -0.60713244114E+03  0.72316894254E+03  0.73691423432E+03  0.11977586190E+04  0.00000000000E+00 0. -1.
<mgrwt>
<rscale>  0 0.21218183E+04</rscale>
<asrwt>0</asrwt>
<pdfrwt beam="1">  1        2 0.20522317E+00 0.21218183E+04</pdfrwt>
<pdfrwt beam="2">  1       -2 0.12980855E+00 0.21218183E+04</pdfrwt>
<totfact> 0.63356432E+00</totfact>
</mgrwt>
</event>
<event>
 6    1  0.1637818E-005  0.1512295E+04  0.7818608E-02  0.8876318E-01
         -2   -1    0    0    0  501 -0.00000000000E+00  0.00000000000E+00  0.86623651669E+03  0.86623651669E+03  0.00000000000E+00 0. -1.
          2   -1    0    0  501    0  0.00000000000E+00 -0.00000000000E+00 -0.66004938690E+03  0.66004938690E+03  0.00000000000E+00 0.  1.
         23    2    1    2    0    0 -0.52541573295E+03  0.27782955747E+03  0.57088023033E+03  0.82896817614E+03  0.89627251696E+02 0.  0.
         11    1    3    3    0    0 -0.19116691466E+03  0.13930460552E+03  0.26469162964E+03  0.35498200121E+03  0.00000000000E+00 0.  1.
        -11    1    3    3    0    0 -0.33424881829E+03  0.13852495195E+03  0.30618860069E+03  0.47398617494E+03  0.00000000000E+00 0. -1.
         22    1    1    2    0    0  0.52541573295E+03 -0.27782955747E+03 -0.36469310054E+03  0.69731772745E+03  0.00000000000E+00 0.  1.
<mgrwt>
<rscale>  0 0.15122948E+04</rscale>
<asrwt>0</asrwt>
<pdfrwt beam="1">  1        2 0.10154606E+00 0.15122948E+04</pdfrwt>
<pdfrwt beam="2">  1       -2 0.13326716E+00 0.15122948E+04</pdfrwt>
<totfact> 0.17356208E+01</totfact>
</mgrwt>
</event>
<event>
 6    1  0.1637818E-005  0.3352852E+04  0.7818608E-02  0.8149576E-01
         -1   -1    0    0    0  501 -0.00000000000E+00  0.00000000000E+00  0.13009857276E+04  0.13009857276E+04  0.00000000000E+00 0.  1.
          1   -1    0    0  501    0  0.00000000000E+00 -0.00000000000E+00 -0.21602107331E+04  0.21602107331E+04  0.00000000000E+00 0. -1.
         23    2    1    2    0    0 -0.77628275431E+03 -0.47898920855E+03 -0.18803216436E+04  0.20920054876E+04  0.93978190493E+02 0.  0.
         13    1    3    3    0    0 -0.54303242509E+03 -0.34309281752E+03 -0.14167082071E+04  0.15555253261E+04  0.00000000000E+00 0. -1.
        -13    1    3    3    0    0 -0.23325032922E+03 -0.13589639103E+03 -0.46361343642E+03  0.53648016143E+03  0.00000000000E+00 0.  1.
         22    1    1    2    0    0  0.77628275431E+03  0.47898920855E+03  0.10210966381E+04  0.13691909731E+04  0.00000000000E+00 0.  1.
<mgrwt>
<rscale>  0 0.33528515E+04</rscale>
<asrwt>0</asrwt>
<pdfrwt beam="1">  1        1 0.33234011E+00 0.33528515E+04</pdfrwt>
<pdfrwt beam="2">  1       -1 0.20015165E+00 0.33528515E+04</pdfrwt>
<totfact> 0.28757792E-01</totfact>
</mgrwt>
</event>
<event>
 6    1  0.1637818E-005  0.1297516E+04  0.7818608E-02  0.9031537E-01
          1   -1    0    0  501    0  0.00000000000E+00  0.00000000000E+00  0.35695829037E+03  0.35695829037E+03  0.00000000000E+00 0. -1.
         -1   -1    0    0    0  501 -0.00000000000E+00 -0.00000000000E+00 -0.11790931347E+04  0.11790931347E+04  0.00000000000E+00 0.  1.
         23    2    1    2    0    0 -0.38185033314E+03  0.38295565020E+03 -0.83036353006E+03  0.99518876389E+03  0.91827973797E+02 0.  0.
         13    1    3    3    0    0 -0.17489660243E+03  0.23037236879E+03 -0.39516900880E+03  0.48971297242E+03  0.00000000000E+00 0. -1.
        -13    1    3    3    0    0 -0.20695373071E+03  0.15258328142E+03 -0.43519452127E+03  0.50547579147E+03  0.00000000000E+00 0.  1.
         22    1    1    2    0    0  0.38185033314E+03 -0.38295565020E+03  0.82286857804E+01  0.54086266114E+03  0.00000000000E+00 0. -1.
<mgrwt>
<rscale>  0 0.12975162E+04</rscale>
<asrwt>0</asrwt>
<pdfrwt beam="1">  1        1 0.54916660E-01 0.12975162E+04</pdfrwt>
<pdfrwt beam="2">  1       -1 0.18139894E+00 0.12975162E+04</pdfrwt>
<totfact> 0.13944219E+01</totfact>
</mgrwt>
</event>
<event>
 6    1  0.1637818E-005  0.3219098E+04  0.7818608E-02  0.8183792E-01
         -2   -1    0    0    0  501 -0.00000000000E+00  0.00000000000E+00  0.17632330820E+04  0.17632330820E+04  0.00000000000E+00 0.  1.
          2   -1    0    0  501    0  0.00000000000E+00 -0.00000000000E+00 -0.14692597778E+04  0.14692597778E+04  0.00000000000E+00 0. -1.
         23    2    1    2    0    0 -0.11249036371E+04  0.56460002082E+03 -0.85871705535E+03  0.15257777573E+04  0.80133682714E+02 0.  0.
         13    1    3    3    0    0 -0.27881669817E+03  0.17300588036E+03 -0.24682881571E+03  0.41060230160E+03  0.00000000000E+00 0. -1.
        -13    1    3    3    0    0 -0.84608693896E+03  0.39159414047E+03 -0.61188823964E+03  0.11151754557E+04  0.00000000000E+00 0.  1.
         22    1    1    2    0    0  0.11249036371E+04 -0.56460002082E+03  0.11526903595E+04  0.17067151025E+04  0.00000000000E+00 0.  1.
<mgrwt>
<rscale>  0 0.32190977E+04</rscale>
<asrwt>0</asrwt>
<pdfrwt beam="1">  1        2 0.22603997E+00 0.32190977E+04</pdfrwt>
<pdfrwt beam="2">  1       -2 0.27126663E+00 0.32190977E+04</pdfrwt>
<totfact> 0.52888590E-01</totfact>
</mgrwt>
</event>
<event>
 6    1  0.1637818E-005  0.2709015E+04  0.7818608E-02  0.8332086E-01
          2   -1    0    0  501    0  0.00000000000E+00  0.00000000000E+00  0.28722165866E+04  0.28722165866E+04  0.00000000000E+00 0. -1.
         -2   -1    0    0    0  501 -0.00000000000E+00 -0.00000000000E+00 -0.63877186146E+03  0.63877186146E+03  0.00000000000E+00 0.  1.
         23    2    1    2    0    0  0.12389822553E+04  0.44640205370E+03  0.71619977216E+03  0.15019130214E+04  0.91917287684E+02 0.  0.
         13    1    3    3    0    0  0.68101145643E+02  0.38473133607E+02  0.63232388408E+02  0.10057973450E+03  0.00000000000E+00 0. -1.
        -13    1    3    3    0    0  0.11708811097E+04  0.40792892010E+03  0.65296738375E+03  0.14013332869E+04  0.00000000000E+00 0.  1.
         22    1    1    2    0    0 -0.12389822553E+04 -0.44640205370E+03  0.15172449530E+04  0.20090754266E+04  0.00000000000E+00 0. -1.
<mgrwt>
<rscale>  0 0.27090154E+04</rscale>
<asrwt>0</asrwt>
<pdfrwt beam="1">  1        2 0.44187947E+00 0.27090154E+04</pdfrwt>
<pdfrwt beam="2">  1       -2 0.98272596E-01 0.27090154E+04</pdfrwt>
<totfact> 0.15762622E+00</totfact>
</mgrwt>
</event>
<event>
 6    1  0.1637818E-005  0.1300576E+04  0.7818608E-02  0.9029108E-01
          1   -1    0    0  501    0  0.00000000000E+00  0.00000000000E+00  0.30733550523E+03  0.30733550523E+03  0.00000000000E+00 0. -1.
         -1   -1    0    0    0  501 -0.00000000000E+00 -0.00000000000E+00 -0.13759381324E+04  0.13759381324E+04  0.00000000000E+00 0.  1.
         23    2    1    2    0    0  0.22670303900E+03  0.50442602424E+03 -0.10161912126E+03  0.56931808083E+03  0.89200613951E+02 0.  0.
         13    1    3    3    0    0  0.15932795855E+02  0.64974921752E+02  0.14138967264E+02  0.68377663281E+02  0.00000000000E+00 0. -1.
        -13    1    3    3    0    0  0.21077024315E+03  0.43945110249E+03 -0.11575808852E+03  0.50094041755E+03  0.00000000000E+00 0.  1.
         22    1    1    2    0    0 -0.22670303900E+03 -0.50442602424E+03 -0.96698350590E+03  0.11139555568E+04  0.00000000000E+00 0.  1.
<mgrwt>
<rscale>  0 0.13005762E+04</rscale>
<asrwt>0</asrwt>
<pdfrwt beam="1">  1        1 0.47282385E-01 0.13005762E+04</pdfrwt>
<pdfrwt beam="2">  1       -1 0.21168279E+00 0.13005762E+04</pdfrwt>
<totfact> 0.10453644E+01</totfact>
</mgrwt>
</event>
<event>
 6    1  0.1637818E-005  0.1110503E+04  0.7818608E-02  0.9195015E-01
          2   -1    0    0  501    0  0.00000000000E+00  0.00000000000E+00  0.29705181127E+03  0.29705181127E+03  0.00000000000E+00 0. -1.
         -2   -1    0    0    0  501 -0.00000000000E+00 -0.00000000000E+00 -0.10378801513E+04  0.10378801513E+04  0.00000000000E+00 0.  1.
         23    2    1    2    0    0 -0.46890601412E+03  0.25681384032E+03 -0.21116004383E+03  0.58235326059E+03  0.93383924504E+02 0.  0.
         13    1    3    3    0    0 -0.23530162873E+03  0.16115644950E+03 -0.15161559717E+03  0.32299465476E+03  0.00000000000E+00 0.  1.
        -13    1    3    3    0    0 -0.23360438539E+03  0.95657390828E+02 -0.59544446657E+02  0.25935860584E+03  0.00000000000E+00 0. -1.
         22    1    1    2    0    0  0.46890601412E+03 -0.25681384032E+03 -0.52966829618E+03  0.75257870196E+03  0.00000000000E+00 0.  1.
<mgrwt>
<rscale>  0 0.11105029E+04</rscale>
<asrwt>0</asrwt>
<pdfrwt beam="1">  1        2 0.45700279E-01 0.11105029E+04</pdfrwt>
<pdfrwt beam="2">  1       -2 0.15967387E+00 0.11105029E+04</pdfrwt>
<totfact> 0.27868235E+01</totfact>
</mgrwt>
</event>
<event>
 6    1  0.1637818E-005  0.2036351E+04  0.7818608E-02  0.8589811E-01
         -2   -1    0    0    0  501 -0.00000000000E+00  0.00000000000E+00  0.11601138414E+04  0.11601138414E+04  0.00000000000E+00 0.  1.
          2   -1    0    0  501    0  0.00000000000E+00 -0.00000000000E+00 -0.89360344981E+03  0.89360344981E+03  0.00000000000E+00 0. -1.
         23    2    1    2    0    0  0.46882042459E+03  0.19579853496E+03  0.10209837036E+04  0.11441241759E+04  0.92101846267E+02 0.  0.
         11    1    3    3    0    0  0.16526024268E+03  0.93750128991E+02  0.46800970430E+03  0.50510703600E+03  0.00000000000E+00 0. -1.
        -11    1    3    3    0    0  0.30356018191E+03  0.10204840597E+03  0.55297399931E+03  0.63901713992E+03  0.00000000000E+00 0.  1.
         22    1    1    2    0    0 -0.46882042459E+03 -0.19579853496E+03 -0.75447331203E+03  0.90959311528E+03  0.00000000000E+00 0. -1.
<mgrwt>
<rscale>  0 0.20363514E+04</rscale>
<asrwt>0</asrwt>
<pdfrwt beam="1">  1        2 0.13747745E+00 0.20363514E+04</pdfrwt>
<pdfrwt beam="2">  1       -2 0.17847905E+00 0.20363514E+04</pdfrwt>
<totfact> 0.50950313E+00</totfact>
</mgrwt>
</event>
<event>
 6    1  0.1637818E-005  0.1220917E+04  0.7818608E-02  0.9094742E-01
          2   -1    0    0  501    0  0.00000000000E+00  0.00000000000E+00  0.20225079834E+04  0.20225079834E+04  0.00000000000E+00 0. -1.
         -2   -1    0    0    0  501 -0.00000000000E+00 -0.00000000000E+00 -0.18425625342E+03  0.18425625342E+03  0.00000000000E+00 0.  1.
         23    2    1    2    0    0  0.32598712670E+03 -0.30341087790E+03  0.16699112495E+04  0.17306715095E+04  0.91074283762E+02 0.  0.
         13    1    3    3    0    0  0.13746184795E+03 -0.17655233407E+03  0.93680217364E+03  0.96315356971E+03  0.00000000000E+00 0.  1.
        -13    1    3    3    0    0  0.18852527875E+03 -0.12685854383E+03  0.73310907586E+03  0.76751793984E+03  0.00000000000E+00 0. -1.
         22    1    1    2    0    0 -0.32598712670E+03  0.30341087790E+03  0.16834048049E+03  0.47609272729E+03  0.00000000000E+00 0.  1.
<mgrwt>
<rscale>  0 0.12209173E+04</rscale>
<asrwt>0</asrwt>
<pdfrwt beam="1">  1        2 0.31115506E+00 0.12209173E+04</pdfrwt>
<pdfrwt beam="2">  1       -2 0.28347117E-01 0.12209173E+04</pdfrwt>
<totfact> 0.72983780E+01</totfact>
</mgrwt>
</event>
<event>
 6    1  0.2617476E-005  0.4451069E+04  0.7818608E-02  0.7919260E-01
          2   -1    0    0  501    0  0.00000000000E+00  0.00000000000E+00  0.28410944023E+04  0.28410944023E+04  0.00000000000E+00 0. -1.
         -2   -1    0    0    0  501 -0.00000000000E+00 -0.00000000000E+00 -0.17433437195E+04  0.17433437195E+04  0.00000000000E+00 0.  1.
         23    2    1    2    0    0 -0.26010805065E+02  0.16152476909E+04 -0.10261493041E+04  0.19159829845E+04  0.91141306286E+02 0.  0.
         11    1    3    3    0    0 -0.29670735020E+02  0.91367743043E+03 -0.63086607896E+03  0.11107109475E+04  0.00000000000E+00 0.  1.
        -11    1    3    3    0    0  0.36599299555E+01  0.70157026050E+03 -0.39528322514E+03  0.80527203700E+03  0.00000000000E+00 0. -1.
         22    1    1    2    0    0  0.26010805065E+02 -0.16152476909E+04  0.21238999869E+04  0.26684551372E+04  0.00000000000E+00 0. -1.
<mgrwt>
<rscale>  0 0.44510691E+04</rscale>
<asrwt>0</asrwt>
<pdfrwt beam="1">  1        2 0.43709145E+00 0.44510691E+04</pdfrwt>
<pdfrwt beam="2">  1       -2 0.26820673E+00 0.44510691E+04</pdfrwt>
<totfact> 0.82526202E-02</totfact>
</mgrwt>
</event>
<event>
 6    1  0.1637818E-005  0.1008041E+04  0.7818608E-02  0.9299769E-01
         -2   -1    0    0    0  501 -0.00000000000E+00  0.00000000000E+00  0.30840880537E+03  0.30840880537E+03  0.00000000000E+00 0.  1.
          2   -1    0    0  501    0  0.00000000000E+00 -0.00000000000E+00 -0.82370077510E+03  0.82370077510E+03  0.00000000000E+00 0. -1.
         23    2    1    2    0    0  0.14119289823E+03 -0.30954664493E+03  0.15171015586E+03  0.38334633655E+03  0.90464813359E+02 0.  0.
         11    1    3    3    0    0  0.52911266106E+02 -0.20830320220E+03  0.69582504309E+02  0.22590164018E+03  0.00000000000E+00 0. -1.
        -11    1    3    3    0    0  0.88281632129E+02 -0.10124344273E+03  0.82127651553E+02  0.15744469637E+03  0.00000000000E+00 0.  1.
         22    1    1    2    0    0 -0.14119289823E+03  0.30954664493E+03 -0.66700212559E+03  0.74876324391E+03  0.00000000000E+00 0. -1.
<mgrwt>
<rscale>  0 0.10080408E+04</rscale>
<asrwt>0</asrwt>
<pdfrwt beam="1">  1        2 0.12672320E+00 0.10080408E+04</pdfrwt>
<pdfrwt beam="2">  1       -2 0.47447509E-01 0.10080408E+04</pdfrwt>
<totfact> 0.13912745E+02</totfact>
</mgrwt>
</event>
<event>
 6    1  0.1637818E-005  0.9534621E+03  0.7818608E-02  0.9361113E-01
          4   -1    0    0  501    0  0.00000000000E+00  0.00000000000E+00  0.67778715572E+03  0.67778715572E+03  0.00000000000E+00 0. -1.
         -4   -1    0    0    0  501 -0.00000000000E+00 -0.00000000000E+00 -0.33531541842E+03  0.33531541842E+03  0.00000000000E+00 0.  1.
         23    2    1    2    0    0 -0.34377477026E+03  0.20843118224E+03 -0.90999870338E+02  0.42189847654E+03  0.89959422593E+02 0.  0.
         11    1    3    3    0    0 -0.92565998223E+02  0.50088302676E+02  0.15594520866E+02  0.10639779684E+03  0.00000000000E+00 0. -1.
        -11    1    3    3    0    0 -0.25120877203E+03  0.15834287957E+03 -0.10659439120E+03  0.31550067970E+03  0.00000000000E+00 0.  1.
         22    1    1    2    0    0  0.34377477026E+03 -0.20843118224E+03  0.43347160763E+03  0.59120409760E+03  0.00000000000E+00 0. -1.
<mgrwt>
<rscale>  0 0.95346208E+03</rscale>
<asrwt>0</asrwt>
<pdfrwt beam="1">  1        4 0.10427495E+00 0.95346208E+03</pdfrwt>
<pdfrwt beam="2">  1       -4 0.51586988E-01 0.95346208E+03</pdfrwt>
<totfact> 0.53606566E+00</totfact>
</mgrwt>
</event>
<event>
 6    1  0.1637818E-005  0.1471292E+04  0.7818608E-02  0.8903771E-01
         -2   -1    0    0    0  501 -0.00000000000E+00  0.00000000000E+00  0.50090287990E+03  0.50090287990E+03  0.00000000000E+00 0.  1.
          2   -1    0    0  501    0  0.00000000000E+00 -0.00000000000E+00 -0.10803994591E+04  0.10803994591E+04  0.00000000000E+00 0. -1.
         23    2    1    2    0    0  0.24273402118E+03 -0.69155903945E+03 -0.29779873999E+03  0.79610976220E+03  0.89067131091E+02 0.  0.
         11    1    3    3    0    0  0.15253950137E+03 -0.42287202394E+03 -0.22875997235E+03  0.50440080597E+03  0.00000000000E+00 0. -1.
        -11    1    3    3    0    0  0.90194519809E+02 -0.26868701551E+03 -0.69038767640E+02  0.29170895623E+03  0.00000000000E+00 0.  1.
         22    1    1    2    0    0 -0.24273402118E+03  0.69155903945E+03 -0.28169783924E+03  0.78519257684E+03  0.00000000000E+00 0.  1.
<mgrwt>
<rscale>  0 0.14712922E+04</rscale>
<asrwt>0</asrwt>
<pdfrwt beam="1">  1        2 0.16621530E+00 0.14712922E+04</pdfrwt>
<pdfrwt beam="2">  1       -2 0.77061981E-01 0.14712922E+04</pdfrwt>
<totfact> 0.32617157E+01</totfact>
</mgrwt>
</event>
<event>
 6    1  0.1637818E-005  0.2297594E+04  0.7818608E-02  0.8478870E-01
         -2   -1    0    0    0  501 -0.00000000000E+00  0.00000000000E+00  0.54971807270E+03  0.54971807270E+03  0.00000000000E+00 0.  1.
          2   -1    0    0  501    0  0.00000000000E+00 -0.00000000000E+00 -0.24007479635E+04  0.24007479635E+04  0.00000000000E+00 0. -1.
         23    2    1    2    0    0 -0.32571003564E+03 -0.76387576860E+03 -0.19433429075E+04  0.21149333258E+04  0.82268458976E+02 0.  0.
         11    1    3    3    0    0 -0.27458892611E+02 -0.96579998442E+02 -0.18006438465E+03  0.20616709122E+03  0.00000000000E+00 0. -1.
        -11    1    3    3    0    0 -0.29825114303E+03 -0.66729577015E+03 -0.17632785228E+04  0.19087662346E+04  0.00000000000E+00 0.  1.
         22    1    1    2    0    0  0.32571003564E+03  0.76387576860E+03  0.92313016640E+02  0.83553271044E+03  0.00000000000E+00 0.  1.
<mgrwt>
<rscale>  0 0.22975940E+04</rscale>
<asrwt>0</asrwt>
<pdfrwt beam="1">  1        2 0.36934586E+00 0.22975940E+04</pdfrwt>
<pdfrwt beam="2">  1       -2 0.84572008E-01 0.22975940E+04</pdfrwt>
<totfact> 0.43891423E+00</totfact>
</mgrwt>
</event>
<event>
 6    1  0.1637818E-005  0.4255500E+04  0.7818608E-02  0.7954898E-01
          2   -1    0    0  501    0  0.00000000000E+00  0.00000000000E+00  0.39453928001E+04  0.39453928001E+04  0.00000000000E+00 0. -1.
         -2   -1    0    0    0  501 -0.00000000000E+00 -0.00000000000E+00 -0.11474951393E+04  0.11474951393E+04  0.00000000000E+00 0.  1.
         23    2    1    2    0    0  0.18903580505E+04  0.20561364440E+03  0.25967228173E+03  0.19214027030E+04  0.92887691324E+02 0.  0.
         11    1    3    3    0    0  0.18690689223E+04  0.21059054457E+03  0.24978797008E+03  0.18974090344E+04  0.00000000000E+00 0.  1.
        -11    1    3    3    0    0  0.21289128165E+02 -0.49769001705E+01  0.98843116512E+01  0.23993668543E+02  0.00000000000E+00 0. -1.
         22    1    1    2    0    0 -0.18903580505E+04 -0.20561364440E+03  0.25382253791E+04  0.31714852365E+04  0.00000000000E+00 0.  1.
<mgrwt>
<rscale>  0 0.42554995E+04</rscale>
<asrwt>0</asrwt>
<pdfrwt beam="1">  1        2 0.60698350E+00 0.42554995E+04</pdfrwt>
<pdfrwt beam="2">  1       -2 0.17653772E+00 0.42554995E+04</pdfrwt>
<totfact> 0.55852852E-02</totfact>
</mgrwt>
</event>
<event>
 6    1  0.1637818E-005  0.9747640E+03  0.7818608E-02  0.9336665E-01
          2   -1    0    0  501    0  0.00000000000E+00  0.00000000000E+00  0.10385035219E+04  0.10385035219E+04  0.00000000000E+00 0.  1.
         -2   -1    0    0    0  501 -0.00000000000E+00 -0.00000000000E+00 -0.22873415566E+03  0.22873415566E+03  0.00000000000E+00 0. -1.
         23    2    1    2    0    0 -0.45153415967E+03  0.16152460230E+03  0.48557312915E+03  0.68837975488E+03  0.90067356408E+02 0.  0.
         11    1    3    3    0    0 -0.24553520380E+03  0.83416601935E+02  0.32492256871E+03  0.41571690060E+03  0.00000000000E+00 0. -1.
        -11    1    3    3    0    0 -0.20599895587E+03  0.78108000365E+02  0.16065056043E+03  0.27266285429E+03  0.00000000000E+00 0.  1.
         22    1    1    2    0    0  0.45153415967E+03 -0.16152460230E+03  0.32419623707E+03  0.57885792266E+03  0.00000000000E+00 0.  1.
<mgrwt>
<rscale>  0 0.97476403E+03</rscale>
<asrwt>0</asrwt>
<pdfrwt beam="1">  1        2 0.15976977E+00 0.97476403E+03</pdfrwt>
<pdfrwt beam="2">  1       -2 0.35189871E-01 0.97476403E+03</pdfrwt>
<totfact> 0.18016918E+02</totfact>
</mgrwt>
</event>
<event>
 6    1  0.1637818E-005  0.1299545E+04  0.7818608E-02  0.9029926E-01
          2   -1    0    0  501    0  0.00000000000E+00  0.00000000000E+00  0.10579956638E+04  0.10579956638E+04  0.00000000000E+00 0. -1.
         -2   -1    0    0    0  501 -0.00000000000E+00 -0.00000000000E+00 -0.39906067578E+03  0.39906067578E+03  0.00000000000E+00 0.  1.
         23    2    1    2    0    0  0.51504815037E+03 -0.37203857823E+03  0.21860645165E+03  0.68402560227E+03  0.12812081395E+03 0.  0.
         13    1    3    3    0    0  0.16506746506E+03 -0.85089400983E+02  0.10805745870E+02  0.18602214472E+03  0.00000000000E+00 0.  1.
        -13    1    3    3    0    0  0.34998068531E+03 -0.28694917724E+03  0.20780070578E+03  0.49800345755E+03  0.00000000000E+00 0. -1.
         22    1    1    2    0    0 -0.51504815037E+03  0.37203857823E+03  0.44032853636E+03  0.77303073731E+03  0.00000000000E+00 0.  1.
<mgrwt>
<rscale>  0 0.12995453E+04</rscale>
<asrwt>0</asrwt>
<pdfrwt beam="1">  1        2 0.16276856E+00 0.12995453E+04</pdfrwt>
<pdfrwt beam="2">  1       -2 0.61393951E-01 0.12995453E+04</pdfrwt>
<totfact> 0.55953403E+01</totfact>
</mgrwt>
</event>
<event>
 6    1  0.1637818E-005  0.1584722E+04  0.7818608E-02  0.8829989E-01
         -2   -1    0    0    0  501 -0.00000000000E+00  0.00000000000E+00  0.20822832692E+03  0.20822832692E+03  0.00000000000E+00 0.  1.
          2   -1    0    0  501    0  0.00000000000E+00 -0.00000000000E+00 -0.30151319770E+04  0.30151319770E+04  0.00000000000E+00 0. -1.
         23    2    1    2    0    0  0.70117111801E+03 -0.13272704059E+03 -0.71974052103E+03  0.10175708010E+04  0.90368763067E+02 0.  0.
         13    1    3    3    0    0  0.39406273509E+03 -0.52184633613E+02 -0.45501753715E+03  0.60419337491E+03  0.00000000000E+00 0.  1.
        -13    1    3    3    0    0  0.30710838292E+03 -0.80542406980E+02 -0.26472298389E+03  0.41337742606E+03  0.00000000000E+00 0. -1.
         22    1    1    2    0    0 -0.70117111801E+03  0.13272704059E+03 -0.20871631290E+04  0.22057895029E+04  0.00000000000E+00 0. -1.
<mgrwt>
<rscale>  0 0.15847219E+04</rscale>
<asrwt>0</asrwt>
<pdfrwt beam="1">  1        2 0.46386641E+00 0.15847219E+04</pdfrwt>
<pdfrwt beam="2">  1       -2 0.32035130E-01 0.15847219E+04</pdfrwt>
<totfact> 0.14919161E+01</totfact>
</mgrwt>
</event>
<event>
 6    1  0.1637818E-005  0.9482770E+03  0.7818608E-02  0.9367167E-01
          2   -1    0    0  501    0  0.00000000000E+00  0.00000000000E+00  0.51193638940E+03  0.51193638940E+03  0.00000000000E+00 0. -1.
         -2   -1    0    0    0  501 -0.00000000000E+00 -0.00000000000E+00 -0.43913135933E+03  0.43913135933E+03  0.00000000000E+00 0.  1.
         23    2    1    2    0    0  0.36508207738E+03  0.21999694662E+02 -0.25900257649E+03  0.45724065595E+03  0.90651933446E+02 0.  0.
         11    1    3    3    0    0  0.14095868489E+03 -0.72938268708E+01 -0.51028364360E+02  0.15008812320E+03  0.00000000000E+00 0. -1.
        -11    1    3    3    0    0  0.22412339249E+03  0.29293521533E+02 -0.20797421213E+03  0.30715253275E+03  0.00000000000E+00 0.  1.
         22    1    1    2    0    0 -0.36508207738E+03 -0.21999694662E+02  0.33180760656E+03  0.49382709278E+03  0.00000000000E+00 0.  1.
<mgrwt>
<rscale>  0 0.94827701E+03</rscale>
<asrwt>0</asrwt>
<pdfrwt beam="1">  1        2 0.78759444E-01 0.94827701E+03</pdfrwt>
<pdfrwt beam="2">  1       -2 0.67558671E-01 0.94827701E+03</pdfrwt>
<totfact> 0.12053029E+02</totfact>
</mgrwt>
</event>
<event>
 6    1  0.1637818E-005  0.7379564E+03  0.7818608E-02  0.9654437E-01
          2   -1    0    0  501    0  0.00000000000E+00  0.00000000000E+00  0.20602584942E+04  0.20602584942E+04  0.00000000000E+00 0. -1.
         -2   -1    0    0    0  501 -0.00000000000E+00 -0.00000000000E+00 -0.66081464012E+02  0.66081464012E+02  0.00000000000E+00 0.  1.
         23    2    1    2    0    0 -0.11819291595E+03  0.28625171166E+03  0.15599379214E+04  0.15929796565E+04  0.90929971541E+02 0.  0.
         11    1    3    3    0    0 -0.85704486316E+02  0.27143618470E+03  0.14389183556E+04  0.14668022687E+04  0.00000000000E+00 0.  1.
        -11    1    3    3    0    0 -0.32488429638E+02  0.14815526954E+02  0.12101956576E+03  0.12617738781E+03  0.00000000000E+00 0. -1.
         22    1    1    2    0    0  0.11819291595E+03 -0.28625171166E+03  0.43423910885E+03  0.53336030173E+03  0.00000000000E+00 0.  1.
<mgrwt>
<rscale>  0 0.73795636E+03</rscale>
<asrwt>0</asrwt>
<pdfrwt beam="1">  1        2 0.31696280E+00 0.73795636E+03</pdfrwt>
<pdfrwt beam="2">  1       -2 0.10166381E-01 0.73795636E+03</pdfrwt>
<totfact> 0.42398061E+02</totfact>
</mgrwt>
</event>
<event>
 6    1  0.1637818E-005  0.3766692E+04  0.7818608E-02  0.8053341E-01
         -1   -1    0    0    0  501 -0.00000000000E+00  0.00000000000E+00  0.79438730697E+03  0.79438730697E+03  0.00000000000E+00 0.  1.
          1   -1    0    0  501    0  0.00000000000E+00 -0.00000000000E+00 -0.44650664199E+04  0.44650664199E+04  0.00000000000E+00 0. -1.
         23    2    1    2    0    0 -0.53158967354E+02  0.18752443226E+04 -0.20497808148E+04  0.27802041553E+04  0.92555990032E+02 0.  0.
         13    1    3    3    0    0 -0.23699732196E+02  0.98240648719E+03 -0.10054494605E+04  0.14059206240E+04  0.00000000000E+00 0.  1.
        -13    1    3    3    0    0 -0.29459235158E+02  0.89283783539E+03 -0.10443313543E+04  0.13742835313E+04  0.00000000000E+00 0. -1.
         22    1    1    2    0    0  0.53158967354E+02 -0.18752443226E+04 -0.16208982981E+04  0.24792495715E+04  0.00000000000E+00 0.  1.
<mgrwt>
<rscale>  0 0.37666920E+04</rscale>
<asrwt>0</asrwt>
<pdfrwt beam="1">  1        1 0.68693332E+00 0.37666920E+04</pdfrwt>
<pdfrwt beam="2">  1       -1 0.12221343E+00 0.37666920E+04</pdfrwt>
<totfact> 0.16432778E-02</totfact>
</mgrwt>
</event>
<event>
 6    1  0.1637818E-005  0.7314272E+03  0.7818608E-02  0.9664947E-01
         -2   -1    0    0    0  501 -0.00000000000E+00  0.00000000000E+00  0.17090822975E+03  0.17090822975E+03  0.00000000000E+00 0.  1.
          2   -1    0    0  501    0  0.00000000000E+00 -0.00000000000E+00 -0.78256290855E+03  0.78256290855E+03  0.00000000000E+00 0. -1.
         23    2    1    2    0    0  0.21572337495E+03 -0.20194414167E+03 -0.42141480371E+02  0.31186121472E+03  0.90352100278E+02 0.  0.
         11    1    3    3    0    0  0.67335833384E+02 -0.45824896932E+02  0.26740321025E+02  0.85726777642E+02  0.00000000000E+00 0.  1.
        -11    1    3    3    0    0  0.14838754157E+03 -0.15611924474E+03 -0.68881801395E+02  0.22613443708E+03  0.00000000000E+00 0. -1.
         22    1    1    2    0    0 -0.21572337495E+03  0.20194414167E+03 -0.56951319842E+03  0.64160992358E+03  0.00000000000E+00 0. -1.
<mgrwt>
<rscale>  0 0.73142721E+03</rscale>
<asrwt>0</asrwt>
<pdfrwt beam="1">  1        2 0.12039429E+00 0.73142721E+03</pdfrwt>
<pdfrwt beam="2">  1       -2 0.26293574E-01 0.73142721E+03</pdfrwt>
<totfact> 0.46644948E+02</totfact>
</mgrwt>
</event>
<event>
 6    1  0.1637818E-005  0.1927888E+04  0.7818608E-02  0.8641098E-01
          2   -1    0    0  501    0  0.00000000000E+00  0.00000000000E+00  0.18387787850E+04  0.18387787850E+04  0.00000000000E+00 0. -1.
         -2   -1    0    0    0  501 -0.00000000000E+00 -0.00000000000E+00 -0.50532897884E+03  0.50532897884E+03  0.00000000000E+00 0.  1.
         23    2    1    2    0    0 -0.73252384949E+03 -0.18033849300E+03  0.13937889446E+04  0.15873026544E+04  0.88141547798E+02 0.  0.
         11    1    3    3    0    0 -0.31819560653E+03 -0.35903191045E+02  0.55887222584E+03  0.64410841320E+03  0.00000000000E+00 0. -1.
        -11    1    3    3    0    0 -0.41432824296E+03 -0.14443530196E+03  0.83491671872E+03  0.94319424116E+03  0.00000000000E+00 0.  1.
         22    1    1    2    0    0  0.73252384949E+03  0.18033849300E+03 -0.60339138372E+02  0.75680510949E+03  0.00000000000E+00 0.  1.
<mgrwt>
<rscale>  0 0.19278882E+04</rscale>
<asrwt>0</asrwt>
<pdfrwt beam="1">  1        2 0.28288904E+00 0.19278882E+04</pdfrwt>
<pdfrwt beam="2">  1       -2 0.77742921E-01 0.19278882E+04</pdfrwt>
<totfact> 0.11309522E+01</totfact>
</mgrwt>
</event>
<event>
 6    1  0.1637818E-005  0.4371723E+04  0.7818608E-02  0.7933487E-01
          2   -1    0    0  501    0  0.00000000000E+00  0.00000000000E+00  0.19736718139E+04  0.19736718139E+04  0.00000000000E+00 0. -1.
         -2   -1    0    0    0  501 -0.00000000000E+00 -0.00000000000E+00 -0.24208635693E+04  0.24208635693E+04  0.00000000000E+00 0.  1.
         23    2    1    2    0    0 -0.70571349349E+03 -0.10347231188E+04  0.15759069290E+04  0.20151212213E+04  0.92452257338E+02 0.  0.
         11    1    3    3    0    0 -0.53988137964E+03 -0.85538247202E+03  0.12588133567E+04  0.16148566947E+04  0.00000000000E+00 0. -1.
        -11    1    3    3    0    0 -0.16583211386E+03 -0.17934064677E+03  0.31709357236E+03  0.40026452654E+03  0.00000000000E+00 0.  1.
         22    1    1    2    0    0  0.70571349349E+03  0.10347231188E+04 -0.20230986844E+04  0.23794141620E+04  0.00000000000E+00 0.  1.
<mgrwt>
<rscale>  0 0.43717229E+04</rscale>
<asrwt>0</asrwt>
<pdfrwt beam="1">  1        2 0.30364182E+00 0.43717229E+04</pdfrwt>
<pdfrwt beam="2">  1       -2 0.37244055E+00 0.43717229E+04</pdfrwt>
<totfact> 0.59242623E-02</totfact>
</mgrwt>
</event>
<event>
 6    1  0.1637818E-005  0.1392298E+04  0.7818608E-02  0.8959412E-01
          1   -1    0    0  501    0  0.00000000000E+00  0.00000000000E+00  0.25724266326E+04  0.25724266326E+04  0.00000000000E+00 0. -1.
         -1   -1    0    0    0  501 -0.00000000000E+00 -0.00000000000E+00 -0.18839167984E+03  0.18839167984E+03  0.00000000000E+00 0.  1.
         23    2    1    2    0    0 -0.37538119947E+03  0.18978848606E+03  0.22897003926E+04  0.23297385941E+04  0.89572956351E+02 0.  0.
         11    1    3    3    0    0 -0.16398548630E+03  0.34987853295E+02  0.84665737850E+03  0.86310144604E+03  0.00000000000E+00 0.  1.
        -11    1    3    3    0    0 -0.21139571318E+03  0.15480063277E+03  0.14430430141E+04  0.14666371480E+04  0.00000000000E+00 0. -1.
         22    1    1    2    0    0  0.37538119947E+03 -0.18978848606E+03  0.94334560202E+02  0.43107971839E+03  0.00000000000E+00 0.  1.
<mgrwt>
<rscale>  0 0.13922985E+04</rscale>
<asrwt>0</asrwt>
<pdfrwt beam="1">  1        1 0.39575792E+00 0.13922985E+04</pdfrwt>
<pdfrwt beam="2">  1       -1 0.28983337E-01 0.13922985E+04</pdfrwt>
<totfact> 0.12809641E+01</totfact>
</mgrwt>
</event>
<event>
 6    1  0.1637818E-005  0.1390326E+04  0.7818608E-02  0.8960851E-01
         -2   -1    0    0    0  501 -0.00000000000E+00  0.00000000000E+00  0.63814357135E+03  0.63814357135E+03  0.00000000000E+00 0.  1.
          2   -1    0    0  501    0  0.00000000000E+00 -0.00000000000E+00 -0.75727773886E+03  0.75727773886E+03  0.00000000000E+00 0. -1.
         23    2    1    2    0    0 -0.39910166083E+03 -0.55946883567E+03  0.22381137755E+02  0.69377033189E+03  0.92351742328E+02 0.  0.
         13    1    3    3    0    0 -0.11537891223E+03 -0.22693795596E+03 -0.15189783721E+02  0.25503697531E+03  0.00000000000E+00 0. -1.
        -13    1    3    3    0    0 -0.28372274860E+03 -0.33253087971E+03  0.37570921476E+02  0.43873335658E+03  0.00000000000E+00 0.  1.
         22    1    1    2    0    0  0.39910166083E+03  0.55946883567E+03 -0.14151530526E+03  0.70165097833E+03  0.00000000000E+00 0. -1.
<mgrwt>
<rscale>  0 0.13903265E+04</rscale>
<asrwt>0</asrwt>
<pdfrwt beam="1">  1        2 0.11650427E+00 0.13903265E+04</pdfrwt>
<pdfrwt beam="2">  1       -2 0.98175934E-01 0.13903265E+04</pdfrwt>
<totfact> 0.31125275E+01</totfact>
</mgrwt>
</event>
<event>
 6    1  0.1637818E-005  0.2278911E+04  0.7818608E-02  0.8486283E-01
         -1   -1    0    0    0  501 -0.00000000000E+00  0.00000000000E+00  0.10944378801E+04  0.10944378801E+04  0.00000000000E+00 0.  1.
          1   -1    0    0  501    0  0.00000000000E+00 -0.00000000000E+00 -0.11863252363E+04  0.11863252363E+04  0.00000000000E+00 0. -1.
         23    2    1    2    0    0  0.41482895029E+03  0.80482107392E+03  0.64324532743E+03  0.11144698079E+04  0.91969464257E+02 0.  0.
         13    1    3    3    0    0  0.16092199826E+03  0.40723438869E+03  0.32766773784E+03  0.54690207832E+03  0.00000000000E+00 0. -1.
        -13    1    3    3    0    0  0.25390695204E+03  0.39758668523E+03  0.31557758959E+03  0.56756772954E+03  0.00000000000E+00 0.  1.
         22    1    1    2    0    0 -0.41482895029E+03 -0.80482107392E+03 -0.73513268357E+03  0.11662933085E+04  0.00000000000E+00 0. -1.
<mgrwt>
<rscale>  0 0.22789114E+04</rscale>
<asrwt>0</asrwt>
<pdfrwt beam="1">  1        1 0.18251157E+00 0.22789114E+04</pdfrwt>
<pdfrwt beam="2">  1       -1 0.16837506E+00 0.22789114E+04</pdfrwt>
<totfact> 0.25049468E+00</totfact>
</mgrwt>
</event>
<event>
 6    1  0.1637818E-005  0.2258920E+04  0.7818608E-02  0.8494297E-01
         -2   -1    0    0    0  501 -0.00000000000E+00  0.00000000000E+00  0.97458412602E+03  0.97458412602E+03  0.00000000000E+00 0. -1.
          2   -1    0    0  501    0  0.00000000000E+00 -0.00000000000E+00 -0.13089475601E+04  0.13089475601E+04  0.00000000000E+00 0.  1.
         23    2    1    2    0    0 -0.43617009532E+03 -0.88359290348E+03  0.38664759226E+03  0.10625330492E+04  0.92191913906E+02 0.  0.
         11    1    3    3    0    0 -0.31365464618E+03 -0.56032651330E+03  0.22021088950E+03  0.67885040652E+03  0.00000000000E+00 0. -1.
        -11    1    3    3    0    0 -0.12251544914E+03 -0.32326639018E+03  0.16643670275E+03  0.38368264272E+03  0.00000000000E+00 0.  1.
         22    1    1    2    0    0  0.43617009532E+03  0.88359290348E+03 -0.72101102630E+03  0.12209986369E+04  0.00000000000E+00 0.  1.
<mgrwt>
<rscale>  0 0.22589197E+04</rscale>
<asrwt>0</asrwt>
<pdfrwt beam="1">  1        2 0.20137655E+00 0.22589197E+04</pdfrwt>
<pdfrwt beam="2">  1       -2 0.14993602E+00 0.22589197E+04</pdfrwt>
<totfact> 0.44574443E+00</totfact>
</mgrwt>
</event>
<event>
 6    1  0.1637818E-005  0.1556657E+04  0.7818608E-02  0.8847627E-01
          2   -1    0    0  501    0  0.00000000000E+00  0.00000000000E+00  0.12936681570E+04  0.12936681570E+04  0.00000000000E+00 0. -1.
         -2   -1    0    0    0  501 -0.00000000000E+00 -0.00000000000E+00 -0.46827714450E+03  0.46827714450E+03  0.00000000000E+00 0.  1.
         23    2    1    2    0    0 -0.43107279521E+03  0.64442828584E+03  0.40147354776E+03  0.87830646843E+03  0.95549320110E+02 0.  0.
         11    1    3    3    0    0 -0.96168702053E+02  0.82223875388E+02  0.56855236020E+02  0.13871446500E+03  0.00000000000E+00 0. -1.
        -11    1    3    3    0    0 -0.33490409315E+03  0.56220441045E+03  0.34461831174E+03  0.73959200343E+03  0.00000000000E+00 0.  1.
         22    1    1    2    0    0  0.43107279521E+03 -0.64442828584E+03  0.42391746470E+03  0.88363883303E+03  0.00000000000E+00 0. -1.
<mgrwt>
<rscale>  0 0.15566570E+04</rscale>
<asrwt>0</asrwt>
<pdfrwt beam="1">  1        2 0.19902587E+00 0.15566570E+04</pdfrwt>
<pdfrwt beam="2">  1       -2 0.72042638E-01 0.15566570E+04</pdfrwt>
<totfact> 0.27996609E+01</totfact>
</mgrwt>
</event>
<event>
 6    1  0.1637818E-005  0.2890030E+04  0.7818608E-02  0.8275850E-01
         -2   -1    0    0    0  501 -0.00000000000E+00  0.00000000000E+00  0.97434505612E+03  0.97434505612E+03  0.00000000000E+00 0.  1.
          2   -1    0    0  501    0  0.00000000000E+00 -0.00000000000E+00 -0.21430474719E+04  0.21430474719E+04  0.00000000000E+00 0. -1.
         23    2    1    2    0    0  0.34941958072E+03  0.40089615121E+03 -0.20326129306E+04  0.21029206728E+04  0.89153031482E+02 0.  0.
         11    1    3    3    0    0  0.55153424097E+02  0.26952300754E+02 -0.29580162629E+03  0.30210416883E+03  0.00000000000E+00 0.  1.
        -11    1    3    3    0    0  0.29426615662E+03  0.37394385046E+03 -0.17368113043E+04  0.18008165040E+04  0.00000000000E+00 0. -1.
         22    1    1    2    0    0 -0.34941958072E+03 -0.40089615121E+03  0.86391051481E+03  0.10144718552E+04  0.00000000000E+00 0.  1.
<mgrwt>
<rscale>  0 0.28900296E+04</rscale>
<asrwt>0</asrwt>
<pdfrwt beam="1">  1        2 0.32969961E+00 0.28900296E+04</pdfrwt>
<pdfrwt beam="2">  1       -2 0.14989924E+00 0.28900296E+04</pdfrwt>
<totfact> 0.14411465E+00</totfact>
</mgrwt>
</event>
<event>
 6    1  0.1637818E-005  0.4802995E+04  0.7818608E-02  0.7859637E-01
          2   -1    0    0  501    0  0.00000000000E+00  0.00000000000E+00  0.16351640756E+04  0.16351640756E+04  0.00000000000E+00 0. -1.
         -2   -1    0    0    0  501 -0.00000000000E+00 -0.00000000000E+00 -0.35269800914E+04  0.35269800914E+04  0.00000000000E+00 0.  1.
         23    2    1    2    0    0  0.51677324955E+03  0.12450425402E+04 -0.30812365775E+04  0.33643936863E+04  0.89109548261E+02 0.  0.
         13    1    3    3    0    0  0.30610988841E+03  0.77208128628E+03 -0.19993846940E+04  0.21650293141E+04  0.00000000000E+00 0. -1.
        -13    1    3    3    0    0  0.21066336114E+03  0.47296125397E+03 -0.10818518835E+04  0.11993643722E+04  0.00000000000E+00 0.  1.
         22    1    1    2    0    0 -0.51677324955E+03 -0.12450425402E+04  0.11894205616E+04  0.17977504807E+04  0.00000000000E+00 0. -1.
<mgrwt>
<rscale>  0 0.48029954E+04</rscale>
<asrwt>0</asrwt>
<pdfrwt beam="1">  1        2 0.25156371E+00 0.48029954E+04</pdfrwt>
<pdfrwt beam="2">  1       -2 0.54261232E+00 0.48029954E+04</pdfrwt>
<totfact> 0.74159622E-03</totfact>
</mgrwt>
</event>
<event>
 6    1  0.1637818E-005  0.4264086E+03  0.7818608E-02  0.1035001E+00
          2   -1    0    0  501    0  0.00000000000E+00  0.00000000000E+00  0.52129742845E+03  0.52129742845E+03  0.00000000000E+00 0. -1.
         -2   -1    0    0    0  501 -0.00000000000E+00 -0.00000000000E+00 -0.87197948604E+02  0.87197948604E+02  0.00000000000E+00 0.  1.
         23    2    1    2    0    0 -0.45704615497E+02 -0.11695017806E+03  0.71908962534E+01  0.16350414706E+03  0.10447794548E+03 0.  0.
         13    1    3    3    0    0 -0.26703919411E+02 -0.38199926685E+02  0.52887744432E+02  0.70494306307E+02  0.00000000000E+00 0.  1.
        -13    1    3    3    0    0 -0.19000696086E+02 -0.78750251376E+02 -0.45696848179E+02  0.93009840753E+02  0.00000000000E+00 0. -1.
         22    1    1    2    0    0  0.45704615497E+02  0.11695017806E+03  0.42690858359E+03  0.44499122999E+03  0.00000000000E+00 0. -1.
<mgrwt>
<rscale>  0 0.42640857E+03</rscale>
<asrwt>0</asrwt>
<pdfrwt beam="1">  1        2 0.80199603E-01 0.42640857E+03</pdfrwt>
<pdfrwt beam="2">  1       -2 0.13415069E-01 0.42640857E+03</pdfrwt>
<totfact> 0.24603926E+03</totfact>
</mgrwt>
</event>
<event>
 6    1  0.1637818E-005  0.2854471E+04  0.7818608E-02  0.8286554E-01
          2   -1    0    0  501    0  0.00000000000E+00  0.00000000000E+00  0.65691722394E+03  0.65691722394E+03  0.00000000000E+00 0. -1.
         -2   -1    0    0    0  501 -0.00000000000E+00 -0.00000000000E+00 -0.31008489508E+04  0.31008489508E+04  0.00000000000E+00 0.  1.
         23    2    1    2    0    0  0.22476495164E+03 -0.74291512035E+03  0.35099054479E+03  0.85707097116E+03  0.94520513833E+02 0.  0.
         13    1    3    3    0    0  0.14401944514E+03 -0.35567182039E+03  0.20782341478E+03  0.43638814848E+03  0.00000000000E+00 0.  1.
        -13    1    3    3    0    0  0.80745506497E+02 -0.38724329996E+03  0.14316713001E+03  0.42068282268E+03  0.00000000000E+00 0. -1.
         22    1    1    2    0    0 -0.22476495164E+03  0.74291512035E+03 -0.27949222716E+04  0.29006952035E+04  0.00000000000E+00 0.  1.
<mgrwt>
<rscale>  0 0.28544709E+04</rscale>
<asrwt>0</asrwt>
<pdfrwt beam="1">  1        2 0.10106419E+00 0.28544709E+04</pdfrwt>
<pdfrwt beam="2">  1       -2 0.47705369E+00 0.28544709E+04</pdfrwt>
<totfact> 0.88480315E-02</totfact>
</mgrwt>
</event>
<event>
 6    1  0.1637818E-005  0.3236963E+04  0.7818608E-02  0.8179123E-01
         -1   -1    0    0    0  501 -0.00000000000E+00  0.00000000000E+00  0.28953994053E+04  0.28953994053E+04  0.00000000000E+00 0.  1.
          1   -1    0    0  501    0  0.00000000000E+00 -0.00000000000E+00 -0.90470508256E+03  0.90470508256E+03  0.00000000000E+00 0. -1.
         23    2    1    2    0    0 -0.10781267002E+03 -0.16124326819E+04  0.10731419553E+04  0.19417543937E+04  0.84933761917E+02 0.  0.
         11    1    3    3    0    0 -0.31442669154E+01 -0.50587562827E+03  0.36559332395E+03  0.62416225151E+03  0.00000000000E+00 0.  1.
        -11    1    3    3    0    0 -0.10466840311E+03 -0.11065570536E+04  0.70754863133E+03  0.13175921422E+04  0.00000000000E+00 0. -1.
         22    1    1    2    0    0  0.10781267002E+03  0.16124326819E+04  0.91755236746E+03  0.18583500941E+04  0.00000000000E+00 0. -1.
<mgrwt>
<rscale>  0 0.32369631E+04</rscale>
<asrwt>0</asrwt>
<pdfrwt beam="1">  1        1 0.13918540E+00 0.32369631E+04</pdfrwt>
<pdfrwt beam="2">  1       -1 0.44544606E+00 0.32369631E+04</pdfrwt>
<totfact> 0.52268405E-02</totfact>
</mgrwt>
</event>
<event>
 6    1  0.1637818E-005  0.1756069E+04  0.7818608E-02  0.8730017E-01
         -2   -1    0    0    0  501 -0.00000000000E+00  0.00000000000E+00  0.33349899485E+03  0.33349899485E+03  0.00000000000E+00 0.  1.
          2   -1    0    0  501    0  0.00000000000E+00 -0.00000000000E+00 -0.23116848362E+04  0.23116848362E+04  0.00000000000E+00 0. -1.
         23    2    1    2    0    0 -0.33498923146E+03  0.38180657906E+03  0.82930535302E+02  0.52240386903E+03  0.89634143553E+02 0.  0.
         11    1    3    3    0    0 -0.28416690486E+03  0.27007428782E+03  0.76918532525E+02  0.39950896285E+03  0.00000000000E+00 0. -1.
        -11    1    3    3    0    0 -0.50822326601E+02  0.11173229124E+03  0.60120027765E+01  0.12289490618E+03  0.00000000000E+00 0.  1.
         22    1    1    2    0    0  0.33498923146E+03 -0.38180657906E+03 -0.20611163767E+04  0.21227799620E+04  0.00000000000E+00 0. -1.
<mgrwt>
<rscale>  0 0.17560690E+04</rscale>
<asrwt>0</asrwt>
<pdfrwt beam="1">  1        2 0.35564383E+00 0.17560690E+04</pdfrwt>
<pdfrwt beam="2">  1       -2 0.51307536E-01 0.17560690E+04</pdfrwt>
<totfact> 0.15192828E+01</totfact>
</mgrwt>
</event>
<event>
 6    1  0.1637818E-005  0.2462138E+04  0.7818608E-02  0.8416600E-01
          2   -1    0    0  501    0  0.00000000000E+00  0.00000000000E+00  0.10253269322E+04  0.10253269322E+04  0.00000000000E+00 0.  1.
         -2   -1    0    0    0  501 -0.00000000000E+00 -0.00000000000E+00 -0.14780950670E+04  0.14780950670E+04  0.00000000000E+00 0. -1.
         23    2    1    2    0    0 -0.97082131940E+03 -0.71802749097E+03 -0.46112694781E+03  0.12958925455E+04  0.92961903329E+02 0.  0.
         13    1    3    3    0    0 -0.55664018896E+03 -0.43192120411E+03 -0.22290853161E+03  0.73898067633E+03  0.00000000000E+00 0.  1.
        -13    1    3    3    0    0 -0.41418113044E+03 -0.28610628686E+03 -0.23821841621E+03  0.55691186916E+03  0.00000000000E+00 0. -1.
         22    1    1    2    0    0  0.97082131940E+03  0.71802749097E+03  0.83588130084E+01  0.12075294538E+04  0.00000000000E+00 0. -1.
<mgrwt>
<rscale>  0 0.24621378E+04</rscale>
<asrwt>0</asrwt>
<pdfrwt beam="1">  1        2 0.15774261E+00 0.24621378E+04</pdfrwt>
<pdfrwt beam="2">  1       -2 0.22739924E+00 0.24621378E+04</pdfrwt>
<totfact> 0.19268275E+00</totfact>
</mgrwt>
</event>
<event>
 6    1  0.1637818E-005  0.1980376E+04  0.7818608E-02  0.8615851E-01
         -2   -1    0    0    0  501 -0.00000000000E+00  0.00000000000E+00  0.22212779499E+04  0.22212779499E+04  0.00000000000E+00 0.  1.
          2   -1    0    0  501    0  0.00000000000E+00 -0.00000000000E+00 -0.44140003279E+03  0.44140003279E+03  0.00000000000E+00 0. -1.
         23    2    1    2    0    0 -0.22164928047E+03 -0.28255603045E+03  0.21295106499E+04  0.21614700800E+04  0.90393501803E+02 0.  0.
         13    1    3    3    0    0 -0.22169189261E+03 -0.27440688422E+03  0.21190333878E+04  0.21481966698E+04  0.00000000000E+00 0. -1.
        -13    1    3    3    0    0  0.42612146493E-01 -0.81491462371E+01  0.10477262054E+02  0.13273410275E+02  0.00000000000E+00 0.  1.
         22    1    1    2    0    0  0.22164928047E+03  0.28255603045E+03 -0.34963273274E+03  0.50120790265E+03  0.00000000000E+00 0. -1.
<mgrwt>
<rscale>  0 0.19803759E+04</rscale>
<asrwt>0</asrwt>
<pdfrwt beam="1">  1        2 0.67907699E-01 0.19803759E+04</pdfrwt>
<pdfrwt beam="2">  1       -2 0.34173506E+00 0.19803759E+04</pdfrwt>
<totfact> 0.11628930E+00</totfact>
</mgrwt>
</event>
<event>
 6    1  0.1637818E-005  0.2134833E+04  0.7818608E-02  0.8546052E-01
         -2   -1    0    0    0  501 -0.00000000000E+00  0.00000000000E+00  0.34896504804E+03  0.34896504804E+03  0.00000000000E+00 0. -1.
          2   -1    0    0  501    0  0.00000000000E+00 -0.00000000000E+00 -0.32650211521E+04  0.32650211521E+04  0.00000000000E+00 0.  1.
         23    2    1    2    0    0  0.52392561711E+03  0.28358336357E+03 -0.29560715896E+04  0.30168942345E+04  0.91509579843E+02 0.  0.
         11    1    3    3    0    0  0.21089731440E+03  0.16167185812E+03 -0.13954733950E+04  0.14205497045E+04  0.00000000000E+00 0.  1.
        -11    1    3    3    0    0  0.31302830270E+03  0.12191150545E+03 -0.15605981946E+04  0.15963445300E+04  0.00000000000E+00 0. -1.
         22    1    1    2    0    0 -0.52392561711E+03 -0.28358336357E+03  0.40015485504E+02  0.59709196564E+03  0.00000000000E+00 0. -1.
<mgrwt>
<rscale>  0 0.21348333E+04</rscale>
<asrwt>0</asrwt>
<pdfrwt beam="1">  1        2 0.50231095E+00 0.21348333E+04</pdfrwt>
<pdfrwt beam="2">  1       -2 0.53686930E-01 0.21348333E+04</pdfrwt>
<totfact> 0.35399663E+00</totfact>
</mgrwt>
</event>
<event>
 6    1  0.1637818E-005  0.1631964E+04  0.7818608E-02  0.8801148E-01
          1   -1    0    0  501    0  0.00000000000E+00  0.00000000000E+00  0.15696033357E+04  0.15696033357E+04  0.00000000000E+00 0. -1.
         -1   -1    0    0    0  501 -0.00000000000E+00 -0.00000000000E+00 -0.42420055189E+03  0.42420055189E+03  0.00000000000E+00 0.  1.
         23    2    1    2    0    0  0.52241323292E+03 -0.38592830282E+03 -0.22334467777E+02  0.65759038310E+03  0.10034960218E+03 0.  0.
         13    1    3    3    0    0  0.23503256053E+03 -0.11271804188E+03 -0.61773567373E+01  0.26073707295E+03  0.00000000000E+00 0. -1.
        -13    1    3    3    0    0  0.28738067239E+03 -0.27321026093E+03 -0.16157111040E+02  0.39685331015E+03  0.00000000000E+00 0.  1.
         22    1    1    2    0    0 -0.52241323292E+03  0.38592830282E+03  0.11677372515E+04  0.13362135045E+04  0.00000000000E+00 0. -1.
<mgrwt>
<rscale>  0 0.16319640E+04</rscale>
<asrwt>0</asrwt>
<pdfrwt beam="1">  1        1 0.24147743E+00 0.16319640E+04</pdfrwt>
<pdfrwt beam="2">  1       -1 0.65261624E-01 0.16319640E+04</pdfrwt>
<totfact> 0.13337979E+01</totfact>
</mgrwt>
</event>
<event>
 6    1  0.1637818E-005  0.3096109E+04  0.7818608E-02  0.8216807E-01
          1   -1    0    0  501    0  0.00000000000E+00  0.00000000000E+00  0.27849138820E+04  0.27849138820E+04  0.00000000000E+00 0. -1.
         -1   -1    0    0    0  501 -0.00000000000E+00 -0.00000000000E+00 -0.86051935758E+03  0.86051935758E+03  0.00000000000E+00 0.  1.
         23    2    1    2    0    0 -0.23860988737E+03 -0.92925979071E+03 -0.46540864271E+03  0.10702405061E+04  0.91384348681E+02 0.  0.
         11    1    3    3    0    0 -0.16392891131E+03 -0.48239507758E+03 -0.27293728387E+03  0.57799001700E+03  0.00000000000E+00 0. -1.
        -11    1    3    3    0    0 -0.74680976066E+02 -0.44686471313E+03 -0.19247135884E+03  0.49225048908E+03  0.00000000000E+00 0.  1.
         22    1    1    2    0    0  0.23860988737E+03  0.92925979071E+03  0.23898031672E+04  0.25751927335E+04  0.00000000000E+00 0. -1.
<mgrwt>
<rscale>  0 0.30961087E+04</rscale>
<asrwt>0</asrwt>
<pdfrwt beam="1">  1        1 0.42844829E+00 0.30961087E+04</pdfrwt>
<pdfrwt beam="2">  1       -1 0.13238759E+00 0.30961087E+04</pdfrwt>
<totfact> 0.34897752E-01</totfact>
</mgrwt>
</event>
<event>
 6    1  0.1637818E-005  0.2226861E+04  0.7818608E-02  0.8507330E-01
          2   -1    0    0  501    0  0.00000000000E+00  0.00000000000E+00  0.36284861442E+04  0.36284861442E+04  0.00000000000E+00 0. -1.
         -2   -1    0    0    0  501 -0.00000000000E+00 -0.00000000000E+00 -0.34166530980E+03  0.34166530980E+03  0.00000000000E+00 0.  1.
         23    2    1    2    0    0 -0.49376222175E+03 -0.93538177430E+03  0.10367393637E+04  0.14838677172E+04  0.91075235048E+02 0.  0.
         11    1    3    3    0    0 -0.23424220794E+03 -0.35550146290E+03  0.39207805605E+03  0.57877102912E+03  0.00000000000E+00 0. -1.
        -11    1    3    3    0    0 -0.25952001382E+03 -0.57988031140E+03  0.64466130768E+03  0.90509668806E+03  0.00000000000E+00 0.  1.
         22    1    1    2    0    0  0.49376222175E+03  0.93538177430E+03  0.22500814707E+04  0.24862837368E+04  0.00000000000E+00 0. -1.
<mgrwt>
<rscale>  0 0.22268613E+04</rscale>
<asrwt>0</asrwt>
<pdfrwt beam="1">  1        2 0.55822861E+00 0.22268613E+04</pdfrwt>
<pdfrwt beam="2">  1       -2 0.52563896E-01 0.22268613E+04</pdfrwt>
<totfact> 0.20591271E+00</totfact>
</mgrwt>
</event>
<event>
 6    1  0.1637818E-005  0.1655485E+04  0.7818608E-02  0.8787168E-01
         -1   -1    0    0    0  501 -0.00000000000E+00  0.00000000000E+00  0.17906408986E+03  0.17906408986E+03  0.00000000000E+00 0.  1.
          1   -1    0    0  501    0  0.00000000000E+00 -0.00000000000E+00 -0.38263252936E+04  0.38263252936E+04  0.00000000000E+00 0. -1.
         23    2    1    2    0    0 -0.31592598636E+02  0.92842078063E+02 -0.38116263976E+04  0.38139901654E+04  0.91692113842E+02 0.  0.
         11    1    3    3    0    0  0.27684699556E+01  0.13280544252E+02 -0.21953898979E+04  0.21954318120E+04  0.00000000000E+00 0.  1.
        -11    1    3    3    0    0 -0.34361068591E+02  0.79561533810E+02 -0.16162364997E+04  0.16185583535E+04  0.00000000000E+00 0. -1.
         22    1    1    2    0    0  0.31592598636E+02 -0.92842078063E+02  0.16436519378E+03  0.19139921806E+03  0.00000000000E+00 0.  1.
<mgrwt>
<rscale>  0 0.16554848E+04</rscale>
<asrwt>0</asrwt>
<pdfrwt beam="1">  1        1 0.58866546E+00 0.16554848E+04</pdfrwt>
<pdfrwt beam="2">  1       -1 0.27548320E-01 0.16554848E+04</pdfrwt>
<totfact> 0.15515062E+00</totfact>
</mgrwt>
</event>
<event>
 6    1  0.1637818E-005  0.2456545E+04  0.7818608E-02  0.8418632E-01
          2   -1    0    0  501    0  0.00000000000E+00  0.00000000000E+00  0.22221129846E+04  0.22221129846E+04  0.00000000000E+00 0. -1.
         -2   -1    0    0    0  501 -0.00000000000E+00 -0.00000000000E+00 -0.67892740004E+03  0.67892740004E+03  0.00000000000E+00 0.  1.
         23    2    1    2    0    0  0.90359640650E+03  0.44143355215E+03  0.16020821983E+04  0.18936582040E+04  0.89016720848E+02 0.  0.
         11    1    3    3    0    0  0.17861509174E+03  0.93644076738E+02  0.25876256262E+03  0.32807107144E+03  0.00000000000E+00 0. -1.
        -11    1    3    3    0    0  0.72498131476E+03  0.34778947542E+03  0.13433196357E+04  0.15655871326E+04  0.00000000000E+00 0.  1.
         22    1    1    2    0    0 -0.90359640650E+03 -0.44143355215E+03 -0.58896613737E+02  0.10073821807E+04  0.00000000000E+00 0.  1.
<mgrwt>
<rscale>  0 0.24565450E+04</rscale>
<asrwt>0</asrwt>
<pdfrwt beam="1">  1        2 0.34186353E+00 0.24565450E+04</pdfrwt>
<pdfrwt beam="2">  1       -2 0.10445037E+00 0.24565450E+04</pdfrwt>
<totfact> 0.33428820E+00</totfact>
</mgrwt>
</event>
<event>
 6    1  0.1637818E-005  0.2883389E+04  0.7818608E-02  0.8277837E-01
         -2   -1    0    0    0  501 -0.00000000000E+00  0.00000000000E+00  0.77662423057E+03  0.77662423057E+03  0.00000000000E+00 0.  1.
          2   -1    0    0  501    0  0.00000000000E+00 -0.00000000000E+00 -0.26763043623E+04  0.26763043623E+04  0.00000000000E+00 0. -1.
         23    2    1    2    0    0 -0.53409440472E+03  0.61165723377E+03 -0.23752625898E+04  0.25118865752E+04  0.91216180116E+02 0.  0.
         11    1    3    3    0    0 -0.34980600303E+03  0.37866858012E+03 -0.16309640766E+04  0.17104964053E+04  0.00000000000E+00 0.  1.
        -11    1    3    3    0    0 -0.18428840169E+03  0.23298865364E+03 -0.74429851315E+03  0.80139016990E+03  0.00000000000E+00 0. -1.
         22    1    1    2    0    0  0.53409440472E+03 -0.61165723377E+03  0.47558245799E+03  0.94104201772E+03  0.00000000000E+00 0.  1.
<mgrwt>
<rscale>  0 0.28833889E+04</rscale>
<asrwt>0</asrwt>
<pdfrwt beam="1">  1        2 0.41173913E+00 0.28833889E+04</pdfrwt>
<pdfrwt beam="2">  1       -2 0.11948065E+00 0.28833889E+04</pdfrwt>
<totfact> 0.12720928E+00</totfact>
</mgrwt>
</event>
<event>
 6    1  0.1637818E-005  0.1190909E+04  0.7818608E-02  0.9120851E-01
         -2   -1    0    0    0  501 -0.00000000000E+00  0.00000000000E+00  0.54743095376E+03  0.54743095376E+03  0.00000000000E+00 0.  1.
          2   -1    0    0  501    0  0.00000000000E+00 -0.00000000000E+00 -0.64769077885E+03  0.64769077885E+03  0.00000000000E+00 0. -1.
         23    2    1    2    0    0 -0.21655187226E+03  0.38083842836E+03  0.34913872981E+03  0.56751382711E+03  0.90782539155E+02 0.  0.
         11    1    3    3    0    0 -0.79442102000E+02  0.21885982492E+03  0.21164055482E+03  0.31464646030E+03  0.00000000000E+00 0.  1.
        -11    1    3    3    0    0 -0.13710977026E+03  0.16197860343E+03  0.13749817499E+03  0.25286736681E+03  0.00000000000E+00 0. -1.
         22    1    1    2    0    0  0.21655187226E+03 -0.38083842836E+03 -0.44939855490E+03  0.62760790549E+03  0.00000000000E+00 0. -1.
<mgrwt>
<rscale>  0 0.11909089E+04</rscale>
<asrwt>0</asrwt>
<pdfrwt beam="1">  1        2 0.99644735E-01 0.11909089E+04</pdfrwt>
<pdfrwt beam="2">  1       -2 0.84220147E-01 0.11909089E+04</pdfrwt>
<totfact> 0.54892242E+01</totfact>
</mgrwt>
</event>
<event>
 6    1  0.1637818E-005  0.1924358E+04  0.7818608E-02  0.8642826E-01
          2   -1    0    0  501    0  0.00000000000E+00  0.00000000000E+00  0.91098427689E+03  0.91098427689E+03  0.00000000000E+00 0.  1.
         -2   -1    0    0    0  501 -0.00000000000E+00 -0.00000000000E+00 -0.10162502312E+04  0.10162502312E+04  0.00000000000E+00 0. -1.
         23    2    1    2    0    0  0.29205432045E+03  0.15955045551E+03 -0.95485378835E+03  0.10147918733E+04  0.85467625217E+02 0.  0.
         13    1    3    3    0    0  0.12426466077E+03  0.23619081339E+02 -0.39382838296E+03  0.41364279535E+03  0.00000000000E+00 0. -1.
        -13    1    3    3    0    0  0.16778965968E+03  0.13593137417E+03 -0.56102540540E+03  0.60114907792E+03  0.00000000000E+00 0.  1.
         22    1    1    2    0    0 -0.29205432045E+03 -0.15955045551E+03  0.84958783408E+03  0.91244263478E+03  0.00000000000E+00 0.  1.
<mgrwt>
<rscale>  0 0.19243575E+04</rscale>
<asrwt>0</asrwt>
<pdfrwt beam="1">  1        2 0.14015143E+00 0.19243575E+04</pdfrwt>
<pdfrwt beam="2">  1       -2 0.15634619E+00 0.19243575E+04</pdfrwt>
<totfact> 0.72242400E+00</totfact>
</mgrwt>
</event>
<event>
 6    1  0.1637818E-005  0.3388543E+04  0.7818608E-02  0.8140724E-01
          2   -1    0    0  501    0  0.00000000000E+00  0.00000000000E+00  0.29377420953E+04  0.29377420953E+04  0.00000000000E+00 0. -1.
         -2   -1    0    0    0  501 -0.00000000000E+00 -0.00000000000E+00 -0.97712972681E+03  0.97712972681E+03  0.00000000000E+00 0.  1.
         23    2    1    2    0    0 -0.89445677265E+03 -0.11121497682E+04  0.20331052554E+04  0.24858213528E+04  0.94131789417E+02 0.  0.
         13    1    3    3    0    0 -0.18600627916E+03 -0.24567442144E+03  0.50679896046E+03  0.59312683598E+03  0.00000000000E+00 0.  1.
        -13    1    3    3    0    0 -0.70845049350E+03 -0.86647534677E+03  0.15263062949E+04  0.18926945169E+04  0.00000000000E+00 0. -1.
         22    1    1    2    0    0  0.89445677265E+03  0.11121497682E+04 -0.72492886885E+02  0.14290504693E+04  0.00000000000E+00 0.  1.
<mgrwt>
<rscale>  0 0.33885425E+04</rscale>
<asrwt>0</asrwt>
<pdfrwt beam="1">  1        2 0.45196032E+00 0.33885425E+04</pdfrwt>
<pdfrwt beam="2">  1       -2 0.15032765E+00 0.33885425E+04</pdfrwt>
<totfact> 0.47001014E-01</totfact>
</mgrwt>
</event>
<event>
 6    1  0.1637818E-005  0.3006974E+04  0.7818608E-02  0.8241742E-01
         -1   -1    0    0    0  501 -0.00000000000E+00  0.00000000000E+00  0.77496204825E+03  0.77496204825E+03  0.00000000000E+00 0.  1.
          1   -1    0    0  501    0  0.00000000000E+00 -0.00000000000E+00 -0.29168817606E+04  0.29168817606E+04  0.00000000000E+00 0. -1.
         23    2    1    2    0    0 -0.14784750703E+04  0.74060181257E+02 -0.75920153986E+03  0.16661876217E+04  0.91764745603E+02 0.  0.
         11    1    3    3    0    0 -0.11240937689E+04  0.91843590592E+02 -0.55885173782E+03  0.12587046164E+04  0.00000000000E+00 0. -1.
        -11    1    3    3    0    0 -0.35438130142E+03 -0.17783409335E+02 -0.20034980204E+03  0.40748300531E+03  0.00000000000E+00 0.  1.
         22    1    1    2    0    0  0.14784750703E+04 -0.74060181257E+02 -0.13827181725E+04  0.20256561872E+04  0.00000000000E+00 0.  1.
<mgrwt>
<rscale>  0 0.30069737E+04</rscale>
<asrwt>0</asrwt>
<pdfrwt beam="1">  1        1 0.44875104E+00 0.30069737E+04</pdfrwt>
<pdfrwt beam="2">  1       -1 0.11922493E+00 0.30069737E+04</pdfrwt>
<totfact> 0.36724189E-01</totfact>
</mgrwt>
</event>
<event>
 6    1  0.1637818E-005  0.4050623E+04  0.7818608E-02  0.7994412E-01
         -1   -1    0    0    0  501 -0.00000000000E+00  0.00000000000E+00  0.12104759576E+04  0.12104759576E+04  0.00000000000E+00 0.  1.
          1   -1    0    0  501    0  0.00000000000E+00 -0.00000000000E+00 -0.33886553814E+04  0.33886553814E+04  0.00000000000E+00 0. -1.
         23    2    1    2    0    0 -0.12425988850E+04 -0.50248520571E+03 -0.28120285154E+04  0.31164621102E+04  0.91040332899E+02 0.  0.
         13    1    3    3    0    0 -0.29878056240E+03 -0.15104578924E+03 -0.76739763403E+03  0.83724774328E+03  0.00000000000E+00 0.  1.
        -13    1    3    3    0    0 -0.94381832261E+03 -0.35143941648E+03 -0.20446308814E+04  0.22792143670E+04  0.00000000000E+00 0. -1.
         22    1    1    2    0    0  0.12425988850E+04  0.50248520571E+03  0.63384909156E+03  0.14826692287E+04  0.00000000000E+00 0.  1.
<mgrwt>
<rscale>  0 0.40506226E+04</rscale>
<asrwt>0</asrwt>
<pdfrwt beam="1">  1        1 0.52133159E+00 0.40506226E+04</pdfrwt>
<pdfrwt beam="2">  1       -1 0.18622707E+00 0.40506226E+04</pdfrwt>
<totfact> 0.44649109E-02</totfact>
</mgrwt>
</event>
<event>
 6    1  0.1637818E-005  0.8021936E+03  0.7818608E-02  0.9556847E-01
          1   -1    0    0  501    0  0.00000000000E+00  0.00000000000E+00  0.23059524327E+03  0.23059524327E+03  0.00000000000E+00 0. -1.
         -1   -1    0    0    0  501 -0.00000000000E+00 -0.00000000000E+00 -0.69766675610E+03  0.69766675610E+03  0.00000000000E+00 0.  1.
         23    2    1    2    0    0 -0.12180979082E+03 -0.15481943537E+03  0.16321294913E+03  0.26790968000E+03  0.79564107281E+02 0.  0.
         13    1    3    3    0    0 -0.11363198743E+03 -0.10207321890E+03  0.89944130981E+02  0.17726002731E+03  0.00000000000E+00 0. -1.
        -13    1    3    3    0    0 -0.81778033869E+01 -0.52746216470E+02  0.73268818146E+02  0.90649652689E+02  0.00000000000E+00 0.  1.
         22    1    1    2    0    0  0.12180979082E+03  0.15481943537E+03 -0.63028446196E+03  0.66035231937E+03  0.00000000000E+00 0.  1.
<mgrwt>
<rscale>  0 0.80219358E+03</rscale>
<asrwt>0</asrwt>
<pdfrwt beam="1">  1        1 0.35476192E-01 0.80219358E+03</pdfrwt>
<pdfrwt beam="2">  1       -1 0.10733334E+00 0.80219358E+03</pdfrwt>
<totfact> 0.10118972E+02</totfact>
</mgrwt>
</event>
<event>
 6    1  0.1637818E-005  0.1792745E+04  0.7818608E-02  0.8710167E-01
         -2   -1    0    0    0  501 -0.00000000000E+00  0.00000000000E+00  0.63672288251E+03  0.63672288251E+03  0.00000000000E+00 0.  1.
          2   -1    0    0  501    0  0.00000000000E+00 -0.00000000000E+00 -0.12619041166E+04  0.12619041166E+04  0.00000000000E+00 0. -1.
         23    2    1    2    0    0  0.42830399560E+03 -0.12231088449E+03  0.50754246806E+03  0.68147160618E+03  0.91651121289E+02 0.  0.
         11    1    3    3    0    0  0.10063285191E+03 -0.57058843004E+02  0.17727360450E+03  0.21168045092E+03  0.00000000000E+00 0. -1.
        -11    1    3    3    0    0  0.32767114369E+03 -0.65252041490E+02  0.33026886356E+03  0.46979115526E+03  0.00000000000E+00 0.  1.
         22    1    1    2    0    0 -0.42830399560E+03  0.12231088449E+03 -0.11327237021E+04  0.12171553929E+04  0.00000000000E+00 0. -1.
<mgrwt>
<rscale>  0 0.17927445E+04</rscale>
<asrwt>0</asrwt>
<pdfrwt beam="1">  1        2 0.19413909E+00 0.17927445E+04</pdfrwt>
<pdfrwt beam="2">  1       -2 0.97957368E-01 0.17927445E+04</pdfrwt>
<totfact> 0.14260562E+01</totfact>
</mgrwt>
</event>
<event>
 6    1  0.2523141E-005  0.2199871E+04  0.7818608E-02  0.8518482E-01
         -2   -1    0    0    0  501 -0.00000000000E+00  0.00000000000E+00  0.99000346937E+03  0.99000346937E+03  0.00000000000E+00 0.  1.
          2   -1    0    0  501    0  0.00000000000E+00 -0.00000000000E+00 -0.12220746654E+04  0.12220746654E+04  0.00000000000E+00 0. -1.
         23    2    1    2    0    0 -0.57832450850E+03  0.13224500669E+03 -0.10454096593E+04  0.12053669374E+04  0.89889482349E+02 0.  0.
         13    1    3    3    0    0 -0.30570582203E+03  0.11059817772E+03 -0.52584979408E+03  0.61822812333E+03  0.00000000000E+00 0.  1.
        -13    1    3    3    0    0 -0.27261868648E+03  0.21646828972E+02 -0.51955986523E+03  0.58713881406E+03  0.00000000000E+00 0. -1.
         22    1    1    2    0    0  0.57832450850E+03 -0.13224500669E+03  0.81333846333E+03  0.10067111973E+04  0.00000000000E+00 0.  1.
<mgrwt>
<rscale>  0 0.21998710E+04</rscale>
<asrwt>0</asrwt>
<pdfrwt beam="1">  1        2 0.18801149E+00 0.21998710E+04</pdfrwt>
<pdfrwt beam="2">  1       -2 0.15230823E+00 0.21998710E+04</pdfrwt>
<totfact> 0.48323879E+00</totfact>
</mgrwt>
</event>
<event>
 6    1  0.1637818E-005  0.4199202E+04  0.7818608E-02  0.7965524E-01
         -2   -1    0    0    0  501 -0.00000000000E+00  0.00000000000E+00  0.14622288502E+04  0.14622288502E+04  0.00000000000E+00 0.  1.
          2   -1    0    0  501    0  0.00000000000E+00 -0.00000000000E+00 -0.30147982178E+04  0.30147982178E+04  0.00000000000E+00 0. -1.
         23    2    1    2    0    0  0.51719848185E+03 -0.14581386512E+04 -0.22883945564E+04  0.27638133324E+04  0.90839938640E+02 0.  0.
         11    1    3    3    0    0  0.32803673979E+03 -0.88736771494E+03 -0.14740684965E+04  0.17515443176E+04  0.00000000000E+00 0. -1.
        -11    1    3    3    0    0  0.18916174206E+03 -0.57077093624E+03 -0.81432605994E+03  0.10122690147E+04  0.00000000000E+00 0.  1.
         22    1    1    2    0    0 -0.51719848185E+03  0.14581386512E+04  0.73582518879E+03  0.17132137357E+04  0.00000000000E+00 0.  1.
<mgrwt>
<rscale>  0 0.41992023E+04</rscale>
<asrwt>0</asrwt>
<pdfrwt beam="1">  1        2 0.46381511E+00 0.41992023E+04</pdfrwt>
<pdfrwt beam="2">  1       -2 0.22495829E+00 0.41992023E+04</pdfrwt>
<totfact> 0.12159517E-01</totfact>
</mgrwt>
</event>
<event>
 6    1  0.1637818E-005  0.3710961E+04  0.7818608E-02  0.8065537E-01
         -2   -1    0    0    0  501 -0.00000000000E+00  0.00000000000E+00  0.11918993983E+04  0.11918993983E+04  0.00000000000E+00 0.  1.
          2   -1    0    0  501    0  0.00000000000E+00 -0.00000000000E+00 -0.28885052186E+04  0.28885052186E+04  0.00000000000E+00 0. -1.
         23    2    1    2    0    0  0.65681849180E+03 -0.48941956853E+03 -0.26780699444E+04  0.28020408689E+04  0.91827874172E+02 0.  0.
         11    1    3    3    0    0  0.56810928807E+03 -0.43739355138E+03 -0.24280488138E+04  0.25316955434E+04  0.00000000000E+00 0. -1.
        -11    1    3    3    0    0  0.88709203733E+02 -0.52026017156E+02 -0.25002113060E+03  0.27034532553E+03  0.00000000000E+00 0.  1.
         22    1    1    2    0    0 -0.65681849180E+03  0.48941956853E+03  0.98146412416E+03  0.12783637480E+04  0.00000000000E+00 0.  1.
<mgrwt>
<rscale>  0 0.37109609E+04</rscale>
<asrwt>0</asrwt>
<pdfrwt beam="1">  1        2 0.44438541E+00 0.37109609E+04</pdfrwt>
<pdfrwt beam="2">  1       -2 0.18336914E+00 0.37109609E+04</pdfrwt>
<totfact> 0.28338541E-01</totfact>
</mgrwt>
</event>
<event>
 6    1  0.1637818E-005  0.3345766E+04  0.7818608E-02  0.8151347E-01
          2   -1    0    0  501    0  0.00000000000E+00  0.00000000000E+00  0.15859389464E+04  0.15859389464E+04  0.00000000000E+00 0. -1.
         -2   -1    0    0    0  501 -0.00000000000E+00 -0.00000000000E+00 -0.17645933102E+04  0.17645933102E+04  0.00000000000E+00 0.  1.
         23    2    1    2    0    0  0.10526853793E+03 -0.15992486744E+04 -0.56533120406E+03  0.17018367825E+04  0.89282003298E+02 0.  0.
         13    1    3    3    0    0 -0.91529157607E+01 -0.40476592276E+03 -0.12672317658E+03  0.42423813075E+03  0.00000000000E+00 0.  1.
        -13    1    3    3    0    0  0.11442145369E+03 -0.11944827517E+04 -0.43860802748E+03  0.12775986517E+04  0.00000000000E+00 0. -1.
         22    1    1    2    0    0 -0.10526853793E+03  0.15992486744E+04  0.38667684029E+03  0.16486954742E+04  0.00000000000E+00 0. -1.
<mgrwt>
<rscale>  0 0.33457658E+04</rscale>
<asrwt>0</asrwt>
<pdfrwt beam="1">  1        2 0.24399061E+00 0.33457658E+04</pdfrwt>
<pdfrwt beam="2">  1       -2 0.27147589E+00 0.33457658E+04</pdfrwt>
<totfact> 0.44857144E-01</totfact>
</mgrwt>
</event>
<event>
 6    1  0.1637818E-005  0.4100586E+04  0.7818608E-02  0.7984557E-01
          2   -1    0    0  501    0  0.00000000000E+00  0.00000000000E+00  0.29434337044E+04  0.29434337044E+04  0.00000000000E+00 0. -1.
         -2   -1    0    0    0  501 -0.00000000000E+00 -0.00000000000E+00 -0.14281623223E+04  0.14281623223E+04  0.00000000000E+00 0.  1.
         23    2    1    2    0    0  0.10775556853E+04 -0.16027489316E+04  0.14884867225E+04  0.24401075305E+04  0.92745052852E+02 0.  0.
         13    1    3    3    0    0  0.52546600603E+03 -0.80614750733E+03  0.79748341481E+03  0.12497872315E+04  0.00000000000E+00 0.  1.
        -13    1    3    3    0    0  0.55208967923E+03 -0.79660142427E+03  0.69100330773E+03  0.11903202991E+04  0.00000000000E+00 0. -1.
         22    1    1    2    0    0 -0.10775556853E+04  0.16027489316E+04  0.26784659548E+02  0.19314884961E+04  0.00000000000E+00 0. -1.
<mgrwt>
<rscale>  0 0.41005859E+04</rscale>
<asrwt>0</asrwt>
<pdfrwt beam="1">  1        2 0.45283595E+00 0.41005859E+04</pdfrwt>
<pdfrwt beam="2">  1       -2 0.21971728E+00 0.41005859E+04</pdfrwt>
<totfact> 0.14659599E-01</totfact>
</mgrwt>
</event>
<event>
 6    1  0.1637818E-005  0.2397714E+04  0.7818608E-02  0.8440360E-01
         -1   -1    0    0    0  501 -0.00000000000E+00  0.00000000000E+00  0.64901879115E+03  0.64901879115E+03  0.00000000000E+00 0.  1.
          1   -1    0    0  501    0  0.00000000000E+00 -0.00000000000E+00 -0.22145091073E+04  0.22145091073E+04  0.00000000000E+00 0. -1.
         23    2    1    2    0    0 -0.75158766097E+03 -0.89146762414E+03 -0.46672154961E+03  0.12613758023E+04  0.11679628698E+03 0.  0.
         13    1    3    3    0    0 -0.22770812892E+03 -0.34622132921E+03 -0.19406026177E+03  0.45758014159E+03  0.00000000000E+00 0. -1.
        -13    1    3    3    0    0 -0.52387953205E+03 -0.54524629493E+03 -0.27266128784E+03  0.80379566067E+03  0.00000000000E+00 0.  1.
         22    1    1    2    0    0  0.75158766097E+03  0.89146762414E+03 -0.10987687665E+04  0.16021520962E+04  0.00000000000E+00 0. -1.
<mgrwt>
<rscale>  0 0.23977139E+04</rscale>
<asrwt>0</asrwt>
<pdfrwt beam="1">  1        1 0.34069371E+00 0.23977139E+04</pdfrwt>
<pdfrwt beam="2">  1       -1 0.99849043E-01 0.23977139E+04</pdfrwt>
<totfact> 0.18249937E+00</totfact>
</mgrwt>
</event>
<event>
 6    1  0.1637818E-005  0.1298115E+04  0.7818608E-02  0.9031061E-01
         -2   -1    0    0    0  501 -0.00000000000E+00  0.00000000000E+00  0.29459367112E+03  0.29459367112E+03  0.00000000000E+00 0.  1.
          2   -1    0    0  501    0  0.00000000000E+00 -0.00000000000E+00 -0.14300227441E+04  0.14300227441E+04  0.00000000000E+00 0. -1.
         23    2    1    2    0    0  0.69751886692E+02 -0.32968356057E+03  0.16157562894E+03  0.38455008379E+03  0.90639435532E+02 0.  0.
         13    1    3    3    0    0  0.45029823783E+02 -0.29561632826E+03  0.11151030908E+03  0.31914142256E+03  0.00000000000E+00 0.  1.
        -13    1    3    3    0    0  0.24722062908E+02 -0.34067232304E+02  0.50065319857E+02  0.65408661228E+02  0.00000000000E+00 0. -1.
         22    1    1    2    0    0 -0.69751886692E+02  0.32968356057E+03 -0.12970047019E+04  0.13400663314E+04  0.00000000000E+00 0. -1.
<mgrwt>
<rscale>  0 0.12981150E+04</rscale>
<asrwt>0</asrwt>
<pdfrwt beam="1">  1        2 0.22000350E+00 0.12981150E+04</pdfrwt>
<pdfrwt beam="2">  1       -2 0.45322103E-01 0.12981150E+04</pdfrwt>
<totfact> 0.62929306E+01</totfact>
</mgrwt>
</event>
<event>
 6    1  0.1637818E-005  0.2128962E+04  0.7818608E-02  0.8548592E-01
          1   -1    0    0  501    0  0.00000000000E+00  0.00000000000E+00  0.19278363289E+04  0.19278363289E+04  0.00000000000E+00 0. -1.
         -1   -1    0    0    0  501 -0.00000000000E+00 -0.00000000000E+00 -0.58776741707E+03  0.58776741707E+03  0.00000000000E+00 0.  1.
         23    2    1    2    0    0  0.41581467442E+03  0.21290828361E+03 -0.45604539806E+03  0.65973241560E+03  0.95066684000E+02 0.  0.
         13    1    3    3    0    0  0.32383892446E+03  0.12864628109E+03 -0.29883454942E+03  0.45904640567E+03  0.00000000000E+00 0.  1.
        -13    1    3    3    0    0  0.91975749959E+02  0.84262002522E+02 -0.15721084865E+03  0.20068600993E+03  0.00000000000E+00 0. -1.
         22    1    1    2    0    0 -0.41581467442E+03 -0.21290828361E+03  0.17961143099E+04  0.18558713304E+04  0.00000000000E+00 0. -1.
<mgrwt>
<rscale>  0 0.21289616E+04</rscale>
<asrwt>0</asrwt>
<pdfrwt beam="1">  1        1 0.29659020E+00 0.21289616E+04</pdfrwt>
<pdfrwt beam="2">  1       -1 0.90425758E-01 0.21289616E+04</pdfrwt>
<totfact> 0.36575633E+00</totfact>
</mgrwt>
</event>
<event>
 6    1  0.1637818E-005  0.3140850E+04  0.7818608E-02  0.8204615E-01
          2   -1    0    0  501    0  0.00000000000E+00  0.00000000000E+00  0.29824582444E+04  0.29824582444E+04  0.00000000000E+00 0. -1.
         -2   -1    0    0    0  501 -0.00000000000E+00 -0.00000000000E+00 -0.82691359614E+03  0.82691359614E+03  0.00000000000E+00 0.  1.
         23    2    1    2    0    0 -0.12959817578E+04  0.19301402125E+03  0.21256023132E+04  0.24987537908E+04  0.93606540024E+02 0.  0.
         13    1    3    3    0    0 -0.20486748811E+03  0.41863522770E+02  0.28067985955E+03  0.35000632249E+03  0.00000000000E+00 0. -1.
        -13    1    3    3    0    0 -0.10911142697E+04  0.15115049848E+03  0.18449224537E+04  0.21487474683E+04  0.00000000000E+00 0.  1.
         22    1    1    2    0    0  0.12959817578E+04 -0.19301402125E+03  0.29942335085E+02  0.13106180498E+04  0.00000000000E+00 0.  1.
<mgrwt>
<rscale>  0 0.31408504E+04</rscale>
<asrwt>0</asrwt>
<pdfrwt beam="1">  1        2 0.45883973E+00 0.31408504E+04</pdfrwt>
<pdfrwt beam="2">  1       -2 0.12721748E+00 0.31408504E+04</pdfrwt>
<totfact> 0.69269024E-01</totfact>
</mgrwt>
</event>
<event>
 6    1  0.1637818E-005  0.3573788E+03  0.7818608E-02  0.1059627E+00
          2   -1    0    0  501    0  0.00000000000E+00  0.00000000000E+00  0.10242534006E+04  0.10242534006E+04  0.00000000000E+00 0. -1.
         -2   -1    0    0    0  501 -0.00000000000E+00 -0.00000000000E+00 -0.31173823672E+02  0.31173823672E+02  0.00000000000E+00 0.  1.
         23    2    1    2    0    0  0.11359610310E+03  0.89635455668E+02  0.77438134484E+03  0.79319163121E+03  0.92454891829E+02 0.  0.
         13    1    3    3    0    0  0.25509725458E+02  0.75575639113E+02  0.29566544741E+03  0.30623598762E+03  0.00000000000E+00 0. -1.
        -13    1    3    3    0    0  0.88086377642E+02  0.14059816555E+02  0.47871589744E+03  0.48695564359E+03  0.00000000000E+00 0.  1.
         22    1    1    2    0    0 -0.11359610310E+03 -0.89635455668E+02  0.21869823208E+03  0.26223559306E+03  0.00000000000E+00 0.  1.
<mgrwt>
<rscale>  0 0.35737876E+03</rscale>
<asrwt>0</asrwt>
<pdfrwt beam="1">  1        2 0.15757742E+00 0.35737876E+03</pdfrwt>
<pdfrwt beam="2">  1       -2 0.47959737E-02 0.35737876E+03</pdfrwt>
<totfact> 0.53160981E+03</totfact>
</mgrwt>
</event>
<event>
 6    1  0.1637818E-005  0.2013625E+04  0.7818608E-02  0.8600277E-01
         -4   -1    0    0    0  501 -0.00000000000E+00  0.00000000000E+00  0.14305992383E+04  0.14305992383E+04  0.00000000000E+00 0.  1.
          4   -1    0    0  501    0  0.00000000000E+00 -0.00000000000E+00 -0.70856385361E+03  0.70856385361E+03  0.00000000000E+00 0. -1.
         23    2    1    2    0    0  0.61047463481E+03 -0.33504195318E+03  0.11313766613E+04  0.13313929074E+04  0.87530189954E+02 0.  0.
         11    1    3    3    0    0  0.38339148379E+03 -0.16347966034E+03  0.69566757428E+03  0.81096732554E+03  0.00000000000E+00 0.  1.
        -11    1    3    3    0    0  0.22708315102E+03 -0.17156229284E+03  0.43570908700E+03  0.52042558190E+03  0.00000000000E+00 0. -1.
         22    1    1    2    0    0 -0.61047463481E+03  0.33504195318E+03 -0.40934127662E+03  0.80777018445E+03  0.00000000000E+00 0. -1.
<mgrwt>
<rscale>  0 0.20136245E+04</rscale>
<asrwt>0</asrwt>
<pdfrwt beam="1">  1        4 0.10900982E+00 0.20136245E+04</pdfrwt>
<pdfrwt beam="2">  1       -4 0.22009219E+00 0.20136245E+04</pdfrwt>
<totfact> 0.12122768E-01</totfact>
</mgrwt>
</event>
<event>
 6    1  0.1637818E-005  0.8559115E+03  0.7818608E-02  0.9482437E-01
         -3   -1    0    0    0  501 -0.00000000000E+00  0.00000000000E+00  0.13166604332E+03  0.13166604332E+03  0.00000000000E+00 0. -1.
          3   -1    0    0  501    0  0.00000000000E+00 -0.00000000000E+00 -0.13909899583E+04  0.13909899583E+04  0.00000000000E+00 0.  1.
         23    2    1    2    0    0  0.40417894876E+03 -0.11078954819E+03 -0.74336977502E+03  0.85794281450E+03  0.88500304677E+02 0.  0.
         13    1    3    3    0    0  0.31823813344E+03 -0.63818118815E+02 -0.62546461198E+03  0.70466605049E+03  0.00000000000E+00 0. -1.
        -13    1    3    3    0    0  0.85940815318E+02 -0.46971429377E+02 -0.11790516304E+03  0.15327676401E+03  0.00000000000E+00 0.  1.
         22    1    1    2    0    0 -0.40417894876E+03  0.11078954819E+03 -0.51595413999E+03  0.66471318716E+03  0.00000000000E+00 0.  1.
<mgrwt>
<rscale>  0 0.85591155E+03</rscale>
<asrwt>0</asrwt>
<pdfrwt beam="1">  1        3 0.21399845E+00 0.85591155E+03</pdfrwt>
<pdfrwt beam="2">  1       -3 0.20256315E-01 0.85591155E+03</pdfrwt>
<totfact> 0.71753523E+00</totfact>
</mgrwt>
</event>
<event>
 6    1  0.1637818E-005  0.1072683E+04  0.7818608E-02  0.9232233E-01
          2   -1    0    0  501    0  0.00000000000E+00  0.00000000000E+00  0.13276443219E+04  0.13276443219E+04  0.00000000000E+00 0. -1.
         -2   -1    0    0    0  501 -0.00000000000E+00 -0.00000000000E+00 -0.21667117421E+03  0.21667117421E+03  0.00000000000E+00 0.  1.
         23    2    1    2    0    0 -0.16056221338E+03 -0.44372074636E+03  0.20427575550E+03  0.52217632450E+03  0.90946162465E+02 0.  0.
         13    1    3    3    0    0 -0.46494945778E+02 -0.10704389645E+03  0.94406786652E+02  0.15010935053E+03  0.00000000000E+00 0. -1.
        -13    1    3    3    0    0 -0.11406726760E+03 -0.33667684992E+03  0.10986896884E+03  0.37206697397E+03  0.00000000000E+00 0.  1.
         22    1    1    2    0    0  0.16056221338E+03  0.44372074636E+03  0.90669739217E+03  0.10221391716E+04  0.00000000000E+00 0. -1.
<mgrwt>
<rscale>  0 0.10726831E+04</rscale>
<asrwt>0</asrwt>
<pdfrwt beam="1">  1        2 0.20425297E+00 0.10726831E+04</pdfrwt>
<pdfrwt beam="2">  1       -2 0.33334028E-01 0.10726831E+04</pdfrwt>
<totfact> 0.13304974E+02</totfact>
</mgrwt>
</event>
<event>
 6    1  0.1637818E-005  0.2474136E+04  0.7818608E-02  0.8412258E-01
         -1   -1    0    0    0  501 -0.00000000000E+00  0.00000000000E+00  0.10956041564E+04  0.10956041564E+04  0.00000000000E+00 0.  1.
          1   -1    0    0  501    0  0.00000000000E+00 -0.00000000000E+00 -0.13967979200E+04  0.13967979200E+04  0.00000000000E+00 0. -1.
         23    2    1    2    0    0 -0.10123296392E+04  0.70585231703E+03 -0.96584961985E+02  0.12414410244E+04  0.93852917829E+02 0.  0.
         11    1    3    3    0    0 -0.62871472583E+03  0.48307050470E+03 -0.88098664885E+02  0.79774726182E+03  0.00000000000E+00 0.  1.
        -11    1    3    3    0    0 -0.38361491337E+03  0.22278181233E+03 -0.84862971003E+01  0.44369376253E+03  0.00000000000E+00 0. -1.
         22    1    1    2    0    0  0.10123296392E+04 -0.70585231703E+03 -0.20460880160E+03  0.12509610520E+04  0.00000000000E+00 0. -1.
<mgrwt>
<rscale>  0 0.24741363E+04</rscale>
<asrwt>0</asrwt>
<pdfrwt beam="1">  1        1 0.21489199E+00 0.24741363E+04</pdfrwt>
<pdfrwt beam="2">  1       -1 0.16855449E+00 0.24741363E+04</pdfrwt>
<totfact> 0.17341715E+00</totfact>
</mgrwt>
</event>
<event>
 6    1  0.1637818E-005  0.1642752E+04  0.7818608E-02  0.8794706E-01
          2   -1    0    0  501    0  0.00000000000E+00  0.00000000000E+00  0.40209717822E+03  0.40209717822E+03  0.00000000000E+00 0. -1.
         -2   -1    0    0    0  501 -0.00000000000E+00 -0.00000000000E+00 -0.16778484576E+04  0.16778484576E+04  0.00000000000E+00 0.  1.
         23    2    1    2    0    0  0.42389177732E+03 -0.63352235770E+03 -0.10187392786E+04  0.12755266000E+04  0.90019848714E+02 0.  0.
         13    1    3    3    0    0  0.27655194411E+03 -0.34744477248E+03 -0.54855863950E+03  0.70577292997E+03  0.00000000000E+00 0. -1.
        -13    1    3    3    0    0  0.14733983322E+03 -0.28607758523E+03 -0.47018063905E+03  0.56975367007E+03  0.00000000000E+00 0.  1.
         22    1    1    2    0    0 -0.42389177732E+03  0.63352235770E+03 -0.25701200087E+03  0.80441903582E+03  0.00000000000E+00 0. -1.
<mgrwt>
<rscale>  0 0.16427515E+04</rscale>
<asrwt>0</asrwt>
<pdfrwt beam="1">  1        2 0.61861104E-01 0.16427515E+04</pdfrwt>
<pdfrwt beam="2">  1       -2 0.25813053E+00 0.16427515E+04</pdfrwt>
<totfact> 0.43302954E+00</totfact>
</mgrwt>
</event>
<event>
 6    1  0.1637818E-005  0.1879118E+04  0.7818608E-02  0.8665321E-01
          2   -1    0    0  501    0  0.00000000000E+00  0.00000000000E+00  0.13918825031E+04  0.13918825031E+04  0.00000000000E+00 0. -1.
         -2   -1    0    0    0  501 -0.00000000000E+00 -0.00000000000E+00 -0.63422786158E+03  0.63422786158E+03  0.00000000000E+00 0.  1.
         23    2    1    2    0    0 -0.46651483283E+03 -0.73715297696E+02 -0.49315657656E+03  0.68909924369E+03  0.92651628646E+02 0.  0.
         11    1    3    3    0    0 -0.25249808745E+03 -0.52181954926E+02 -0.33183025152E+03  0.42022560180E+03  0.00000000000E+00 0. -1.
        -11    1    3    3    0    0 -0.21401674537E+03 -0.21533342769E+02 -0.16132632504E+03  0.26887364189E+03  0.00000000000E+00 0.  1.
         22    1    1    2    0    0  0.46651483283E+03  0.73715297696E+02  0.12508112181E+04  0.13370111210E+04  0.00000000000E+00 0. -1.
<mgrwt>
<rscale>  0 0.18791175E+04</rscale>
<asrwt>0</asrwt>
<pdfrwt beam="1">  1        2 0.21413577E+00 0.18791175E+04</pdfrwt>
<pdfrwt beam="2">  1       -2 0.97573517E-01 0.18791175E+04</pdfrwt>
<totfact> 0.12012642E+01</totfact>
</mgrwt>
</event>
<event>
 6    1  0.1637818E-005  0.2229093E+04  0.7818608E-02  0.8506415E-01
         -1   -1    0    0    0  501 -0.00000000000E+00  0.00000000000E+00  0.93436123514E+03  0.93436123514E+03  0.00000000000E+00 0.  1.
          1   -1    0    0  501    0  0.00000000000E+00 -0.00000000000E+00 -0.13294797627E+04  0.13294797627E+04  0.00000000000E+00 0. -1.
         23    2    1    2    0    0  0.76209803190E+03  0.47905998609E+03 -0.86282775884E+03  0.12494230340E+04  0.79336598585E+02 0.  0.
         13    1    3    3    0    0  0.64413999313E+03  0.38920412799E+03 -0.75540124703E+03  0.10663147884E+04  0.00000000000E+00 0. -1.
        -13    1    3    3    0    0  0.11795803877E+03  0.89855858100E+02 -0.10742651181E+03  0.18310824554E+03  0.00000000000E+00 0.  1.
         22    1    1    2    0    0 -0.76209803190E+03 -0.47905998609E+03  0.46770923124E+03  0.10144179639E+04  0.00000000000E+00 0.  1.
<mgrwt>
<rscale>  0 0.22290934E+04</rscale>
<asrwt>0</asrwt>
<pdfrwt beam="1">  1        1 0.20453535E+00 0.22290934E+04</pdfrwt>
<pdfrwt beam="2">  1       -1 0.14374788E+00 0.22290934E+04</pdfrwt>
<totfact> 0.30644235E+00</totfact>
</mgrwt>
</event>
<event>
 6    1  0.1637818E-005  0.3404581E+04  0.7818608E-02  0.8136783E-01
         -1   -1    0    0    0  501 -0.00000000000E+00  0.00000000000E+00  0.13359470700E+04  0.13359470700E+04  0.00000000000E+00 0.  1.
          1   -1    0    0  501    0  0.00000000000E+00 -0.00000000000E+00 -0.21690931649E+04  0.21690931649E+04  0.00000000000E+00 0. -1.
         23    2    1    2    0    0  0.12798759395E+04 -0.31069145352E+02  0.73608034748E+03  0.14798194223E+04  0.94886944646E+02 0.  0.
         13    1    3    3    0    0  0.47054820209E+03 -0.46118478257E+02  0.30607180053E+03  0.56322506301E+03  0.00000000000E+00 0.  1.
        -13    1    3    3    0    0  0.80932773741E+03  0.15049332906E+02  0.43000854695E+03  0.91659435925E+03  0.00000000000E+00 0. -1.
         22    1    1    2    0    0 -0.12798759395E+04  0.31069145352E+02 -0.15692264424E+04  0.20252208126E+04  0.00000000000E+00 0. -1.
<mgrwt>
<rscale>  0 0.34045814E+04</rscale>
<asrwt>0</asrwt>
<pdfrwt beam="1">  1        1 0.33370664E+00 0.34045814E+04</pdfrwt>
<pdfrwt beam="2">  1       -1 0.20553032E+00 0.34045814E+04</pdfrwt>
<totfact> 0.25934519E-01</totfact>
</mgrwt>
</event>
<event>
 6    1  0.1637818E-005  0.2126071E+04  0.7818608E-02  0.8549845E-01
         -2   -1    0    0    0  501 -0.00000000000E+00  0.00000000000E+00  0.51220023739E+03  0.51220023739E+03  0.00000000000E+00 0.  1.
          2   -1    0    0  501    0  0.00000000000E+00 -0.00000000000E+00 -0.22062558378E+04  0.22062558378E+04  0.00000000000E+00 0. -1.
         23    2    1    2    0    0  0.73695410891E+03  0.21197561937E+03  0.89274762764E+02  0.77724454472E+03  0.90022648122E+02 0.  0.
         13    1    3    3    0    0  0.30115493644E+03  0.12965556887E+03  0.54493177725E+02  0.33237684742E+03  0.00000000000E+00 0.  1.
        -13    1    3    3    0    0  0.43579917247E+03  0.82320050504E+02  0.34781585038E+02  0.44486769730E+03  0.00000000000E+00 0. -1.
         22    1    1    2    0    0 -0.73695410891E+03 -0.21197561937E+03 -0.17833303632E+04  0.19412115305E+04  0.00000000000E+00 0. -1.
<mgrwt>
<rscale>  0 0.21260713E+04</rscale>
<asrwt>0</asrwt>
<pdfrwt beam="1">  1        2 0.33942397E+00 0.21260713E+04</pdfrwt>
<pdfrwt beam="2">  1       -2 0.78800038E-01 0.21260713E+04</pdfrwt>
<totfact> 0.67354113E+00</totfact>
</mgrwt>
</event>
<event>
 6    1  0.1637818E-005  0.1607935E+04  0.7818608E-02  0.8815688E-01
          1   -1    0    0  501    0  0.00000000000E+00  0.00000000000E+00  0.13406959137E+04  0.13406959137E+04  0.00000000000E+00 0. -1.
         -1   -1    0    0    0  501 -0.00000000000E+00 -0.00000000000E+00 -0.48211088029E+03  0.48211088029E+03  0.00000000000E+00 0.  1.
         23    2    1    2    0    0  0.75874737167E+02  0.35572928843E+03  0.12402904261E+04  0.12955503960E+04  0.88488333170E+02 0.  0.
         13    1    3    3    0    0  0.57069108842E+01  0.32668113543E+02  0.23421052246E+03  0.23654670428E+03  0.00000000000E+00 0. -1.
        -13    1    3    3    0    0  0.70167826283E+02  0.32306117489E+03  0.10060799036E+04  0.10590036917E+04  0.00000000000E+00 0.  1.
         22    1    1    2    0    0 -0.75874737167E+02 -0.35572928843E+03 -0.38170539270E+03  0.52725639797E+03  0.00000000000E+00 0.  1.
<mgrwt>
<rscale>  0 0.16079354E+04</rscale>
<asrwt>0</asrwt>
<pdfrwt beam="1">  1        1 0.20626091E+00 0.16079354E+04</pdfrwt>
<pdfrwt beam="2">  1       -1 0.74170905E-01 0.16079354E+04</pdfrwt>
<totfact> 0.14847352E+01</totfact>
</mgrwt>
</event>
<event>
 6    1  0.1637818E-005  0.3717197E+04  0.7818608E-02  0.8064161E-01
         -2   -1    0    0    0  501 -0.00000000000E+00  0.00000000000E+00  0.18830710058E+04  0.18830710058E+04  0.00000000000E+00 0.  1.
          2   -1    0    0  501    0  0.00000000000E+00 -0.00000000000E+00 -0.18344437730E+04  0.18344437730E+04  0.00000000000E+00 0. -1.
         23    2    1    2    0    0  0.42063934527E+03 -0.13260440525E+04 -0.12066887964E+04  0.18437088601E+04  0.88511137477E+02 0.  0.
         11    1    3    3    0    0  0.26389422112E+03 -0.80503491361E+03 -0.67816839116E+03  0.10851883426E+04  0.00000000000E+00 0. -1.
        -11    1    3    3    0    0  0.15674512415E+03 -0.52100913892E+03 -0.52852040524E+03  0.75852051755E+03  0.00000000000E+00 0.  1.
         22    1    1    2    0    0 -0.42063934527E+03  0.13260440525E+04  0.12553160292E+04  0.18738059187E+04  0.00000000000E+00 0.  1.
<mgrwt>
<rscale>  0 0.37171967E+04</rscale>
<asrwt>0</asrwt>
<pdfrwt beam="1">  1        2 0.28222212E+00 0.37171967E+04</pdfrwt>
<pdfrwt beam="2">  1       -2 0.28970323E+00 0.37171967E+04</pdfrwt>
<totfact> 0.24491630E-01</totfact>
</mgrwt>
</event>
<event>
 6    1  0.1637818E-005  0.1343387E+04  0.7818608E-02  0.8995849E-01
         -1   -1    0    0    0  501 -0.00000000000E+00  0.00000000000E+00  0.43591071973E+03  0.43591071973E+03  0.00000000000E+00 0.  1.
          1   -1    0    0  501    0  0.00000000000E+00 -0.00000000000E+00 -0.10350104643E+04  0.10350104643E+04  0.00000000000E+00 0. -1.
         23    2    1    2    0    0 -0.56445187678E+03 -0.84624301811E+02 -0.68202849979E+03  0.89416788141E+03  0.92769240389E+02 0.  0.
         13    1    3    3    0    0 -0.33416107761E+03 -0.19721778440E+02 -0.45024638512E+03  0.56104757521E+03  0.00000000000E+00 0. -1.
        -13    1    3    3    0    0 -0.23029079917E+03 -0.64902523371E+02 -0.23178211467E+03  0.33312030620E+03  0.00000000000E+00 0.  1.
         22    1    1    2    0    0  0.56445187678E+03  0.84624301811E+02  0.82928755211E+02  0.57675330263E+03  0.00000000000E+00 0. -1.
<mgrwt>
<rscale>  0 0.13433870E+04</rscale>
<asrwt>0</asrwt>
<pdfrwt beam="1">  1        1 0.15923238E+00 0.13433870E+04</pdfrwt>
<pdfrwt beam="2">  1       -1 0.67063188E-01 0.13433870E+04</pdfrwt>
<totfact> 0.31351825E+01</totfact>
</mgrwt>
</event>
<event>
 6    1  0.1637818E-005  0.3005144E+04  0.7818608E-02  0.8242264E-01
         -2   -1    0    0    0  501 -0.00000000000E+00  0.00000000000E+00  0.20446351725E+04  0.20446351725E+04  0.00000000000E+00 0.  1.
          2   -1    0    0  501    0  0.00000000000E+00 -0.00000000000E+00 -0.11042177305E+04  0.11042177305E+04  0.00000000000E+00 0. -1.
         23    2    1    2    0    0  0.52557006390E+03 -0.13862085462E+04  0.71751178883E+03  0.16496914855E+04  0.94131847643E+02 0.  0.
         13    1    3    3    0    0  0.54749537806E+02 -0.14862485961E+03  0.45433456607E+02  0.16477578634E+03  0.00000000000E+00 0. -1.
        -13    1    3    3    0    0  0.47082052609E+03 -0.12375836866E+04  0.67207833223E+03  0.14849156992E+04  0.00000000000E+00 0.  1.
         22    1    1    2    0    0 -0.52557006390E+03  0.13862085462E+04  0.22290565317E+03  0.14991614175E+04  0.00000000000E+00 0.  1.
<mgrwt>
<rscale>  0 0.30051439E+04</rscale>
<asrwt>0</asrwt>
<pdfrwt beam="1">  1        2 0.16987965E+00 0.30051439E+04</pdfrwt>
<pdfrwt beam="2">  1       -2 0.31455926E+00 0.30051439E+04</pdfrwt>
<totfact> 0.47928734E-01</totfact>
</mgrwt>
</event>
<event>
 6    1  0.1637818E-005  0.1852375E+04  0.7818608E-02  0.8678932E-01
         -1   -1    0    0    0  501 -0.00000000000E+00  0.00000000000E+00  0.41147990699E+03  0.41147990699E+03  0.00000000000E+00 0.  1.
          1   -1    0    0  501    0  0.00000000000E+00 -0.00000000000E+00 -0.20847269384E+04  0.20847269384E+04  0.00000000000E+00 0. -1.
         23    2    1    2    0    0 -0.59013605133E+03  0.70240929133E+03 -0.97813064934E+03  0.13451959175E+04  0.10570296847E+03 0.  0.
         13    1    3    3    0    0 -0.40335261527E+03  0.54892425752E+03 -0.70143110572E+03  0.97776110008E+03  0.00000000000E+00 0. -1.
        -13    1    3    3    0    0 -0.18678343606E+03  0.15348503381E+03 -0.27669954362E+03  0.36743481739E+03  0.00000000000E+00 0.  1.
         22    1    1    2    0    0  0.59013605133E+03 -0.70240929133E+03 -0.69511638209E+03  0.11510109280E+04  0.00000000000E+00 0.  1.
<mgrwt>
<rscale>  0 0.18523750E+04</rscale>
<asrwt>0</asrwt>
<pdfrwt beam="1">  1        1 0.32072723E+00 0.18523750E+04</pdfrwt>
<pdfrwt beam="2">  1       -1 0.63304599E-01 0.18523750E+04</pdfrwt>
<totfact> 0.62063679E+00</totfact>
</mgrwt>
</event>
<event>
 6    1  0.1637818E-005  0.1294541E+04  0.7818608E-02  0.9033906E-01
          2   -1    0    0  501    0  0.00000000000E+00  0.00000000000E+00  0.21650790543E+04  0.21650790543E+04  0.00000000000E+00 0. -1.
         -2   -1    0    0    0  501 -0.00000000000E+00 -0.00000000000E+00 -0.19350749251E+03  0.19350749251E+03  0.00000000000E+00 0.  1.
         23    2    1    2    0    0 -0.28407983217E+02 -0.50683361456E+03  0.26828581676E+03  0.58126562600E+03  0.90582129218E+02 0.  0.
         11    1    3    3    0    0 -0.48653761205E+02 -0.14241599680E+03  0.85161119049E+02  0.17292171877E+03  0.00000000000E+00 0. -1.
        -11    1    3    3    0    0  0.20245777988E+02 -0.36441761776E+03  0.18312469771E+03  0.40834390723E+03  0.00000000000E+00 0.  1.
         22    1    1    2    0    0  0.28407983217E+02  0.50683361456E+03  0.17032857451E+04  0.17773209208E+04  0.00000000000E+00 0. -1.
<mgrwt>
<rscale>  0 0.12945409E+04</rscale>
<asrwt>0</asrwt>
<pdfrwt beam="1">  1        2 0.33308907E+00 0.12945409E+04</pdfrwt>
<pdfrwt beam="2">  1       -2 0.29770385E-01 0.12945409E+04</pdfrwt>
<totfact> 0.55212838E+01</totfact>
</mgrwt>
</event>
<event>
 6    1  0.1637818E-005  0.1610633E+04  0.7818608E-02  0.8814043E-01
          1   -1    0    0  501    0  0.00000000000E+00  0.00000000000E+00  0.14037046919E+04  0.14037046919E+04  0.00000000000E+00 0. -1.
         -1   -1    0    0    0  501 -0.00000000000E+00 -0.00000000000E+00 -0.46201621182E+03  0.46201621182E+03  0.00000000000E+00 0.  1.
         23    2    1    2    0    0 -0.66176537478E+03 -0.22655997441E+03  0.16284179388E+02  0.70570540684E+03  0.92152663963E+02 0.  0.
         11    1    3    3    0    0 -0.50734714231E+03 -0.16958655869E+03  0.51413662799E+02  0.53740495757E+03  0.00000000000E+00 0.  1.
        -11    1    3    3    0    0 -0.15441823247E+03 -0.56973415728E+02 -0.35129483411E+02  0.16830044926E+03  0.00000000000E+00 0. -1.
         22    1    1    2    0    0  0.66176537478E+03  0.22655997441E+03  0.92540430067E+03  0.11600154969E+04  0.00000000000E+00 0.  1.
<mgrwt>
<rscale>  0 0.16106326E+04</rscale>
<asrwt>0</asrwt>
<pdfrwt beam="1">  1        1 0.21595457E+00 0.16106326E+04</pdfrwt>
<pdfrwt beam="2">  1       -1 0.71079418E-01 0.16106326E+04</pdfrwt>
<totfact> 0.14636480E+01</totfact>
</mgrwt>
</event>
<event>
 6    1  0.1637818E-005  0.9965105E+03  0.7818608E-02  0.9312380E-01
         -1   -1    0    0    0  501 -0.00000000000E+00  0.00000000000E+00  0.52373778657E+03  0.52373778657E+03  0.00000000000E+00 0.  1.
          1   -1    0    0  501    0  0.00000000000E+00 -0.00000000000E+00 -0.47401260353E+03  0.47401260353E+03  0.00000000000E+00 0. -1.
         23    2    1    2    0    0 -0.33161822910E+03 -0.15883048356E+03  0.35545978211E+03  0.51955438692E+03  0.91582377608E+02 0.  0.
         11    1    3    3    0    0 -0.31216459172E+03 -0.13034895982E+03  0.34576595148E+03  0.48372686183E+03  0.00000000000E+00 0.  1.
        -11    1    3    3    0    0 -0.19453637382E+02 -0.28481523742E+02  0.96938306323E+01  0.35827525094E+02  0.00000000000E+00 0. -1.
         22    1    1    2    0    0  0.33161822910E+03  0.15883048356E+03 -0.30573459908E+03  0.47819600317E+03  0.00000000000E+00 0.  1.
<mgrwt>
<rscale>  0 0.99651054E+03</rscale>
<asrwt>0</asrwt>
<pdfrwt beam="1">  1        1 0.72925016E-01 0.99651054E+03</pdfrwt>
<pdfrwt beam="2">  1       -1 0.80575044E-01 0.99651054E+03</pdfrwt>
<totfact> 0.73530927E+01</totfact>
</mgrwt>
</event>
<event>
 6    1  0.1637818E-005  0.2399920E+04  0.7818608E-02  0.8439533E-01
          2   -1    0    0  501    0  0.00000000000E+00  0.00000000000E+00  0.19014616360E+04  0.19014616360E+04  0.00000000000E+00 0. -1.
         -2   -1    0    0    0  501 -0.00000000000E+00 -0.00000000000E+00 -0.75726175405E+03  0.75726175405E+03  0.00000000000E+00 0.  1.
         23    2    1    2    0    0 -0.51323517240E+03  0.98313729269E+03  0.10751847872E+04  0.15475382741E+04  0.94250224523E+02 0.  0.
         11    1    3    3    0    0 -0.26550230344E+03  0.59488110309E+03  0.66261457250E+03  0.92921099414E+03  0.00000000000E+00 0. -1.
        -11    1    3    3    0    0 -0.24773286896E+03  0.38825618960E+03  0.41257021469E+03  0.61832727998E+03  0.00000000000E+00 0.  1.
         22    1    1    2    0    0  0.51323517240E+03 -0.98313729269E+03  0.69015094726E+02  0.11111851159E+04  0.00000000000E+00 0.  1.
<mgrwt>
<rscale>  0 0.23999201E+04</rscale>
<asrwt>0</asrwt>
<pdfrwt beam="1">  1        2 0.29253256E+00 0.23999201E+04</pdfrwt>
<pdfrwt beam="2">  1       -2 0.11650181E+00 0.23999201E+04</pdfrwt>
<totfact> 0.38933215E+00</totfact>
</mgrwt>
</event>
<event>
 6    1  0.1637818E-005  0.1610726E+04  0.7818608E-02  0.8813986E-01
         -1   -1    0    0    0  501 -0.00000000000E+00  0.00000000000E+00  0.39338759289E+03  0.39338759289E+03  0.00000000000E+00 0.  1.
          1   -1    0    0  501    0  0.00000000000E+00 -0.00000000000E+00 -0.16487800201E+04  0.16487800201E+04  0.00000000000E+00 0. -1.
         23    2    1    2    0    0  0.18324731185E+03  0.61672323646E+03 -0.12382861595E+04  0.13985685514E+04  0.93350161011E+02 0.  0.
         11    1    3    3    0    0  0.15805812968E+03  0.41258572309E+03 -0.90132434305E+03  0.10037902782E+04  0.00000000000E+00 0.  1.
        -11    1    3    3    0    0  0.25189182170E+02  0.20413751337E+03 -0.33696181644E+03  0.39477827322E+03  0.00000000000E+00 0. -1.
         22    1    1    2    0    0 -0.18324731185E+03 -0.61672323646E+03 -0.17106267748E+02  0.64359906160E+03  0.00000000000E+00 0.  1.
<mgrwt>
<rscale>  0 0.16107261E+04</rscale>
<asrwt>0</asrwt>
<pdfrwt beam="1">  1        1 0.25365847E+00 0.16107261E+04</pdfrwt>
<pdfrwt beam="2">  1       -1 0.60521167E-01 0.16107261E+04</pdfrwt>
<totfact> 0.13712233E+01</totfact>
</mgrwt>
</event>
<event>
 6    1  0.1637818E-005  0.1008155E+04  0.7818608E-02  0.9299646E-01
          2   -1    0    0  501    0  0.00000000000E+00  0.00000000000E+00  0.16084524220E+04  0.16084524220E+04  0.00000000000E+00 0. -1.
         -2   -1    0    0    0  501 -0.00000000000E+00 -0.00000000000E+00 -0.15797415073E+03  0.15797415073E+03  0.00000000000E+00 0.  1.
         23    2    1    2    0    0  0.21813309238E+03 -0.13076649446E+03  0.14852967410E+04  0.15097278234E+04  0.92139946714E+02 0.  0.
         11    1    3    3    0    0  0.55797149352E+02  0.66910556789E+01  0.38214365418E+03  0.38625362721E+03  0.00000000000E+00 0.  1.
        -11    1    3    3    0    0  0.16233594303E+03 -0.13745755014E+03  0.11031530868E+04  0.11234741962E+04  0.00000000000E+00 0. -1.
         22    1    1    2    0    0 -0.21813309238E+03  0.13076649446E+03 -0.34818469756E+02  0.25669874932E+03  0.00000000000E+00 0.  1.
<mgrwt>
<rscale>  0 0.10081546E+04</rscale>
<asrwt>0</asrwt>
<pdfrwt beam="1">  1        2 0.24745421E+00 0.10081546E+04</pdfrwt>
<pdfrwt beam="2">  1       -2 0.24303717E-01 0.10081546E+04</pdfrwt>
<totfact> 0.16617939E+02</totfact>
</mgrwt>
</event>
<event>
 6    1  0.1637818E-005  0.1500808E+04  0.7818608E-02  0.8883916E-01
          2   -1    0    0  501    0  0.00000000000E+00  0.00000000000E+00  0.16034491348E+04  0.16034491348E+04  0.00000000000E+00 0. -1.
         -2   -1    0    0    0  501 -0.00000000000E+00 -0.00000000000E+00 -0.35118440238E+03  0.35118440238E+03  0.00000000000E+00 0.  1.
         23    2    1    2    0    0 -0.19374883894E+03  0.64504547575E+02  0.15651335263E+04  0.15810209954E+04  0.91021883450E+02 0.  0.
         13    1    3    3    0    0 -0.15743046520E+03  0.13183381277E+02  0.12226550340E+04  0.12328193238E+04  0.00000000000E+00 0.  1.
        -13    1    3    3    0    0 -0.36318373733E+02  0.51321166297E+02  0.34247849235E+03  0.34820167159E+03  0.00000000000E+00 0. -1.
         22    1    1    2    0    0  0.19374883894E+03 -0.64504547575E+02 -0.31286879387E+03  0.37361254185E+03  0.00000000000E+00 0.  1.
<mgrwt>
<rscale>  0 0.15008082E+04</rscale>
<asrwt>0</asrwt>
<pdfrwt beam="1">  1        2 0.24668448E+00 0.15008082E+04</pdfrwt>
<pdfrwt beam="2">  1       -2 0.54028371E-01 0.15008082E+04</pdfrwt>
<totfact> 0.34600901E+01</totfact>
</mgrwt>
</event>
<event>
 6    1  0.1637818E-005  0.2091369E+04  0.7818608E-02  0.8565055E-01
         -1   -1    0    0    0  501 -0.00000000000E+00  0.00000000000E+00  0.51676225280E+03  0.51676225280E+03  0.00000000000E+00 0.  1.
          1   -1    0    0  501    0  0.00000000000E+00 -0.00000000000E+00 -0.21159755823E+04  0.21159755823E+04  0.00000000000E+00 0. -1.
         23    2    1    2    0    0  0.54469790870E+03  0.13973716158E+03 -0.19079327687E+04  0.19912318116E+04  0.92598011049E+02 0.  0.
         13    1    3    3    0    0  0.19579615924E+03  0.67021012616E+01 -0.61397792638E+03  0.64447649159E+03  0.00000000000E+00 0.  1.
        -13    1    3    3    0    0  0.34890174945E+03  0.13303506032E+03 -0.12939548423E+04  0.13467553200E+04  0.00000000000E+00 0. -1.
         22    1    1    2    0    0 -0.54469790870E+03 -0.13973716158E+03  0.30871943918E+03  0.64150602350E+03  0.00000000000E+00 0.  1.
<mgrwt>
<rscale>  0 0.20913692E+04</rscale>
<asrwt>0</asrwt>
<pdfrwt beam="1">  1        1 0.32553471E+00 0.20913692E+04</pdfrwt>
<pdfrwt beam="2">  1       -1 0.79501884E-01 0.20913692E+04</pdfrwt>
<totfact> 0.36158380E+00</totfact>
</mgrwt>
</event>
<event>
 6    1  0.1637818E-005  0.4783578E+04  0.7818608E-02  0.7862788E-01
         -1   -1    0    0    0  501 -0.00000000000E+00  0.00000000000E+00  0.20209603009E+04  0.20209603009E+04  0.00000000000E+00 0.  1.
          1   -1    0    0  501    0  0.00000000000E+00 -0.00000000000E+00 -0.28306618686E+04  0.28306618686E+04  0.00000000000E+00 0. -1.
         23    2    1    2    0    0  0.16170500844E+04  0.15074697545E+04  0.51851779746E+03  0.22725753072E+04  0.91770279381E+02 0.  0.
         11    1    3    3    0    0  0.57059072065E+03  0.53382595831E+03  0.22843786498E+03  0.81408094340E+03  0.00000000000E+00 0. -1.
        -11    1    3    3    0    0  0.10464593637E+04  0.97364379623E+03  0.29007993248E+03  0.14584943638E+04  0.00000000000E+00 0.  1.
         22    1    1    2    0    0 -0.16170500844E+04 -0.15074697545E+04 -0.13282193652E+04  0.25790468623E+04  0.00000000000E+00 0. -1.
<mgrwt>
<rscale>  0 0.47835783E+04</rscale>
<asrwt>0</asrwt>
<pdfrwt beam="1">  1        1 0.43548644E+00 0.47835783E+04</pdfrwt>
<pdfrwt beam="2">  1       -1 0.31091697E+00 0.47835783E+04</pdfrwt>
<totfact> 0.16323213E-02</totfact>
</mgrwt>
</event>
<event>
 6    1  0.1637818E-005  0.2173858E+04  0.7818608E-02  0.8529388E-01
          2   -1    0    0  501    0  0.00000000000E+00  0.00000000000E+00  0.11312561520E+04  0.11312561520E+04  0.00000000000E+00 0. -1.
         -2   -1    0    0    0  501 -0.00000000000E+00 -0.00000000000E+00 -0.10443390875E+04  0.10443390875E+04  0.00000000000E+00 0.  1.
         23    2    1    2    0    0  0.97554683955E+01 -0.86498120673E+03  0.69904376553E+03  0.11158845453E+04  0.90821116676E+02 0.  0.
         11    1    3    3    0    0 -0.28498940545E+02 -0.69355249837E+03  0.55595596766E+03  0.88933362445E+03  0.00000000000E+00 0. -1.
        -11    1    3    3    0    0  0.38254408940E+02 -0.17142870836E+03  0.14308779788E+03  0.22655092089E+03  0.00000000000E+00 0.  1.
         22    1    1    2    0    0 -0.97554683955E+01  0.86498120673E+03 -0.61212670102E+03  0.10597106941E+04  0.00000000000E+00 0.  1.
<mgrwt>
<rscale>  0 0.21738583E+04</rscale>
<asrwt>0</asrwt>
<pdfrwt beam="1">  1        2 0.17403941E+00 0.21738583E+04</pdfrwt>
<pdfrwt beam="2">  1       -2 0.16066755E+00 0.21738583E+04</pdfrwt>
<totfact> 0.47549603E+00</totfact>
</mgrwt>
</event>
<event>
 6    1  0.1637818E-005  0.2906008E+04  0.7818608E-02  0.8271092E-01
          1   -1    0    0  501    0  0.00000000000E+00  0.00000000000E+00  0.25063807379E+04  0.25063807379E+04  0.00000000000E+00 0. -1.
         -1   -1    0    0    0  501 -0.00000000000E+00 -0.00000000000E+00 -0.84233809078E+03  0.84233809078E+03  0.00000000000E+00 0.  1.
         23    2    1    2    0    0  0.49772501728E+03 -0.76451460451E+02  0.24016562350E+04  0.24556069524E+04  0.92075049784E+02 0.  0.
         11    1    3    3    0    0  0.22016159600E+03 -0.58462404683E+02  0.89796996533E+03  0.92641191689E+03  0.00000000000E+00 0. -1.
        -11    1    3    3    0    0  0.27756342128E+03 -0.17989055768E+02  0.15036862697E+04  0.15291950355E+04  0.00000000000E+00 0.  1.
         22    1    1    2    0    0 -0.49772501728E+03  0.76451460451E+02 -0.73761358786E+03  0.89311187632E+03  0.00000000000E+00 0.  1.
<mgrwt>
<rscale>  0 0.29060075E+04</rscale>
<asrwt>0</asrwt>
<pdfrwt beam="1">  1        1 0.38559703E+00 0.29060075E+04</pdfrwt>
<pdfrwt beam="2">  1       -1 0.12959048E+00 0.29060075E+04</pdfrwt>
<totfact> 0.58786994E-01</totfact>
</mgrwt>
</event>
<event>
 6    1  0.1637818E-005  0.3244972E+04  0.7818608E-02  0.8177040E-01
          2   -1    0    0  501    0  0.00000000000E+00  0.00000000000E+00  0.14899737412E+04  0.14899737412E+04  0.00000000000E+00 0. -1.
         -2   -1    0    0    0  501 -0.00000000000E+00 -0.00000000000E+00 -0.17667836274E+04  0.17667836274E+04  0.00000000000E+00 0.  1.
         23    2    1    2    0    0 -0.65950725939E+03 -0.11442287370E+04 -0.10821351721E+04  0.17099031273E+04  0.92428058836E+02 0.  0.
         11    1    3    3    0    0 -0.38356906842E+03 -0.62758245257E+03 -0.54813257539E+03  0.91729727200E+03  0.00000000000E+00 0. -1.
        -11    1    3    3    0    0 -0.27593819097E+03 -0.51664628448E+03 -0.53400259671E+03  0.79260585526E+03  0.00000000000E+00 0.  1.
         22    1    1    2    0    0  0.65950725939E+03  0.11442287370E+04  0.80532528595E+03  0.15468542414E+04  0.00000000000E+00 0. -1.
<mgrwt>
<rscale>  0 0.32449722E+04</rscale>
<asrwt>0</asrwt>
<pdfrwt beam="1">  1        2 0.22922673E+00 0.32449722E+04</pdfrwt>
<pdfrwt beam="2">  1       -2 0.27181286E+00 0.32449722E+04</pdfrwt>
<totfact> 0.50976033E-01</totfact>
</mgrwt>
</event>
<event>
 6    1  0.2285861E-005  0.4026323E+04  0.7818608E-02  0.7999257E-01
         -2   -1    0    0    0  501 -0.00000000000E+00  0.00000000000E+00  0.17086433966E+04  0.17086433966E+04  0.00000000000E+00 0.  1.
          2   -1    0    0  501    0  0.00000000000E+00 -0.00000000000E+00 -0.23719516456E+04  0.23719516456E+04  0.00000000000E+00 0. -1.
         23    2    1    2    0    0 -0.34127653092E+03 -0.10056840276E+04 -0.20639166455E+04  0.23228766592E+04  0.90188805766E+02 0.  0.
         13    1    3    3    0    0 -0.49390919239E+02 -0.24310305088E+03 -0.52941778646E+03  0.58465523933E+03  0.00000000000E+00 0.  1.
        -13    1    3    3    0    0 -0.29188561168E+03 -0.76258097669E+03 -0.15344988590E+04  0.17382214199E+04  0.00000000000E+00 0. -1.
         22    1    1    2    0    0  0.34127653092E+03  0.10056840276E+04  0.14006083964E+04  0.17577183830E+04  0.00000000000E+00 0.  1.
<mgrwt>
<rscale>  0 0.40263231E+04</rscale>
<asrwt>0</asrwt>
<pdfrwt beam="1">  1        2 0.36491564E+00 0.40263231E+04</pdfrwt>
<pdfrwt beam="2">  1       -2 0.26286822E+00 0.40263231E+04</pdfrwt>
<totfact> 0.17401995E-01</totfact>
</mgrwt>
</event>
<event>
 6    1  0.1637818E-005  0.8643167E+03  0.7818608E-02  0.9471321E-01
          2   -1    0    0  501    0  0.00000000000E+00  0.00000000000E+00  0.14293558578E+04  0.14293558578E+04  0.00000000000E+00 0. -1.
         -2   -1    0    0    0  501 -0.00000000000E+00 -0.00000000000E+00 -0.13066083922E+03  0.13066083922E+03  0.00000000000E+00 0.  1.
         23    2    1    2    0    0  0.36667116487E+02 -0.39378799959E+03  0.36358946400E+03  0.54471582326E+03  0.90025350430E+02 0.  0.
         13    1    3    3    0    0 -0.15165584110E+01 -0.21588934540E+03  0.14387196443E+03  0.25944103676E+03  0.00000000000E+00 0.  1.
        -13    1    3    3    0    0  0.38183674898E+02 -0.17789865419E+03  0.21971749957E+03  0.28527478650E+03  0.00000000000E+00 0. -1.
         22    1    1    2    0    0 -0.36667116487E+02  0.39378799959E+03  0.93510555460E+03  0.10153008738E+04  0.00000000000E+00 0. -1.
<mgrwt>
<rscale>  0 0.86431669E+03</rscale>
<asrwt>0</asrwt>
<pdfrwt beam="1">  1        2 0.21990089E+00 0.86431669E+03</pdfrwt>
<pdfrwt beam="2">  1       -2 0.20101669E-01 0.86431669E+03</pdfrwt>
<totfact> 0.29603078E+02</totfact>
</mgrwt>
</event>
<event>
 6    1  0.1637818E-005  0.5079233E+04  0.7818608E-02  0.7816400E-01
          1   -1    0    0  501    0  0.00000000000E+00  0.00000000000E+00  0.26475766771E+04  0.26475766771E+04  0.00000000000E+00 0. -1.
         -1   -1    0    0    0  501 -0.00000000000E+00 -0.00000000000E+00 -0.24360585036E+04  0.24360585036E+04  0.00000000000E+00 0.  1.
         23    2    1    2    0    0 -0.48984705623E+03  0.16733734663E+04 -0.17411319743E+04  0.24658171015E+04  0.92652735534E+02 0.  0.
         13    1    3    3    0    0 -0.22619854130E+03  0.68578876611E+03 -0.77556272790E+03  0.10597025794E+04  0.00000000000E+00 0. -1.
        -13    1    3    3    0    0 -0.26364851493E+03  0.98758470022E+03 -0.96556924645E+03  0.14061145221E+04  0.00000000000E+00 0.  1.
         22    1    1    2    0    0  0.48984705623E+03 -0.16733734663E+04  0.19526501479E+04  0.26178180793E+04  0.00000000000E+00 0. -1.
<mgrwt>
<rscale>  0 0.50792329E+04</rscale>
<asrwt>0</asrwt>
<pdfrwt beam="1">  1        1 0.40731949E+00 0.50792329E+04</pdfrwt>
<pdfrwt beam="2">  1       -1 0.37477823E+00 0.50792329E+04</pdfrwt>
<totfact> 0.81366932E-03</totfact>
</mgrwt>
</event>
<event>
 6    1  0.1637818E-005  0.1894480E+04  0.7818608E-02  0.8657609E-01
          1   -1    0    0  501    0  0.00000000000E+00  0.00000000000E+00  0.14361479299E+04  0.14361479299E+04  0.00000000000E+00 0. -1.
         -1   -1    0    0    0  501 -0.00000000000E+00 -0.00000000000E+00 -0.62477125163E+03  0.62477125163E+03  0.00000000000E+00 0.  1.
         23    2    1    2    0    0  0.14244150744E+03 -0.88025307715E+02  0.14182770226E+04  0.14313430815E+04  0.95891950908E+02 0.  0.
         11    1    3    3    0    0  0.88836362440E+02 -0.96530721061E+02  0.11619855054E+04  0.11693675189E+04  0.00000000000E+00 0. -1.
        -11    1    3    3    0    0  0.53605144999E+02  0.85054133460E+01  0.25629151717E+03  0.26197556260E+03  0.00000000000E+00 0.  1.
         22    1    1    2    0    0 -0.14244150744E+03  0.88025307715E+02 -0.60690034431E+03  0.62957610006E+03  0.00000000000E+00 0.  1.
<mgrwt>
<rscale>  0 0.18944803E+04</rscale>
<asrwt>0</asrwt>
<pdfrwt beam="1">  1        1 0.22094584E+00 0.18944803E+04</pdfrwt>
<pdfrwt beam="2">  1       -1 0.96118654E-01 0.18944803E+04</pdfrwt>
<totfact> 0.70745860E+00</totfact>
</mgrwt>
</event>
<event>
 6    1  0.1637818E-005  0.2310461E+04  0.7818608E-02  0.8473808E-01
         -2   -1    0    0    0  501 -0.00000000000E+00  0.00000000000E+00  0.85079115260E+03  0.85079115260E+03  0.00000000000E+00 0.  1.
          2   -1    0    0  501    0  0.00000000000E+00 -0.00000000000E+00 -0.15686071585E+04  0.15686071585E+04  0.00000000000E+00 0. -1.
         23    2    1    2    0    0 -0.37104871685E+03  0.47599961391E+03  0.66984811372E+03  0.90616848995E+03  0.90509966331E+02 0.  0.
         11    1    3    3    0    0 -0.21690670077E+03  0.32936285620E+03  0.39010131466E+03  0.55471383936E+03  0.00000000000E+00 0. -1.
        -11    1    3    3    0    0 -0.15414201608E+03  0.14663675771E+03  0.27974679907E+03  0.35145465059E+03  0.00000000000E+00 0.  1.
         22    1    1    2    0    0  0.37104871685E+03 -0.47599961391E+03 -0.13876641196E+04  0.15132298212E+04  0.00000000000E+00 0. -1.
<mgrwt>
<rscale>  0 0.23104606E+04</rscale>
<asrwt>0</asrwt>
<pdfrwt beam="1">  1        2 0.24132418E+00 0.23104606E+04</pdfrwt>
<pdfrwt beam="2">  1       -2 0.13089095E+00 0.23104606E+04</pdfrwt>
<totfact> 0.44909787E+00</totfact>
</mgrwt>
</event>
<event>
 6    1  0.1637818E-005  0.2607101E+04  0.7818608E-02  0.8365793E-01
         -2   -1    0    0    0  501 -0.00000000000E+00  0.00000000000E+00  0.13476922514E+04  0.13476922514E+04  0.00000000000E+00 0.  1.
          2   -1    0    0  501    0  0.00000000000E+00 -0.00000000000E+00 -0.12608545938E+04  0.12608545938E+04  0.00000000000E+00 0. -1.
         23    2    1    2    0    0 -0.76788333294E+03  0.35547177529E+03 -0.94676233876E+03  0.12727572103E+04  0.86873438423E+02 0.  0.
         11    1    3    3    0    0 -0.71477701449E+03  0.35362974052E+03 -0.88617368952E+03  0.11921677658E+04  0.00000000000E+00 0. -1.
        -11    1    3    3    0    0 -0.53106318457E+02  0.18420347703E+01 -0.60588649241E+02  0.80589444526E+02  0.00000000000E+00 0.  1.
         22    1    1    2    0    0  0.76788333294E+03 -0.35547177529E+03  0.10335999963E+04  0.13357896348E+04  0.00000000000E+00 0.  1.
<mgrwt>
<rscale>  0 0.26071010E+04</rscale>
<asrwt>0</asrwt>
<pdfrwt beam="1">  1        2 0.19397763E+00 0.26071010E+04</pdfrwt>
<pdfrwt beam="2">  1       -2 0.20733727E+00 0.26071010E+04</pdfrwt>
<totfact> 0.18355456E+00</totfact>
</mgrwt>
</event>
<event>
 6    1  0.1637818E-005  0.4615164E+04  0.7818608E-02  0.7890779E-01
          2   -1    0    0  501    0  0.00000000000E+00  0.00000000000E+00  0.31288271699E+04  0.31288271699E+04  0.00000000000E+00 0. -1.
         -2   -1    0    0    0  501 -0.00000000000E+00 -0.00000000000E+00 -0.17018947214E+04  0.17018947214E+04  0.00000000000E+00 0.  1.
         23    2    1    2    0    0 -0.96108019020E+03 -0.38672017358E+02  0.29082660951E+04  0.30645055882E+04  0.89510688340E+02 0.  0.
         11    1    3    3    0    0 -0.68562846267E+03 -0.18584466271E+02  0.19429615715E+04  0.20604687427E+04  0.00000000000E+00 0. -1.
        -11    1    3    3    0    0 -0.27545172753E+03 -0.20087551087E+02  0.96530452360E+03  0.10040368455E+04  0.00000000000E+00 0.  1.
         22    1    1    2    0    0  0.96108019020E+03  0.38672017358E+02 -0.14813336466E+04  0.17662163032E+04  0.00000000000E+00 0.  1.
<mgrwt>
<rscale>  0 0.46151639E+04</rscale>
<asrwt>0</asrwt>
<pdfrwt beam="1">  1        2 0.48135802E+00 0.46151639E+04</pdfrwt>
<pdfrwt beam="2">  1       -2 0.26182996E+00 0.46151639E+04</pdfrwt>
<totfact> 0.58816500E-02</totfact>
</mgrwt>
</event>
<event>
 6    1  0.1637818E-005  0.2340037E+04  0.7818608E-02  0.8462300E-01
         -1   -1    0    0    0  501 -0.00000000000E+00  0.00000000000E+00  0.10843065765E+04  0.10843065765E+04  0.00000000000E+00 0.  1.
          1   -1    0    0  501    0  0.00000000000E+00 -0.00000000000E+00 -0.12625062569E+04  0.12625062569E+04  0.00000000000E+00 0. -1.
         23    2    1    2    0    0 -0.54880439642E+03 -0.54193984654E+03  0.79067995218E+03  0.11084216169E+04  0.92404714874E+02 0.  0.
         11    1    3    3    0    0 -0.33199506561E+03 -0.26597929704E+03  0.45220509196E+03  0.62085034851E+03  0.00000000000E+00 0. -1.
        -11    1    3    3    0    0 -0.21680933081E+03 -0.27596054950E+03  0.33847486022E+03  0.48757126843E+03  0.00000000000E+00 0.  1.
         22    1    1    2    0    0  0.54880439642E+03  0.54193984654E+03 -0.96887963255E+03  0.12383912165E+04  0.00000000000E+00 0. -1.
<mgrwt>
<rscale>  0 0.23400375E+04</rscale>
<asrwt>0</asrwt>
<pdfrwt beam="1">  1        1 0.19423173E+00 0.23400375E+04</pdfrwt>
<pdfrwt beam="2">  1       -1 0.16681640E+00 0.23400375E+04</pdfrwt>
<totfact> 0.22522013E+00</totfact>
</mgrwt>
</event>
<event>
 6    1  0.1637818E-005  0.1929860E+04  0.7818608E-02  0.8640134E-01
          1   -1    0    0  501    0  0.00000000000E+00  0.00000000000E+00  0.86851776478E+03  0.86851776478E+03  0.00000000000E+00 0. -1.
         -1   -1    0    0    0  501 -0.00000000000E+00 -0.00000000000E+00 -0.10720447700E+04  0.10720447700E+04  0.00000000000E+00 0.  1.
         23    2    1    2    0    0 -0.36761105663E+02  0.73721284574E+03  0.51949572267E+03  0.90731715062E+03  0.92273761826E+02 0.  0.
         11    1    3    3    0    0 -0.51925595685E+02  0.22967908830E+03  0.14726811006E+03  0.27773485077E+03  0.00000000000E+00 0. -1.
        -11    1    3    3    0    0  0.15164490022E+02  0.50753375744E+03  0.37222761261E+03  0.62958229985E+03  0.00000000000E+00 0.  1.
         22    1    1    2    0    0  0.36761105663E+02 -0.73721284574E+03 -0.72302272785E+03  0.10332453841E+04  0.00000000000E+00 0.  1.
<mgrwt>
<rscale>  0 0.19298600E+04</rscale>
<asrwt>0</asrwt>
<pdfrwt beam="1">  1        1 0.13361812E+00 0.19298600E+04</pdfrwt>
<pdfrwt beam="2">  1       -1 0.16492996E+00 0.19298600E+04</pdfrwt>
<totfact> 0.48384538E+00</totfact>
</mgrwt>
</event>
<event>
 6    1  0.1637818E-005  0.4248391E+04  0.7818608E-02  0.7956231E-01
         -2   -1    0    0    0  501 -0.00000000000E+00  0.00000000000E+00  0.14028641678E+04  0.14028641678E+04  0.00000000000E+00 0. -1.
          2   -1    0    0  501    0  0.00000000000E+00 -0.00000000000E+00 -0.32164250168E+04  0.32164250168E+04  0.00000000000E+00 0.  1.
         23    2    1    2    0    0 -0.10537991866E+04  0.18212881912E+04 -0.59901914250E+03  0.21897429392E+04  0.92557039143E+02 0.  0.
         13    1    3    3    0    0 -0.15202479944E+03  0.31024409528E+03 -0.12417474476E+03  0.36712709725E+03  0.00000000000E+00 0.  1.
        -13    1    3    3    0    0 -0.90177438721E+03  0.15110440960E+04 -0.47484439774E+03  0.18226158420E+04  0.00000000000E+00 0. -1.
         22    1    1    2    0    0  0.10537991866E+04 -0.18212881912E+04 -0.12145417065E+04  0.24295462453E+04  0.00000000000E+00 0. -1.
<mgrwt>
<rscale>  0 0.42483914E+04</rscale>
<asrwt>0</asrwt>
<pdfrwt beam="1">  1        2 0.49483461E+00 0.42483914E+04</pdfrwt>
<pdfrwt beam="2">  1       -2 0.21582526E+00 0.42483914E+04</pdfrwt>
<totfact> 0.10267183E-01</totfact>
</mgrwt>
</event>
<event>
 6    1  0.1637818E-005  0.2114322E+04  0.7818608E-02  0.8554961E-01
          1   -1    0    0  501    0  0.00000000000E+00  0.00000000000E+00  0.69829389128E+03  0.69829389128E+03  0.00000000000E+00 0. -1.
         -1   -1    0    0    0  501 -0.00000000000E+00 -0.00000000000E+00 -0.16004565588E+04  0.16004565588E+04  0.00000000000E+00 0.  1.
         23    2    1    2    0    0 -0.37166219416E+03  0.64942169649E+03 -0.12607844138E+04  0.14689969425E+04  0.92159386612E+02 0.  0.
         11    1    3    3    0    0 -0.33270249770E+03  0.61719470310E+03 -0.11445616529E+04  0.13422524468E+04  0.00000000000E+00 0. -1.
        -11    1    3    3    0    0 -0.38959696451E+02  0.32226993385E+02 -0.11622276089E+03  0.12674449574E+03  0.00000000000E+00 0.  1.
         22    1    1    2    0    0  0.37166219416E+03 -0.64942169649E+03  0.35862174629E+03  0.82975350758E+03  0.00000000000E+00 0. -1.
<mgrwt>
<rscale>  0 0.21143217E+04</rscale>
<asrwt>0</asrwt>
<pdfrwt beam="1">  1        1 0.10742983E+00 0.21143217E+04</pdfrwt>
<pdfrwt beam="2">  1       -1 0.24622408E+00 0.21143217E+04</pdfrwt>
<totfact> 0.18536090E+00</totfact>
</mgrwt>
</event>
<event>
 6    1  0.1637818E-005  0.1840304E+04  0.7818608E-02  0.8685155E-01
          2   -1    0    0  501    0  0.00000000000E+00  0.00000000000E+00  0.73440394839E+03  0.73440394839E+03  0.00000000000E+00 0. -1.
         -2   -1    0    0    0  501 -0.00000000000E+00 -0.00000000000E+00 -0.11528800456E+04  0.11528800456E+04  0.00000000000E+00 0.  1.
         23    2    1    2    0    0  0.56009839080E+03 -0.72074732609E+03 -0.30879485074E+03  0.96792721268E+03  0.91334077817E+02 0.  0.
         11    1    3    3    0    0  0.29531012540E+03 -0.32734274726E+03 -0.11479986496E+03  0.45556597036E+03  0.00000000000E+00 0.  1.
        -11    1    3    3    0    0  0.26478826540E+03 -0.39340457882E+03 -0.19399498578E+03  0.51236124233E+03  0.00000000000E+00 0. -1.
         22    1    1    2    0    0 -0.56009839080E+03  0.72074732609E+03 -0.10968124642E+03  0.91935678126E+03  0.00000000000E+00 0. -1.
<mgrwt>
<rscale>  0 0.18403040E+04</rscale>
<asrwt>0</asrwt>
<pdfrwt beam="1">  1        2 0.11298522E+00 0.18403040E+04</pdfrwt>
<pdfrwt beam="2">  1       -2 0.17736616E+00 0.18403040E+04</pdfrwt>
<totfact> 0.68536990E+00</totfact>
</mgrwt>
</event>
<event>
 6    1  0.1637818E-005  0.3199338E+04  0.7818608E-02  0.8188992E-01
          2   -1    0    0  501    0  0.00000000000E+00  0.00000000000E+00  0.30546842946E+04  0.30546842946E+04  0.00000000000E+00 0. -1.
         -2   -1    0    0    0  501 -0.00000000000E+00 -0.00000000000E+00 -0.83771032160E+03  0.83771032160E+03  0.00000000000E+00 0.  1.
         23    2    1    2    0    0 -0.24312712094E+03  0.15394541380E+04  0.67783658937E+03  0.17019668667E+04  0.90547961834E+02 0.  0.
         13    1    3    3    0    0 -0.11948517861E+03  0.98443921534E+03  0.45818430547E+03  0.10923965097E+04  0.00000000000E+00 0.  1.
        -13    1    3    3    0    0 -0.12364194232E+03  0.55501492269E+03  0.21965228390E+03  0.60957035700E+03  0.00000000000E+00 0. -1.
         22    1    1    2    0    0  0.24312712094E+03 -0.15394541380E+04  0.15391373836E+04  0.21904277495E+04  0.00000000000E+00 0. -1.
<mgrwt>
<rscale>  0 0.31993378E+04</rscale>
<asrwt>0</asrwt>
<pdfrwt beam="1">  1        2 0.46995142E+00 0.31993378E+04</pdfrwt>
<pdfrwt beam="2">  1       -2 0.12887851E+00 0.31993378E+04</pdfrwt>
<totfact> 0.60075785E-01</totfact>
</mgrwt>
</event>
<event>
 6    1  0.1637818E-005  0.8901302E+03  0.7818608E-02  0.9438004E-01
         -1   -1    0    0    0  501 -0.00000000000E+00  0.00000000000E+00  0.11933929199E+03  0.11933929199E+03  0.00000000000E+00 0.  1.
          1   -1    0    0  501    0  0.00000000000E+00 -0.00000000000E+00 -0.16598300619E+04  0.16598300619E+04  0.00000000000E+00 0. -1.
         23    2    1    2    0    0  0.35381505364E+03 -0.10350810039E+03 -0.29595800574E+03  0.48118598724E+03  0.89720644921E+02 0.  0.
         11    1    3    3    0    0  0.27004546153E+03 -0.11741699042E+03 -0.23184554953E+03  0.37478481795E+03  0.00000000000E+00 0.  1.
        -11    1    3    3    0    0  0.83769592111E+02  0.13908890027E+02 -0.64112456215E+02  0.10640116929E+03  0.00000000000E+00 0. -1.
         22    1    1    2    0    0 -0.35381505364E+03  0.10350810039E+03 -0.12445327641E+04  0.12979833666E+04  0.00000000000E+00 0. -1.
<mgrwt>
<rscale>  0 0.89013020E+03</rscale>
<asrwt>0</asrwt>
<pdfrwt beam="1">  1        1 0.25535844E+00 0.89013020E+03</pdfrwt>
<pdfrwt beam="2">  1       -1 0.18359893E-01 0.89013020E+03</pdfrwt>
<totfact> 0.12114500E+02</totfact>
</mgrwt>
</event>
<event>
 6    1  0.1637818E-005  0.1489738E+04  0.7818608E-02  0.8891306E-01
          2   -1    0    0  501    0  0.00000000000E+00  0.00000000000E+00  0.99462073635E+03  0.99462073635E+03  0.00000000000E+00 0. -1.
         -2   -1    0    0    0  501 -0.00000000000E+00 -0.00000000000E+00 -0.55783077352E+03  0.55783077352E+03  0.00000000000E+00 0.  1.
         23    2    1    2    0    0  0.66621226487E+03  0.26262050602E+03  0.42282804795E+03  0.83620905992E+03  0.87485551425E+02 0.  0.
         11    1    3    3    0    0  0.35949399546E+03  0.17669348911E+03  0.26875955722E+03  0.48237767512E+03  0.00000000000E+00 0.  1.
        -11    1    3    3    0    0  0.30671826942E+03  0.85927016913E+02  0.15406849073E+03  0.35383138480E+03  0.00000000000E+00 0. -1.
         22    1    1    2    0    0 -0.66621226487E+03 -0.26262050602E+03  0.13961914881E+02  0.71624244996E+03  0.00000000000E+00 0.  1.
<mgrwt>
<rscale>  0 0.14897383E+04</rscale>
<asrwt>0</asrwt>
<pdfrwt beam="1">  1        2 0.15301858E+00 0.14897383E+04</pdfrwt>
<pdfrwt beam="2">  1       -2 0.85820119E-01 0.14897383E+04</pdfrwt>
<totfact> 0.28947483E+01</totfact>
</mgrwt>
</event>
<event>
 6    1  0.1637818E-005  0.1503632E+04  0.7818608E-02  0.8882042E-01
         -2   -1    0    0    0  501 -0.00000000000E+00  0.00000000000E+00  0.17535189277E+03  0.17535189277E+03  0.00000000000E+00 0.  1.
          2   -1    0    0  501    0  0.00000000000E+00 -0.00000000000E+00 -0.32233870883E+04  0.32233870883E+04  0.00000000000E+00 0. -1.
         23    2    1    2    0    0  0.42129073629E+03  0.40112313998E+02 -0.29264704750E+04  0.29584290181E+04  0.94751951186E+02 0.  0.
         13    1    3    3    0    0  0.14722575135E+03  0.32667016646E+02 -0.13380104295E+04  0.13464822558E+04  0.00000000000E+00 0. -1.
        -13    1    3    3    0    0  0.27406498494E+03  0.74452973526E+01 -0.15884600454E+04  0.16119467623E+04  0.00000000000E+00 0.  1.
         22    1    1    2    0    0 -0.42129073629E+03 -0.40112313998E+02 -0.12156472061E+03  0.44030996300E+03  0.00000000000E+00 0.  1.
<mgrwt>
<rscale>  0 0.15036316E+04</rscale>
<asrwt>0</asrwt>
<pdfrwt beam="1">  1        2 0.49590566E+00 0.15036316E+04</pdfrwt>
<pdfrwt beam="2">  1       -2 0.26977217E-01 0.15036316E+04</pdfrwt>
<totfact> 0.15248205E+01</totfact>
</mgrwt>
</event>
<event>
 6    1  0.1637818E-005  0.3710872E+04  0.7818608E-02  0.8065557E-01
         -1   -1    0    0    0  501 -0.00000000000E+00  0.00000000000E+00  0.10680153419E+04  0.10680153419E+04  0.00000000000E+00 0.  1.
          1   -1    0    0  501    0  0.00000000000E+00 -0.00000000000E+00 -0.32234014644E+04  0.32234014644E+04  0.00000000000E+00 0. -1.
         23    2    1    2    0    0 -0.10505569095E+04 -0.14389566707E+04 -0.48394525298E+03  0.18484717188E+04  0.91534512262E+02 0.  0.
         11    1    3    3    0    0 -0.46929007477E+03 -0.70176222948E+03 -0.25988213652E+03  0.88331315278E+03  0.00000000000E+00 0.  1.
        -11    1    3    3    0    0 -0.58126683473E+03 -0.73719444127E+03 -0.22406311646E+03  0.96515856602E+03  0.00000000000E+00 0. -1.
         22    1    1    2    0    0  0.10505569095E+04  0.14389566707E+04 -0.16714408695E+04  0.24429450875E+04  0.00000000000E+00 0. -1.
<mgrwt>
<rscale>  0 0.37108717E+04</rscale>
<asrwt>0</asrwt>
<pdfrwt beam="1">  1        1 0.49590792E+00 0.37108717E+04</pdfrwt>
<pdfrwt beam="2">  1       -1 0.16431005E+00 0.37108717E+04</pdfrwt>
<totfact> 0.88642810E-02</totfact>
</mgrwt>
</event>
<event>
 6    1  0.1637818E-005  0.1190177E+04  0.7818608E-02  0.9121498E-01
          2   -1    0    0  501    0  0.00000000000E+00  0.00000000000E+00  0.49113083048E+03  0.49113083048E+03  0.00000000000E+00 0.  1.
         -2   -1    0    0    0  501 -0.00000000000E+00 -0.00000000000E+00 -0.72105101505E+03  0.72105101505E+03  0.00000000000E+00 0. -1.
         23    2    1    2    0    0 -0.36749505651E+03 -0.43720761631E+03  0.44495364253E+02  0.57853603771E+03  0.80752666667E+02 0.  0.
         11    1    3    3    0    0 -0.27436062004E+03 -0.35862974277E+03  0.90515011095E+01  0.45163145584E+03  0.00000000000E+00 0.  1.
        -11    1    3    3    0    0 -0.93134436472E+02 -0.78577873537E+02  0.35443863144E+02  0.12690458188E+03  0.00000000000E+00 0. -1.
         22    1    1    2    0    0  0.36749505651E+03  0.43720761631E+03 -0.27441554882E+03  0.63364580781E+03  0.00000000000E+00 0. -1.
<mgrwt>
<rscale>  0 0.11901771E+04</rscale>
<asrwt>0</asrwt>
<pdfrwt beam="1">  1        2 0.75558590E-01 0.11901771E+04</pdfrwt>
<pdfrwt beam="2">  1       -2 0.11093092E+00 0.11901771E+04</pdfrwt>
<totfact> 0.39960911E+01</totfact>
</mgrwt>
</event>
<event>
 6    1  0.1637818E-005  0.1457216E+04  0.7818608E-02  0.8913413E-01
          3   -1    0    0  501    0  0.00000000000E+00  0.00000000000E+00  0.60653688356E+03  0.60653688356E+03  0.00000000000E+00 0. -1.
         -3   -1    0    0    0  501 -0.00000000000E+00 -0.00000000000E+00 -0.87524756512E+03  0.87524756512E+03  0.00000000000E+00 0.  1.
         23    2    1    2    0    0 -0.50287248332E+03 -0.27442700468E+03 -0.58791131920E+03  0.82597962829E+03  0.91715384339E+02 0.  0.
         13    1    3    3    0    0 -0.84402493038E+01 -0.20207527615E+02 -0.38848068284E+02  0.44595452571E+02  0.00000000000E+00 0.  1.
        -13    1    3    3    0    0 -0.49443223402E+03 -0.25421947707E+03 -0.54906325091E+03  0.78138417572E+03  0.00000000000E+00 0. -1.
         22    1    1    2    0    0  0.50287248332E+03  0.27442700468E+03  0.31920063763E+03  0.65580482039E+03  0.00000000000E+00 0. -1.
<mgrwt>
<rscale>  0 0.14572164E+04</rscale>
<asrwt>0</asrwt>
<pdfrwt beam="1">  1        3 0.93313367E-01 0.14572164E+04</pdfrwt>
<pdfrwt beam="2">  1       -3 0.13465347E+00 0.14572164E+04</pdfrwt>
<totfact> 0.11083447E+00</totfact>
</mgrwt>
</event>
<event>
 6    1  0.1637818E-005  0.1690455E+04  0.7818608E-02  0.8766827E-01
          1   -1    0    0  501    0  0.00000000000E+00  0.00000000000E+00  0.33077642456E+04  0.33077642456E+04  0.00000000000E+00 0. -1.
         -1   -1    0    0    0  501 -0.00000000000E+00 -0.00000000000E+00 -0.21597961082E+03  0.21597961082E+03  0.00000000000E+00 0.  1.
         23    2    1    2    0    0 -0.43119776188E+03  0.68024612815E+03  0.10311957619E+04  0.13113485916E+04  0.87201632117E+02 0.  0.
         11    1    3    3    0    0 -0.16120661424E+03  0.19577779487E+03  0.28304588080E+03  0.38004142942E+03  0.00000000000E+00 0. -1.
        -11    1    3    3    0    0 -0.26999114764E+03  0.48446833328E+03  0.74814988106E+03  0.93130716216E+03  0.00000000000E+00 0.  1.
         22    1    1    2    0    0  0.43119776188E+03 -0.68024612815E+03  0.20605888729E+04  0.22123952649E+04  0.00000000000E+00 0.  1.
<mgrwt>
<rscale>  0 0.16904551E+04</rscale>
<asrwt>0</asrwt>
<pdfrwt beam="1">  1        1 0.50888677E+00 0.16904551E+04</pdfrwt>
<pdfrwt beam="2">  1       -1 0.33227635E-01 0.16904551E+04</pdfrwt>
<totfact> 0.28754221E+00</totfact>
</mgrwt>
</event>
<event>
 6    1  0.1637818E-005  0.5411565E+04  0.7818608E-02  0.7767976E-01
          2   -1    0    0  501    0  0.00000000000E+00  0.00000000000E+00  0.44338485586E+04  0.44338485586E+04  0.00000000000E+00 0. -1.
         -2   -1    0    0    0  501 -0.00000000000E+00 -0.00000000000E+00 -0.16512197007E+04  0.16512197007E+04  0.00000000000E+00 0.  1.
         23    2    1    2    0    0 -0.22988236647E+04 -0.14195776542E+04  0.12439003168E+04  0.29758116792E+04  0.91521549910E+02 0.  0.
         11    1    3    3    0    0 -0.21248403879E+04 -0.12826904288E+04  0.11426090924E+04  0.27323610575E+04  0.00000000000E+00 0.  1.
        -11    1    3    3    0    0 -0.17398327681E+03 -0.13688722538E+03  0.10129122447E+03  0.24345062176E+03  0.00000000000E+00 0. -1.
         22    1    1    2    0    0  0.22988236647E+04  0.14195776542E+04  0.15387285410E+04  0.31092565801E+04  0.00000000000E+00 0.  1.
<mgrwt>
<rscale>  0 0.54115647E+04</rscale>
<asrwt>0</asrwt>
<pdfrwt beam="1">  1        2 0.68213054E+00 0.54115647E+04</pdfrwt>
<pdfrwt beam="2">  1       -2 0.25403380E+00 0.54115647E+04</pdfrwt>
<totfact> 0.60393195E-03</totfact>
</mgrwt>
</event>
<event>
 6    1  0.1637818E-005  0.2750539E+04  0.7818608E-02  0.8318791E-01
          2   -1    0    0  501    0  0.00000000000E+00  0.00000000000E+00  0.29005274395E+04  0.29005274395E+04  0.00000000000E+00 0. -1.
         -2   -1    0    0    0  501 -0.00000000000E+00 -0.00000000000E+00 -0.65207670074E+03  0.65207670074E+03  0.00000000000E+00 0.  1.
         23    2    1    2    0    0 -0.62234368206E+03  0.32761530434E+03 -0.39877098423E+03  0.81354840935E+03  0.90549821994E+02 0.  0.
         11    1    3    3    0    0 -0.36567498447E+03  0.23825539893E+03 -0.26544569504E+03  0.51082800080E+03  0.00000000000E+00 0. -1.
        -11    1    3    3    0    0 -0.25666869759E+03  0.89359905407E+02 -0.13332528918E+03  0.30272040855E+03  0.00000000000E+00 0.  1.
         22    1    1    2    0    0  0.62234368206E+03 -0.32761530434E+03  0.26472217230E+04  0.27390557309E+04  0.00000000000E+00 0. -1.
<mgrwt>
<rscale>  0 0.27505391E+04</rscale>
<asrwt>0</asrwt>
<pdfrwt beam="1">  1        2 0.44623498E+00 0.27505391E+04</pdfrwt>
<pdfrwt beam="2">  1       -2 0.10031949E+00 0.27505391E+04</pdfrwt>
<totfact> 0.14373500E+00</totfact>
</mgrwt>
</event>
<event>
 6    1  0.1637818E-005  0.7201954E+03  0.7818608E-02  0.9683305E-01
         -1   -1    0    0    0  501 -0.00000000000E+00  0.00000000000E+00  0.15123320085E+03  0.15123320085E+03  0.00000000000E+00 0.  1.
          1   -1    0    0  501    0  0.00000000000E+00 -0.00000000000E+00 -0.85741992367E+03  0.85741992367E+03  0.00000000000E+00 0. -1.
         23    2    1    2    0    0 -0.29121825341E+03 -0.10372797887E+03 -0.11555706992E+03  0.34201157796E+03  0.89726909747E+02 0.  0.
         13    1    3    3    0    0 -0.69707764415E+02 -0.64551771342E+01  0.78185434366E+01  0.70441261722E+02  0.00000000000E+00 0. -1.
        -13    1    3    3    0    0 -0.22151048900E+03 -0.97272801733E+02 -0.12337561335E+03  0.27157031624E+03  0.00000000000E+00 0.  1.
         22    1    1    2    0    0  0.29121825341E+03  0.10372797887E+03 -0.59062965290E+03  0.66664154656E+03  0.00000000000E+00 0. -1.
<mgrwt>
<rscale>  0 0.72019542E+03</rscale>
<asrwt>0</asrwt>
<pdfrwt beam="1">  1        1 0.13191076E+00 0.72019542E+03</pdfrwt>
<pdfrwt beam="2">  1       -1 0.23266647E-01 0.72019542E+03</pdfrwt>
<totfact> 0.31616037E+02</totfact>
</mgrwt>
</event>
<event>
 6    1  0.1637818E-005  0.1748049E+04  0.7818608E-02  0.8734425E-01
         -2   -1    0    0    0  501 -0.00000000000E+00  0.00000000000E+00  0.11414905319E+04  0.11414905319E+04  0.00000000000E+00 0.  1.
          2   -1    0    0  501    0  0.00000000000E+00 -0.00000000000E+00 -0.66922958354E+03  0.66922958354E+03  0.00000000000E+00 0. -1.
         23    2    1    2    0    0 -0.30580609650E+03 -0.32313493407E+03 -0.53962311559E+03  0.70535008094E+03  0.91608272133E+02 0.  0.
         11    1    3    3    0    0 -0.27097038521E+03 -0.26350419802E+03 -0.49625522581E+03  0.62380178036E+03  0.00000000000E+00 0. -1.
        -11    1    3    3    0    0 -0.34835711290E+02 -0.59630736051E+02 -0.43367889781E+02  0.81548300578E+02  0.00000000000E+00 0.  1.
         22    1    1    2    0    0  0.30580609650E+03  0.32313493407E+03  0.10118840640E+04  0.11053700345E+04  0.00000000000E+00 0.  1.
<mgrwt>
<rscale>  0 0.17480495E+04</rscale>
<asrwt>0</asrwt>
<pdfrwt beam="1">  1        2 0.10295840E+00 0.17480495E+04</pdfrwt>
<pdfrwt beam="2">  1       -2 0.17561393E+00 0.17480495E+04</pdfrwt>
<totfact> 0.79900263E+00</totfact>
</mgrwt>
</event>
<event>
 6    1  0.1637818E-005  0.3922874E+04  0.7818608E-02  0.8020289E-01
         -2   -1    0    0    0  501 -0.00000000000E+00  0.00000000000E+00  0.16447130338E+04  0.16447130338E+04  0.00000000000E+00 0. -1.
          2   -1    0    0  501    0  0.00000000000E+00 -0.00000000000E+00 -0.23391530041E+04  0.23391530041E+04  0.00000000000E+00 0.  1.
         23    2    1    2    0    0 -0.28062166891E+03  0.49039009148E+03 -0.22537529268E+04  0.23253462584E+04  0.92746988196E+02 0.  0.
         13    1    3    3    0    0 -0.15001149136E+03  0.22121089919E+03 -0.12336744275E+04  0.12622956478E+04  0.00000000000E+00 0.  1.
        -13    1    3    3    0    0 -0.13061017755E+03  0.26917919229E+03 -0.10200784993E+04  0.10630506106E+04  0.00000000000E+00 0. -1.
         22    1    1    2    0    0  0.28062166891E+03 -0.49039009148E+03  0.15593129565E+04  0.16585197795E+04  0.00000000000E+00 0. -1.
<mgrwt>
<rscale>  0 0.39228742E+04</rscale>
<asrwt>0</asrwt>
<pdfrwt beam="1">  1        2 0.35986969E+00 0.39228742E+04</pdfrwt>
<pdfrwt beam="2">  1       -2 0.25303278E+00 0.39228742E+04</pdfrwt>
<totfact> 0.21048100E-01</totfact>
</mgrwt>
</event>
<event>
 6    1  0.1637818E-005  0.4544264E+04  0.7818608E-02  0.7902933E-01
         -2   -1    0    0    0  501 -0.00000000000E+00  0.00000000000E+00  0.22362729763E+04  0.22362729763E+04  0.00000000000E+00 0.  1.
          2   -1    0    0  501    0  0.00000000000E+00 -0.00000000000E+00 -0.23085663942E+04  0.23085663942E+04  0.00000000000E+00 0. -1.
         23    2    1    2    0    0  0.88009392408E+03 -0.20889545777E+04 -0.18237128079E+03  0.22753870844E+04  0.76358082300E+02 0.  0.
         11    1    3    3    0    0  0.29675149580E+03 -0.73434767134E+03 -0.29140391287E+02  0.79257625189E+03  0.00000000000E+00 0. -1.
        -11    1    3    3    0    0  0.58334242828E+03 -0.13546069064E+04 -0.15323088951E+03  0.14828108325E+04  0.00000000000E+00 0.  1.
         22    1    1    2    0    0 -0.88009392408E+03  0.20889545777E+04  0.11007786294E+03  0.22694522861E+04  0.00000000000E+00 0. -1.
<mgrwt>
<rscale>  0 0.45442644E+04</rscale>
<asrwt>0</asrwt>
<pdfrwt beam="1">  1        2 0.35516406E+00 0.45442644E+04</pdfrwt>
<pdfrwt beam="2">  1       -2 0.34404200E+00 0.45442644E+04</pdfrwt>
<totfact> 0.57410275E-02</totfact>
</mgrwt>
</event>
<event>
 6    1  0.1637818E-005  0.2101344E+04  0.7818608E-02  0.8560651E-01
         -1   -1    0    0    0  501 -0.00000000000E+00  0.00000000000E+00  0.89554602512E+03  0.89554602512E+03  0.00000000000E+00 0.  1.
          1   -1    0    0  501    0  0.00000000000E+00 -0.00000000000E+00 -0.12326690720E+04  0.12326690720E+04  0.00000000000E+00 0. -1.
         23    2    1    2    0    0  0.52765863896E+03 -0.90618269113E+03 -0.14978717988E+03  0.10629989519E+04  0.89105911652E+02 0.  0.
         11    1    3    3    0    0  0.18198480928E+03 -0.23446599019E+03 -0.50221321884E+02  0.30102317608E+03  0.00000000000E+00 0.  1.
        -11    1    3    3    0    0  0.34567382968E+03 -0.67171670094E+03 -0.99565857998E+02  0.76197577582E+03  0.00000000000E+00 0. -1.
         22    1    1    2    0    0 -0.52765863896E+03  0.90618269113E+03 -0.18733586699E+03  0.10652161452E+04  0.00000000000E+00 0. -1.
<mgrwt>
<rscale>  0 0.21013442E+04</rscale>
<asrwt>0</asrwt>
<pdfrwt beam="1">  1        1 0.18964140E+00 0.21013442E+04</pdfrwt>
<pdfrwt beam="2">  1       -1 0.13777631E+00 0.21013442E+04</pdfrwt>
<totfact> 0.40656343E+00</totfact>
</mgrwt>
</event>
<event>
 6    1  0.1637818E-005  0.1112884E+04  0.7818608E-02  0.9192724E-01
          1   -1    0    0  501    0  0.00000000000E+00  0.00000000000E+00  0.10127054050E+04  0.10127054050E+04  0.00000000000E+00 0. -1.
         -1   -1    0    0    0  501 -0.00000000000E+00 -0.00000000000E+00 -0.30574311113E+03  0.30574311113E+03  0.00000000000E+00 0.  1.
         23    2    1    2    0    0  0.45860882539E+03  0.33762043001E+02  0.71932876395E+03  0.85843236442E+03  0.89500409845E+02 0.  0.
         13    1    3    3    0    0  0.34362273944E+03 -0.62554368807E+01  0.48588516491E+03  0.59514713393E+03  0.00000000000E+00 0.  1.
        -13    1    3    3    0    0  0.11498608595E+03  0.40017479882E+02  0.23344359904E+03  0.26328523049E+03  0.00000000000E+00 0. -1.
         22    1    1    2    0    0 -0.45860882539E+03 -0.33762043001E+02 -0.12366470066E+02  0.46001615173E+03  0.00000000000E+00 0.  1.
<mgrwt>
<rscale>  0 0.11128840E+04</rscale>
<asrwt>0</asrwt>
<pdfrwt beam="1">  1        1 0.15580083E+00 0.11128840E+04</pdfrwt>
<pdfrwt beam="2">  1       -1 0.47037402E-01 0.11128840E+04</pdfrwt>
<totfact> 0.66329309E+01</totfact>
</mgrwt>
</event>
<event>
 6    1  0.1637818E-005  0.3626430E+04  0.7818608E-02  0.8084464E-01
         -2   -1    0    0    0  501 -0.00000000000E+00  0.00000000000E+00  0.12221197363E+04  0.12221197363E+04  0.00000000000E+00 0.  1.
          2   -1    0    0  501    0  0.00000000000E+00 -0.00000000000E+00 -0.26902024378E+04  0.26902024378E+04  0.00000000000E+00 0. -1.
         23    2    1    2    0    0  0.12357152073E+04  0.11111047723E+04 -0.15139801622E+04  0.22498985021E+04  0.91440963785E+02 0.  0.
         13    1    3    3    0    0  0.99014463738E+03  0.84178259880E+03 -0.11670287163E+04  0.17466941264E+04  0.00000000000E+00 0. -1.
        -13    1    3    3    0    0  0.24557056992E+03  0.26932217346E+03 -0.34695144591E+03  0.50320437572E+03  0.00000000000E+00 0.  1.
         22    1    1    2    0    0 -0.12357152073E+04 -0.11111047723E+04  0.45897460685E+02  0.16624236720E+04  0.00000000000E+00 0.  1.
<mgrwt>
<rscale>  0 0.36264305E+04</rscale>
<asrwt>0</asrwt>
<pdfrwt beam="1">  1        2 0.41387729E+00 0.36264305E+04</pdfrwt>
<pdfrwt beam="2">  1       -2 0.18801842E+00 0.36264305E+04</pdfrwt>
<totfact> 0.34977635E-01</totfact>
</mgrwt>
</event>
<event>
 6    1  0.1637818E-005  0.3724715E+04  0.7818608E-02  0.8062507E-01
         -2   -1    0    0    0  501 -0.00000000000E+00  0.00000000000E+00  0.95273968175E+03  0.95273968175E+03  0.00000000000E+00 0.  1.
          2   -1    0    0  501    0  0.00000000000E+00 -0.00000000000E+00 -0.36404233716E+04  0.36404233716E+04  0.00000000000E+00 0. -1.
         23    2    1    2    0    0 -0.29887168362E+03 -0.18322719212E+04 -0.15082183404E+04  0.23936896648E+04  0.92103055173E+02 0.  0.
         13    1    3    3    0    0 -0.11918757612E+03 -0.76731033205E+03 -0.57311239702E+03  0.96510550904E+03  0.00000000000E+00 0. -1.
        -13    1    3    3    0    0 -0.17968410750E+03 -0.10649615891E+04 -0.93510594336E+03  0.14285841558E+04  0.00000000000E+00 0.  1.
         22    1    1    2    0    0  0.29887168362E+03  0.18322719212E+04 -0.11794653495E+04  0.21994733886E+04  0.00000000000E+00 0. -1.
<mgrwt>
<rscale>  0 0.37247152E+04</rscale>
<asrwt>0</asrwt>
<pdfrwt beam="1">  1        2 0.56006514E+00 0.37247152E+04</pdfrwt>
<pdfrwt beam="2">  1       -2 0.14657533E+00 0.37247152E+04</pdfrwt>
<totfact> 0.16549803E-01</totfact>
</mgrwt>
</event>
<event>
 6    1  0.1637818E-005  0.4650722E+04  0.7818608E-02  0.7884768E-01
          2   -1    0    0  501    0  0.00000000000E+00  0.00000000000E+00  0.18834335177E+04  0.18834335177E+04  0.00000000000E+00 0. -1.
         -2   -1    0    0    0  501 -0.00000000000E+00 -0.00000000000E+00 -0.28709815536E+04  0.28709815536E+04  0.00000000000E+00 0.  1.
         23    2    1    2    0    0  0.13339373885E+04 -0.19013361202E+04 -0.58627014662E+03  0.23974059617E+04  0.96822839444E+02 0.  0.
         11    1    3    3    0    0  0.12674564960E+04 -0.17650627325E+04 -0.54817703094E+03  0.22410690476E+04  0.00000000000E+00 0. -1.
        -11    1    3    3    0    0  0.66480892530E+02 -0.13627338774E+03 -0.38093115675E+02  0.15633691419E+03  0.00000000000E+00 0.  1.
         22    1    1    2    0    0 -0.13339373885E+04  0.19013361202E+04 -0.40127788925E+03  0.23570091096E+04  0.00000000000E+00 0.  1.
<mgrwt>
<rscale>  0 0.46507216E+04</rscale>
<asrwt>0</asrwt>
<pdfrwt beam="1">  1        2 0.28975900E+00 0.46507216E+04</pdfrwt>
<pdfrwt beam="2">  1       -2 0.44168947E+00 0.46507216E+04</pdfrwt>
<totfact> 0.22903320E-02</totfact>
</mgrwt>
</event>
<event>
 6    1  0.1637818E-005  0.1799801E+04  0.7818608E-02  0.8706405E-01
         -1   -1    0    0    0  501 -0.00000000000E+00  0.00000000000E+00  0.48723677710E+03  0.48723677710E+03  0.00000000000E+00 0.  1.
          1   -1    0    0  501    0  0.00000000000E+00 -0.00000000000E+00 -0.16620691710E+04  0.16620691710E+04  0.00000000000E+00 0. -1.
         23    2    1    2    0    0  0.58323614848E+03  0.57221371731E+03 -0.14422203978E+03  0.83410609819E+03  0.85674051545E+02 0.  0.
         13    1    3    3    0    0  0.16512369550E+03  0.21351902912E+03 -0.64034085687E+02  0.27741048059E+03  0.00000000000E+00 0. -1.
        -13    1    3    3    0    0  0.41811245298E+03  0.35869468819E+03 -0.80187954096E+02  0.55669561760E+03  0.00000000000E+00 0.  1.
         22    1    1    2    0    0 -0.58323614848E+03 -0.57221371731E+03 -0.10306103541E+04  0.13151998499E+04  0.00000000000E+00 0. -1.
<mgrwt>
<rscale>  0 0.17998014E+04</rscale>
<asrwt>0</asrwt>
<pdfrwt beam="1">  1        1 0.25570296E+00 0.17998014E+04</pdfrwt>
<pdfrwt beam="2">  1       -1 0.74959502E-01 0.17998014E+04</pdfrwt>
<totfact> 0.85444595E+00</totfact>
</mgrwt>
</event>
<event>
 6    1  0.1637818E-005  0.5175374E+04  0.7818608E-02  0.7802009E-01
         -2   -1    0    0    0  501 -0.00000000000E+00  0.00000000000E+00  0.42836165097E+04  0.42836165097E+04  0.00000000000E+00 0. -1.
          2   -1    0    0  501    0  0.00000000000E+00 -0.00000000000E+00 -0.15631941113E+04  0.15631941113E+04  0.00000000000E+00 0.  1.
         23    2    1    2    0    0  0.16408279954E+04 -0.38550001662E+03  0.35776311566E+04  0.39558495880E+04  0.91512279562E+02 0.  0.
         11    1    3    3    0    0  0.54325967256E+03 -0.15515822617E+03  0.11202117602E+04  0.12546232640E+04  0.00000000000E+00 0. -1.
        -11    1    3    3    0    0  0.10975683228E+04 -0.23034179045E+03  0.24574193964E+04  0.27012263240E+04  0.00000000000E+00 0.  1.
         22    1    1    2    0    0 -0.16408279954E+04  0.38550001662E+03 -0.85720875821E+03  0.18909610330E+04  0.00000000000E+00 0.  1.
<mgrwt>
<rscale>  0 0.51753740E+04</rscale>
<asrwt>0</asrwt>
<pdfrwt beam="1">  1        2 0.24049140E+00 0.51753740E+04</pdfrwt>
<pdfrwt beam="2">  1       -2 0.65901792E+00 0.51753740E+04</pdfrwt>
<totfact> 0.26641862E-03</totfact>
</mgrwt>
</event>
<event>
 6    1  0.1637818E-005  0.2272660E+04  0.7818608E-02  0.8488780E-01
          3   -1    0    0  501    0  0.00000000000E+00  0.00000000000E+00  0.18091626473E+04  0.18091626473E+04  0.00000000000E+00 0. -1.
         -3   -1    0    0    0  501 -0.00000000000E+00 -0.00000000000E+00 -0.71372574105E+03  0.71372574105E+03  0.00000000000E+00 0.  1.
         23    2    1    2    0    0  0.42204397607E+03 -0.10352100226E+04  0.33444635814E+03  0.11705247083E+04  0.92156484955E+02 0.  0.
         13    1    3    3    0    0  0.26243932340E+03 -0.75352155930E+03  0.23288712782E+03  0.83120728648E+03  0.00000000000E+00 0. -1.
        -13    1    3    3    0    0  0.15960465267E+03 -0.28168846332E+03  0.10155923032E+03  0.33931742186E+03  0.00000000000E+00 0.  1.
         22    1    1    2    0    0 -0.42204397607E+03  0.10352100226E+04  0.76099054809E+03  0.13523636800E+04  0.00000000000E+00 0.  1.
<mgrwt>
<rscale>  0 0.22726601E+04</rscale>
<asrwt>0</asrwt>
<pdfrwt beam="1">  1        3 0.27833271E+00 0.22726601E+04</pdfrwt>
<pdfrwt beam="2">  1       -3 0.10980396E+00 0.22726601E+04</pdfrwt>
<totfact> 0.84737759E-02</totfact>
</mgrwt>
</event>
<event>
 6    1  0.1637818E-005  0.1166721E+04  0.7818608E-02  0.9142495E-01
         -2   -1    0    0    0  501 -0.00000000000E+00  0.00000000000E+00  0.27595035869E+03  0.27595035869E+03  0.00000000000E+00 0. -1.
          2   -1    0    0  501    0  0.00000000000E+00 -0.00000000000E+00 -0.12332273846E+04  0.12332273846E+04  0.00000000000E+00 0.  1.
         23    2    1    2    0    0  0.97095461563E+02 -0.44349745170E+03 -0.14789625911E+02  0.46304198849E+03  0.89842260380E+02 0.  0.
         13    1    3    3    0    0  0.91105165652E+02 -0.20700718737E+03 -0.11290298646E+02  0.22644998935E+03  0.00000000000E+00 0.  1.
        -13    1    3    3    0    0  0.59902959111E+01 -0.23649026433E+03 -0.34993272659E+01  0.23659199914E+03  0.00000000000E+00 0. -1.
         22    1    1    2    0    0 -0.97095461563E+02  0.44349745170E+03 -0.94248739997E+03  0.10461357548E+04  0.00000000000E+00 0.  1.
<mgrwt>
<rscale>  0 0.11667211E+04</rscale>
<asrwt>0</asrwt>
<pdfrwt beam="1">  1        2 0.18972729E+00 0.11667211E+04</pdfrwt>
<pdfrwt beam="2">  1       -2 0.42453901E-01 0.11667211E+04</pdfrwt>
<totfact> 0.94058748E+01</totfact>
</mgrwt>
</event>
<event>
 6    1  0.1637818E-005  0.2075462E+04  0.7818608E-02  0.8572130E-01
         -1   -1    0    0    0  501 -0.00000000000E+00  0.00000000000E+00  0.16494644436E+04  0.16494644436E+04  0.00000000000E+00 0.  1.
          1   -1    0    0  501    0  0.00000000000E+00 -0.00000000000E+00 -0.65287003903E+03  0.65287003903E+03  0.00000000000E+00 0. -1.
         23    2    1    2    0    0 -0.10052591840E+04 -0.13709664722E+03  0.26829765411E+03  0.10534318945E+04  0.91616633160E+02 0.  0.
         13    1    3    3    0    0 -0.37030948868E+03 -0.10269176965E+02  0.11712188647E+03  0.38852555861E+03  0.00000000000E+00 0. -1.
        -13    1    3    3    0    0 -0.63494969536E+03 -0.12682747025E+03  0.15117576764E+03  0.66490633594E+03  0.00000000000E+00 0.  1.
         22    1    1    2    0    0  0.10052591840E+04  0.13709664722E+03  0.72829675046E+03  0.12489025881E+04  0.00000000000E+00 0.  1.
<mgrwt>
<rscale>  0 0.20754623E+04</rscale>
<asrwt>0</asrwt>
<pdfrwt beam="1">  1        1 0.10044155E+00 0.20754623E+04</pdfrwt>
<pdfrwt beam="2">  1       -1 0.25376376E+00 0.20754623E+04</pdfrwt>
<totfact> 0.18372568E+00</totfact>
</mgrwt>
</event>
<event>
 6    1  0.1637818E-005  0.5032398E+03  0.7818608E-02  0.1012937E+00
         -1   -1    0    0    0  501 -0.00000000000E+00  0.00000000000E+00  0.49945742963E+03  0.49945742963E+03  0.00000000000E+00 0.  1.
          1   -1    0    0  501    0  0.00000000000E+00 -0.00000000000E+00 -0.12676268440E+03  0.12676268440E+03  0.00000000000E+00 0. -1.
         23    2    1    2    0    0 -0.18726463500E+03 -0.43806652927E+02  0.76211210621E+01  0.21358732641E+03  0.92598046175E+02 0.  0.
         13    1    3    3    0    0 -0.34184390222E+02  0.35524748883E+01  0.37194868637E+02  0.50642382109E+02  0.00000000000E+00 0. -1.
        -13    1    3    3    0    0 -0.15308024477E+03 -0.47359127816E+02 -0.29573747575E+02  0.16294494430E+03  0.00000000000E+00 0.  1.
         22    1    1    2    0    0  0.18726463500E+03  0.43806652927E+02  0.36507362416E+03  0.41263278762E+03  0.00000000000E+00 0.  1.
<mgrwt>
<rscale>  0 0.50323976E+03</rscale>
<asrwt>0</asrwt>
<pdfrwt beam="1">  1        1 0.19501952E-01 0.50323976E+03</pdfrwt>
<pdfrwt beam="2">  1       -1 0.76839604E-01 0.50323976E+03</pdfrwt>
<totfact> 0.46704904E+02</totfact>
</mgrwt>
</event>
<event>
 6    1  0.1637818E-005  0.2651801E+04  0.7818608E-02  0.8350815E-01
          2   -1    0    0  501    0  0.00000000000E+00  0.00000000000E+00  0.11916120908E+04  0.11916120908E+04  0.00000000000E+00 0. -1.
         -2   -1    0    0    0  501 -0.00000000000E+00 -0.00000000000E+00 -0.14753224832E+04  0.14753224832E+04  0.00000000000E+00 0.  1.
         23    2    1    2    0    0  0.12830654173E+03  0.90059419386E+03 -0.11099270113E+04  0.14380463074E+04  0.92231996374E+02 0.  0.
         11    1    3    3    0    0  0.76972188045E+02  0.55853709987E+03 -0.61624005369E+03  0.83524859379E+03  0.00000000000E+00 0.  1.
        -11    1    3    3    0    0  0.51334353686E+02  0.34205709399E+03 -0.49368695760E+03  0.60279771360E+03  0.00000000000E+00 0. -1.
         22    1    1    2    0    0 -0.12830654173E+03 -0.90059419386E+03  0.82621661879E+03  0.12288882666E+04  0.00000000000E+00 0. -1.
<mgrwt>
<rscale>  0 0.26518010E+04</rscale>
<asrwt>0</asrwt>
<pdfrwt beam="1">  1        2 0.18332494E+00 0.26518010E+04</pdfrwt>
<pdfrwt beam="2">  1       -2 0.22697269E+00 0.26518010E+04</pdfrwt>
<totfact> 0.15073684E+00</totfact>
</mgrwt>
</event>
<event>
 6    1  0.1637818E-005  0.7471601E+03  0.7818608E-02  0.9639816E-01
         -1   -1    0    0    0  501 -0.00000000000E+00  0.00000000000E+00  0.43368393824E+03  0.43368393824E+03  0.00000000000E+00 0.  1.
          1   -1    0    0  501    0  0.00000000000E+00 -0.00000000000E+00 -0.32180589457E+03  0.32180589457E+03  0.00000000000E+00 0. -1.
         23    2    1    2    0    0 -0.13881080705E+03 -0.31386347126E+03 -0.79524960407E+02  0.36253458253E+03  0.85605989609E+02 0.  0.
         13    1    3    3    0    0  0.17655878944E+01 -0.20721234150E+02 -0.25606351330E+02  0.32987453277E+02  0.00000000000E+00 0. -1.
        -13    1    3    3    0    0 -0.14057639495E+03 -0.29314223711E+03 -0.53918609077E+02  0.32954712925E+03  0.00000000000E+00 0.  1.
         22    1    1    2    0    0  0.13881080705E+03  0.31386347126E+03  0.19140300408E+03  0.39295525027E+03  0.00000000000E+00 0.  1.
<mgrwt>
<rscale>  0 0.74716008E+03</rscale>
<asrwt>0</asrwt>
<pdfrwt beam="1">  1        1 0.49508599E-01 0.74716008E+03</pdfrwt>
<pdfrwt beam="2">  1       -1 0.66720606E-01 0.74716008E+03</pdfrwt>
<totfact> 0.18453403E+02</totfact>
</mgrwt>
</event>
<event>
 6    1  0.1637818E-005  0.2541423E+04  0.7818608E-02  0.8388375E-01
         -1   -1    0    0    0  501 -0.00000000000E+00  0.00000000000E+00  0.60389922363E+03  0.60389922363E+03  0.00000000000E+00 0.  1.
          1   -1    0    0  501    0  0.00000000000E+00 -0.00000000000E+00 -0.26738024750E+04  0.26738024750E+04  0.00000000000E+00 0. -1.
         23    2    1    2    0    0 -0.60724444171E+02 -0.91139313529E+03 -0.21727432799E+04  0.23585167463E+04  0.86388523627E+02 0.  0.
         13    1    3    3    0    0  0.94714745496E+00 -0.50075017553E+03 -0.12543534197E+04  0.13506125044E+04  0.00000000000E+00 0. -1.
        -13    1    3    3    0    0 -0.61671591626E+02 -0.41064295976E+03 -0.91838986015E+03  0.10079042419E+04  0.00000000000E+00 0.  1.
         22    1    1    2    0    0  0.60724444171E+02  0.91139313529E+03  0.10284002850E+03  0.91918495236E+03  0.00000000000E+00 0.  1.
<mgrwt>
<rscale>  0 0.25414226E+04</rscale>
<asrwt>0</asrwt>
<pdfrwt beam="1">  1        1 0.41135423E+00 0.25414226E+04</pdfrwt>
<pdfrwt beam="2">  1       -1 0.92907572E-01 0.25414226E+04</pdfrwt>
<totfact> 0.10199993E+00</totfact>
</mgrwt>
</event>
<event>
 6    1  0.1637818E-005  0.3000740E+04  0.7818608E-02  0.8243520E-01
          2   -1    0    0  501    0  0.00000000000E+00  0.00000000000E+00  0.35692485593E+04  0.35692485593E+04  0.00000000000E+00 0. -1.
         -2   -1    0    0    0  501 -0.00000000000E+00 -0.00000000000E+00 -0.63069570401E+03  0.63069570401E+03  0.00000000000E+00 0.  1.
         23    2    1    2    0    0 -0.56675577299E+03 -0.58405571893E+03 -0.29116053109E+03  0.86927139628E+03  0.92331557467E+02 0.  0.
         11    1    3    3    0    0 -0.16263770664E+03 -0.14650988103E+03 -0.11960053433E+03  0.24944028679E+03  0.00000000000E+00 0.  1.
        -11    1    3    3    0    0 -0.40411806634E+03 -0.43754583790E+03 -0.17155999676E+03  0.61983110949E+03  0.00000000000E+00 0. -1.
         22    1    1    2    0    0  0.56675577299E+03  0.58405571893E+03  0.32297133863E+04  0.33306728670E+04  0.00000000000E+00 0. -1.
<mgrwt>
<rscale>  0 0.30007397E+04</rscale>
<asrwt>0</asrwt>
<pdfrwt beam="1">  1        2 0.54911515E+00 0.30007397E+04</pdfrwt>
<pdfrwt beam="2">  1       -2 0.97030110E-01 0.30007397E+04</pdfrwt>
<totfact> 0.55096031E-01</totfact>
</mgrwt>
</event>
<event>
 6    1  0.1637818E-005  0.6014939E+04  0.7818608E-02  0.7688552E-01
          2   -1    0    0  501    0  0.00000000000E+00  0.00000000000E+00  0.33041582659E+04  0.33041582659E+04  0.00000000000E+00 0. -1.
         -2   -1    0    0    0  501 -0.00000000000E+00 -0.00000000000E+00 -0.27374212000E+04  0.27374212000E+04  0.00000000000E+00 0.  1.
         23    2    1    2    0    0  0.12026589071E+04  0.62571225914E+03  0.29790959038E+04  0.32743824291E+04  0.93078512608E+02 0.  0.
         13    1    3    3    0    0  0.20104314640E+03  0.14505428295E+03  0.54337794392E+03  0.59725930855E+03  0.00000000000E+00 0. -1.
        -13    1    3    3    0    0  0.10016157607E+04  0.48065797619E+03  0.24357179599E+04  0.26771231205E+04  0.00000000000E+00 0.  1.
         22    1    1    2    0    0 -0.12026589071E+04 -0.62571225914E+03 -0.24123588378E+04  0.27671970368E+04  0.00000000000E+00 0.  1.
<mgrwt>
<rscale>  0 0.60149390E+04</rscale>
<asrwt>0</asrwt>
<pdfrwt beam="1">  1        2 0.50833204E+00 0.60149390E+04</pdfrwt>
<pdfrwt beam="2">  1       -2 0.42114172E+00 0.60149390E+04</pdfrwt>
<totfact> 0.40141258E-03</totfact>
</mgrwt>
</event>
<event>
 6    1  0.1637818E-005  0.1796528E+04  0.7818608E-02  0.8708148E-01
          1   -1    0    0  501    0  0.00000000000E+00  0.00000000000E+00  0.15527640191E+04  0.15527640191E+04  0.00000000000E+00 0. -1.
         -1   -1    0    0    0  501 -0.00000000000E+00 -0.00000000000E+00 -0.51963996538E+03  0.51963996538E+03  0.00000000000E+00 0.  1.
         23    2    1    2    0    0 -0.12632731633E+03 -0.84298270466E+03  0.83641971048E+03  0.11976062765E+04  0.89913460012E+02 0.  0.
         11    1    3    3    0    0 -0.59803859435E+02 -0.65293911191E+03  0.64770229813E+03  0.92164214990E+03  0.00000000000E+00 0.  1.
        -11    1    3    3    0    0 -0.66523456892E+02 -0.19004359275E+03  0.18871741234E+03  0.27596412663E+03  0.00000000000E+00 0. -1.
         22    1    1    2    0    0  0.12632731633E+03  0.84298270466E+03  0.19670434327E+03  0.87479770797E+03  0.00000000000E+00 0.  1.
<mgrwt>
<rscale>  0 0.17965280E+04</rscale>
<asrwt>0</asrwt>
<pdfrwt beam="1">  1        1 0.23888677E+00 0.17965280E+04</pdfrwt>
<pdfrwt beam="2">  1       -1 0.79944611E-01 0.17965280E+04</pdfrwt>
<totfact> 0.88676359E+00</totfact>
</mgrwt>
</event>
<event>
 6    1  0.1637818E-005  0.4452678E+04  0.7818608E-02  0.7918974E-01
         -2   -1    0    0    0  501 -0.00000000000E+00  0.00000000000E+00  0.30449954479E+04  0.30449954479E+04  0.00000000000E+00 0.  1.
          2   -1    0    0  501    0  0.00000000000E+00 -0.00000000000E+00 -0.16277810958E+04  0.16277810958E+04  0.00000000000E+00 0. -1.
         23    2    1    2    0    0 -0.50473556005E+03 -0.21668826762E+04  0.64621373118E+03  0.23180832567E+04  0.76021579848E+02 0.  0.
         13    1    3    3    0    0 -0.31200729037E+03 -0.14933399034E+04  0.44834112675E+03  0.15901013748E+04  0.00000000000E+00 0.  1.
        -13    1    3    3    0    0 -0.19272826968E+03 -0.67354277286E+03  0.19787260443E+03  0.72798188191E+03  0.00000000000E+00 0. -1.
         22    1    1    2    0    0  0.50473556005E+03  0.21668826762E+04  0.77100062091E+03  0.23546932869E+04  0.00000000000E+00 0. -1.
<mgrwt>
<rscale>  0 0.44526783E+04</rscale>
<asrwt>0</asrwt>
<pdfrwt beam="1">  1        2 0.25042786E+00 0.44526783E+04</pdfrwt>
<pdfrwt beam="2">  1       -2 0.46846084E+00 0.44526783E+04</pdfrwt>
<totfact> 0.21518625E-02</totfact>
</mgrwt>
</event>
<event>
 6    1  0.1637818E-005  0.2664904E+04  0.7818608E-02  0.8346483E-01
         -1   -1    0    0    0  501 -0.00000000000E+00  0.00000000000E+00  0.11361544254E+04  0.11361544254E+04  0.00000000000E+00 0.  1.
          1   -1    0    0  501    0  0.00000000000E+00 -0.00000000000E+00 -0.15626649927E+04  0.15626649927E+04  0.00000000000E+00 0. -1.
         23    2    1    2    0    0  0.36719244919E+03  0.85873324410E+03  0.74668092613E+03  0.11992757010E+04  0.92069117212E+02 0.  0.
         11    1    3    3    0    0  0.72389365420E+02  0.93507727543E+02  0.10178931617E+03  0.15602878011E+03  0.00000000000E+00 0.  1.
        -11    1    3    3    0    0  0.29480308377E+03  0.76522551656E+03  0.64489160996E+03  0.10432469209E+04  0.00000000000E+00 0. -1.
         22    1    1    2    0    0 -0.36719244919E+03 -0.85873324410E+03 -0.11731914934E+04  0.14995437171E+04  0.00000000000E+00 0. -1.
<mgrwt>
<rscale>  0 0.26649043E+04</rscale>
<asrwt>0</asrwt>
<pdfrwt beam="1">  1        1 0.24041000E+00 0.26649043E+04</pdfrwt>
<pdfrwt beam="2">  1       -1 0.17479299E+00 0.26649043E+04</pdfrwt>
<totfact> 0.11769235E+00</totfact>
</mgrwt>
</event>
<event>
 6    1  0.1637818E-005  0.2755451E+04  0.7818608E-02  0.8317234E-01
         -1   -1    0    0    0  501 -0.00000000000E+00  0.00000000000E+00  0.14824665104E+04  0.14824665104E+04  0.00000000000E+00 0.  1.
          1   -1    0    0  501    0  0.00000000000E+00 -0.00000000000E+00 -0.12803850541E+04  0.12803850541E+04  0.00000000000E+00 0. -1.
         23    2    1    2    0    0 -0.79833764842E+03  0.67004846744E+03  0.10021097215E+04  0.14489439671E+04  0.94375718293E+02 0.  0.
         11    1    3    3    0    0 -0.22655940140E+03  0.21700602626E+03  0.24986515786E+03  0.40106530005E+03  0.00000000000E+00 0. -1.
        -11    1    3    3    0    0 -0.57177824702E+03  0.45304244117E+03  0.75224456362E+03  0.10478786670E+04  0.00000000000E+00 0.  1.
         22    1    1    2    0    0  0.79833764842E+03 -0.67004846744E+03 -0.80002826521E+03  0.13139075975E+04  0.00000000000E+00 0. -1.
<mgrwt>
<rscale>  0 0.27554513E+04</rscale>
<asrwt>0</asrwt>
<pdfrwt beam="1">  1        1 0.19698232E+00 0.27554513E+04</pdfrwt>
<pdfrwt beam="2">  1       -1 0.22807177E+00 0.27554513E+04</pdfrwt>
<totfact> 0.78937368E-01</totfact>
</mgrwt>
</event>
<event>
 6    1  0.1637818E-005  0.4168844E+04  0.7818608E-02  0.7971325E-01
         -1   -1    0    0    0  501 -0.00000000000E+00  0.00000000000E+00  0.25008484493E+04  0.25008484493E+04  0.00000000000E+00 0.  1.
          1   -1    0    0  501    0  0.00000000000E+00 -0.00000000000E+00 -0.17373363645E+04  0.17373363645E+04  0.00000000000E+00 0. -1.
         23    2    1    2    0    0 -0.15049925903E+04 -0.85479932706E+03  0.15609330207E+04  0.23325183332E+04  0.91898276617E+02 0.  0.
         13    1    3    3    0    0 -0.92716181715E+03 -0.50909520136E+03  0.10100454737E+04  0.14625316469E+04  0.00000000000E+00 0.  1.
        -13    1    3    3    0    0 -0.57783077313E+03 -0.34570412570E+03  0.55088754701E+03  0.86998668631E+03  0.00000000000E+00 0. -1.
         22    1    1    2    0    0  0.15049925903E+04  0.85479932706E+03 -0.79742093588E+03  0.19056664806E+04  0.00000000000E+00 0. -1.
<mgrwt>
<rscale>  0 0.41688439E+04</rscale>
<asrwt>0</asrwt>
<pdfrwt beam="1">  1        1 0.26728252E+00 0.41688439E+04</pdfrwt>
<pdfrwt beam="2">  1       -1 0.38474592E+00 0.41688439E+04</pdfrwt>
<totfact> 0.31509450E-02</totfact>
</mgrwt>
</event>
<event>
 6    1  0.1637818E-005  0.2554971E+04  0.7818608E-02  0.8383659E-01
          1   -1    0    0  501    0  0.00000000000E+00  0.00000000000E+00  0.19997329857E+04  0.19997329857E+04  0.00000000000E+00 0. -1.
         -1   -1    0    0    0  501 -0.00000000000E+00 -0.00000000000E+00 -0.81609345311E+03  0.81609345311E+03  0.00000000000E+00 0.  1.
         23    2    1    2    0    0 -0.40212600142E+02 -0.48911153003E+03 -0.70705487083E+03  0.86247739956E+03  0.55619532356E+02 0.  0.
         11    1    3    3    0    0 -0.48798653714E+02 -0.45019131333E+03 -0.66500554079E+03  0.80454079852E+03  0.00000000000E+00 0.  1.
        -11    1    3    3    0    0  0.85860535719E+01 -0.38920216697E+02 -0.42049330034E+02  0.57936601040E+02  0.00000000000E+00 0. -1.
         22    1    1    2    0    0  0.40212600142E+02  0.48911153003E+03  0.18906944034E+04  0.19533490392E+04  0.00000000000E+00 0. -1.
<mgrwt>
<rscale>  0 0.25549708E+04</rscale>
<asrwt>0</asrwt>
<pdfrwt beam="1">  1        1 0.30765123E+00 0.25549708E+04</pdfrwt>
<pdfrwt beam="2">  1       -1 0.12555284E+00 0.25549708E+04</pdfrwt>
<totfact> 0.14587709E+00</totfact>
</mgrwt>
</event>
<event>
 6    1  0.1637818E-005  0.1642444E+04  0.7818608E-02  0.8794889E-01
         -1   -1    0    0    0  501 -0.00000000000E+00  0.00000000000E+00  0.78754409004E+03  0.78754409004E+03  0.00000000000E+00 0.  1.
          1   -1    0    0  501    0  0.00000000000E+00 -0.00000000000E+00 -0.85634001783E+03  0.85634001783E+03  0.00000000000E+00 0. -1.
         23    2    1    2    0    0  0.77438278347E+01  0.80594196190E+03 -0.18565011941E+03  0.82947799608E+03  0.62971154702E+02 0.  0.
         13    1    3    3    0    0 -0.82637310582E+01  0.65870006899E+03 -0.17139744466E+03  0.68068432785E+03  0.00000000000E+00 0. -1.
        -13    1    3    3    0    0  0.16007558893E+02  0.14724189291E+03 -0.14252674750E+02  0.14879366823E+03  0.00000000000E+00 0.  1.
         22    1    1    2    0    0 -0.77438278347E+01 -0.80594196190E+03  0.11685419162E+03  0.81440611179E+03  0.00000000000E+00 0. -1.
<mgrwt>
<rscale>  0 0.16424439E+04</rscale>
<asrwt>0</asrwt>
<pdfrwt beam="1">  1        1 0.13174462E+00 0.16424439E+04</pdfrwt>
<pdfrwt beam="2">  1       -1 0.12116063E+00 0.16424439E+04</pdfrwt>
<totfact> 0.11439306E+01</totfact>
</mgrwt>
</event>
<event>
 6    1  0.1637818E-005  0.9039407E+03  0.7818608E-02  0.9420669E-01
          1   -1    0    0  501    0  0.00000000000E+00  0.00000000000E+00  0.14231717719E+04  0.14231717719E+04  0.00000000000E+00 0.  1.
         -1   -1    0    0    0  501 -0.00000000000E+00 -0.00000000000E+00 -0.14353656500E+03  0.14353656500E+03  0.00000000000E+00 0. -1.
         23    2    1    2    0    0  0.40227463034E+03 -0.19514915547E+03  0.58711627662E+03  0.74239617522E+03  0.80860915211E+02 0.  0.
         13    1    3    3    0    0  0.28460857325E+03 -0.98322396661E+02  0.36781024435E+03  0.47534588407E+03  0.00000000000E+00 0.  1.
        -13    1    3    3    0    0  0.11766605710E+03 -0.96826758807E+02  0.21930603227E+03  0.26705029115E+03  0.00000000000E+00 0. -1.
         22    1    1    2    0    0 -0.40227463034E+03  0.19514915547E+03  0.69251893028E+03  0.82431216168E+03  0.00000000000E+00 0.  1.
<mgrwt>
<rscale>  0 0.90394068E+03</rscale>
<asrwt>0</asrwt>
<pdfrwt beam="1">  1        1 0.21894949E+00 0.90394068E+03</pdfrwt>
<pdfrwt beam="2">  1       -1 0.22082549E-01 0.90394068E+03</pdfrwt>
<totfact> 0.12909933E+02</totfact>
</mgrwt>
</event>
<event>
 6    1  0.1637818E-005  0.6564915E+03  0.7818608E-02  0.9794674E-01
          2   -1    0    0  501    0  0.00000000000E+00  0.00000000000E+00  0.53208213595E+03  0.53208213595E+03  0.00000000000E+00 0. -1.
         -2   -1    0    0    0  501 -0.00000000000E+00 -0.00000000000E+00 -0.20249742975E+03  0.20249742975E+03  0.00000000000E+00 0.  1.
         23    2    1    2    0    0 -0.23682390995E+03  0.21844039108E+03  0.18704272033E+03  0.38227290026E+03  0.85707772460E+02 0.  0.
         11    1    3    3    0    0 -0.17111113628E+03  0.20204411791E+03  0.15993549407E+03  0.30932217639E+03  0.00000000000E+00 0. -1.
        -11    1    3    3    0    0 -0.65712773671E+02  0.16396273173E+02  0.27107226261E+02  0.72950723869E+02  0.00000000000E+00 0.  1.
         22    1    1    2    0    0  0.23682390995E+03 -0.21844039108E+03  0.14254198587E+03  0.35230666545E+03  0.00000000000E+00 0.  1.
<mgrwt>
<rscale>  0 0.65649148E+03</rscale>
<asrwt>0</asrwt>
<pdfrwt beam="1">  1        2 0.81858790E-01 0.65649148E+03</pdfrwt>
<pdfrwt beam="2">  1       -2 0.31153451E-01 0.65649148E+03</pdfrwt>
<totfact> 0.55046016E+02</totfact>
</mgrwt>
</event>
<event>
 6    1  0.1637818E-005  0.3863010E+04  0.7818608E-02  0.8032767E-01
         -1   -1    0    0    0  501 -0.00000000000E+00  0.00000000000E+00  0.93428407834E+03  0.93428407834E+03  0.00000000000E+00 0.  1.
          1   -1    0    0  501    0  0.00000000000E+00 -0.00000000000E+00 -0.39931228540E+04  0.39931228540E+04  0.00000000000E+00 0. -1.
         23    2    1    2    0    0  0.50150126456E+03  0.16676319632E+04 -0.46738865038E+03  0.18052100079E+04  0.88493723761E+02 0.  0.
         13    1    3    3    0    0  0.22611364348E+03  0.74948107957E+03 -0.16460443679E+03  0.79996492986E+03  0.00000000000E+00 0. -1.
        -13    1    3    3    0    0  0.27538762108E+03  0.91815088364E+03 -0.30278421359E+03  0.10052450781E+04  0.00000000000E+00 0.  1.
         22    1    1    2    0    0 -0.50150126456E+03 -0.16676319632E+04 -0.25914501253E+04  0.31221969245E+04  0.00000000000E+00 0. -1.
<mgrwt>
<rscale>  0 0.38630098E+04</rscale>
<asrwt>0</asrwt>
<pdfrwt beam="1">  1        1 0.61432658E+00 0.38630098E+04</pdfrwt>
<pdfrwt beam="2">  1       -1 0.14373602E+00 0.38630098E+04</pdfrwt>
<totfact> 0.30022553E-02</totfact>
</mgrwt>
</event>
<event>
 6    1  0.1637818E-005  0.3708699E+04  0.7818608E-02  0.8066037E-01
          1   -1    0    0  501    0  0.00000000000E+00  0.00000000000E+00  0.32638098252E+04  0.32638098252E+04  0.00000000000E+00 0. -1.
         -1   -1    0    0    0  501 -0.00000000000E+00 -0.00000000000E+00 -0.10535575354E+04  0.10535575354E+04  0.00000000000E+00 0.  1.
         23    2    1    2    0    0 -0.66634796176E+03 -0.67146649794E+03  0.29609427118E+04  0.31097155177E+04  0.90895512356E+02 0.  0.
         11    1    3    3    0    0 -0.12796334671E+03 -0.17569761390E+03  0.61680702424E+03  0.65398407839E+03  0.00000000000E+00 0.  1.
        -11    1    3    3    0    0 -0.53838461505E+03 -0.49576888405E+03  0.23441356876E+04  0.24557314393E+04  0.00000000000E+00 0. -1.
         22    1    1    2    0    0  0.66634796176E+03  0.67146649794E+03 -0.75069042205E+03  0.12076518429E+04  0.00000000000E+00 0.  1.
<mgrwt>
<rscale>  0 0.37086987E+04</rscale>
<asrwt>0</asrwt>
<pdfrwt beam="1">  1        1 0.50212458E+00 0.37086987E+04</pdfrwt>
<pdfrwt beam="2">  1       -1 0.16208578E+00 0.37086987E+04</pdfrwt>
<totfact> 0.85873226E-02</totfact>
</mgrwt>
</event>
<event>
 6    1  0.1637818E-005  0.2214800E+04  0.7818608E-02  0.8512293E-01
         -2   -1    0    0    0  501 -0.00000000000E+00  0.00000000000E+00  0.14322487677E+04  0.14322487677E+04  0.00000000000E+00 0.  1.
          2   -1    0    0  501    0  0.00000000000E+00 -0.00000000000E+00 -0.85623039911E+03  0.85623039911E+03  0.00000000000E+00 0. -1.
         23    2    1    2    0    0  0.56782082123E+03  0.89338610651E+03  0.61787351413E+03  0.12290873254E+04  0.91262005910E+02 0.  0.
         13    1    3    3    0    0  0.23275383954E+03  0.43451297775E+03  0.25584542147E+03  0.55536722747E+03  0.00000000000E+00 0.  1.
        -13    1    3    3    0    0  0.33506698169E+03  0.45887312876E+03  0.36202809266E+03  0.67372009796E+03  0.00000000000E+00 0. -1.
         22    1    1    2    0    0 -0.56782082123E+03 -0.89338610651E+03 -0.41855145574E+02  0.10593918414E+04  0.00000000000E+00 0. -1.
<mgrwt>
<rscale>  0 0.22148002E+04</rscale>
<asrwt>0</asrwt>
<pdfrwt beam="1">  1        2 0.13172775E+00 0.22148002E+04</pdfrwt>
<pdfrwt beam="2">  1       -2 0.22034596E+00 0.22148002E+04</pdfrwt>
<totfact> 0.28200054E+00</totfact>
</mgrwt>
</event>
<event>
 6    1  0.1891397E-005  0.4704298E+04  0.7818608E-02  0.7875815E-01
         -2   -1    0    0    0  501 -0.00000000000E+00  0.00000000000E+00  0.36382420533E+04  0.36382420533E+04  0.00000000000E+00 0. -1.
          2   -1    0    0  501    0  0.00000000000E+00 -0.00000000000E+00 -0.15206806294E+04  0.15206806294E+04  0.00000000000E+00 0.  1.
         23    2    1    2    0    0 -0.49827054213E+03  0.10905663398E+04 -0.11588921634E+04  0.16699749066E+04  0.90424928171E+02 0.  0.
         13    1    3    3    0    0 -0.20321896875E+03  0.34932812589E+03 -0.41178448511E+03  0.57697014739E+03  0.00000000000E+00 0. -1.
        -13    1    3    3    0    0 -0.29505157338E+03  0.74123821386E+03 -0.74710767832E+03  0.10930047592E+04  0.00000000000E+00 0.  1.
         22    1    1    2    0    0  0.49827054213E+03 -0.10905663398E+04  0.32764535873E+04  0.34889477761E+04  0.00000000000E+00 0. -1.
<mgrwt>
<rscale>  0 0.47042977E+04</rscale>
<asrwt>0</asrwt>
<pdfrwt beam="1">  1        2 0.23395087E+00 0.47042977E+04</pdfrwt>
<pdfrwt beam="2">  1       -2 0.55972954E+00 0.47042977E+04</pdfrwt>
<totfact> 0.70791834E-03</totfact>
</mgrwt>
</event>
<event>
 6    1  0.1637818E-005  0.4121970E+04  0.7818608E-02  0.7980383E-01
         -2   -1    0    0    0  501 -0.00000000000E+00  0.00000000000E+00  0.12167055726E+04  0.12167055726E+04  0.00000000000E+00 0. -1.
          2   -1    0    0  501    0  0.00000000000E+00 -0.00000000000E+00 -0.34911158690E+04  0.34911158690E+04  0.00000000000E+00 0.  1.
         23    2    1    2    0    0 -0.16665399020E+04 -0.81057021962E+03 -0.21650822307E+04  0.28513915475E+04  0.92050885499E+02 0.  0.
         13    1    3    3    0    0 -0.85729956023E+03 -0.36645750345E+03 -0.10992971593E+04  0.14414256423E+04  0.00000000000E+00 0.  1.
        -13    1    3    3    0    0 -0.80924034177E+03 -0.44411271618E+03 -0.10657850714E+04  0.14099659052E+04  0.00000000000E+00 0. -1.
         22    1    1    2    0    0  0.16665399020E+04  0.81057021962E+03 -0.10932806570E+03  0.18564298941E+04  0.00000000000E+00 0. -1.
<mgrwt>
<rscale>  0 0.41219705E+04</rscale>
<asrwt>0</asrwt>
<pdfrwt beam="1">  1        2 0.53709474E+00 0.41219705E+04</pdfrwt>
<pdfrwt beam="2">  1       -2 0.18718548E+00 0.41219705E+04</pdfrwt>
<totfact> 0.10412654E-01</totfact>
</mgrwt>
</event>
<event>
 6    1  0.1637818E-005  0.1612094E+04  0.7818608E-02  0.8813153E-01
         -1   -1    0    0    0  501 -0.00000000000E+00  0.00000000000E+00  0.34887029730E+03  0.34887029730E+03  0.00000000000E+00 0.  1.
          1   -1    0    0  501    0  0.00000000000E+00 -0.00000000000E+00 -0.18623294805E+04  0.18623294805E+04  0.00000000000E+00 0. -1.
         23    2    1    2    0    0 -0.60423754703E+03 -0.51588559857E+03 -0.59988056406E+03  0.10004698916E+04  0.99208612337E+02 0.  0.
         11    1    3    3    0    0 -0.33604638334E+03 -0.33478282046E+03 -0.39664815838E+03  0.61833362368E+03  0.00000000000E+00 0. -1.
        -11    1    3    3    0    0 -0.26819116369E+03 -0.18110277811E+03 -0.20323240568E+03  0.38213626790E+03  0.00000000000E+00 0.  1.
         22    1    1    2    0    0  0.60423754703E+03  0.51588559857E+03 -0.91357861911E+03  0.12107298862E+04  0.00000000000E+00 0. -1.
<mgrwt>
<rscale>  0 0.16120936E+04</rscale>
<asrwt>0</asrwt>
<pdfrwt beam="1">  1        1 0.28651223E+00 0.16120936E+04</pdfrwt>
<pdfrwt beam="2">  1       -1 0.53672353E-01 0.16120936E+04</pdfrwt>
<totfact> 0.12411791E+01</totfact>
</mgrwt>
</event>
<event>
 6    1  0.1637818E-005  0.1296754E+04  0.7818608E-02  0.9032143E-01
          1   -1    0    0  501    0  0.00000000000E+00  0.00000000000E+00  0.11167239583E+04  0.11167239583E+04  0.00000000000E+00 0. -1.
         -1   -1    0    0    0  501 -0.00000000000E+00 -0.00000000000E+00 -0.37645173793E+03  0.37645173793E+03  0.00000000000E+00 0.  1.
         23    2    1    2    0    0  0.41584766489E+03 -0.39997843001E+03  0.39615036784E+02  0.58552349755E+03  0.91413293230E+02 0.  0.
         13    1    3    3    0    0  0.31459066821E+03 -0.27650590571E+03 -0.79402862409E+01  0.41891031565E+03  0.00000000000E+00 0.  1.
        -13    1    3    3    0    0  0.10125699668E+03 -0.12347252430E+03  0.47555323025E+02  0.16661318190E+03  0.00000000000E+00 0. -1.
         22    1    1    2    0    0 -0.41584766489E+03  0.39997843001E+03  0.70065718361E+03  0.90765219870E+03  0.00000000000E+00 0. -1.
<mgrwt>
<rscale>  0 0.12967539E+04</rscale>
<asrwt>0</asrwt>
<pdfrwt beam="1">  1        1 0.17180368E+00 0.12967539E+04</pdfrwt>
<pdfrwt beam="2">  1       -1 0.57915653E-01 0.12967539E+04</pdfrwt>
<totfact> 0.36555701E+01</totfact>
</mgrwt>
</event>
<event>
 6    1  0.1637818E-005  0.4135892E+04  0.7818608E-02  0.7977680E-01
          2   -1    0    0  501    0  0.00000000000E+00  0.00000000000E+00  0.88106003251E+03  0.88106003251E+03  0.00000000000E+00 0.  1.
         -2   -1    0    0    0  501 -0.00000000000E+00 -0.00000000000E+00 -0.48536995718E+04  0.48536995718E+04  0.00000000000E+00 0. -1.
         23    2    1    2    0    0 -0.52104683977E+03  0.17553744393E+04 -0.33179830156E+04  0.37901762568E+04  0.59962772694E+02 0.  0.
         13    1    3    3    0    0 -0.18952549904E+03  0.61893178802E+03 -0.11152345104E+04  0.12894745000E+04  0.00000000000E+00 0.  1.
        -13    1    3    3    0    0 -0.33152134073E+03  0.11364426513E+04 -0.22027485053E+04  0.25007017568E+04  0.00000000000E+00 0. -1.
         22    1    1    2    0    0  0.52104683977E+03 -0.17553744393E+04 -0.65465652368E+03  0.19445833475E+04  0.00000000000E+00 0.  1.
<mgrwt>
<rscale>  0 0.41358920E+04</rscale>
<asrwt>0</asrwt>
<pdfrwt beam="1">  1        2 0.13554770E+00 0.41358920E+04</pdfrwt>
<pdfrwt beam="2">  1       -2 0.74672301E+00 0.41358920E+04</pdfrwt>
<totfact> 0.34984161E-03</totfact>
</mgrwt>
</event>
<event>
 6    1  0.1637818E-005  0.3653360E+04  0.7818608E-02  0.8078377E-01
         -2   -1    0    0    0  501 -0.00000000000E+00  0.00000000000E+00  0.18302150860E+04  0.18302150860E+04  0.00000000000E+00 0.  1.
          2   -1    0    0  501    0  0.00000000000E+00 -0.00000000000E+00 -0.18231514480E+04  0.18231514480E+04  0.00000000000E+00 0. -1.
         23    2    1    2    0    0  0.56112925871E+03 -0.15487773094E+04  0.79034790177E+03  0.18293294080E+04  0.90659131685E+02 0.  0.
         11    1    3    3    0    0  0.25050943588E+03 -0.74324641123E+03  0.42250475308E+03  0.89088746295E+03  0.00000000000E+00 0.  1.
        -11    1    3    3    0    0  0.31061982283E+03 -0.80553089818E+03  0.36784314869E+03  0.93844194508E+03  0.00000000000E+00 0. -1.
         22    1    1    2    0    0 -0.56112925871E+03  0.15487773094E+04 -0.78328426373E+03  0.18240371260E+04  0.00000000000E+00 0. -1.
<mgrwt>
<rscale>  0 0.36533597E+04</rscale>
<asrwt>0</asrwt>
<pdfrwt beam="1">  1        2 0.28048484E+00 0.36533597E+04</pdfrwt>
<pdfrwt beam="2">  1       -2 0.28157155E+00 0.36533597E+04</pdfrwt>
<totfact> 0.28003310E-01</totfact>
</mgrwt>
</event>
<event>
 6    1  0.1637818E-005  0.5272359E+03  0.7818608E-02  0.1006905E+00
         -1   -1    0    0    0  501 -0.00000000000E+00  0.00000000000E+00  0.70003574168E+02  0.70003574168E+02  0.00000000000E+00 0.  1.
          1   -1    0    0  501    0  0.00000000000E+00 -0.00000000000E+00 -0.99272665699E+03  0.99272665699E+03  0.00000000000E+00 0. -1.
         23    2    1    2    0    0 -0.99206565439E+02  0.74613621498E+01 -0.94994672246E+03  0.95958595790E+03  0.92243268217E+02 0.  0.
         13    1    3    3    0    0  0.10048821954E+02  0.16818929914E+02 -0.65497399066E+02  0.68364936265E+02  0.00000000000E+00 0. -1.
        -13    1    3    3    0    0 -0.10925538739E+03 -0.93575677639E+01 -0.88444932340E+03  0.89122102164E+03  0.00000000000E+00 0.  1.
         22    1    1    2    0    0  0.99206565439E+02 -0.74613621498E+01  0.27223639637E+02  0.10314427326E+03  0.00000000000E+00 0.  1.
<mgrwt>
<rscale>  0 0.52723586E+03</rscale>
<asrwt>0</asrwt>
<pdfrwt beam="1">  1        1 0.15272717E+00 0.52723586E+03</pdfrwt>
<pdfrwt beam="2">  1       -1 0.10769781E-01 0.52723586E+03</pdfrwt>
<totfact> 0.87229226E+02</totfact>
</mgrwt>
</event>
<event>
 6    1  0.1637818E-005  0.2423805E+04  0.7818608E-02  0.8430645E-01
         -1   -1    0    0    0  501 -0.00000000000E+00  0.00000000000E+00  0.14946737290E+04  0.14946737290E+04  0.00000000000E+00 0.  1.
          1   -1    0    0  501    0  0.00000000000E+00 -0.00000000000E+00 -0.98262731434E+03  0.98262731434E+03  0.00000000000E+00 0. -1.
         23    2    1    2    0    0 -0.79343396523E+03  0.25587491875E+03  0.11529615116E+04  0.14257395411E+04  0.91670936564E+02 0.  0.
         13    1    3    3    0    0 -0.48453837242E+03  0.13069976442E+03  0.75600110693E+03  0.90741255030E+03  0.00000000000E+00 0.  1.
        -13    1    3    3    0    0 -0.30889559281E+03  0.12517515434E+03  0.39696040471E+03  0.51832699083E+03  0.00000000000E+00 0. -1.
         22    1    1    2    0    0  0.79343396523E+03 -0.25587491875E+03 -0.64091509703E+03  0.10515615022E+04  0.00000000000E+00 0. -1.
<mgrwt>
<rscale>  0 0.24238046E+04</rscale>
<asrwt>0</asrwt>
<pdfrwt beam="1">  1        1 0.15117343E+00 0.24238046E+04</pdfrwt>
<pdfrwt beam="2">  1       -1 0.22994980E+00 0.24238046E+04</pdfrwt>
<totfact> 0.13189851E+00</totfact>
</mgrwt>
</event>
<event>
 6    1  0.1637818E-005  0.2778818E+04  0.7818608E-02  0.8309875E-01
          2   -1    0    0  501    0  0.00000000000E+00  0.00000000000E+00  0.21213105305E+04  0.21213105305E+04  0.00000000000E+00 0. -1.
         -2   -1    0    0    0  501 -0.00000000000E+00 -0.00000000000E+00 -0.91003021566E+03  0.91003021566E+03  0.00000000000E+00 0.  1.
         23    2    1    2    0    0  0.61908910564E+03  0.74681397362E+03 -0.47657664903E+03  0.10845835547E+04  0.90519350655E+02 0.  0.
         11    1    3    3    0    0  0.52864793278E+03  0.60448360079E+03 -0.36301814564E+03  0.88127818226E+03  0.00000000000E+00 0.  1.
        -11    1    3    3    0    0  0.90441172852E+02  0.14233037283E+03 -0.11355850339E+03  0.20330537246E+03  0.00000000000E+00 0. -1.
         22    1    1    2    0    0 -0.61908910564E+03 -0.74681397362E+03  0.16878569639E+04  0.19467571914E+04  0.00000000000E+00 0. -1.
<mgrwt>
<rscale>  0 0.27788175E+04</rscale>
<asrwt>0</asrwt>
<pdfrwt beam="1">  1        2 0.32635547E+00 0.27788175E+04</pdfrwt>
<pdfrwt beam="2">  1       -2 0.14000465E+00 0.27788175E+04</pdfrwt>
<totfact> 0.17895642E+00</totfact>
</mgrwt>
</event>
<event>
 6    1  0.1637818E-005  0.3765276E+04  0.7818608E-02  0.8053648E-01
          2   -1    0    0  501    0  0.00000000000E+00  0.00000000000E+00  0.22096264474E+04  0.22096264474E+04  0.00000000000E+00 0. -1.
         -2   -1    0    0    0  501 -0.00000000000E+00 -0.00000000000E+00 -0.16040387899E+04  0.16040387899E+04  0.00000000000E+00 0.  1.
         23    2    1    2    0    0 -0.84272403836E+03 -0.79942742014E+03  0.18021460480E+04  0.21460261916E+04  0.91815205123E+02 0.  0.
         11    1    3    3    0    0 -0.49910312604E+03 -0.53309510860E+03  0.11479220194E+04  0.13605216970E+04  0.00000000000E+00 0.  1.
        -11    1    3    3    0    0 -0.34362091233E+03 -0.26633231154E+03  0.65422402856E+03  0.78550449464E+03  0.00000000000E+00 0. -1.
         22    1    1    2    0    0  0.84272403836E+03  0.79942742014E+03 -0.11965583905E+04  0.16676390457E+04  0.00000000000E+00 0.  1.
<mgrwt>
<rscale>  0 0.37652764E+04</rscale>
<asrwt>0</asrwt>
<pdfrwt beam="1">  1        2 0.33994253E+00 0.37652764E+04</pdfrwt>
<pdfrwt beam="2">  1       -2 0.24677520E+00 0.37652764E+04</pdfrwt>
<totfact> 0.27587224E-01</totfact>
</mgrwt>
</event>
<event>
 6    1  0.1637818E-005  0.2105684E+04  0.7818608E-02  0.8558744E-01
          2   -1    0    0  501    0  0.00000000000E+00  0.00000000000E+00  0.18262040665E+04  0.18262040665E+04  0.00000000000E+00 0. -1.
         -2   -1    0    0    0  501 -0.00000000000E+00 -0.00000000000E+00 -0.60698355234E+03  0.60698355234E+03  0.00000000000E+00 0.  1.
         23    2    1    2    0    0  0.64966929761E+03 -0.29550350976E+03  0.15020233979E+04  0.16654832541E+04  0.91474922689E+02 0.  0.
         11    1    3    3    0    0  0.18822408353E+03 -0.12943078274E+03  0.51215333332E+03  0.56078665281E+03  0.00000000000E+00 0.  1.
        -11    1    3    3    0    0  0.46144521408E+03 -0.16607272702E+03  0.98987006455E+03  0.11046966013E+04  0.00000000000E+00 0. -1.
         22    1    1    2    0    0 -0.64966929761E+03  0.29550350976E+03 -0.28280288374E+03  0.76770436470E+03  0.00000000000E+00 0.  1.
<mgrwt>
<rscale>  0 0.21056836E+04</rscale>
<asrwt>0</asrwt>
<pdfrwt beam="1">  1        2 0.28095447E+00 0.21056836E+04</pdfrwt>
<pdfrwt beam="2">  1       -2 0.93382086E-01 0.21056836E+04</pdfrwt>
<totfact> 0.74566215E+00</totfact>
</mgrwt>
</event>
<event>
 6    1  0.1637818E-005  0.4098443E+04  0.7818608E-02  0.7984977E-01
          1   -1    0    0  501    0  0.00000000000E+00  0.00000000000E+00  0.14635014427E+04  0.14635014427E+04  0.00000000000E+00 0. -1.
         -1   -1    0    0    0  501 -0.00000000000E+00 -0.00000000000E+00 -0.28693579554E+04  0.28693579554E+04  0.00000000000E+00 0.  1.
         23    2    1    2    0    0 -0.64188500051E+03 -0.18489336474E+04 -0.13416324125E+04  0.23746212304E+04  0.90975112705E+02 0.  0.
         11    1    3    3    0    0 -0.14230720959E+03 -0.41871324622E+03 -0.25793479345E+03  0.51195945361E+03  0.00000000000E+00 0. -1.
        -11    1    3    3    0    0 -0.49957779093E+03 -0.14302204012E+04 -0.10836976190E+04  0.18626617768E+04  0.00000000000E+00 0.  1.
         22    1    1    2    0    0  0.64188500051E+03  0.18489336474E+04 -0.64224100266E+02  0.19582381677E+04  0.00000000000E+00 0. -1.
<mgrwt>
<rscale>  0 0.40984434E+04</rscale>
<asrwt>0</asrwt>
<pdfrwt beam="1">  1        1 0.22515407E+00 0.40984434E+04</pdfrwt>
<pdfrwt beam="2">  1       -1 0.44143968E+00 0.40984434E+04</pdfrwt>
<totfact> 0.19959927E-02</totfact>
</mgrwt>
</event>
<event>
 6    1  0.1637818E-005  0.2079292E+04  0.7818608E-02  0.8570420E-01
          1   -1    0    0  501    0  0.00000000000E+00  0.00000000000E+00  0.94023125340E+03  0.94023125340E+03  0.00000000000E+00 0. -1.
         -1   -1    0    0    0  501 -0.00000000000E+00 -0.00000000000E+00 -0.11495727190E+04  0.11495727190E+04  0.00000000000E+00 0.  1.
         23    2    1    2    0    0  0.63705840892E+03 -0.52599454616E+03  0.52609964007E+03  0.98373557539E+03  0.91875851334E+02 0.  0.
         13    1    3    3    0    0  0.47876582632E+03 -0.41714374419E+03  0.44394845647E+03  0.77480052385E+03  0.00000000000E+00 0. -1.
        -13    1    3    3    0    0  0.15829258260E+03 -0.10885080197E+03  0.82151183601E+02  0.20893505154E+03  0.00000000000E+00 0.  1.
         22    1    1    2    0    0 -0.63705840892E+03  0.52599454616E+03 -0.73544110566E+03  0.11060683970E+04  0.00000000000E+00 0.  1.
<mgrwt>
<rscale>  0 0.20792924E+04</rscale>
<asrwt>0</asrwt>
<pdfrwt beam="1">  1        1 0.14465096E+00 0.20792924E+04</pdfrwt>
<pdfrwt beam="2">  1       -1 0.17685734E+00 0.20792924E+04</pdfrwt>
<totfact> 0.34094170E+00</totfact>
</mgrwt>
</event>
<event>
 6    1  0.1637818E-005  0.4452778E+03  0.7818608E-02  0.1029140E+00
          2   -1    0    0  501    0  0.00000000000E+00  0.00000000000E+00  0.16633461190E+04  0.16633461190E+04  0.00000000000E+00 0. -1.
         -2   -1    0    0    0  501 -0.00000000000E+00 -0.00000000000E+00 -0.29800213642E+02  0.29800213642E+02  0.00000000000E+00 0.  1.
         23    2    1    2    0    0  0.84760244227E+02  0.89242386366E+02  0.15126573237E+04  0.15206280678E+04  0.95021256413E+02 0.  0.
         13    1    3    3    0    0  0.14259614715E+02 -0.11584308984E+02  0.52727761041E+03  0.52759758459E+03  0.00000000000E+00 0. -1.
        -13    1    3    3    0    0  0.70500629512E+02  0.10082669535E+03  0.98537971325E+03  0.99303048319E+03  0.00000000000E+00 0.  1.
         22    1    1    2    0    0 -0.84760244227E+02 -0.89242386366E+02  0.12088858169E+03  0.17251826486E+03  0.00000000000E+00 0.  1.
<mgrwt>
<rscale>  0 0.44527775E+03</rscale>
<asrwt>0</asrwt>
<pdfrwt beam="1">  1        2 0.25589933E+00 0.44527775E+03</pdfrwt>
<pdfrwt beam="2">  1       -2 0.45846496E-02 0.44527775E+03</pdfrwt>
<totfact> 0.24855034E+03</totfact>
</mgrwt>
</event>
<event>
 6    1  0.1637818E-005  0.6961007E+03  0.7818608E-02  0.9723924E-01
         -2   -1    0    0    0  501 -0.00000000000E+00  0.00000000000E+00  0.11555517421E+03  0.11555517421E+03  0.00000000000E+00 0.  1.
          2   -1    0    0  501    0  0.00000000000E+00 -0.00000000000E+00 -0.10483221426E+04  0.10483221426E+04  0.00000000000E+00 0. -1.
         23    2    1    2    0    0 -0.12993941955E+03 -0.29928598439E+03 -0.31015354155E+03  0.46095211987E+03  0.99122571959E+02 0.  0.
         11    1    3    3    0    0 -0.10434809795E+03 -0.26574489700E+03 -0.21672336463E+03  0.35843812939E+03  0.00000000000E+00 0.  1.
        -11    1    3    3    0    0 -0.25591321601E+02 -0.33541087395E+02 -0.93430176917E+02  0.10251399048E+03  0.00000000000E+00 0. -1.
         22    1    1    2    0    0  0.12993941955E+03  0.29928598439E+03 -0.62261342680E+03  0.70292519691E+03  0.00000000000E+00 0. -1.
<mgrwt>
<rscale>  0 0.69610070E+03</rscale>
<asrwt>0</asrwt>
<pdfrwt beam="1">  1        2 0.16128033E+00 0.69610070E+03</pdfrwt>
<pdfrwt beam="2">  1       -2 0.17777719E-01 0.69610070E+03</pdfrwt>
<totfact> 0.61944252E+02</totfact>
</mgrwt>
</event>
<event>
 6    1  0.1637818E-005  0.3049045E+04  0.7818608E-02  0.8229863E-01
          2   -1    0    0  501    0  0.00000000000E+00  0.00000000000E+00  0.19332080551E+04  0.19332080551E+04  0.00000000000E+00 0. -1.
         -2   -1    0    0    0  501 -0.00000000000E+00 -0.00000000000E+00 -0.12022339964E+04  0.12022339964E+04  0.00000000000E+00 0.  1.
         23    2    1    2    0    0 -0.12728357634E+04  0.33718680881E+03 -0.42137846151E+03  0.13856643069E+04  0.93273463752E+02 0.  0.
         13    1    3    3    0    0 -0.43097931239E+03  0.11561122191E+03 -0.96800685120E+02  0.45659554857E+03  0.00000000000E+00 0. -1.
        -13    1    3    3    0    0 -0.84185645101E+03  0.22157558690E+03 -0.32457777639E+03  0.92906875835E+03  0.00000000000E+00 0.  1.
         22    1    1    2    0    0  0.12728357634E+04 -0.33718680881E+03  0.11523525202E+04  0.17497777446E+04  0.00000000000E+00 0. -1.
<mgrwt>
<rscale>  0 0.30490447E+04</rscale>
<asrwt>0</asrwt>
<pdfrwt beam="1">  1        2 0.29741662E+00 0.30490447E+04</pdfrwt>
<pdfrwt beam="2">  1       -2 0.18495908E+00 0.30490447E+04</pdfrwt>
<totfact> 0.10404024E+00</totfact>
</mgrwt>
</event>
<event>
 6    1  0.1637818E-005  0.4693689E+04  0.7818608E-02  0.7877578E-01
          2   -1    0    0  501    0  0.00000000000E+00  0.00000000000E+00  0.22871989643E+04  0.22871989643E+04  0.00000000000E+00 0. -1.
         -2   -1    0    0    0  501 -0.00000000000E+00 -0.00000000000E+00 -0.24080452916E+04  0.24080452916E+04  0.00000000000E+00 0.  1.
         23    2    1    2    0    0 -0.64466570643E+03 -0.19955403313E+04  0.99190858739E+03  0.23212184374E+04  0.79983131104E+02 0.  0.
         11    1    3    3    0    0 -0.54991322172E+03 -0.16231961753E+04  0.83125740629E+03  0.19047727556E+04  0.00000000000E+00 0.  1.
        -11    1    3    3    0    0 -0.94752484707E+02 -0.37234415600E+03  0.16065118110E+03  0.41644568176E+03  0.00000000000E+00 0. -1.
         22    1    1    2    0    0  0.64466570643E+03  0.19955403313E+04 -0.11127549146E+04  0.23740258185E+04  0.00000000000E+00 0. -1.
<mgrwt>
<rscale>  0 0.46936888E+04</rscale>
<asrwt>0</asrwt>
<pdfrwt beam="1">  1        2 0.35187676E+00 0.46936888E+04</pdfrwt>
<pdfrwt beam="2">  1       -2 0.37046851E+00 0.46936888E+04</pdfrwt>
<totfact> 0.39654700E-02</totfact>
</mgrwt>
</event>
<event>
 6    1  0.1637818E-005  0.1653956E+04  0.7818608E-02  0.8788070E-01
          1   -1    0    0  501    0  0.00000000000E+00  0.00000000000E+00  0.18123505193E+04  0.18123505193E+04  0.00000000000E+00 0. -1.
         -1   -1    0    0    0  501 -0.00000000000E+00 -0.00000000000E+00 -0.37735114736E+03  0.37735114736E+03  0.00000000000E+00 0.  1.
         23    2    1    2    0    0 -0.38675489200E+03 -0.59177344071E+02  0.16802860697E+04  0.17279150616E+04  0.96165896009E+02 0.  0.
         11    1    3    3    0    0 -0.14370526656E+03 -0.72539105270E+01  0.43856740155E+03  0.46156818408E+03  0.00000000000E+00 0. -1.
        -11    1    3    3    0    0 -0.24304962543E+03 -0.51923433544E+02  0.12417186681E+04  0.12663468775E+04  0.00000000000E+00 0.  1.
         22    1    1    2    0    0  0.38675489200E+03  0.59177344071E+02 -0.24528669775E+03  0.46178660507E+03  0.00000000000E+00 0.  1.
<mgrwt>
<rscale>  0 0.16539559E+04</rscale>
<asrwt>0</asrwt>
<pdfrwt beam="1">  1        1 0.27882315E+00 0.16539559E+04</pdfrwt>
<pdfrwt beam="2">  1       -1 0.58054024E-01 0.16539559E+04</pdfrwt>
<totfact> 0.11475909E+01</totfact>
</mgrwt>
</event>
<event>
 6    1  0.1637818E-005  0.1821533E+04  0.7818608E-02  0.8694932E-01
          1   -1    0    0  501    0  0.00000000000E+00  0.00000000000E+00  0.14077157873E+04  0.14077157873E+04  0.00000000000E+00 0. -1.
         -1   -1    0    0    0  501 -0.00000000000E+00 -0.00000000000E+00 -0.58924915648E+03  0.58924915648E+03  0.00000000000E+00 0.  1.
         23    2    1    2    0    0  0.69230035034E+03 -0.50456075801E+03  0.78606255052E+02  0.86503972131E+03  0.90848458978E+02 0.  0.
         13    1    3    3    0    0  0.55610882143E+03 -0.35849217343E+03  0.54649430955E+02  0.66389774814E+03  0.00000000000E+00 0. -1.
        -13    1    3    3    0    0  0.13619152891E+03 -0.14606858458E+03  0.23956824096E+02  0.20114197317E+03  0.00000000000E+00 0.  1.
         22    1    1    2    0    0 -0.69230035034E+03  0.50456075801E+03  0.73986037576E+03  0.11319252225E+04  0.00000000000E+00 0. -1.
<mgrwt>
<rscale>  0 0.18215327E+04</rscale>
<asrwt>0</asrwt>
<pdfrwt beam="1">  1        1 0.21657166E+00 0.18215327E+04</pdfrwt>
<pdfrwt beam="2">  1       -1 0.90653717E-01 0.18215327E+04</pdfrwt>
<totfact> 0.84953900E+00</totfact>
</mgrwt>
</event>
<event>
 6    1  0.1637818E-005  0.2970679E+04  0.7818608E-02  0.8252153E-01
         -2   -1    0    0    0  501 -0.00000000000E+00  0.00000000000E+00  0.23475633694E+04  0.23475633694E+04  0.00000000000E+00 0.  1.
          2   -1    0    0  501    0  0.00000000000E+00 -0.00000000000E+00 -0.93979733890E+03  0.93979733890E+03  0.00000000000E+00 0. -1.
         23    2    1    2    0    0  0.11199746116E+04  0.22142468358E+03  0.17536315262E+04  0.20944671831E+04  0.90538556304E+02 0.  0.
         13    1    3    3    0    0  0.73342975646E+03  0.14564117744E+03  0.12256113029E+04  0.14357066643E+04  0.00000000000E+00 0. -1.
        -13    1    3    3    0    0  0.38654485514E+03  0.75783506137E+02  0.52802022334E+03  0.65876051878E+03  0.00000000000E+00 0.  1.
         22    1    1    2    0    0 -0.11199746116E+04 -0.22142468358E+03 -0.34586549579E+03  0.11928935251E+04  0.00000000000E+00 0. -1.
<mgrwt>
<rscale>  0 0.29706793E+04</rscale>
<asrwt>0</asrwt>
<pdfrwt beam="1">  1        2 0.14458421E+00 0.29706793E+04</pdfrwt>
<pdfrwt beam="2">  1       -2 0.36116359E+00 0.29706793E+04</pdfrwt>
<totfact> 0.31271704E-01</totfact>
</mgrwt>
</event>
<event>
 6    1  0.1637818E-005  0.5457739E+03  0.7818608E-02  0.1002477E+00
         -2   -1    0    0    0  501 -0.00000000000E+00  0.00000000000E+00  0.19540379856E+02  0.19540379856E+02  0.00000000000E+00 0.  1.
          2   -1    0    0  501    0  0.00000000000E+00 -0.00000000000E+00 -0.38109434594E+04  0.38109434594E+04  0.00000000000E+00 0. -1.
         23    2    1    2    0    0 -0.16586810030E+03 -0.21198666798E+01 -0.34003535318E+04  0.34057056980E+04  0.94395123624E+02 0.  0.
         11    1    3    3    0    0 -0.59757112602E+02  0.32666668825E+02 -0.18915143310E+04  0.18927399420E+04  0.00000000000E+00 0. -1.
        -11    1    3    3    0    0 -0.10611098770E+03 -0.34786535505E+02 -0.15088392008E+04  0.15129657559E+04  0.00000000000E+00 0.  1.
         22    1    1    2    0    0  0.16586810030E+03  0.21198666798E+01 -0.39104954773E+03  0.42477814128E+03  0.00000000000E+00 0.  1.
<mgrwt>
<rscale>  0 0.54577388E+03</rscale>
<asrwt>0</asrwt>
<pdfrwt beam="1">  1        2 0.58629897E+00 0.54577388E+03</pdfrwt>
<pdfrwt beam="2">  1       -2 0.30062124E-02 0.54577388E+03</pdfrwt>
<totfact> 0.24484741E+02</totfact>
</mgrwt>
</event>
<event>
 6    1  0.1637818E-005  0.1775547E+04  0.7818608E-02  0.8719413E-01
         -1   -1    0    0    0  501 -0.00000000000E+00  0.00000000000E+00  0.43907539846E+03  0.43907539846E+03  0.00000000000E+00 0.  1.
          1   -1    0    0  501    0  0.00000000000E+00 -0.00000000000E+00 -0.17950027920E+04  0.17950027920E+04  0.00000000000E+00 0. -1.
         23    2    1    2    0    0 -0.44627811659E+03 -0.17113873399E+02  0.28255090712E+03  0.53582373846E+03  0.88402610686E+02 0.  0.
         13    1    3    3    0    0 -0.25182097902E+03  0.13674237905E+02  0.20194363822E+03  0.32308206894E+03  0.00000000000E+00 0. -1.
        -13    1    3    3    0    0 -0.19445713757E+03 -0.30788111304E+02  0.80607268903E+02  0.21274166952E+03  0.00000000000E+00 0.  1.
         22    1    1    2    0    0  0.44627811659E+03  0.17113873399E+02 -0.16384783007E+04  0.16982544520E+04  0.00000000000E+00 0. -1.
<mgrwt>
<rscale>  0 0.17755468E+04</rscale>
<asrwt>0</asrwt>
<pdfrwt beam="1">  1        1 0.27615428E+00 0.17755468E+04</pdfrwt>
<pdfrwt beam="2">  1       -1 0.67550061E-01 0.17755468E+04</pdfrwt>
<totfact> 0.86167751E+00</totfact>
</mgrwt>
</event>
<event>
 6    1  0.1637818E-005  0.3028857E+04  0.7818608E-02  0.8235538E-01
         -2   -1    0    0    0  501 -0.00000000000E+00  0.00000000000E+00  0.21459292669E+04  0.21459292669E+04  0.00000000000E+00 0. -1.
          2   -1    0    0  501    0  0.00000000000E+00 -0.00000000000E+00 -0.10687645359E+04  0.10687645359E+04  0.00000000000E+00 0.  1.
         23    2    1    2    0    0  0.89980198340E+03 -0.10096227800E+04 -0.18108194358E+03  0.13674887624E+04  0.90846451346E+02 0.  0.
         13    1    3    3    0    0  0.31024354751E+03 -0.29154594953E+03 -0.76113374722E+02  0.43248508098E+03  0.00000000000E+00 0. -1.
        -13    1    3    3    0    0  0.58955843589E+03 -0.71807683043E+03 -0.10496856886E+03  0.93500368138E+03  0.00000000000E+00 0.  1.
         22    1    1    2    0    0 -0.89980198340E+03  0.10096227800E+04  0.12582466746E+04  0.18472050404E+04  0.00000000000E+00 0. -1.
<mgrwt>
<rscale>  0 0.30288566E+04</rscale>
<asrwt>0</asrwt>
<pdfrwt beam="1">  1        2 0.16442531E+00 0.30288566E+04</pdfrwt>
<pdfrwt beam="2">  1       -2 0.33014296E+00 0.30288566E+04</pdfrwt>
<totfact> 0.40297751E-01</totfact>
</mgrwt>
</event>
<event>
 6    1  0.1637818E-005  0.1355437E+04  0.7818608E-02  0.8986723E-01
         -2   -1    0    0    0  501 -0.00000000000E+00  0.00000000000E+00  0.10430579323E+04  0.10430579323E+04  0.00000000000E+00 0.  1.
          2   -1    0    0  501    0  0.00000000000E+00 -0.00000000000E+00 -0.44034211449E+03  0.44034211449E+03  0.00000000000E+00 0. -1.
         23    2    1    2    0    0  0.60545743881E+03 -0.23611705494E+03  0.10443110552E+03  0.66448757994E+03  0.91147760542E+02 0.  0.
         11    1    3    3    0    0  0.14771768693E+03 -0.84598779448E+02 -0.40233671057E+01  0.17027523601E+03  0.00000000000E+00 0. -1.
        -11    1    3    3    0    0  0.45773975188E+03 -0.15151827549E+03  0.10845447263E+03  0.49421234393E+03  0.00000000000E+00 0.  1.
         22    1    1    2    0    0 -0.60545743881E+03  0.23611705494E+03  0.49828471228E+03  0.81891246683E+03  0.00000000000E+00 0. -1.
<mgrwt>
<rscale>  0 0.13554370E+04</rscale>
<asrwt>0</asrwt>
<pdfrwt beam="1">  1        2 0.67744941E-01 0.13554370E+04</pdfrwt>
<pdfrwt beam="2">  1       -2 0.16047045E+00 0.13554370E+04</pdfrwt>
<totfact> 0.17376146E+01</totfact>
</mgrwt>
</event>
<event>
 6    1  0.1637818E-005  0.2498907E+04  0.7818608E-02  0.8403375E-01
         -1   -1    0    0    0  501 -0.00000000000E+00  0.00000000000E+00  0.19403644149E+04  0.19403644149E+04  0.00000000000E+00 0.  1.
          1   -1    0    0  501    0  0.00000000000E+00 -0.00000000000E+00 -0.80455684159E+03  0.80455684159E+03  0.00000000000E+00 0. -1.
         23    2    1    2    0    0 -0.95059242158E+03  0.78788289439E+03  0.76722071746E+03  0.14564175982E+04  0.90217424729E+02 0.  0.
         11    1    3    3    0    0 -0.88578692206E+02  0.89141597655E+02  0.10820137730E+03  0.16583108031E+03  0.00000000000E+00 0. -1.
        -11    1    3    3    0    0 -0.86201372937E+03  0.69874129673E+03  0.65901934016E+03  0.12905865179E+04  0.00000000000E+00 0.  1.
         22    1    1    2    0    0  0.95059242158E+03 -0.78788289439E+03  0.36858685586E+03  0.12885036583E+04  0.00000000000E+00 0.  1.
<mgrwt>
<rscale>  0 0.24989065E+04</rscale>
<asrwt>0</asrwt>
<pdfrwt beam="1">  1        1 0.12377798E+00 0.24989065E+04</pdfrwt>
<pdfrwt beam="2">  1       -1 0.29851760E+00 0.24989065E+04</pdfrwt>
<totfact> 0.65728090E-01</totfact>
</mgrwt>
</event>
<event>
 6    1  0.1637818E-005  0.3032678E+04  0.7818608E-02  0.8234461E-01
         -3   -1    0    0    0  501 -0.00000000000E+00  0.00000000000E+00  0.20107111266E+04  0.20107111266E+04  0.00000000000E+00 0.  1.
          3   -1    0    0  501    0  0.00000000000E+00 -0.00000000000E+00 -0.11435178301E+04  0.11435178301E+04  0.00000000000E+00 0. -1.
         23    2    1    2    0    0  0.44351897270E+02  0.43844583963E+03 -0.10735452116E+04  0.11640862981E+04  0.91628286877E+02 0.  0.
         13    1    3    3    0    0  0.46748141656E+02  0.14915262364E+03 -0.30133792679E+03  0.33946493193E+03  0.00000000000E+00 0.  1.
        -13    1    3    3    0    0 -0.23962443856E+01  0.28929321599E+03 -0.77220728483E+03  0.82462136617E+03  0.00000000000E+00 0. -1.
         22    1    1    2    0    0 -0.44351897270E+02 -0.43844583963E+03  0.19407385081E+04  0.19901426587E+04  0.00000000000E+00 0.  1.
<mgrwt>
<rscale>  0 0.30326780E+04</rscale>
<asrwt>0</asrwt>
<pdfrwt beam="1">  1        3 0.17592582E+00 0.30326780E+04</pdfrwt>
<pdfrwt beam="2">  1       -3 0.30934017E+00 0.30326780E+04</pdfrwt>
<totfact> 0.15777790E-02</totfact>
</mgrwt>
</event>
<event>
 6    1  0.1637818E-005  0.2566967E+04  0.7818608E-02  0.8379509E-01
          2   -1    0    0  501    0  0.00000000000E+00  0.00000000000E+00  0.10841364634E+04  0.10841364634E+04  0.00000000000E+00 0. -1.
         -2   -1    0    0    0  501 -0.00000000000E+00 -0.00000000000E+00 -0.15194861637E+04  0.15194861637E+04  0.00000000000E+00 0.  1.
         23    2    1    2    0    0  0.40172007570E+03 -0.10804239925E+04 -0.78726846167E+03  0.13984081908E+04  0.84016750912E+02 0.  0.
         13    1    3    3    0    0  0.14633913459E+03 -0.50240311483E+03 -0.33532367533E+03  0.62150301636E+03  0.00000000000E+00 0.  1.
        -13    1    3    3    0    0  0.25538094111E+03 -0.57802087770E+03 -0.45194478634E+03  0.77690517442E+03  0.00000000000E+00 0. -1.
         22    1    1    2    0    0 -0.40172007570E+03  0.10804239925E+04  0.35191876135E+03  0.12052144363E+04  0.00000000000E+00 0. -1.
<mgrwt>
<rscale>  0 0.25669674E+04</rscale>
<asrwt>0</asrwt>
<pdfrwt beam="1">  1        2 0.16679023E+00 0.25669674E+04</pdfrwt>
<pdfrwt beam="2">  1       -2 0.23376710E+00 0.25669674E+04</pdfrwt>
<totfact> 0.16006526E+00</totfact>
</mgrwt>
</event>
<event>
 6    1  0.1637818E-005  0.1655862E+04  0.7818608E-02  0.8786946E-01
          2   -1    0    0  501    0  0.00000000000E+00  0.00000000000E+00  0.23730058211E+04  0.23730058211E+04  0.00000000000E+00 0. -1.
         -2   -1    0    0    0  501 -0.00000000000E+00 -0.00000000000E+00 -0.28886154378E+03  0.28886154378E+03  0.00000000000E+00 0.  1.
         23    2    1    2    0    0 -0.51870228837E+03 -0.47046162330E+03  0.34278695526E+03  0.78497857594E+03  0.91116765846E+02 0.  0.
         11    1    3    3    0    0 -0.18560254444E+03 -0.19448675467E+03  0.87618561799E+02  0.28275504349E+03  0.00000000000E+00 0. -1.
        -11    1    3    3    0    0 -0.33309974393E+03 -0.27597486863E+03  0.25516839346E+03  0.50222353245E+03  0.00000000000E+00 0.  1.
         22    1    1    2    0    0  0.51870228837E+03  0.47046162330E+03  0.17413573221E+04  0.18768887890E+04  0.00000000000E+00 0. -1.
<mgrwt>
<rscale>  0 0.16558625E+04</rscale>
<asrwt>0</asrwt>
<pdfrwt beam="1">  1        2 0.36507781E+00 0.16558625E+04</pdfrwt>
<pdfrwt beam="2">  1       -2 0.44440239E-01 0.16558625E+04</pdfrwt>
<totfact> 0.18911843E+01</totfact>
</mgrwt>
</event>
<event>
 6    1  0.1637818E-005  0.2492540E+04  0.7818608E-02  0.8405648E-01
          2   -1    0    0  501    0  0.00000000000E+00  0.00000000000E+00  0.15791383318E+04  0.15791383318E+04  0.00000000000E+00 0. -1.
         -2   -1    0    0    0  501 -0.00000000000E+00 -0.00000000000E+00 -0.98356706851E+03  0.98356706851E+03  0.00000000000E+00 0.  1.
         23    2    1    2    0    0  0.10917391156E+04 -0.59757244307E+03  0.28447626076E+03  0.12798308071E+04  0.89738678887E+02 0.  0.
         13    1    3    3    0    0  0.42540680260E+03 -0.26278246340E+03  0.15047873728E+03  0.52217757626E+03  0.00000000000E+00 0.  1.
        -13    1    3    3    0    0  0.66633231303E+03 -0.33478997968E+03  0.13399752348E+03  0.75765323082E+03  0.00000000000E+00 0. -1.
         22    1    1    2    0    0 -0.10917391156E+04  0.59757244307E+03  0.31109500250E+03  0.12828745932E+04  0.00000000000E+00 0. -1.
<mgrwt>
<rscale>  0 0.24925396E+04</rscale>
<asrwt>0</asrwt>
<pdfrwt beam="1">  1        2 0.24294436E+00 0.24925396E+04</pdfrwt>
<pdfrwt beam="2">  1       -2 0.15131801E+00 0.24925396E+04</pdfrwt>
<totfact> 0.29933540E+00</totfact>
</mgrwt>
</event>
<event>
 6    1  0.1637818E-005  0.5509122E+03  0.7818608E-02  0.1001283E+00
         -1   -1    0    0    0  501 -0.00000000000E+00  0.00000000000E+00  0.33985000176E+03  0.33985000176E+03  0.00000000000E+00 0. -1.
          1   -1    0    0  501    0  0.00000000000E+00 -0.00000000000E+00 -0.22326338023E+03  0.22326338023E+03  0.00000000000E+00 0.  1.
         23    2    1    2    0    0 -0.46146490283E+02 -0.21479311898E+03  0.21658696183E+03  0.32173059348E+03  0.91296660499E+02 0.  0.
         11    1    3    3    0    0 -0.59335725824E+02 -0.11042343265E+03  0.77641554230E+02  0.14745261538E+03  0.00000000000E+00 0.  1.
        -11    1    3    3    0    0  0.13189235541E+02 -0.10436968633E+03  0.13894540760E+03  0.17427797811E+03  0.00000000000E+00 0. -1.
         22    1    1    2    0    0  0.46146490283E+02  0.21479311898E+03 -0.10000034030E+03  0.24138278851E+03  0.00000000000E+00 0.  1.
<mgrwt>
<rscale>  0 0.55091219E+03</rscale>
<asrwt>0</asrwt>
<pdfrwt beam="1">  1        1 0.34348212E-01 0.55091219E+03</pdfrwt>
<pdfrwt beam="2">  1       -1 0.52284616E-01 0.55091219E+03</pdfrwt>
<totfact> 0.48039364E+02</totfact>
</mgrwt>
</event>
<event>
 6    1  0.1637818E-005  0.1298566E+04  0.7818608E-02  0.9030703E-01
         -2   -1    0    0    0  501 -0.00000000000E+00  0.00000000000E+00  0.84416341453E+03  0.84416341453E+03  0.00000000000E+00 0.  1.
          2   -1    0    0  501    0  0.00000000000E+00 -0.00000000000E+00 -0.49939184665E+03  0.49939184665E+03  0.00000000000E+00 0. -1.
         23    2    1    2    0    0 -0.18102830553E+03 -0.16207001793E+03 -0.44579902645E+03  0.51648827311E+03  0.94791487798E+02 0.  0.
         13    1    3    3    0    0 -0.12005996831E+03 -0.83364124974E+02 -0.17525040732E+03  0.22820315201E+03  0.00000000000E+00 0.  1.
        -13    1    3    3    0    0 -0.60968337214E+02 -0.78705892955E+02 -0.27054861914E+03  0.28828512110E+03  0.00000000000E+00 0. -1.
         22    1    1    2    0    0  0.18102830553E+03  0.16207001793E+03  0.79057059434E+03  0.82706698806E+03  0.00000000000E+00 0.  1.
<mgrwt>
<rscale>  0 0.12985659E+04</rscale>
<asrwt>0</asrwt>
<pdfrwt beam="1">  1        2 0.76829515E-01 0.12985659E+04</pdfrwt>
<pdfrwt beam="2">  1       -2 0.12987130E+00 0.12985659E+04</pdfrwt>
<totfact> 0.26305899E+01</totfact>
</mgrwt>
</event>
<event>
 6    1  0.1637818E-005  0.4891622E+04  0.7818608E-02  0.7845446E-01
          1   -1    0    0  501    0  0.00000000000E+00  0.00000000000E+00  0.16009943157E+04  0.16009943157E+04  0.00000000000E+00 0. -1.
         -1   -1    0    0    0  501 -0.00000000000E+00 -0.00000000000E+00 -0.37364231871E+04  0.37364231871E+04  0.00000000000E+00 0.  1.
         23    2    1    2    0    0  0.19670597759E+04 -0.11581624871E+04 -0.20238624162E+04  0.30520047212E+04  0.89717502614E+02 0.  0.
         13    1    3    3    0    0  0.79796218160E+03 -0.42071259555E+03 -0.81460863036E+03  0.12154546277E+04  0.00000000000E+00 0. -1.
        -13    1    3    3    0    0  0.11690975943E+04 -0.73744989157E+03 -0.12092537859E+04  0.18365500935E+04  0.00000000000E+00 0.  1.
         22    1    1    2    0    0 -0.19670597759E+04  0.11581624871E+04 -0.11156645520E+03  0.22854127816E+04  0.00000000000E+00 0. -1.
<mgrwt>
<rscale>  0 0.48916223E+04</rscale>
<asrwt>0</asrwt>
<pdfrwt beam="1">  1        1 0.24630682E+00 0.48916223E+04</pdfrwt>
<pdfrwt beam="2">  1       -1 0.57483433E+00 0.48916223E+04</pdfrwt>
<totfact> 0.23145150E-03</totfact>
</mgrwt>
</event>
<event>
 6    1  0.1637818E-005  0.7657811E+03  0.7818608E-02  0.9610913E-01
          3   -1    0    0  501    0  0.00000000000E+00  0.00000000000E+00  0.10657435775E+04  0.10657435775E+04  0.00000000000E+00 0. -1.
         -3   -1    0    0    0  501 -0.00000000000E+00 -0.00000000000E+00 -0.13756138567E+03  0.13756138567E+03  0.00000000000E+00 0.  1.
         23    2    1    2    0    0 -0.28017956212E+03  0.20660181099E+03  0.24282158979E+03  0.43460212711E+03  0.93444042494E+02 0.  0.
         11    1    3    3    0    0 -0.59751680989E+02  0.50551632167E+01  0.25174653407E+02  0.65035230685E+02  0.00000000000E+00 0. -1.
        -11    1    3    3    0    0 -0.22042788114E+03  0.20154664778E+03  0.21764693639E+03  0.36956689642E+03  0.00000000000E+00 0.  1.
         22    1    1    2    0    0  0.28017956212E+03 -0.20660181099E+03  0.68536060205E+03  0.76870283607E+03  0.00000000000E+00 0. -1.
<mgrwt>
<rscale>  0 0.76578107E+03</rscale>
<asrwt>0</asrwt>
<pdfrwt beam="1">  1        3 0.16396054E+00 0.76578107E+03</pdfrwt>
<pdfrwt beam="2">  1       -3 0.21163291E-01 0.76578107E+03</pdfrwt>
<totfact> 0.14033879E+01</totfact>
</mgrwt>
</event>
<event>
 6    1  0.1637818E-005  0.4103069E+04  0.7818608E-02  0.7984071E-01
         -2   -1    0    0    0  501 -0.00000000000E+00  0.00000000000E+00  0.22952406956E+04  0.22952406956E+04  0.00000000000E+00 0. -1.
          2   -1    0    0  501    0  0.00000000000E+00 -0.00000000000E+00 -0.18337051320E+04  0.18337051320E+04  0.00000000000E+00 0.  1.
         23    2    1    2    0    0  0.14178262160E+04  0.11212008002E+04 -0.74334631314E+03  0.19566054422E+04  0.91753486442E+02 0.  0.
         13    1    3    3    0    0  0.80541445690E+03  0.57875859130E+03 -0.40964138206E+03  0.10730610497E+04  0.00000000000E+00 0. -1.
        -13    1    3    3    0    0  0.61241175906E+03  0.54244220885E+03 -0.33370493107E+03  0.88354439255E+03  0.00000000000E+00 0.  1.
         22    1    1    2    0    0 -0.14178262160E+04 -0.11212008002E+04  0.12048818768E+04  0.21723403854E+04  0.00000000000E+00 0. -1.
<mgrwt>
<rscale>  0 0.41030694E+04</rscale>
<asrwt>0</asrwt>
<pdfrwt beam="1">  1        2 0.28210848E+00 0.41030694E+04</pdfrwt>
<pdfrwt beam="2">  1       -2 0.35311395E+00 0.41030694E+04</pdfrwt>
<totfact> 0.96126555E-02</totfact>
</mgrwt>
</event>
<event>
 6    1  0.1637818E-005  0.1740902E+04  0.7818608E-02  0.8738374E-01
          2   -1    0    0  501    0  0.00000000000E+00  0.00000000000E+00  0.14113992734E+04  0.14113992734E+04  0.00000000000E+00 0. -1.
         -2   -1    0    0    0  501 -0.00000000000E+00 -0.00000000000E+00 -0.53683218009E+03  0.53683218009E+03  0.00000000000E+00 0.  1.
         23    2    1    2    0    0 -0.30286205794E+03 -0.24279894272E+02  0.13481510475E+04  0.13855621892E+04  0.99781730998E+02 0.  0.
         11    1    3    3    0    0 -0.13782790123E+03 -0.60173973171E+02  0.67439480078E+03  0.69096004568E+03  0.00000000000E+00 0.  1.
        -11    1    3    3    0    0 -0.16503415671E+03  0.35894078900E+02  0.67375624669E+03  0.69460214348E+03  0.00000000000E+00 0. -1.
         22    1    1    2    0    0  0.30286205794E+03  0.24279894272E+02 -0.47358395414E+03  0.56266926434E+03  0.00000000000E+00 0.  1.
<mgrwt>
<rscale>  0 0.17409015E+04</rscale>
<asrwt>0</asrwt>
<pdfrwt beam="1">  1        2 0.21713835E+00 0.17409015E+04</pdfrwt>
<pdfrwt beam="2">  1       -2 0.82589567E-01 0.17409015E+04</pdfrwt>
<totfact> 0.17392530E+01</totfact>
</mgrwt>
</event>
<event>
 6    1  0.1637818E-005  0.2431604E+04  0.7818608E-02  0.8427765E-01
          2   -1    0    0  501    0  0.00000000000E+00  0.00000000000E+00  0.16723817041E+04  0.16723817041E+04  0.00000000000E+00 0. -1.
         -2   -1    0    0    0  501 -0.00000000000E+00 -0.00000000000E+00 -0.88387406273E+03  0.88387406273E+03  0.00000000000E+00 0.  1.
         23    2    1    2    0    0  0.23965737242E+03 -0.11902873659E+04  0.39122614726E+03  0.12787377610E+04  0.88840832061E+02 0.  0.
         13    1    3    3    0    0  0.44345227467E+02 -0.42815273196E+03  0.14984001747E+03  0.45577767817E+03  0.00000000000E+00 0.  1.
        -13    1    3    3    0    0  0.19531214495E+03 -0.76213463398E+03  0.24138612979E+03  0.82296008283E+03  0.00000000000E+00 0. -1.
         22    1    1    2    0    0 -0.23965737242E+03  0.11902873659E+04  0.39728149412E+03  0.12775180058E+04  0.00000000000E+00 0.  1.
<mgrwt>
<rscale>  0 0.24316043E+04</rscale>
<asrwt>0</asrwt>
<pdfrwt beam="1">  1        2 0.25728949E+00 0.24316043E+04</pdfrwt>
<pdfrwt beam="2">  1       -2 0.13598062E+00 0.24316043E+04</pdfrwt>
<totfact> 0.35297555E+00</totfact>
</mgrwt>
</event>
<event>
 6    1  0.1637818E-005  0.1972447E+04  0.7818608E-02  0.8619612E-01
         -2   -1    0    0    0  501 -0.00000000000E+00  0.00000000000E+00  0.78017941667E+03  0.78017941667E+03  0.00000000000E+00 0.  1.
          2   -1    0    0  501    0  0.00000000000E+00 -0.00000000000E+00 -0.12466838664E+04  0.12466838664E+04  0.00000000000E+00 0. -1.
         23    2    1    2    0    0 -0.33346543069E+03  0.55135783761E+03  0.52920995508E+03  0.84084396007E+03  0.10844689974E+03 0.  0.
         13    1    3    3    0    0 -0.15810120649E+03  0.35490405963E+03  0.28673826020E+03  0.48287856952E+03  0.00000000000E+00 0. -1.
        -13    1    3    3    0    0 -0.17536422421E+03  0.19645377798E+03  0.24247169488E+03  0.35796539055E+03  0.00000000000E+00 0.  1.
         22    1    1    2    0    0  0.33346543069E+03 -0.55135783761E+03 -0.99571440478E+03  0.11860193230E+04  0.00000000000E+00 0. -1.
<mgrwt>
<rscale>  0 0.19724473E+04</rscale>
<asrwt>0</asrwt>
<pdfrwt beam="1">  1        2 0.19179752E+00 0.19724473E+04</pdfrwt>
<pdfrwt beam="2">  1       -2 0.12002760E+00 0.19724473E+04</pdfrwt>
<totfact> 0.87813771E+00</totfact>
</mgrwt>
</event>
<event>
 6    1  0.1637818E-005  0.3437715E+04  0.7818608E-02  0.8128711E-01
         -2   -1    0    0    0  501 -0.00000000000E+00  0.00000000000E+00  0.72568814676E+03  0.72568814676E+03  0.00000000000E+00 0. -1.
          2   -1    0    0  501    0  0.00000000000E+00 -0.00000000000E+00 -0.40712673063E+04  0.40712673063E+04  0.00000000000E+00 0.  1.
         23    2    1    2    0    0  0.93876266787E+03  0.13838769223E+04 -0.22215725424E+04  0.27820654913E+04  0.90073050138E+02 0.  0.
         11    1    3    3    0    0  0.45014617680E+03  0.64216191038E+03 -0.96996429476E+03  0.12473308433E+04  0.00000000000E+00 0. -1.
        -11    1    3    3    0    0  0.48861649107E+03  0.74171501188E+03 -0.12516082476E+04  0.15347346480E+04  0.00000000000E+00 0.  1.
         22    1    1    2    0    0 -0.93876266787E+03 -0.13838769223E+04 -0.11240066172E+04  0.20148899618E+04  0.00000000000E+00 0.  1.
<mgrwt>
<rscale>  0 0.34377146E+04</rscale>
<asrwt>0</asrwt>
<pdfrwt beam="1">  1        2 0.62634880E+00 0.34377146E+04</pdfrwt>
<pdfrwt beam="2">  1       -2 0.11164433E+00 0.34377146E+04</pdfrwt>
<totfact> 0.15610956E-01</totfact>
</mgrwt>
</event>
<event>
 6    1  0.1637818E-005  0.1383202E+04  0.7818608E-02  0.8966068E-01
          2   -1    0    0  501    0  0.00000000000E+00  0.00000000000E+00  0.25641226745E+03  0.25641226745E+03  0.00000000000E+00 0. -1.
         -2   -1    0    0    0  501 -0.00000000000E+00 -0.00000000000E+00 -0.18654031251E+04  0.18654031251E+04  0.00000000000E+00 0.  1.
         23    2    1    2    0    0 -0.11915814621E+03  0.66667207480E+02 -0.18434057738E+04  0.18505341118E+04  0.87683929746E+02 0.  0.
         13    1    3    3    0    0 -0.83636492693E+02 -0.31533569616E+00 -0.79395382287E+03  0.79834693912E+03  0.00000000000E+00 0.  1.
        -13    1    3    3    0    0 -0.35521653521E+02  0.66982543176E+02 -0.10494519509E+04  0.10521871727E+04  0.00000000000E+00 0. -1.
         22    1    1    2    0    0  0.11915814621E+03 -0.66667207480E+02  0.23441491619E+03  0.27128128076E+03  0.00000000000E+00 0. -1.
<mgrwt>
<rscale>  0 0.13832024E+04</rscale>
<asrwt>0</asrwt>
<pdfrwt beam="1">  1        2 0.39448041E-01 0.13832024E+04</pdfrwt>
<pdfrwt beam="2">  1       -2 0.28698510E+00 0.13832024E+04</pdfrwt>
<totfact> 0.48862696E+00</totfact>
</mgrwt>
</event>
<event>
 6    1  0.1637818E-005  0.1079907E+04  0.7818608E-02  0.9225000E-01
         -1   -1    0    0    0  501 -0.00000000000E+00  0.00000000000E+00  0.41874406683E+03  0.41874406683E+03  0.00000000000E+00 0.  1.
          1   -1    0    0  501    0  0.00000000000E+00 -0.00000000000E+00 -0.69624854272E+03  0.69624854272E+03  0.00000000000E+00 0. -1.
         23    2    1    2    0    0  0.47954461048E+03  0.96484948574E+02  0.86970162436E+02  0.50498101890E+03  0.90386069475E+02 0.  0.
         11    1    3    3    0    0  0.21595744026E+03  0.29336981586E+02 -0.45588803219E+01  0.21798866458E+03  0.00000000000E+00 0.  1.
        -11    1    3    3    0    0  0.26358717021E+03  0.67147966988E+02  0.91529042758E+02  0.28699235432E+03  0.00000000000E+00 0. -1.
         22    1    1    2    0    0 -0.47954461048E+03 -0.96484948574E+02 -0.36447463832E+03  0.61001159064E+03  0.00000000000E+00 0. -1.
<mgrwt>
<rscale>  0 0.10799073E+04</rscale>
<asrwt>0</asrwt>
<pdfrwt beam="1">  1        1 0.10711516E+00 0.10799073E+04</pdfrwt>
<pdfrwt beam="2">  1       -1 0.64422164E-01 0.10799073E+04</pdfrwt>
<totfact> 0.66980110E+01</totfact>
</mgrwt>
</event>
<event>
 6    1  0.1637818E-005  0.2466190E+04  0.7818608E-02  0.8415131E-01
          1   -1    0    0  501    0  0.00000000000E+00  0.00000000000E+00  0.25445319920E+04  0.25445319920E+04  0.00000000000E+00 0. -1.
         -1   -1    0    0    0  501 -0.00000000000E+00 -0.00000000000E+00 -0.59756488072E+03  0.59756488072E+03  0.00000000000E+00 0.  1.
         23    2    1    2    0    0  0.31694351748E+03 -0.11809583897E+04  0.78525654759E+03  0.14554767776E+04  0.81663292006E+02 0.  0.
         11    1    3    3    0    0  0.25874713658E+03 -0.98434110479E+03  0.68821272374E+03  0.12286229057E+04  0.00000000000E+00 0. -1.
        -11    1    3    3    0    0  0.58196380907E+02 -0.19661728488E+03  0.97043823851E+02  0.22685387194E+03  0.00000000000E+00 0.  1.
         22    1    1    2    0    0 -0.31694351748E+03  0.11809583897E+04  0.11617105637E+04  0.16866200951E+04  0.00000000000E+00 0.  1.
<mgrwt>
<rscale>  0 0.24661897E+04</rscale>
<asrwt>0</asrwt>
<pdfrwt beam="1">  1        1 0.39146646E+00 0.24661897E+04</pdfrwt>
<pdfrwt beam="2">  1       -1 0.91933060E-01 0.24661897E+04</pdfrwt>
<totfact> 0.12948539E+00</totfact>
</mgrwt>
</event>
<event>
 6    1  0.1637818E-005  0.2080697E+04  0.7818608E-02  0.8569795E-01
          2   -1    0    0  501    0  0.00000000000E+00  0.00000000000E+00  0.14307314676E+04  0.14307314676E+04  0.00000000000E+00 0. -1.
         -2   -1    0    0    0  501 -0.00000000000E+00 -0.00000000000E+00 -0.75648351079E+03  0.75648351079E+03  0.00000000000E+00 0.  1.
         23    2    1    2    0    0 -0.47010059429E+03  0.86608685609E+03 -0.62343190064E+01  0.98965197849E+03  0.90945922162E+02 0.  0.
         13    1    3    3    0    0 -0.11520777336E+03  0.23501404360E+03  0.37043144482E+02  0.26434187388E+03  0.00000000000E+00 0. -1.
        -13    1    3    3    0    0 -0.35489282093E+03  0.63107281249E+03 -0.43277463489E+02  0.72531010461E+03  0.00000000000E+00 0.  1.
         22    1    1    2    0    0  0.47010059429E+03 -0.86608685609E+03  0.68048227580E+03  0.11975629999E+04  0.00000000000E+00 0.  1.
<mgrwt>
<rscale>  0 0.20806968E+04</rscale>
<asrwt>0</asrwt>
<pdfrwt beam="1">  1        2 0.22011253E+00 0.20806968E+04</pdfrwt>
<pdfrwt beam="2">  1       -2 0.11638208E+00 0.20806968E+04</pdfrwt>
<totfact> 0.73467135E+00</totfact>
</mgrwt>
</event>
<event>
 6    1  0.1637818E-005  0.3601145E+04  0.7818608E-02  0.8090230E-01
          1   -1    0    0  501    0  0.00000000000E+00  0.00000000000E+00  0.30964097766E+04  0.30964097766E+04  0.00000000000E+00 0.  1.
         -1   -1    0    0    0  501 -0.00000000000E+00 -0.00000000000E+00 -0.10470386473E+04  0.10470386473E+04  0.00000000000E+00 0. -1.
         23    2    1    2    0    0 -0.69716441002E+03  0.13895496778E+04  0.20679673535E+04  0.25887033190E+04  0.89495121409E+02 0.  0.
         11    1    3    3    0    0 -0.12004059281E+03  0.28562020242E+03  0.36489540550E+03  0.47868288137E+03  0.00000000000E+00 0.  1.
        -11    1    3    3    0    0 -0.57712381721E+03  0.11039294754E+04  0.17030719480E+04  0.21100204376E+04  0.00000000000E+00 0. -1.
         22    1    1    2    0    0  0.69716441002E+03 -0.13895496778E+04 -0.18596224199E+02  0.15547451049E+04  0.00000000000E+00 0. -1.
<mgrwt>
<rscale>  0 0.36011447E+04</rscale>
<asrwt>0</asrwt>
<pdfrwt beam="1">  1        1 0.47637073E+00 0.36011447E+04</pdfrwt>
<pdfrwt beam="2">  1       -1 0.16108287E+00 0.36011447E+04</pdfrwt>
<totfact> 0.11769448E-01</totfact>
</mgrwt>
</event>
<event>
 6    1  0.1637818E-005  0.3679106E+04  0.7818608E-02  0.8072608E-01
          2   -1    0    0  501    0  0.00000000000E+00  0.00000000000E+00  0.17921764193E+04  0.17921764193E+04  0.00000000000E+00 0. -1.
         -2   -1    0    0    0  501 -0.00000000000E+00 -0.00000000000E+00 -0.18881815626E+04  0.18881815626E+04  0.00000000000E+00 0.  1.
         23    2    1    2    0    0 -0.16748018170E+04 -0.63470962249E+03 -0.46262966000E+03  0.18521810300E+04  0.93439469585E+02 0.  0.
         11    1    3    3    0    0 -0.11672813757E+04 -0.41597663518E+03 -0.28321826583E+03  0.12711392360E+04  0.00000000000E+00 0. -1.
        -11    1    3    3    0    0 -0.50752044131E+03 -0.21873298731E+03 -0.17941139418E+03  0.58104179406E+03  0.00000000000E+00 0.  1.
         22    1    1    2    0    0  0.16748018170E+04  0.63470962249E+03  0.36662451669E+03  0.18281769519E+04  0.00000000000E+00 0. -1.
<mgrwt>
<rscale>  0 0.36791056E+04</rscale>
<asrwt>0</asrwt>
<pdfrwt beam="1">  1        2 0.27571945E+00 0.36791056E+04</pdfrwt>
<pdfrwt beam="2">  1       -2 0.29048947E+00 0.36791056E+04</pdfrwt>
<totfact> 0.25646350E-01</totfact>
</mgrwt>
</event>
<event>
 6    1  0.1637818E-005  0.2913161E+04  0.7818608E-02  0.8268972E-01
          2   -1    0    0  501    0  0.00000000000E+00  0.00000000000E+00  0.29811877202E+04  0.29811877202E+04  0.00000000000E+00 0. -1.
         -2   -1    0    0    0  501 -0.00000000000E+00 -0.00000000000E+00 -0.71167178683E+03  0.71167178683E+03  0.00000000000E+00 0.  1.
         23    2    1    2    0    0 -0.53125311703E+03 -0.12083239947E+04  0.19123367369E+04  0.23254335570E+04  0.91283524969E+02 0.  0.
         13    1    3    3    0    0 -0.43254062297E+03 -0.10246653480E+04  0.16590093730E+04  0.19973338643E+04  0.00000000000E+00 0.  1.
        -13    1    3    3    0    0 -0.98712494063E+02 -0.18365864668E+03  0.25332736394E+03  0.32809969263E+03  0.00000000000E+00 0. -1.
         22    1    1    2    0    0  0.53125311703E+03  0.12083239947E+04  0.35717919649E+03  0.13674259501E+04  0.00000000000E+00 0.  1.
<mgrwt>
<rscale>  0 0.29131613E+04</rscale>
<asrwt>0</asrwt>
<pdfrwt beam="1">  1        2 0.45864426E+00 0.29131613E+04</pdfrwt>
<pdfrwt beam="2">  1       -2 0.10948797E+00 0.29131613E+04</pdfrwt>
<totfact> 0.10243532E+00</totfact>
</mgrwt>
</event>
<event>
 6    1  0.1637818E-005  0.7171432E+03  0.7818608E-02  0.9688356E-01
          1   -1    0    0  501    0  0.00000000000E+00  0.00000000000E+00  0.16353638535E+04  0.16353638535E+04  0.00000000000E+00 0. -1.
         -1   -1    0    0    0  501 -0.00000000000E+00 -0.00000000000E+00 -0.78620778411E+02  0.78620778411E+02  0.00000000000E+00 0.  1.
         23    2    1    2    0    0  0.48186274717E+02 -0.32420877787E+03  0.48233192246E+03  0.59068922392E+03  0.94002271863E+02 0.  0.
         11    1    3    3    0    0 -0.13932294747E+02 -0.21144438970E+03  0.31268224562E+03  0.37772083011E+03  0.00000000000E+00 0. -1.
        -11    1    3    3    0    0  0.62118569464E+02 -0.11276438817E+03  0.16964967685E+03  0.21296839382E+03  0.00000000000E+00 0.  1.
         22    1    1    2    0    0 -0.48186274717E+02  0.32420877787E+03  0.10744111526E+04  0.11232954080E+04  0.00000000000E+00 0.  1.
<mgrwt>
<rscale>  0 0.71714316E+03</rscale>
<asrwt>0</asrwt>
<pdfrwt beam="1">  1        1 0.25159441E+00 0.71714316E+03</pdfrwt>
<pdfrwt beam="2">  1       -1 0.12095506E-01 0.71714316E+03</pdfrwt>
<totfact> 0.25157723E+02</totfact>
</mgrwt>
</event>
<event>
 6    1  0.1637818E-005  0.3550820E+04  0.7818608E-02  0.8101851E-01
          2   -1    0    0  501    0  0.00000000000E+00  0.00000000000E+00  0.26304398617E+04  0.26304398617E+04  0.00000000000E+00 0. -1.
         -2   -1    0    0    0  501 -0.00000000000E+00 -0.00000000000E+00 -0.11983092563E+04  0.11983092563E+04  0.00000000000E+00 0.  1.
         23    2    1    2    0    0 -0.16905750592E+04  0.53709153320E+03  0.75396319654E+03  0.19296908302E+04  0.93460433534E+02 0.  0.
         11    1    3    3    0    0 -0.23267504791E+03  0.41937488985E+02  0.90946024747E+02  0.25331326519E+03  0.00000000000E+00 0. -1.
        -11    1    3    3    0    0 -0.14579000113E+04  0.49515404422E+03  0.66301717179E+03  0.16763775651E+04  0.00000000000E+00 0.  1.
         22    1    1    2    0    0  0.16905750592E+04 -0.53709153320E+03  0.67816740890E+03  0.18990582878E+04  0.00000000000E+00 0. -1.
<mgrwt>
<rscale>  0 0.35508199E+04</rscale>
<asrwt>0</asrwt>
<pdfrwt beam="1">  1        2 0.40468306E+00 0.35508199E+04</pdfrwt>
<pdfrwt beam="2">  1       -2 0.18435527E+00 0.35508199E+04</pdfrwt>
<totfact> 0.40436961E-01</totfact>
</mgrwt>
</event>
<event>
 6    1  0.1637818E-005  0.2364572E+04  0.7818608E-02  0.8452888E-01
          1   -1    0    0  501    0  0.00000000000E+00  0.00000000000E+00  0.10051582727E+04  0.10051582727E+04  0.00000000000E+00 0. -1.
         -1   -1    0    0    0  501 -0.00000000000E+00 -0.00000000000E+00 -0.13906265867E+04  0.13906265867E+04  0.00000000000E+00 0.  1.
         23    2    1    2    0    0 -0.10352239498E+04  0.56720252682E+03 -0.21059930199E+03  0.12024758031E+04  0.90491205949E+02 0.  0.
         13    1    3    3    0    0 -0.36965826016E+03  0.16000903816E+03 -0.93229445411E+02  0.41345114716E+03  0.00000000000E+00 0. -1.
        -13    1    3    3    0    0 -0.66556568962E+03  0.40719348866E+03 -0.11736985658E+03  0.78902465592E+03  0.00000000000E+00 0.  1.
         22    1    1    2    0    0  0.10352239498E+04 -0.56720252682E+03 -0.17486901196E+03  0.11933090564E+04  0.00000000000E+00 0.  1.
<mgrwt>
<rscale>  0 0.23645717E+04</rscale>
<asrwt>0</asrwt>
<pdfrwt beam="1">  1        1 0.15463974E+00 0.23645717E+04</pdfrwt>
<pdfrwt beam="2">  1       -1 0.21394255E+00 0.23645717E+04</pdfrwt>
<totfact> 0.16288745E+00</totfact>
</mgrwt>
</event>
<event>
 6    1  0.1637818E-005  0.1790753E+04  0.7818608E-02  0.8711232E-01
         -1   -1    0    0    0  501 -0.00000000000E+00  0.00000000000E+00  0.52859544033E+03  0.52859544033E+03  0.00000000000E+00 0.  1.
          1   -1    0    0  501    0  0.00000000000E+00 -0.00000000000E+00 -0.15166588859E+04  0.15166588859E+04  0.00000000000E+00 0. -1.
         23    2    1    2    0    0  0.37012906812E+03  0.77122508937E+03 -0.20254663555E+03  0.88386708489E+03  0.91718147799E+02 0.  0.
         11    1    3    3    0    0  0.17832561097E+03  0.26950471462E+03 -0.71351207477E+02  0.33094381628E+03  0.00000000000E+00 0.  1.
        -11    1    3    3    0    0  0.19180345715E+03  0.50172037475E+03 -0.13119542807E+03  0.55292326861E+03  0.00000000000E+00 0. -1.
         22    1    1    2    0    0 -0.37012906812E+03 -0.77122508937E+03 -0.78551681006E+03  0.11613872414E+04  0.00000000000E+00 0.  1.
<mgrwt>
<rscale>  0 0.17907529E+04</rscale>
<asrwt>0</asrwt>
<pdfrwt beam="1">  1        1 0.23333213E+00 0.17907529E+04</pdfrwt>
<pdfrwt beam="2">  1       -1 0.81322377E-01 0.17907529E+04</pdfrwt>
<totfact> 0.90599094E+00</totfact>
</mgrwt>
</event>
<event>
 6    1  0.1637818E-005  0.4813234E+03  0.7818608E-02  0.1018772E+00
         -2   -1    0    0    0  501 -0.00000000000E+00  0.00000000000E+00  0.44478557809E+03  0.44478557809E+03  0.00000000000E+00 0. -1.
          2   -1    0    0  501    0  0.00000000000E+00 -0.00000000000E+00 -0.13021569759E+03  0.13021569759E+03  0.00000000000E+00 0.  1.
         23    2    1    2    0    0 -0.10492314714E+03  0.89894695454E+01  0.41022381754E+03  0.43273619549E+03  0.88810793518E+02 0.  0.
         13    1    3    3    0    0 -0.46922016745E+02 -0.39532638700E+02  0.20687032266E+03  0.21577728234E+03  0.00000000000E+00 0. -1.
        -13    1    3    3    0    0 -0.58001130397E+02  0.48522108246E+02  0.20335349488E+03  0.21695891315E+03  0.00000000000E+00 0.  1.
         22    1    1    2    0    0  0.10492314714E+03 -0.89894695454E+01 -0.95653937035E+02  0.14226508018E+03  0.00000000000E+00 0.  1.
<mgrwt>
<rscale>  0 0.48132344E+03</rscale>
<asrwt>0</asrwt>
<pdfrwt beam="1">  1        2 0.20033184E-01 0.48132344E+03</pdfrwt>
<pdfrwt beam="2">  1       -2 0.68428550E-01 0.48132344E+03</pdfrwt>
<totfact> 0.55814985E+02</totfact>
</mgrwt>
</event>
<event>
 6    1  0.1637818E-005  0.1999114E+04  0.7818608E-02  0.8607035E-01
         -2   -1    0    0    0  501 -0.00000000000E+00  0.00000000000E+00  0.72568843771E+03  0.72568843771E+03  0.00000000000E+00 0. -1.
          2   -1    0    0  501    0  0.00000000000E+00 -0.00000000000E+00 -0.13767806880E+04  0.13767806880E+04  0.00000000000E+00 0.  1.
         23    2    1    2    0    0  0.48300944996E+03 -0.36867946606E+03 -0.11578851492E+04  0.13112285051E+04  0.96951000899E+02 0.  0.
         11    1    3    3    0    0  0.26509579615E+03 -0.24769346084E+03 -0.75156565711E+03  0.83455303524E+03  0.00000000000E+00 0. -1.
        -11    1    3    3    0    0  0.21791365381E+03 -0.12098600522E+03 -0.40631949204E+03  0.47667546988E+03  0.00000000000E+00 0.  1.
         22    1    1    2    0    0 -0.48300944996E+03  0.36867946606E+03  0.50679289882E+03  0.79124062063E+03  0.00000000000E+00 0. -1.
<mgrwt>
<rscale>  0 0.19991136E+04</rscale>
<asrwt>0</asrwt>
<pdfrwt beam="1">  1        2 0.21181241E+00 0.19991136E+04</pdfrwt>
<pdfrwt beam="2">  1       -2 0.11164438E+00 0.19991136E+04</pdfrwt>
<totfact> 0.87883141E+00</totfact>
</mgrwt>
</event>
<event>
 6    1  0.1637818E-005  0.2084047E+04  0.7818608E-02  0.8568303E-01
          2   -1    0    0  501    0  0.00000000000E+00  0.00000000000E+00  0.20343687194E+04  0.20343687194E+04  0.00000000000E+00 0. -1.
         -2   -1    0    0    0  501 -0.00000000000E+00 -0.00000000000E+00 -0.53373473473E+03  0.53373473473E+03  0.00000000000E+00 0.  1.
         23    2    1    2    0    0  0.88994146723E+03 -0.25306727124E+03  0.13368591072E+04  0.16284965845E+04  0.93648249083E+02 0.  0.
         13    1    3    3    0    0  0.28707528273E+03 -0.95657472380E+02  0.36587792973E+03  0.47479388101E+03  0.00000000000E+00 0. -1.
        -13    1    3    3    0    0  0.60286618449E+03 -0.15740979886E+03  0.97098117745E+03  0.11537027035E+04  0.00000000000E+00 0.  1.
         22    1    1    2    0    0 -0.88994146723E+03  0.25306727124E+03  0.16377487747E+03  0.93960686957E+03  0.00000000000E+00 0.  1.
<mgrwt>
<rscale>  0 0.20840473E+04</rscale>
<asrwt>0</asrwt>
<pdfrwt beam="1">  1        2 0.31297980E+00 0.20840473E+04</pdfrwt>
<pdfrwt beam="2">  1       -2 0.82113037E-01 0.20840473E+04</pdfrwt>
<totfact> 0.76876915E+00</totfact>
</mgrwt>
</event>
<event>
 6    1  0.1637818E-005  0.6534872E+04  0.7818608E-02  0.7627404E-01
         -1   -1    0    0    0  501 -0.00000000000E+00  0.00000000000E+00  0.36028991206E+04  0.36028991206E+04  0.00000000000E+00 0.  1.
          1   -1    0    0  501    0  0.00000000000E+00 -0.00000000000E+00 -0.29632072836E+04  0.29632072836E+04  0.00000000000E+00 0. -1.
         23    2    1    2    0    0 -0.33979085340E+03  0.14187728953E+04 -0.26169953856E+04  0.29975792545E+04  0.91881371909E+02 0.  0.
         13    1    3    3    0    0 -0.30019036897E+03  0.11182691094E+04 -0.20323876270E+04  0.23390680889E+04  0.00000000000E+00 0.  1.
        -13    1    3    3    0    0 -0.39600484435E+02  0.30050378593E+03 -0.58460775865E+03  0.65851116558E+03  0.00000000000E+00 0. -1.
         22    1    1    2    0    0  0.33979085340E+03 -0.14187728953E+04  0.32566872226E+04  0.35685271497E+04  0.00000000000E+00 0.  1.
<mgrwt>
<rscale>  0 0.65348717E+04</rscale>
<asrwt>0</asrwt>
<pdfrwt beam="1">  1        1 0.45587805E+00 0.65348717E+04</pdfrwt>
<pdfrwt beam="2">  1       -1 0.55429217E+00 0.65348717E+04</pdfrwt>
<totfact> 0.29699936E-04</totfact>
</mgrwt>
</event>
<event>
 6    1  0.1637818E-005  0.3029667E+04  0.7818608E-02  0.8235310E-01
          2   -1    0    0  501    0  0.00000000000E+00  0.00000000000E+00  0.27219585813E+04  0.27219585813E+04  0.00000000000E+00 0. -1.
         -2   -1    0    0    0  501 -0.00000000000E+00 -0.00000000000E+00 -0.84304015992E+03  0.84304015992E+03  0.00000000000E+00 0.  1.
         23    2    1    2    0    0  0.61424167996E+03 -0.66040366182E+03  0.23704406357E+04  0.25378571127E+04  0.91126722748E+02 0.  0.
         11    1    3    3    0    0  0.12906832070E+03 -0.15158766757E+03  0.63261948901E+03  0.66320801431E+03  0.00000000000E+00 0.  1.
        -11    1    3    3    0    0  0.48517335927E+03 -0.50881599425E+03  0.17378211466E+04  0.18746490984E+04  0.00000000000E+00 0. -1.
         22    1    1    2    0    0 -0.61424167996E+03  0.66040366182E+03 -0.49152221423E+03  0.10271416285E+04  0.00000000000E+00 0.  1.
<mgrwt>
<rscale>  0 0.30296669E+04</rscale>
<asrwt>0</asrwt>
<pdfrwt beam="1">  1        2 0.41876285E+00 0.30296669E+04</pdfrwt>
<pdfrwt beam="2">  1       -2 0.12969849E+00 0.30296669E+04</pdfrwt>
<totfact> 0.96080690E-01</totfact>
</mgrwt>
</event>
<event>
 6    1  0.1637818E-005  0.1943571E+04  0.7818608E-02  0.8633467E-01
          2   -1    0    0  501    0  0.00000000000E+00  0.00000000000E+00  0.21708587845E+04  0.21708587845E+04  0.00000000000E+00 0. -1.
         -2   -1    0    0    0  501 -0.00000000000E+00 -0.00000000000E+00 -0.43501987080E+03  0.43501987080E+03  0.00000000000E+00 0.  1.
         23    2    1    2    0    0  0.36088247036E+03  0.89011491222E+03  0.10472939823E+04  0.14240855952E+04  0.93028934768E+02 0.  0.
         11    1    3    3    0    0  0.73746566371E+02  0.11217225463E+03  0.17462414235E+03  0.22026066796E+03  0.00000000000E+00 0.  1.
        -11    1    3    3    0    0  0.28713590399E+03  0.77794265759E+03  0.87266983992E+03  0.12038249272E+04  0.00000000000E+00 0. -1.
         22    1    1    2    0    0 -0.36088247036E+03 -0.89011491222E+03  0.68854493143E+03  0.11817930601E+04  0.00000000000E+00 0.  1.
<mgrwt>
<rscale>  0 0.19435706E+04</rscale>
<asrwt>0</asrwt>
<pdfrwt beam="1">  1        2 0.33397827E+00 0.19435706E+04</pdfrwt>
<pdfrwt beam="2">  1       -2 0.66926135E-01 0.19435706E+04</pdfrwt>
<totfact> 0.10258918E+01</totfact>
</mgrwt>
</event>
<event>
 6    1  0.1637818E-005  0.8764122E+03  0.7818608E-02  0.9455557E-01
          2   -1    0    0  501    0  0.00000000000E+00  0.00000000000E+00  0.12555856572E+04  0.12555856572E+04  0.00000000000E+00 0. -1.
         -2   -1    0    0    0  501 -0.00000000000E+00 -0.00000000000E+00 -0.15293628235E+03  0.15293628235E+03  0.00000000000E+00 0.  1.
         23    2    1    2    0    0 -0.32389737536E+03  0.17148815093E+03  0.18479540860E+03  0.42020336791E+03  0.90021284676E+02 0.  0.
         11    1    3    3    0    0 -0.10581541342E+03  0.14064163664E+02  0.70721280925E+02  0.12804765517E+03  0.00000000000E+00 0. -1.
        -11    1    3    3    0    0 -0.21808196193E+03  0.15742398727E+03  0.11407412767E+03  0.29215571275E+03  0.00000000000E+00 0.  1.
         22    1    1    2    0    0  0.32389737536E+03 -0.17148815093E+03  0.91785396628E+03  0.98831857166E+03  0.00000000000E+00 0.  1.
<mgrwt>
<rscale>  0 0.87641224E+03</rscale>
<asrwt>0</asrwt>
<pdfrwt beam="1">  1        2 0.19316702E+00 0.87641224E+03</pdfrwt>
<pdfrwt beam="2">  1       -2 0.23528660E-01 0.87641224E+03</pdfrwt>
<totfact> 0.28160619E+02</totfact>
</mgrwt>
</event>
<event>
 6    1  0.1637818E-005  0.1115142E+04  0.7818608E-02  0.9190557E-01
         -2   -1    0    0    0  501 -0.00000000000E+00  0.00000000000E+00  0.12379359156E+03  0.12379359156E+03  0.00000000000E+00 0.  1.
          2   -1    0    0  501    0  0.00000000000E+00 -0.00000000000E+00 -0.25113225451E+04  0.25113225451E+04  0.00000000000E+00 0. -1.
         23    2    1    2    0    0  0.22078853225E+03 -0.14459622938E+03 -0.23523747997E+04  0.23688616342E+04  0.90457716873E+02 0.  0.
         13    1    3    3    0    0  0.12483221455E+03 -0.11287566288E+03 -0.11503674551E+04  0.11626131252E+04  0.00000000000E+00 0. -1.
        -13    1    3    3    0    0  0.95956317697E+02 -0.31720566503E+02 -0.12020073446E+04  0.12062485091E+04  0.00000000000E+00 0.  1.
         22    1    1    2    0    0 -0.22078853225E+03  0.14459622938E+03 -0.35154153865E+02  0.26625450242E+03  0.00000000000E+00 0.  1.
<mgrwt>
<rscale>  0 0.11151424E+04</rscale>
<asrwt>0</asrwt>
<pdfrwt beam="1">  1        2 0.38635732E+00 0.11151424E+04</pdfrwt>
<pdfrwt beam="2">  1       -2 0.19045168E-01 0.11151424E+04</pdfrwt>
<totfact> 0.79894694E+01</totfact>
</mgrwt>
</event>
<event>
 6    1  0.1637818E-005  0.3285583E+04  0.7818608E-02  0.8166573E-01
          1   -1    0    0  501    0  0.00000000000E+00  0.00000000000E+00  0.15761605699E+04  0.15761605699E+04  0.00000000000E+00 0. -1.
         -1   -1    0    0    0  501 -0.00000000000E+00 -0.00000000000E+00 -0.17122394312E+04  0.17122394312E+04  0.00000000000E+00 0.  1.
         23    2    1    2    0    0  0.11479852097E+04  0.10703438000E+04  0.41275939018E+03  0.16256524802E+04  0.94179511076E+02 0.  0.
         13    1    3    3    0    0  0.95989336302E+03  0.85771741555E+03  0.31328982267E+03  0.13248490277E+04  0.00000000000E+00 0. -1.
        -13    1    3    3    0    0  0.18809184668E+03  0.21262638448E+03  0.99469567503E+02  0.30080345247E+03  0.00000000000E+00 0.  1.
         22    1    1    2    0    0 -0.11479852097E+04 -0.10703438000E+04 -0.54883825152E+03  0.16627475209E+04  0.00000000000E+00 0.  1.
<mgrwt>
<rscale>  0 0.32855832E+04</rscale>
<asrwt>0</asrwt>
<pdfrwt beam="1">  1        1 0.24248624E+00 0.32855832E+04</pdfrwt>
<pdfrwt beam="2">  1       -1 0.26342145E+00 0.32855832E+04</pdfrwt>
<totfact> 0.27439416E-01</totfact>
</mgrwt>
</event>
<event>
 6    1  0.1637818E-005  0.3359376E+04  0.7818608E-02  0.8147949E-01
         -2   -1    0    0    0  501 -0.00000000000E+00  0.00000000000E+00  0.90431605853E+03  0.90431605853E+03  0.00000000000E+00 0. -1.
          2   -1    0    0  501    0  0.00000000000E+00 -0.00000000000E+00 -0.31198743988E+04  0.31198743988E+04  0.00000000000E+00 0.  1.
         23    2    1    2    0    0 -0.13551901328E+04  0.42997053706E+03 -0.21771955001E+04  0.26019082538E+04  0.91276265980E+02 0.  0.
         11    1    3    3    0    0 -0.57791792311E+03  0.15871608426E+03 -0.98799999884E+03  0.11555621658E+04  0.00000000000E+00 0. -1.
        -11    1    3    3    0    0 -0.77727220974E+03  0.27125445281E+03 -0.11891955013E+04  0.14463460881E+04  0.00000000000E+00 0.  1.
         22    1    1    2    0    0  0.13551901328E+04 -0.42997053706E+03 -0.38362840179E+02  0.14222822035E+04  0.00000000000E+00 0. -1.
<mgrwt>
<rscale>  0 0.33593764E+04</rscale>
<asrwt>0</asrwt>
<pdfrwt beam="1">  1        2 0.47998067E+00 0.33593764E+04</pdfrwt>
<pdfrwt beam="2">  1       -2 0.13912555E+00 0.33593764E+04</pdfrwt>
<totfact> 0.44301858E-01</totfact>
</mgrwt>
</event>
<event>
 6    1  0.1637818E-005  0.9109573E+03  0.7818608E-02  0.9411987E-01
          1   -1    0    0  501    0  0.00000000000E+00  0.00000000000E+00  0.99696249098E+03  0.99696249098E+03  0.00000000000E+00 0. -1.
         -1   -1    0    0    0  501 -0.00000000000E+00 -0.00000000000E+00 -0.20809288455E+03  0.20809288455E+03  0.00000000000E+00 0.  1.
         23    2    1    2    0    0  0.81263079568E+02  0.23211691467E+03  0.89763445387E+03  0.93614694834E+03  0.10070524283E+03 0.  0.
         11    1    3    3    0    0 -0.17257088672E+02  0.78296560648E+02  0.34134211319E+03  0.35063171100E+03  0.00000000000E+00 0.  1.
        -11    1    3    3    0    0  0.98520168240E+02  0.15382035402E+03  0.55629234068E+03  0.58551523734E+03  0.00000000000E+00 0. -1.
         22    1    1    2    0    0 -0.81263079568E+02 -0.23211691467E+03 -0.10876484744E+03  0.26890842720E+03  0.00000000000E+00 0.  1.
<mgrwt>
<rscale>  0 0.91095730E+03</rscale>
<asrwt>0</asrwt>
<pdfrwt beam="1">  1        1 0.15337884E+00 0.91095730E+03</pdfrwt>
<pdfrwt beam="2">  1       -1 0.32014290E-01 0.91095730E+03</pdfrwt>
<totfact> 0.13921516E+02</totfact>
</mgrwt>
</event>
<event>
 6    1  0.1637818E-005  0.3538455E+04  0.7818608E-02  0.8104737E-01
         -1   -1    0    0    0  501 -0.00000000000E+00  0.00000000000E+00  0.10520439252E+04  0.10520439252E+04  0.00000000000E+00 0.  1.
          1   -1    0    0  501    0  0.00000000000E+00 -0.00000000000E+00 -0.29753193708E+04  0.29753193708E+04  0.00000000000E+00 0. -1.
         23    2    1    2    0    0 -0.48383645446E+03  0.35871964685E+03 -0.28542667802E+04  0.29185250009E+04  0.90398168025E+02 0.  0.
         11    1    3    3    0    0 -0.10718695538E+03  0.36058657762E+02 -0.53575950531E+03  0.54756508082E+03  0.00000000000E+00 0.  1.
        -11    1    3    3    0    0 -0.37664949907E+03  0.32266098908E+03 -0.23185072749E+04  0.23709599201E+04  0.00000000000E+00 0. -1.
         22    1    1    2    0    0  0.48383645446E+03 -0.35871964685E+03  0.93099133451E+03  0.11088382951E+04  0.00000000000E+00 0.  1.
<mgrwt>
<rscale>  0 0.35384554E+04</rscale>
<asrwt>0</asrwt>
<pdfrwt beam="1">  1        1 0.45774145E+00 0.35384554E+04</pdfrwt>
<pdfrwt beam="2">  1       -1 0.16185291E+00 0.35384554E+04</pdfrwt>
<totfact> 0.14326524E-01</totfact>
</mgrwt>
</event>
<event>
 6    1  0.1637818E-005  0.1811810E+04  0.7818608E-02  0.8700044E-01
          2   -1    0    0  501    0  0.00000000000E+00  0.00000000000E+00  0.11726901124E+04  0.11726901124E+04  0.00000000000E+00 0. -1.
         -2   -1    0    0    0  501 -0.00000000000E+00 -0.00000000000E+00 -0.69981282493E+03  0.69981282493E+03  0.00000000000E+00 0.  1.
         23    2    1    2    0    0 -0.46075759280E+03  0.10166406420E+03  0.10333846448E+04  0.11398354556E+04  0.93316131428E+02 0.  0.
         11    1    3    3    0    0 -0.12951324102E+03  0.72505849894E+02  0.32444717296E+03  0.35678669526E+03  0.00000000000E+00 0. -1.
        -11    1    3    3    0    0 -0.33124435178E+03  0.29158214302E+02  0.70893747185E+03  0.78304876032E+03  0.00000000000E+00 0.  1.
         22    1    1    2    0    0  0.46075759280E+03 -0.10166406420E+03 -0.56050735731E+03  0.73266748179E+03  0.00000000000E+00 0.  1.
<mgrwt>
<rscale>  0 0.18118097E+04</rscale>
<asrwt>0</asrwt>
<pdfrwt beam="1">  1        2 0.18041386E+00 0.18118097E+04</pdfrwt>
<pdfrwt beam="2">  1       -2 0.10766351E+00 0.18118097E+04</pdfrwt>
<totfact> 0.12841466E+01</totfact>
</mgrwt>
</event>
<event>
 6    1  0.1637818E-005  0.2395245E+04  0.7818608E-02  0.8441286E-01
          1   -1    0    0  501    0  0.00000000000E+00  0.00000000000E+00  0.16553440404E+04  0.16553440404E+04  0.00000000000E+00 0. -1.
         -1   -1    0    0    0  501 -0.00000000000E+00 -0.00000000000E+00 -0.86646616313E+03  0.86646616313E+03  0.00000000000E+00 0.  1.
         23    2    1    2    0    0  0.19069026107E+03  0.34314166764E+03 -0.79392105758E+03  0.89105533295E+03  0.97775155202E+02 0.  0.
         11    1    3    3    0    0  0.17458275096E+03  0.32560865360E+03 -0.67233413030E+03  0.76715925009E+03  0.00000000000E+00 0. -1.
        -11    1    3    3    0    0  0.16107510106E+02  0.17533014042E+02 -0.12158692727E+03  0.12389608286E+03  0.00000000000E+00 0.  1.
         22    1    1    2    0    0 -0.19069026107E+03 -0.34314166764E+03  0.15827989348E+04  0.16307548705E+04  0.00000000000E+00 0. -1.
<mgrwt>
<rscale>  0 0.23952450E+04</rscale>
<asrwt>0</asrwt>
<pdfrwt beam="1">  1        1 0.25466831E+00 0.23952450E+04</pdfrwt>
<pdfrwt beam="2">  1       -1 0.13330249E+00 0.23952450E+04</pdfrwt>
<totfact> 0.21809870E+00</totfact>
</mgrwt>
</event>
<event>
 6    1  0.1637818E-005  0.1477201E+04  0.7818608E-02  0.8899757E-01
          2   -1    0    0  501    0  0.00000000000E+00  0.00000000000E+00  0.16071441353E+04  0.16071441353E+04  0.00000000000E+00 0. -1.
         -2   -1    0    0    0  501 -0.00000000000E+00 -0.00000000000E+00 -0.33944088149E+03  0.33944088149E+03  0.00000000000E+00 0.  1.
         23    2    1    2    0    0 -0.67582960554E+03  0.78072332395E+02  0.26734595030E+03  0.73680996353E+03  0.92596546410E+02 0.  0.
         13    1    3    3    0    0 -0.26544571464E+03  0.53934676081E+02  0.64728114426E+02  0.27849614989E+03  0.00000000000E+00 0.  1.
        -13    1    3    3    0    0 -0.41038389090E+03  0.24137656313E+02  0.20261783588E+03  0.45831381364E+03  0.00000000000E+00 0. -1.
         22    1    1    2    0    0  0.67582960554E+03 -0.78072332395E+02  0.10003573035E+04  0.12097750533E+04  0.00000000000E+00 0. -1.
<mgrwt>
<rscale>  0 0.14772006E+04</rscale>
<asrwt>0</asrwt>
<pdfrwt beam="1">  1        2 0.24725294E+00 0.14772006E+04</pdfrwt>
<pdfrwt beam="2">  1       -2 0.52221675E-01 0.14772006E+04</pdfrwt>
<totfact> 0.37009830E+01</totfact>
</mgrwt>
</event>
<event>
 6    1  0.1637818E-005  0.2736542E+04  0.7818608E-02  0.8323245E-01
          2   -1    0    0  501    0  0.00000000000E+00  0.00000000000E+00  0.10510116290E+04  0.10510116290E+04  0.00000000000E+00 0. -1.
         -2   -1    0    0    0  501 -0.00000000000E+00 -0.00000000000E+00 -0.17812985927E+04  0.17812985927E+04  0.00000000000E+00 0.  1.
         23    2    1    2    0    0  0.54214118095E+03  0.46252698962E+03  0.84147535082E+03  0.11065393650E+04  0.92197201854E+02 0.  0.
         11    1    3    3    0    0  0.48242712738E+03  0.41178147955E+03  0.69856076930E+03  0.94355024696E+03  0.00000000000E+00 0. -1.
        -11    1    3    3    0    0  0.59714053573E+02  0.50745510068E+02  0.14291458152E+03  0.16298911803E+03  0.00000000000E+00 0.  1.
         22    1    1    2    0    0 -0.54214118095E+03 -0.46252698962E+03 -0.15717623145E+04  0.17257708566E+04  0.00000000000E+00 0.  1.
<mgrwt>
<rscale>  0 0.27365420E+04</rscale>
<asrwt>0</asrwt>
<pdfrwt beam="1">  1        2 0.16169410E+00 0.27365420E+04</pdfrwt>
<pdfrwt beam="2">  1       -2 0.27404594E+00 0.27365420E+04</pdfrwt>
<totfact> 0.93607504E-01</totfact>
</mgrwt>
</event>
<event>
 6    1  0.1637818E-005  0.4115314E+04  0.7818608E-02  0.7981680E-01
         -1   -1    0    0    0  501 -0.00000000000E+00  0.00000000000E+00  0.12974254488E+04  0.12974254488E+04  0.00000000000E+00 0.  1.
          1   -1    0    0  501    0  0.00000000000E+00 -0.00000000000E+00 -0.32633497253E+04  0.32633497253E+04  0.00000000000E+00 0. -1.
         23    2    1    2    0    0 -0.12302745976E+04  0.75456550828E+03  0.64028348798E+03  0.15816371102E+04  0.93103768012E+02 0.  0.
         13    1    3    3    0    0 -0.33237551238E+03  0.23778609685E+03  0.21463564026E+03  0.46161040625E+03  0.00000000000E+00 0. -1.
        -13    1    3    3    0    0 -0.89789908520E+03  0.51677941144E+03  0.42564784772E+03  0.11200267040E+04  0.00000000000E+00 0.  1.
         22    1    1    2    0    0  0.12302745976E+04 -0.75456550828E+03 -0.26062077646E+04  0.29791380639E+04  0.00000000000E+00 0. -1.
<mgrwt>
<rscale>  0 0.41153143E+04</rscale>
<asrwt>0</asrwt>
<pdfrwt beam="1">  1        1 0.50205380E+00 0.41153143E+04</pdfrwt>
<pdfrwt beam="2">  1       -1 0.19960392E+00 0.41153143E+04</pdfrwt>
<totfact> 0.44672024E-02</totfact>
</mgrwt>
</event>
<event>
 6    1  0.1637818E-005  0.1494753E+04  0.7818608E-02  0.8887950E-01
         -1   -1    0    0    0  501 -0.00000000000E+00  0.00000000000E+00  0.83931981966E+03  0.83931981966E+03  0.00000000000E+00 0.  1.
          1   -1    0    0  501    0  0.00000000000E+00 -0.00000000000E+00 -0.66550489860E+03  0.66550489860E+03  0.00000000000E+00 0. -1.
         23    2    1    2    0    0  0.49416513600E+03 -0.67820438488E+02  0.64374931883E+03  0.81952395821E+03  0.91692633702E+02 0.  0.
         11    1    3    3    0    0  0.16356256327E+03 -0.50514809051E+02  0.16738879583E+03  0.23942319647E+03  0.00000000000E+00 0. -1.
        -11    1    3    3    0    0  0.33060257273E+03 -0.17305629437E+02  0.47636052299E+03  0.58010076174E+03  0.00000000000E+00 0.  1.
         22    1    1    2    0    0 -0.49416513600E+03  0.67820438488E+02 -0.46993439778E+03  0.68530076005E+03  0.00000000000E+00 0. -1.
<mgrwt>
<rscale>  0 0.14947528E+04</rscale>
<asrwt>0</asrwt>
<pdfrwt beam="1">  1        1 0.10238537E+00 0.14947528E+04</pdfrwt>
<pdfrwt beam="2">  1       -1 0.12912613E+00 0.14947528E+04</pdfrwt>
<totfact> 0.14683377E+01</totfact>
</mgrwt>
</event>
<event>
 6    1  0.1637818E-005  0.2331645E+04  0.7818608E-02  0.8465548E-01
         -2   -1    0    0    0  501 -0.00000000000E+00  0.00000000000E+00  0.46283587164E+03  0.46283587164E+03  0.00000000000E+00 0.  1.
          2   -1    0    0  501    0  0.00000000000E+00 -0.00000000000E+00 -0.29365525989E+04  0.29365525989E+04  0.00000000000E+00 0. -1.
         23    2    1    2    0    0  0.71516867002E+03  0.81309009115E+03 -0.61612438071E+03  0.12492184659E+04  0.91410065701E+02 0.  0.
         11    1    3    3    0    0  0.63855539559E+03  0.74770607098E+03 -0.53185246999E+03  0.11178928444E+04  0.00000000000E+00 0. -1.
        -11    1    3    3    0    0  0.76613274436E+02  0.65384020166E+02 -0.84271910721E+02  0.13132562145E+03  0.00000000000E+00 0.  1.
         22    1    1    2    0    0 -0.71516867002E+03 -0.81309009115E+03 -0.18575923465E+04  0.21501700046E+04  0.00000000000E+00 0. -1.
<mgrwt>
<rscale>  0 0.23316448E+04</rscale>
<asrwt>0</asrwt>
<pdfrwt beam="1">  1        2 0.45177733E+00 0.23316448E+04</pdfrwt>
<pdfrwt beam="2">  1       -2 0.71205517E-01 0.23316448E+04</pdfrwt>
<totfact> 0.30900062E+00</totfact>
</mgrwt>
</event>
<event>
 6    1  0.1637818E-005  0.1585716E+04  0.7818608E-02  0.8829371E-01
          1   -1    0    0  501    0  0.00000000000E+00  0.00000000000E+00  0.20239946134E+04  0.20239946134E+04  0.00000000000E+00 0. -1.
         -1   -1    0    0    0  501 -0.00000000000E+00 -0.00000000000E+00 -0.31058581050E+03  0.31058581050E+03  0.00000000000E+00 0.  1.
         23    2    1    2    0    0 -0.16132230188E+03 -0.74842249254E+03  0.11468118165E+04  0.13821134914E+04  0.94335827634E+02 0.  0.
         13    1    3    3    0    0 -0.12628416965E+03 -0.40480590543E+03  0.58278699493E+03  0.72073309487E+03  0.00000000000E+00 0.  1.
        -13    1    3    3    0    0 -0.35038132234E+02 -0.34361658711E+03  0.56402482155E+03  0.66138039657E+03  0.00000000000E+00 0. -1.
         22    1    1    2    0    0  0.16132230188E+03  0.74842249254E+03  0.56659698645E+03  0.95246693249E+03  0.00000000000E+00 0.  1.
<mgrwt>
<rscale>  0 0.15857163E+04</rscale>
<asrwt>0</asrwt>
<pdfrwt beam="1">  1        1 0.31138378E+00 0.15857163E+04</pdfrwt>
<pdfrwt beam="2">  1       -1 0.47782434E-01 0.15857163E+04</pdfrwt>
<totfact> 0.12069335E+01</totfact>
</mgrwt>
</event>
<event>
 6    1  0.1637818E-005  0.3324641E+04  0.7818608E-02  0.8156654E-01
          1   -1    0    0  501    0  0.00000000000E+00  0.00000000000E+00  0.11418513920E+04  0.11418513920E+04  0.00000000000E+00 0. -1.
         -1   -1    0    0    0  501 -0.00000000000E+00 -0.00000000000E+00 -0.24200252730E+04  0.24200252730E+04  0.00000000000E+00 0.  1.
         23    2    1    2    0    0  0.14905043799E+04 -0.71955015380E+03 -0.49307693845E+03  0.17300106930E+04  0.10225654124E+03 0.  0.
         11    1    3    3    0    0  0.11480939144E+04 -0.57973502572E+03 -0.34513918005E+03  0.13316656449E+04  0.00000000000E+00 0.  1.
        -11    1    3    3    0    0  0.34241046551E+03 -0.13981512808E+03 -0.14793775840E+03  0.39834504803E+03  0.00000000000E+00 0. -1.
         22    1    1    2    0    0 -0.14905043799E+04  0.71955015380E+03 -0.78509694258E+03  0.18318659720E+04  0.00000000000E+00 0.  1.
<mgrwt>
<rscale>  0 0.33246409E+04</rscale>
<asrwt>0</asrwt>
<pdfrwt beam="1">  1        1 0.17566945E+00 0.33246409E+04</pdfrwt>
<pdfrwt beam="2">  1       -1 0.37231158E+00 0.33246409E+04</pdfrwt>
<totfact> 0.10759695E-01</totfact>
</mgrwt>
</event>
<event>
 6    1  0.1637818E-005  0.3988887E+04  0.7818608E-02  0.8006792E-01
          1   -1    0    0  501    0  0.00000000000E+00  0.00000000000E+00  0.31240429914E+04  0.31240429914E+04  0.00000000000E+00 0. -1.
         -1   -1    0    0    0  501 -0.00000000000E+00 -0.00000000000E+00 -0.12732877068E+04  0.12732877068E+04  0.00000000000E+00 0.  1.
         23    2    1    2    0    0 -0.12804795678E+04 -0.13741298622E+04  0.18965405297E+03  0.18899180669E+04  0.89223528991E+02 0.  0.
         11    1    3    3    0    0 -0.34800381489E+03 -0.40924735545E+03  0.86537111564E+02  0.54413116507E+03  0.00000000000E+00 0. -1.
        -11    1    3    3    0    0 -0.93247575289E+03 -0.96488250678E+03  0.10311694141E+03  0.13457869019E+04  0.00000000000E+00 0.  1.
         22    1    1    2    0    0  0.12804795678E+04  0.13741298622E+04  0.16611012317E+04  0.25074126313E+04  0.00000000000E+00 0. -1.
<mgrwt>
<rscale>  0 0.39888873E+04</rscale>
<asrwt>0</asrwt>
<pdfrwt beam="1">  1        1 0.48062200E+00 0.39888873E+04</pdfrwt>
<pdfrwt beam="2">  1       -1 0.19589042E+00 0.39888873E+04</pdfrwt>
<totfact> 0.60932522E-02</totfact>
</mgrwt>
</event>
<event>
 6    1  0.1637818E-005  0.1422188E+04  0.7818608E-02  0.8937912E-01
          1   -1    0    0  501    0  0.00000000000E+00  0.00000000000E+00  0.21474553834E+04  0.21474553834E+04  0.00000000000E+00 0. -1.
         -1   -1    0    0    0  501 -0.00000000000E+00 -0.00000000000E+00 -0.23546701454E+03  0.23546701454E+03  0.00000000000E+00 0.  1.
         23    2    1    2    0    0  0.14222987735E+03  0.49010611681E+02  0.21194061031E+04  0.21266930192E+04  0.91156952684E+02 0.  0.
         11    1    3    3    0    0  0.21288632924E+02 -0.18462546826E+02  0.69481603059E+03  0.69538722155E+03  0.00000000000E+00 0. -1.
        -11    1    3    3    0    0  0.12094124442E+03  0.67473158507E+02  0.14245900725E+04  0.14313057977E+04  0.00000000000E+00 0.  1.
         22    1    1    2    0    0 -0.14222987735E+03 -0.49010611681E+02 -0.20741773421E+03  0.25622937875E+03  0.00000000000E+00 0.  1.
<mgrwt>
<rscale>  0 0.14221883E+04</rscale>
<asrwt>0</asrwt>
<pdfrwt beam="1">  1        1 0.33037774E+00 0.14221883E+04</pdfrwt>
<pdfrwt beam="2">  1       -1 0.36225696E-01 0.14221883E+04</pdfrwt>
<totfact> 0.16819648E+01</totfact>
</mgrwt>
</event>
<event>
 6    1  0.1637818E-005  0.2004869E+04  0.7818608E-02  0.8604347E-01
         -1   -1    0    0    0  501 -0.00000000000E+00  0.00000000000E+00  0.33444924485E+03  0.33444924485E+03  0.00000000000E+00 0.  1.
          1   -1    0    0  501    0  0.00000000000E+00 -0.00000000000E+00 -0.30045675591E+04  0.30045675591E+04  0.00000000000E+00 0. -1.
         23    2    1    2    0    0 -0.47004045783E+03 -0.86881477802E+03 -0.10747701345E+04  0.14626072097E+04  0.91169389148E+02 0.  0.
         11    1    3    3    0    0 -0.13881669551E+03 -0.17985304387E+03 -0.26330648054E+03  0.34777506385E+03  0.00000000000E+00 0. -1.
        -11    1    3    3    0    0 -0.33122376232E+03 -0.68896173416E+03 -0.81146365392E+03  0.11148321459E+04  0.00000000000E+00 0.  1.
         22    1    1    2    0    0  0.47004045783E+03  0.86881477802E+03 -0.15953481798E+04  0.18764095942E+04  0.00000000000E+00 0.  1.
<mgrwt>
<rscale>  0 0.20048694E+04</rscale>
<asrwt>0</asrwt>
<pdfrwt beam="1">  1        1 0.46224117E+00 0.20048694E+04</pdfrwt>
<pdfrwt beam="2">  1       -1 0.51453729E-01 0.20048694E+04</pdfrwt>
<totfact> 0.20939388E+00</totfact>
</mgrwt>
</event>
<event>
 6    1  0.1637818E-005  0.1972952E+04  0.7818608E-02  0.8619372E-01
          1   -1    0    0  501    0  0.00000000000E+00  0.00000000000E+00  0.14553744747E+04  0.14553744747E+04  0.00000000000E+00 0. -1.
         -1   -1    0    0    0  501 -0.00000000000E+00 -0.00000000000E+00 -0.66864888180E+03  0.66864888180E+03  0.00000000000E+00 0.  1.
         23    2    1    2    0    0 -0.62374780085E+02  0.25932803609E+03  0.14143270190E+04  0.14420957990E+04  0.90430820512E+02 0.  0.
         13    1    3    3    0    0 -0.14395631536E+02  0.21411907411E+03  0.10246584387E+04  0.10468902178E+04  0.00000000000E+00 0.  1.
        -13    1    3    3    0    0 -0.47979148550E+02  0.45208961983E+02  0.38966858034E+03  0.39520558124E+03  0.00000000000E+00 0. -1.
         22    1    1    2    0    0  0.62374780085E+02 -0.25932803609E+03 -0.62760142616E+03  0.68192755745E+03  0.00000000000E+00 0.  1.
<mgrwt>
<rscale>  0 0.19729516E+04</rscale>
<asrwt>0</asrwt>
<pdfrwt beam="1">  1        1 0.22390376E+00 0.19729516E+04</pdfrwt>
<pdfrwt beam="2">  1       -1 0.10286906E+00 0.19729516E+04</pdfrwt>
<totfact> 0.58336642E+00</totfact>
</mgrwt>
</event>
<event>
 6    1  0.1637818E-005  0.2821671E+04  0.7818608E-02  0.8296572E-01
          2   -1    0    0  501    0  0.00000000000E+00  0.00000000000E+00  0.23932027542E+04  0.23932027542E+04  0.00000000000E+00 0. -1.
         -2   -1    0    0    0  501 -0.00000000000E+00 -0.00000000000E+00 -0.83171253580E+03  0.83171253580E+03  0.00000000000E+00 0.  1.
         23    2    1    2    0    0  0.69332222570E+02 -0.13732407212E+04  0.11350536120E+04  0.17853163129E+04  0.91709321389E+02 0.  0.
         11    1    3    3    0    0  0.69940748025E+02 -0.62940908935E+03  0.48934821628E+03  0.80031817846E+03  0.00000000000E+00 0. -1.
        -11    1    3    3    0    0 -0.60852545462E+00 -0.74383163186E+03  0.64570539573E+03  0.98499813448E+03  0.00000000000E+00 0.  1.
         22    1    1    2    0    0 -0.69332222570E+02  0.13732407212E+04  0.42643660638E+03  0.14395989771E+04  0.00000000000E+00 0. -1.
<mgrwt>
<rscale>  0 0.28216709E+04</rscale>
<asrwt>0</asrwt>
<pdfrwt beam="1">  1        2 0.36818504E+00 0.28216709E+04</pdfrwt>
<pdfrwt beam="2">  1       -2 0.12795578E+00 0.28216709E+04</pdfrwt>
<totfact> 0.15748877E+00</totfact>
</mgrwt>
</event>
<event>
 6    1  0.1637818E-005  0.1612323E+04  0.7818608E-02  0.8813013E-01
          2   -1    0    0  501    0  0.00000000000E+00  0.00000000000E+00  0.22839578983E+04  0.22839578983E+04  0.00000000000E+00 0. -1.
         -2   -1    0    0    0  501 -0.00000000000E+00 -0.00000000000E+00 -0.28454818891E+03  0.28454818891E+03  0.00000000000E+00 0.  1.
         23    2    1    2    0    0 -0.30485458616E+03  0.46511471299E+03  0.19270457770E+04  0.20076990316E+04  0.89899721146E+02 0.  0.
         11    1    3    3    0    0 -0.23543464909E+03  0.37385325552E+03  0.13890548433E+04  0.14576244675E+04  0.00000000000E+00 0. -1.
        -11    1    3    3    0    0 -0.69419937075E+02  0.91261457468E+02  0.53799093370E+03  0.55007456406E+03  0.00000000000E+00 0.  1.
         22    1    1    2    0    0  0.30485458616E+03 -0.46511471299E+03  0.72363932408E+02  0.56080705564E+03  0.00000000000E+00 0.  1.
<mgrwt>
<rscale>  0 0.16123227E+04</rscale>
<asrwt>0</asrwt>
<pdfrwt beam="1">  1        2 0.35137813E+00 0.16123227E+04</pdfrwt>
<pdfrwt beam="2">  1       -2 0.43776646E-01 0.16123227E+04</pdfrwt>
<totfact> 0.21970144E+01</totfact>
</mgrwt>
</event>
<event>
 6    1  0.1657593E-005  0.2547228E+04  0.7818608E-02  0.8386351E-01
          2   -1    0    0  501    0  0.00000000000E+00  0.00000000000E+00  0.23396125693E+04  0.23396125693E+04  0.00000000000E+00 0. -1.
         -2   -1    0    0    0  501 -0.00000000000E+00 -0.00000000000E+00 -0.69331695867E+03  0.69331695867E+03  0.00000000000E+00 0.  1.
         23    2    1    2    0    0 -0.74250154524E+03  0.60086902316E+02  0.20517149095E+04  0.21848235273E+04  0.94872520824E+02 0.  0.
         11    1    3    3    0    0 -0.86381558224E+02  0.28111548641E+02  0.32214104156E+03  0.33470417300E+03  0.00000000000E+00 0. -1.
        -11    1    3    3    0    0 -0.65611998701E+03  0.31975353674E+02  0.17295738679E+04  0.18501193543E+04  0.00000000000E+00 0.  1.
         22    1    1    2    0    0  0.74250154524E+03 -0.60086902316E+02 -0.40541929884E+03  0.84810600067E+03  0.00000000000E+00 0.  1.
<mgrwt>
<rscale>  0 0.25472284E+04</rscale>
<asrwt>0</asrwt>
<pdfrwt beam="1">  1        2 0.35994039E+00 0.25472284E+04</pdfrwt>
<pdfrwt beam="2">  1       -2 0.10666415E+00 0.25472284E+04</pdfrwt>
<totfact> 0.27061889E+00</totfact>
</mgrwt>
</event>
<event>
 6    1  0.1637818E-005  0.4889469E+04  0.7818608E-02  0.7845787E-01
          1   -1    0    0  501    0  0.00000000000E+00  0.00000000000E+00  0.27500934492E+04  0.27500934492E+04  0.00000000000E+00 0. -1.
         -1   -1    0    0    0  501 -0.00000000000E+00 -0.00000000000E+00 -0.21732817270E+04  0.21732817270E+04  0.00000000000E+00 0.  1.
         23    2    1    2    0    0  0.13489439957E+04 -0.68877903003E+03 -0.16427845617E+04  0.22362439699E+04  0.89328164618E+02 0.  0.
         13    1    3    3    0    0  0.61015744076E+03 -0.32536209654E+03 -0.81315293748E+03  0.10674128986E+04  0.00000000000E+00 0. -1.
        -13    1    3    3    0    0  0.73878655494E+03 -0.36341693348E+03 -0.82963162424E+03  0.11688310713E+04  0.00000000000E+00 0.  1.
         22    1    1    2    0    0 -0.13489439957E+04  0.68877903003E+03  0.22195962840E+04  0.26871312062E+04  0.00000000000E+00 0. -1.
<mgrwt>
<rscale>  0 0.48894694E+04</rscale>
<asrwt>0</asrwt>
<pdfrwt beam="1">  1        1 0.42309130E+00 0.48894694E+04</pdfrwt>
<pdfrwt beam="2">  1       -1 0.33435103E+00 0.48894694E+04</pdfrwt>
<totfact> 0.12984384E-02</totfact>
</mgrwt>
</event>
<event>
 6    1  0.2198511E-005  0.2820339E+04  0.7818608E-02  0.8296982E-01
          1   -1    0    0  501    0  0.00000000000E+00  0.00000000000E+00  0.22126701345E+04  0.22126701345E+04  0.00000000000E+00 0. -1.
         -1   -1    0    0    0  501 -0.00000000000E+00 -0.00000000000E+00 -0.89872308243E+03  0.89872308243E+03  0.00000000000E+00 0.  1.
         23    2    1    2    0    0  0.11710751813E+04 -0.28532966181E+02  0.15209299868E+04  0.19218247466E+04  0.89169062156E+02 0.  0.
         13    1    3    3    0    0  0.36160025601E+03 -0.45498414714E+01  0.40411241725E+03  0.54229354779E+03  0.00000000000E+00 0. -1.
        -13    1    3    3    0    0  0.80947492530E+03 -0.23983124709E+02  0.11168175695E+04  0.13795311988E+04  0.00000000000E+00 0.  1.
         22    1    1    2    0    0 -0.11710751813E+04  0.28532966181E+02 -0.20698293465E+03  0.11895684704E+04  0.00000000000E+00 0.  1.
<mgrwt>
<rscale>  0 0.28203388E+04</rscale>
<asrwt>0</asrwt>
<pdfrwt beam="1">  1        1 0.34041079E+00 0.28203388E+04</pdfrwt>
<pdfrwt beam="2">  1       -1 0.13826509E+00 0.28203388E+04</pdfrwt>
<totfact> 0.79904381E-01</totfact>
</mgrwt>
</event>
<event>
 6    1  0.1637818E-005  0.4239065E+03  0.7818608E-02  0.1035802E+00
          2   -1    0    0  501    0  0.00000000000E+00  0.00000000000E+00  0.44847362825E+03  0.44847362825E+03  0.00000000000E+00 0. -1.
         -2   -1    0    0    0  501 -0.00000000000E+00 -0.00000000000E+00 -0.10017129925E+03  0.10017129925E+03  0.00000000000E+00 0.  1.
         23    2    1    2    0    0 -0.29580438973E+02 -0.30795011604E+02  0.43761110930E+03  0.44965304224E+03  0.94133098876E+02 0.  0.
         13    1    3    3    0    0  0.28290289159E+02  0.11605203848E+02  0.10328860340E+03  0.10771980695E+03  0.00000000000E+00 0. -1.
        -13    1    3    3    0    0 -0.57870728132E+02 -0.42400215451E+02  0.33432250590E+03  0.34193323529E+03  0.00000000000E+00 0.  1.
         22    1    1    2    0    0  0.29580438973E+02  0.30795011604E+02 -0.89308780297E+02  0.98991885262E+02  0.00000000000E+00 0.  1.
<mgrwt>
<rscale>  0 0.42390653E+03</rscale>
<asrwt>0</asrwt>
<pdfrwt beam="1">  1        2 0.68995942E-01 0.42390653E+03</pdfrwt>
<pdfrwt beam="2">  1       -2 0.15410969E-01 0.42390653E+03</pdfrwt>
<totfact> 0.23163002E+03</totfact>
</mgrwt>
</event>
<event>
 6    1  0.2856206E-005  0.2956779E+04  0.7818608E-02  0.8256182E-01
         -2   -1    0    0    0  501 -0.00000000000E+00  0.00000000000E+00  0.15267334662E+04  0.15267334662E+04  0.00000000000E+00 0.  1.
          2   -1    0    0  501    0  0.00000000000E+00 -0.00000000000E+00 -0.14315760774E+04  0.14315760774E+04  0.00000000000E+00 0. -1.
         23    2    1    2    0    0 -0.56943519426E+03 -0.96021315447E+03  0.10151819792E+04  0.15116890026E+04  0.91342472036E+02 0.  0.
         13    1    3    3    0    0 -0.28560977077E+03 -0.56043943195E+03  0.59862913522E+03  0.86834448209E+03  0.00000000000E+00 0. -1.
        -13    1    3    3    0    0 -0.28382542350E+03 -0.39977372252E+03  0.41655284403E+03  0.64334452054E+03  0.00000000000E+00 0.  1.
         22    1    1    2    0    0  0.56943519426E+03  0.96021315447E+03 -0.92002459043E+03  0.14466205409E+04  0.00000000000E+00 0. -1.
<mgrwt>
<rscale>  0 0.29567787E+04</rscale>
<asrwt>0</asrwt>
<pdfrwt beam="1">  1        2 0.22024247E+00 0.29567787E+04</pdfrwt>
<pdfrwt beam="2">  1       -2 0.23488207E+00 0.29567787E+04</pdfrwt>
<totfact> 0.95047933E-01</totfact>
</mgrwt>
</event>
<event>
 6    1  0.1637818E-005  0.2432499E+04  0.7818608E-02  0.8427436E-01
         -1   -1    0    0    0  501 -0.00000000000E+00  0.00000000000E+00  0.57963445018E+03  0.57963445018E+03  0.00000000000E+00 0.  1.
          1   -1    0    0  501    0  0.00000000000E+00 -0.00000000000E+00 -0.25520608064E+04  0.25520608064E+04  0.00000000000E+00 0. -1.
         23    2    1    2    0    0  0.43556975701E+03 -0.11221872422E+04 -0.11956748770E+04  0.16990864194E+04  0.90725022059E+02 0.  0.
         11    1    3    3    0    0 -0.11203427973E+01 -0.32787772764E+02 -0.42599625942E+02  0.53768218691E+02  0.00000000000E+00 0.  1.
        -11    1    3    3    0    0  0.43669009980E+03 -0.10893994694E+04 -0.11530752510E+04  0.16453182008E+04  0.00000000000E+00 0. -1.
         22    1    1    2    0    0 -0.43556975701E+03  0.11221872422E+04 -0.77675147925E+03  0.14326088371E+04  0.00000000000E+00 0.  1.
<mgrwt>
<rscale>  0 0.24324986E+04</rscale>
<asrwt>0</asrwt>
<pdfrwt beam="1">  1        1 0.39262474E+00 0.24324986E+04</pdfrwt>
<pdfrwt beam="2">  1       -1 0.89174531E-01 0.24324986E+04</pdfrwt>
<totfact> 0.13726413E+00</totfact>
</mgrwt>
</event>
<event>
 6    1  0.1637818E-005  0.4132577E+03  0.7818608E-02  0.1039283E+00
          2   -1    0    0  501    0  0.00000000000E+00  0.00000000000E+00  0.14281932269E+04  0.14281932269E+04  0.00000000000E+00 0. -1.
         -2   -1    0    0    0  501 -0.00000000000E+00 -0.00000000000E+00 -0.29894744873E+02  0.29894744873E+02  0.00000000000E+00 0.  1.
         23    2    1    2    0    0 -0.16825286600E+03  0.34482293281E+02  0.10822838820E+04  0.10984168958E+04  0.75387135797E+02 0.  0.
         13    1    3    3    0    0 -0.11388891681E+03  0.43000734221E+02  0.55083064622E+03  0.56412245952E+03  0.00000000000E+00 0. -1.
        -13    1    3    3    0    0 -0.54363949192E+02 -0.85184409397E+01  0.53145323577E+03  0.53429443626E+03  0.00000000000E+00 0.  1.
         22    1    1    2    0    0  0.16825286600E+03 -0.34482293281E+02  0.31601460000E+03  0.35967107596E+03  0.00000000000E+00 0.  1.
<mgrwt>
<rscale>  0 0.41325765E+03</rscale>
<asrwt>0</asrwt>
<pdfrwt beam="1">  1        2 0.21972198E+00 0.41325765E+03</pdfrwt>
<pdfrwt beam="2">  1       -2 0.45991926E-02 0.41325765E+03</pdfrwt>
<totfact> 0.33212516E+03</totfact>
</mgrwt>
</event>
<event>
 6    1  0.1637818E-005  0.5288215E+04  0.7818608E-02  0.7785523E-01
          2   -1    0    0  501    0  0.00000000000E+00  0.00000000000E+00  0.34518814838E+04  0.34518814838E+04  0.00000000000E+00 0. -1.
         -2   -1    0    0    0  501 -0.00000000000E+00 -0.00000000000E+00 -0.20253604951E+04  0.20253604951E+04  0.00000000000E+00 0.  1.
         23    2    1    2    0    0 -0.41010735510E+03 -0.15104526313E+04 -0.14927874975E+04  0.21648384359E+04  0.91955133642E+02 0.  0.
         13    1    3    3    0    0 -0.37737867889E+03 -0.13098998542E+04 -0.12667570915E+04  0.18608938240E+04  0.00000000000E+00 0. -1.
        -13    1    3    3    0    0 -0.32728676210E+02 -0.20055277707E+03 -0.22603040600E+03  0.30394461185E+03  0.00000000000E+00 0.  1.
         22    1    1    2    0    0  0.41010735510E+03  0.15104526313E+04  0.29193084862E+04  0.33124035430E+04  0.00000000000E+00 0. -1.
<mgrwt>
<rscale>  0 0.52882150E+04</rscale>
<asrwt>0</asrwt>
<pdfrwt beam="1">  1        2 0.53105869E+00 0.52882150E+04</pdfrwt>
<pdfrwt beam="2">  1       -2 0.31159392E+00 0.52882150E+04</pdfrwt>
<totfact> 0.16829137E-02</totfact>
</mgrwt>
</event>
<event>
 6    1  0.1637818E-005  0.4353069E+04  0.7818608E-02  0.7936877E-01
         -1   -1    0    0    0  501 -0.00000000000E+00  0.00000000000E+00  0.24742253663E+04  0.24742253663E+04  0.00000000000E+00 0.  1.
          1   -1    0    0  501    0  0.00000000000E+00 -0.00000000000E+00 -0.19146605050E+04  0.19146605050E+04  0.00000000000E+00 0. -1.
         23    2    1    2    0    0 -0.14567821050E+04  0.91597079241E+03  0.16219142841E+04  0.23665597625E+04  0.93715370034E+02 0.  0.
         11    1    3    3    0    0 -0.10750428309E+04  0.62656497629E+03  0.11659684090E+04  0.17052222989E+04  0.00000000000E+00 0. -1.
        -11    1    3    3    0    0 -0.38173927411E+03  0.28940581612E+03  0.45594587513E+03  0.66133746366E+03  0.00000000000E+00 0.  1.
         22    1    1    2    0    0  0.14567821050E+04 -0.91597079241E+03 -0.10623494227E+04  0.20223261087E+04  0.00000000000E+00 0. -1.
<mgrwt>
<rscale>  0 0.43530686E+04</rscale>
<asrwt>0</asrwt>
<pdfrwt beam="1">  1        1 0.29456315E+00 0.43530686E+04</pdfrwt>
<pdfrwt beam="2">  1       -1 0.38065006E+00 0.43530686E+04</pdfrwt>
<totfact> 0.25072441E-02</totfact>
</mgrwt>
</event>
<event>
 6    1  0.1637818E-005  0.1468999E+04  0.7818608E-02  0.8905334E-01
          1   -1    0    0  501    0  0.00000000000E+00  0.00000000000E+00  0.10849731447E+04  0.10849731447E+04  0.00000000000E+00 0. -1.
         -1   -1    0    0    0  501 -0.00000000000E+00 -0.00000000000E+00 -0.49723758238E+03  0.49723758238E+03  0.00000000000E+00 0.  1.
         23    2    1    2    0    0 -0.42118460062E+03 -0.14593991679E+03  0.91993127262E+03  0.10262890446E+04  0.91108340519E+02 0.  0.
         11    1    3    3    0    0 -0.22029636065E+03 -0.10113605661E+03  0.58412136480E+03  0.63242134474E+03  0.00000000000E+00 0.  1.
        -11    1    3    3    0    0 -0.20088823997E+03 -0.44803860180E+02  0.33580990781E+03  0.39386769991E+03  0.00000000000E+00 0. -1.
         22    1    1    2    0    0  0.42118460062E+03  0.14593991679E+03 -0.33219571026E+03  0.55592168246E+03  0.00000000000E+00 0.  1.
<mgrwt>
<rscale>  0 0.14689989E+04</rscale>
<asrwt>0</asrwt>
<pdfrwt beam="1">  1        1 0.16691894E+00 0.14689989E+04</pdfrwt>
<pdfrwt beam="2">  1       -1 0.76498090E-01 0.14689989E+04</pdfrwt>
<totfact> 0.21650628E+01</totfact>
</mgrwt>
</event>
<event>
 6    1  0.1637818E-005  0.2215211E+04  0.7818608E-02  0.8512123E-01
         -1   -1    0    0    0  501 -0.00000000000E+00  0.00000000000E+00  0.82668527721E+03  0.82668527721E+03  0.00000000000E+00 0.  1.
          1   -1    0    0  501    0  0.00000000000E+00 -0.00000000000E+00 -0.14839871040E+04  0.14839871040E+04  0.00000000000E+00 0. -1.
         23    2    1    2    0    0 -0.92460831559E+03 -0.45735165668E+03 -0.74430405547E+03  0.12754716940E+04  0.93639948851E+02 0.  0.
         13    1    3    3    0    0 -0.40231367249E+03 -0.24677134871E+03 -0.31665053003E+03  0.56834843871E+03  0.00000000000E+00 0. -1.
        -13    1    3    3    0    0 -0.52229464310E+03 -0.21058030796E+03 -0.42765352545E+03  0.70712325527E+03  0.00000000000E+00 0.  1.
         22    1    1    2    0    0  0.92460831559E+03  0.45735165668E+03  0.87002228652E+02  0.10352006873E+04  0.00000000000E+00 0.  1.
<mgrwt>
<rscale>  0 0.22152113E+04</rscale>
<asrwt>0</asrwt>
<pdfrwt beam="1">  1        1 0.22830571E+00 0.22152113E+04</pdfrwt>
<pdfrwt beam="2">  1       -1 0.12718235E+00 0.22152113E+04</pdfrwt>
<totfact> 0.32749675E+00</totfact>
</mgrwt>
</event>
<event>
 6    1  0.1637818E-005  0.1921327E+04  0.7818608E-02  0.8644313E-01
         -2   -1    0    0    0  501 -0.00000000000E+00  0.00000000000E+00  0.17606792767E+04  0.17606792767E+04  0.00000000000E+00 0.  1.
          2   -1    0    0  501    0  0.00000000000E+00 -0.00000000000E+00 -0.52415824944E+03  0.52415824944E+03  0.00000000000E+00 0. -1.
         23    2    1    2    0    0  0.33960330444E+02 -0.93598068688E+03  0.37715740169E+03  0.10137281716E+04  0.90465186505E+02 0.  0.
         11    1    3    3    0    0  0.52553785228E+02 -0.67070209541E+03  0.30162977704E+03  0.73728130556E+03  0.00000000000E+00 0. -1.
        -11    1    3    3    0    0 -0.18593454785E+02 -0.26527859148E+03  0.75527624651E+02  0.27644686604E+03  0.00000000000E+00 0.  1.
         22    1    1    2    0    0 -0.33960330444E+02  0.93598068688E+03  0.85936362556E+03  0.12711093545E+04  0.00000000000E+00 0.  1.
<mgrwt>
<rscale>  0 0.19213272E+04</rscale>
<asrwt>0</asrwt>
<pdfrwt beam="1">  1        2 0.80639732E-01 0.19213272E+04</pdfrwt>
<pdfrwt beam="2">  1       -2 0.27087373E+00 0.19213272E+04</pdfrwt>
<totfact> 0.26092725E+00</totfact>
</mgrwt>
</event>
<event>
 6    1  0.1637818E-005  0.3210635E+04  0.7818608E-02  0.8186014E-01
         -2   -1    0    0    0  501 -0.00000000000E+00  0.00000000000E+00  0.22167819626E+04  0.22167819626E+04  0.00000000000E+00 0. -1.
          2   -1    0    0  501    0  0.00000000000E+00 -0.00000000000E+00 -0.11625156594E+04  0.11625156594E+04  0.00000000000E+00 0.  1.
         23    2    1    2    0    0  0.99750810370E+03 -0.52849377593E+02 -0.79405954401E+03  0.12783159678E+04  0.75800266922E+02 0.  0.
         11    1    3    3    0    0  0.65383789332E+03 -0.24081148379E+02 -0.47535058825E+03  0.80872867774E+03  0.00000000000E+00 0. -1.
        -11    1    3    3    0    0  0.34367021038E+03 -0.28768229214E+02 -0.31870895575E+03  0.46958729007E+03  0.00000000000E+00 0.  1.
         22    1    1    2    0    0 -0.99750810370E+03  0.52849377593E+02  0.18483258473E+04  0.21009816542E+04  0.00000000000E+00 0. -1.
<mgrwt>
<rscale>  0 0.32106347E+04</rscale>
<asrwt>0</asrwt>
<pdfrwt beam="1">  1        2 0.17884856E+00 0.32106347E+04</pdfrwt>
<pdfrwt beam="2">  1       -2 0.34104338E+00 0.32106347E+04</pdfrwt>
<totfact> 0.29720034E-01</totfact>
</mgrwt>
</event>
<event>
 6    1  0.1637818E-005  0.4170489E+03  0.7818608E-02  0.1038031E+00
         -2   -1    0    0    0  501 -0.00000000000E+00  0.00000000000E+00  0.23289183480E+02  0.23289183480E+02  0.00000000000E+00 0. -1.
          2   -1    0    0  501    0  0.00000000000E+00 -0.00000000000E+00 -0.18670662541E+04  0.18670662541E+04  0.00000000000E+00 0.  1.
         23    2    1    2    0    0  0.10421307157E+03  0.34893451970E+02 -0.17150035801E+04  0.17210612288E+04  0.93469546758E+02 0.  0.
         11    1    3    3    0    0  0.55424611970E+02  0.20259804929E+02 -0.14503839887E+04  0.14515839838E+04  0.00000000000E+00 0.  1.
        -11    1    3    3    0    0  0.48788459598E+02  0.14633647041E+02 -0.26461959141E+03  0.26947724500E+03  0.00000000000E+00 0. -1.
         22    1    1    2    0    0 -0.10421307157E+03 -0.34893451970E+02 -0.12877349055E+03  0.16929420884E+03  0.00000000000E+00 0. -1.
<mgrwt>
<rscale>  0 0.41704891E+03</rscale>
<asrwt>0</asrwt>
<pdfrwt beam="1">  1        2 0.28724085E+00 0.41704891E+03</pdfrwt>
<pdfrwt beam="2">  1       -2 0.35829527E-02 0.41704891E+03</pdfrwt>
<totfact> 0.28185959E+03</totfact>
</mgrwt>
</event>
<event>
 6    1  0.1637818E-005  0.1805031E+04  0.7818608E-02  0.8703629E-01
          2   -1    0    0  501    0  0.00000000000E+00  0.00000000000E+00  0.16573590288E+04  0.16573590288E+04  0.00000000000E+00 0. -1.
         -2   -1    0    0    0  501 -0.00000000000E+00 -0.00000000000E+00 -0.49146500870E+03  0.49146500870E+03  0.00000000000E+00 0.  1.
         23    2    1    2    0    0 -0.69437743118E+03  0.20295423595E+03  0.12221950553E+04  0.14232068896E+04  0.91687831463E+02 0.  0.
         11    1    3    3    0    0 -0.56001756947E+03  0.12503034844E+03  0.95257566892E+03  0.11120488619E+04  0.00000000000E+00 0. -1.
        -11    1    3    3    0    0 -0.13435986171E+03  0.77923887507E+02  0.26961938642E+03  0.31115802772E+03  0.00000000000E+00 0.  1.
         22    1    1    2    0    0  0.69437743118E+03 -0.20295423595E+03 -0.56301035205E+02  0.72561714795E+03  0.00000000000E+00 0.  1.
<mgrwt>
<rscale>  0 0.18050307E+04</rscale>
<asrwt>0</asrwt>
<pdfrwt beam="1">  1        2 0.25497831E+00 0.18050307E+04</pdfrwt>
<pdfrwt beam="2">  1       -2 0.75610002E-01 0.18050307E+04</pdfrwt>
<totfact> 0.15329445E+01</totfact>
</mgrwt>
</event>
<event>
 6    1  0.1637818E-005  0.2732104E+04  0.7818608E-02  0.8324663E-01
         -2   -1    0    0    0  501 -0.00000000000E+00  0.00000000000E+00  0.90781999430E+03  0.90781999430E+03  0.00000000000E+00 0.  1.
          2   -1    0    0  501    0  0.00000000000E+00 -0.00000000000E+00 -0.20555819413E+04  0.20555819413E+04  0.00000000000E+00 0. -1.
         23    2    1    2    0    0 -0.64842559371E+03 -0.10919779972E+04 -0.33207048552E+02  0.12736965415E+04  0.91260477935E+02 0.  0.
         11    1    3    3    0    0 -0.45532145107E+03 -0.69448169010E+03  0.12509470065E+01  0.83043603400E+03  0.00000000000E+00 0. -1.
        -11    1    3    3    0    0 -0.19310414264E+03 -0.39749630714E+03 -0.34457995558E+02  0.44326050755E+03  0.00000000000E+00 0.  1.
         22    1    1    2    0    0  0.64842559371E+03  0.10919779972E+04 -0.11145548984E+04  0.16897053940E+04  0.00000000000E+00 0. -1.
<mgrwt>
<rscale>  0 0.27321042E+04</rscale>
<asrwt>0</asrwt>
<pdfrwt beam="1">  1        2 0.31624337E+00 0.27321042E+04</pdfrwt>
<pdfrwt beam="2">  1       -2 0.13966462E+00 0.27321042E+04</pdfrwt>
<totfact> 0.19674353E+00</totfact>
</mgrwt>
</event>
<event>
 6    1  0.1637818E-005  0.1119620E+04  0.7818608E-02  0.9186277E-01
         -2   -1    0    0    0  501 -0.00000000000E+00  0.00000000000E+00  0.10800070204E+04  0.10800070204E+04  0.00000000000E+00 0. -1.
          2   -1    0    0  501    0  0.00000000000E+00 -0.00000000000E+00 -0.29017167677E+03  0.29017167677E+03  0.00000000000E+00 0.  1.
         23    2    1    2    0    0  0.14081834258E+03  0.87743106354E+02  0.10469904769E+04  0.10641436977E+04  0.93188476956E+02 0.  0.
         11    1    3    3    0    0  0.14419499843E+03  0.55295623533E+02  0.77777468203E+03  0.79295854845E+03  0.00000000000E+00 0.  1.
        -11    1    3    3    0    0 -0.33766558448E+01  0.32447482821E+02  0.26921579492E+03  0.27118514926E+03  0.00000000000E+00 0. -1.
         22    1    1    2    0    0 -0.14081834258E+03 -0.87743106354E+02 -0.25715513330E+03  0.30603499948E+03  0.00000000000E+00 0.  1.
<mgrwt>
<rscale>  0 0.11196204E+04</rscale>
<asrwt>0</asrwt>
<pdfrwt beam="1">  1        2 0.44641797E-01 0.11196204E+04</pdfrwt>
<pdfrwt beam="2">  1       -2 0.16615492E+00 0.11196204E+04</pdfrwt>
<totfact> 0.25634925E+01</totfact>
</mgrwt>
</event>
<event>
 6    1  0.1637818E-005  0.1159208E+04  0.7818608E-02  0.9149331E-01
          1   -1    0    0  501    0  0.00000000000E+00  0.00000000000E+00  0.91789993469E+03  0.91789993469E+03  0.00000000000E+00 0. -1.
         -1   -1    0    0    0  501 -0.00000000000E+00 -0.00000000000E+00 -0.36598847654E+03  0.36598847654E+03  0.00000000000E+00 0.  1.
         23    2    1    2    0    0  0.11771117892E+03 -0.56377936463E+03  0.28464073529E+03  0.64895791667E+03  0.91776553640E+02 0.  0.
         11    1    3    3    0    0  0.10964466785E+01 -0.21714052622E+03  0.11665533645E+03  0.24649478259E+03  0.00000000000E+00 0. -1.
        -11    1    3    3    0    0  0.11661473224E+03 -0.34663883840E+03  0.16798539884E+03  0.40246313408E+03  0.00000000000E+00 0.  1.
         22    1    1    2    0    0 -0.11771117892E+03  0.56377936463E+03  0.26727072286E+03  0.63493049456E+03  0.00000000000E+00 0. -1.
<mgrwt>
<rscale>  0 0.11592080E+04</rscale>
<asrwt>0</asrwt>
<pdfrwt beam="1">  1        1 0.14121537E+00 0.11592080E+04</pdfrwt>
<pdfrwt beam="2">  1       -1 0.56305920E-01 0.11592080E+04</pdfrwt>
<totfact> 0.55731526E+01</totfact>
</mgrwt>
</event>
<event>
 6    1  0.1637818E-005  0.1445535E+04  0.7818608E-02  0.8921502E-01
          1   -1    0    0  501    0  0.00000000000E+00  0.00000000000E+00  0.54249128775E+03  0.54249128775E+03  0.00000000000E+00 0. -1.
         -1   -1    0    0    0  501 -0.00000000000E+00 -0.00000000000E+00 -0.96295140166E+03  0.96295140166E+03  0.00000000000E+00 0.  1.
         23    2    1    2    0    0 -0.70636011925E+03  0.13757686955E+03 -0.23995668860E+03  0.76351715430E+03  0.86644211558E+02 0.  0.
         13    1    3    3    0    0 -0.11658942010E+03 -0.66224508672E+01 -0.52994032520E+02  0.12823929670E+03  0.00000000000E+00 0.  1.
        -13    1    3    3    0    0 -0.58977069915E+03  0.14419932042E+03 -0.18696265608E+03  0.63527785760E+03  0.00000000000E+00 0. -1.
         22    1    1    2    0    0  0.70636011925E+03 -0.13757686955E+03 -0.18050342531E+03  0.74192553511E+03  0.00000000000E+00 0. -1.
<mgrwt>
<rscale>  0 0.14455348E+04</rscale>
<asrwt>0</asrwt>
<pdfrwt beam="1">  1        1 0.83460199E-01 0.14455348E+04</pdfrwt>
<pdfrwt beam="2">  1       -1 0.14814637E+00 0.14455348E+04</pdfrwt>
<totfact> 0.13865075E+01</totfact>
</mgrwt>
</event>
<event>
 6    1  0.1637818E-005  0.9006942E+03  0.7818608E-02  0.9424714E-01
         -2   -1    0    0    0  501 -0.00000000000E+00  0.00000000000E+00  0.34813455940E+03  0.34813455940E+03  0.00000000000E+00 0.  1.
          2   -1    0    0  501    0  0.00000000000E+00 -0.00000000000E+00 -0.58256937283E+03  0.58256937283E+03  0.00000000000E+00 0. -1.
         23    2    1    2    0    0 -0.27997074473E+03  0.19017386957E+03 -0.41794763387E+03  0.54570175842E+03  0.92522785898E+02 0.  0.
         11    1    3    3    0    0 -0.74201340927E+02  0.92498427370E+02 -0.18623156528E+03  0.22078042025E+03  0.00000000000E+00 0. -1.
        -11    1    3    3    0    0 -0.20576940381E+03  0.97675442196E+02 -0.23171606859E+03  0.32492133816E+03  0.00000000000E+00 0.  1.
         22    1    1    2    0    0  0.27997074473E+03 -0.19017386957E+03  0.18351282044E+03  0.38500217381E+03  0.00000000000E+00 0.  1.
<mgrwt>
<rscale>  0 0.90069425E+03</rscale>
<asrwt>0</asrwt>
<pdfrwt beam="1">  1        2 0.89626058E-01 0.90069425E+03</pdfrwt>
<pdfrwt beam="2">  1       -2 0.53559163E-01 0.90069425E+03</pdfrwt>
<totfact> 0.16943396E+02</totfact>
</mgrwt>
</event>
<event>
 6    1  0.1637818E-005  0.1723040E+04  0.7818608E-02  0.8748332E-01
          1   -1    0    0  501    0  0.00000000000E+00  0.00000000000E+00  0.57673437248E+03  0.57673437248E+03  0.00000000000E+00 0.  1.
         -1   -1    0    0    0  501 -0.00000000000E+00 -0.00000000000E+00 -0.12869299431E+04  0.12869299431E+04  0.00000000000E+00 0. -1.
         23    2    1    2    0    0  0.81728489857E+03  0.10481618678E+03 -0.61924576925E+03  0.10346812610E+04  0.90326909720E+02 0.  0.
         13    1    3    3    0    0  0.33327519572E+03 -0.18371618490E+01 -0.25188390777E+03  0.41775738682E+03  0.00000000000E+00 0.  1.
        -13    1    3    3    0    0  0.48400970286E+03  0.10665334863E+03 -0.36736186148E+03  0.61692387415E+03  0.00000000000E+00 0. -1.
         22    1    1    2    0    0 -0.81728489857E+03 -0.10481618678E+03 -0.90949801356E+02  0.82898305460E+03  0.00000000000E+00 0.  1.
<mgrwt>
<rscale>  0 0.17230400E+04</rscale>
<asrwt>0</asrwt>
<pdfrwt beam="1">  1        1 0.88728365E-01 0.17230400E+04</pdfrwt>
<pdfrwt beam="2">  1       -1 0.19798922E+00 0.17230400E+04</pdfrwt>
<totfact> 0.53503327E+00</totfact>
</mgrwt>
</event>
<event>
 6    1  0.1637818E-005  0.2859001E+04  0.7818608E-02  0.8285181E-01
         -2   -1    0    0    0  501 -0.00000000000E+00  0.00000000000E+00  0.59920390619E+03  0.59920390619E+03  0.00000000000E+00 0.  1.
          2   -1    0    0  501    0  0.00000000000E+00 -0.00000000000E+00 -0.34103108632E+04  0.34103108632E+04  0.00000000000E+00 0. -1.
         23    2    1    2    0    0 -0.86599179709E+03 -0.10561018320E+04 -0.19919833179E+04  0.24169519265E+04  0.91466956168E+02 0.  0.
         11    1    3    3    0    0 -0.27277645695E+03 -0.27109045209E+03 -0.58263887036E+03  0.69811537867E+03  0.00000000000E+00 0. -1.
        -11    1    3    3    0    0 -0.59321534014E+03 -0.78501137996E+03 -0.14093444475E+04  0.17188365479E+04  0.00000000000E+00 0.  1.
         22    1    1    2    0    0  0.86599179709E+03  0.10561018320E+04 -0.81912363907E+03  0.15925628428E+04  0.00000000000E+00 0. -1.
<mgrwt>
<rscale>  0 0.28590009E+04</rscale>
<asrwt>0</asrwt>
<pdfrwt beam="1">  1        2 0.52466321E+00 0.28590009E+04</pdfrwt>
<pdfrwt beam="2">  1       -2 0.92185216E-01 0.28590009E+04</pdfrwt>
<totfact> 0.81171102E-01</totfact>
</mgrwt>
</event>
<event>
 6    1  0.1637818E-005  0.2651137E+04  0.7818608E-02  0.8351036E-01
          2   -1    0    0  501    0  0.00000000000E+00  0.00000000000E+00  0.10697418035E+04  0.10697418035E+04  0.00000000000E+00 0.  1.
         -2   -1    0    0    0  501 -0.00000000000E+00 -0.00000000000E+00 -0.16425760647E+04  0.16425760647E+04  0.00000000000E+00 0. -1.
         23    2    1    2    0    0 -0.55764967746E+03  0.89125824873E+03  0.53655254592E+03  0.11839025069E+04  0.91771905877E+02 0.  0.
         11    1    3    3    0    0 -0.17971651991E+03  0.30939180291E+03  0.13617453072E+03  0.38283784825E+03  0.00000000000E+00 0.  1.
        -11    1    3    3    0    0 -0.37793315755E+03  0.58186644582E+03  0.40037801521E+03  0.80106465869E+03  0.00000000000E+00 0. -1.
         22    1    1    2    0    0  0.55764967746E+03 -0.89125824873E+03 -0.11093868072E+04  0.15284153613E+04  0.00000000000E+00 0. -1.
<mgrwt>
<rscale>  0 0.26511373E+04</rscale>
<asrwt>0</asrwt>
<pdfrwt beam="1">  1        2 0.16457566E+00 0.26511373E+04</pdfrwt>
<pdfrwt beam="2">  1       -2 0.25270401E+00 0.26511373E+04</pdfrwt>
<totfact> 0.12392853E+00</totfact>
</mgrwt>
</event>
<event>
 6    1  0.1637818E-005  0.2493198E+04  0.7818608E-02  0.8405413E-01
          1   -1    0    0  501    0  0.00000000000E+00  0.00000000000E+00  0.20512191226E+04  0.20512191226E+04  0.00000000000E+00 0. -1.
         -1   -1    0    0    0  501 -0.00000000000E+00 -0.00000000000E+00 -0.75760260881E+03  0.75760260881E+03  0.00000000000E+00 0.  1.
         23    2    1    2    0    0 -0.90863038079E+03  0.49481801470E+03 -0.13223909113E+03  0.10471412148E+04  0.92539234510E+02 0.  0.
         13    1    3    3    0    0 -0.53804183704E+03  0.24117380759E+03 -0.69597082426E+02  0.59371506445E+03  0.00000000000E+00 0. -1.
        -13    1    3    3    0    0 -0.37058854376E+03  0.25364420710E+03 -0.62642008705E+02  0.45342615034E+03  0.00000000000E+00 0.  1.
         22    1    1    2    0    0  0.90863038079E+03 -0.49481801470E+03  0.14258556050E+04  0.17616805167E+04  0.00000000000E+00 0. -1.
<mgrwt>
<rscale>  0 0.24931979E+04</rscale>
<asrwt>0</asrwt>
<pdfrwt beam="1">  1        1 0.31557217E+00 0.24931979E+04</pdfrwt>
<pdfrwt beam="2">  1       -1 0.11655425E+00 0.24931979E+04</pdfrwt>
<totfact> 0.16246157E+00</totfact>
</mgrwt>
</event>
<event>
 6    1  0.1637818E-005  0.1770669E+04  0.7818608E-02  0.8722055E-01
         -1   -1    0    0    0  501 -0.00000000000E+00  0.00000000000E+00  0.63187893875E+03  0.63187893875E+03  0.00000000000E+00 0.  1.
          1   -1    0    0  501    0  0.00000000000E+00 -0.00000000000E+00 -0.12404541857E+04  0.12404541857E+04  0.00000000000E+00 0. -1.
         23    2    1    2    0    0 -0.66084054562E+03 -0.50956996988E+03  0.13039598289E+00  0.83942734911E+03  0.90920165440E+02 0.  0.
         13    1    3    3    0    0 -0.20519946714E+03 -0.21304123899E+03  0.42716033447E+00  0.29579312583E+03  0.00000000000E+00 0. -1.
        -13    1    3    3    0    0 -0.45564107849E+03 -0.29652873089E+03 -0.29676435157E+00  0.54363422328E+03  0.00000000000E+00 0.  1.
         22    1    1    2    0    0  0.66084054562E+03  0.50956996988E+03 -0.60870564289E+03  0.10329057753E+04  0.00000000000E+00 0. -1.
<mgrwt>
<rscale>  0 0.17706687E+04</rscale>
<asrwt>0</asrwt>
<pdfrwt beam="1">  1        1 0.19083911E+00 0.17706687E+04</pdfrwt>
<pdfrwt beam="2">  1       -1 0.97212144E-01 0.17706687E+04</pdfrwt>
<totfact> 0.96019079E+00</totfact>
</mgrwt>
</event>
<event>
 6    1  0.1637818E-005  0.1904237E+04  0.7818608E-02  0.8652750E-01
         -1   -1    0    0    0  501 -0.00000000000E+00  0.00000000000E+00  0.74974900894E+03  0.74974900894E+03  0.00000000000E+00 0.  1.
          1   -1    0    0  501    0  0.00000000000E+00 -0.00000000000E+00 -0.12091108173E+04  0.12091108173E+04  0.00000000000E+00 0. -1.
         23    2    1    2    0    0  0.44925822706E+03 -0.47874972259E+03 -0.93647284259E+03  0.11472754558E+04  0.90693632635E+02 0.  0.
         11    1    3    3    0    0  0.44596676249E+03 -0.47213848299E+03 -0.89884063860E+03  0.11089254231E+04  0.00000000000E+00 0.  1.
        -11    1    3    3    0    0  0.32914645644E+01 -0.66112395933E+01 -0.37632203994E+02  0.38350032665E+02  0.00000000000E+00 0. -1.
         22    1    1    2    0    0 -0.44925822706E+03  0.47874972259E+03  0.47711103422E+03  0.81158437049E+03  0.00000000000E+00 0.  1.
<mgrwt>
<rscale>  0 0.19042370E+04</rscale>
<asrwt>0</asrwt>
<pdfrwt beam="1">  1        1 0.18601705E+00 0.19042370E+04</pdfrwt>
<pdfrwt beam="2">  1       -1 0.11534600E+00 0.19042370E+04</pdfrwt>
<totfact> 0.67075509E+00</totfact>
</mgrwt>
</event>
<event>
 6    1  0.1637818E-005  0.1215859E+04  0.7818608E-02  0.9099087E-01
         -1   -1    0    0    0  501 -0.00000000000E+00  0.00000000000E+00  0.38391447418E+03  0.38391447418E+03  0.00000000000E+00 0.  1.
          1   -1    0    0  501    0  0.00000000000E+00 -0.00000000000E+00 -0.96265860521E+03  0.96265860521E+03  0.00000000000E+00 0. -1.
         23    2    1    2    0    0 -0.16760300664E+03 -0.53744017617E+03 -0.53471806809E+03  0.78188643619E+03  0.92142693462E+02 0.  0.
         11    1    3    3    0    0 -0.13058167243E+03 -0.34236540894E+03 -0.29361712707E+03  0.46954942628E+03  0.00000000000E+00 0. -1.
        -11    1    3    3    0    0 -0.37021334217E+02 -0.19507476722E+03 -0.24110094103E+03  0.31233700991E+03  0.00000000000E+00 0.  1.
         22    1    1    2    0    0  0.16760300664E+03  0.53744017617E+03 -0.44026062938E+02  0.56468664320E+03  0.00000000000E+00 0.  1.
<mgrwt>
<rscale>  0 0.12158595E+04</rscale>
<asrwt>0</asrwt>
<pdfrwt beam="1">  1        1 0.14810132E+00 0.12158595E+04</pdfrwt>
<pdfrwt beam="2">  1       -1 0.59063766E-01 0.12158595E+04</pdfrwt>
<totfact> 0.46514806E+01</totfact>
</mgrwt>
</event>
<event>
 6    1  0.1637818E-005  0.1264858E+04  0.7818608E-02  0.9057907E-01
         -2   -1    0    0    0  501 -0.00000000000E+00  0.00000000000E+00  0.18109224606E+03  0.18109224606E+03  0.00000000000E+00 0.  1.
          2   -1    0    0  501    0  0.00000000000E+00 -0.00000000000E+00 -0.22086324065E+04  0.22086324065E+04  0.00000000000E+00 0. -1.
         23    2    1    2    0    0  0.57623612763E+03 -0.24609972116E+03 -0.11256316415E+04  0.12915206078E+04  0.91464420845E+02 0.  0.
         11    1    3    3    0    0  0.43379194563E+03 -0.14073482830E+03 -0.80987445802E+03  0.92945058059E+03  0.00000000000E+00 0.  1.
        -11    1    3    3    0    0  0.14244418200E+03 -0.10536489286E+03 -0.31575718352E+03  0.36207002718E+03  0.00000000000E+00 0. -1.
         22    1    1    2    0    0 -0.57623612763E+03  0.24609972116E+03 -0.90190851887E+03  0.10982040448E+04  0.00000000000E+00 0. -1.
<mgrwt>
<rscale>  0 0.12648576E+04</rscale>
<asrwt>0</asrwt>
<pdfrwt beam="1">  1        2 0.33978958E+00 0.12648576E+04</pdfrwt>
<pdfrwt beam="2">  1       -2 0.27860347E-01 0.12648576E+04</pdfrwt>
<totfact> 0.59170162E+01</totfact>
</mgrwt>
</event>
<event>
 6    1  0.1637818E-005  0.6743842E+03  0.7818608E-02  0.9762070E-01
         -1   -1    0    0    0  501 -0.00000000000E+00  0.00000000000E+00  0.64499907345E+02  0.64499907345E+02  0.00000000000E+00 0.  1.
          1   -1    0    0  501    0  0.00000000000E+00 -0.00000000000E+00 -0.17627701878E+04  0.17627701878E+04  0.00000000000E+00 0. -1.
         23    2    1    2    0    0  0.41051935082E+02 -0.30414850203E+03 -0.52909220338E+03  0.61848188021E+03  0.91595326321E+02 0.  0.
         13    1    3    3    0    0  0.16313994669E+02 -0.18156268997E+03 -0.22432810501E+03  0.28905752975E+03  0.00000000000E+00 0.  1.
        -13    1    3    3    0    0  0.24737940413E+02 -0.12258581207E+03 -0.30476409837E+03  0.32942435045E+03  0.00000000000E+00 0. -1.
         22    1    1    2    0    0 -0.41051935082E+02  0.30414850203E+03 -0.11691780771E+04  0.12087882150E+04  0.00000000000E+00 0. -1.
<mgrwt>
<rscale>  0 0.67438420E+03</rscale>
<asrwt>0</asrwt>
<pdfrwt beam="1">  1        1 0.27119535E+00 0.67438420E+03</pdfrwt>
<pdfrwt beam="2">  1       -1 0.99230650E-02 0.67438420E+03</pdfrwt>
<totfact> 0.28396110E+02</totfact>
</mgrwt>
</event>
<event>
 6    1  0.1637818E-005  0.2233332E+04  0.7818608E-02  0.8504681E-01
          2   -1    0    0  501    0  0.00000000000E+00  0.00000000000E+00  0.23893375510E+04  0.23893375510E+04  0.00000000000E+00 0. -1.
         -2   -1    0    0    0  501 -0.00000000000E+00 -0.00000000000E+00 -0.52187799603E+03  0.52187799603E+03  0.00000000000E+00 0.  1.
         23    2    1    2    0    0 -0.87482068757E+03 -0.69098750453E+03  0.94204778195E+03  0.14623670676E+04  0.91040924737E+02 0.  0.
         11    1    3    3    0    0 -0.57613144739E+03 -0.48974012503E+03  0.68024922322E+03  0.10171095518E+04  0.00000000000E+00 0. -1.
        -11    1    3    3    0    0 -0.29868924019E+03 -0.20124737950E+03  0.26179855873E+03  0.44525751573E+03  0.00000000000E+00 0.  1.
         22    1    1    2    0    0  0.87482068757E+03  0.69098750453E+03  0.92541177301E+03  0.14488484795E+04  0.00000000000E+00 0.  1.
<mgrwt>
<rscale>  0 0.22333318E+04</rscale>
<asrwt>0</asrwt>
<pdfrwt beam="1">  1        2 0.36759039E+00 0.22333318E+04</pdfrwt>
<pdfrwt beam="2">  1       -2 0.80288924E-01 0.22333318E+04</pdfrwt>
<totfact> 0.50388919E+00</totfact>
</mgrwt>
</event>
<event>
 6    1  0.1637818E-005  0.2404139E+04  0.7818608E-02  0.8437955E-01
         -2   -1    0    0    0  501 -0.00000000000E+00  0.00000000000E+00  0.58968712428E+03  0.58968712428E+03  0.00000000000E+00 0.  1.
          2   -1    0    0  501    0  0.00000000000E+00 -0.00000000000E+00 -0.24504039413E+04  0.24504039413E+04  0.00000000000E+00 0. -1.
         23    2    1    2    0    0 -0.84502697726E+03  0.14869346751E+03 -0.19930315430E+04  0.21719392780E+04  0.94684509920E+02 0.  0.
         11    1    3    3    0    0 -0.22896156477E+03  0.73131463178E+02 -0.62779132940E+03  0.67223028965E+03  0.00000000000E+00 0.  1.
        -11    1    3    3    0    0 -0.61606541249E+03  0.75562004336E+02 -0.13652402136E+04  0.14997089884E+04  0.00000000000E+00 0. -1.
         22    1    1    2    0    0  0.84502697726E+03 -0.14869346751E+03  0.13231472595E+03  0.86815178758E+03  0.00000000000E+00 0.  1.
<mgrwt>
<rscale>  0 0.24041395E+04</rscale>
<asrwt>0</asrwt>
<pdfrwt beam="1">  1        2 0.37698522E+00 0.24041395E+04</pdfrwt>
<pdfrwt beam="2">  1       -2 0.90721096E-01 0.24041395E+04</pdfrwt>
<totfact> 0.34678190E+00</totfact>
</mgrwt>
</event>
<event>
 6    1  0.1637818E-005  0.8923508E+03  0.7818608E-02  0.9435194E-01
         -2   -1    0    0    0  501 -0.00000000000E+00  0.00000000000E+00  0.30519259570E+03  0.30519259570E+03  0.00000000000E+00 0.  1.
          2   -1    0    0  501    0  0.00000000000E+00 -0.00000000000E+00 -0.65228480983E+03  0.65228480983E+03  0.00000000000E+00 0. -1.
         23    2    1    2    0    0  0.22662371140E+03 -0.55936571189E+02 -0.57734766093E+03  0.62959819400E+03  0.92608626726E+02 0.  0.
         11    1    3    3    0    0  0.18289183401E+03 -0.51019481268E+02 -0.53815253720E+03  0.57066677116E+03  0.00000000000E+00 0. -1.
        -11    1    3    3    0    0  0.43731877393E+02 -0.49170899205E+01 -0.39195123731E+02  0.58931422839E+02  0.00000000000E+00 0.  1.
         22    1    1    2    0    0 -0.22662371140E+03  0.55936571189E+02  0.23025544680E+03  0.32787921152E+03  0.00000000000E+00 0.  1.
<mgrwt>
<rscale>  0 0.89235081E+03</rscale>
<asrwt>0</asrwt>
<pdfrwt beam="1">  1        2 0.10035151E+00 0.89235081E+03</pdfrwt>
<pdfrwt beam="2">  1       -2 0.46952708E-01 0.89235081E+03</pdfrwt>
<totfact> 0.19314000E+02</totfact>
</mgrwt>
</event>
<event>
 6    1  0.1985510E-005  0.3102859E+04  0.7818608E-02  0.8214954E-01
          1   -1    0    0  501    0  0.00000000000E+00  0.00000000000E+00  0.25642627570E+04  0.25642627570E+04  0.00000000000E+00 0. -1.
         -1   -1    0    0    0  501 -0.00000000000E+00 -0.00000000000E+00 -0.93864567790E+03  0.93864567790E+03  0.00000000000E+00 0.  1.
         23    2    1    2    0    0  0.40248967169E+03 -0.32373527556E+03  0.24634298152E+04  0.25186662669E+04  0.91601555512E+02 0.  0.
         11    1    3    3    0    0  0.22847893434E+03 -0.18890149511E+03  0.11914690926E+04  0.12277968060E+04  0.00000000000E+00 0. -1.
        -11    1    3    3    0    0  0.17401073734E+03 -0.13483378045E+03  0.12719607226E+04  0.12908694609E+04  0.00000000000E+00 0.  1.
         22    1    1    2    0    0 -0.40248967169E+03  0.32373527556E+03 -0.83781273614E+03  0.98424216801E+03  0.00000000000E+00 0.  1.
<mgrwt>
<rscale>  0 0.31028594E+04</rscale>
<asrwt>0</asrwt>
<pdfrwt beam="1">  1        1 0.39450196E+00 0.31028594E+04</pdfrwt>
<pdfrwt beam="2">  1       -1 0.14440703E+00 0.31028594E+04</pdfrwt>
<totfact> 0.39808036E-01</totfact>
</mgrwt>
</event>
<event>
 6    1  0.1637818E-005  0.9393557E+03  0.7818608E-02  0.9377679E-01
          1   -1    0    0  501    0  0.00000000000E+00  0.00000000000E+00  0.18746176156E+04  0.18746176156E+04  0.00000000000E+00 0. -1.
         -1   -1    0    0    0  501 -0.00000000000E+00 -0.00000000000E+00 -0.11767588644E+03  0.11767588644E+03  0.00000000000E+00 0.  1.
         23    2    1    2    0    0 -0.15398196289E+03  0.41033119294E+03  0.55982981722E+03  0.71747623572E+03  0.96335828073E+02 0.  0.
         13    1    3    3    0    0 -0.14922837656E+01  0.68468973800E+02  0.49151949615E+02  0.84297932567E+02  0.00000000000E+00 0.  1.
        -13    1    3    3    0    0 -0.15248967913E+03  0.34186221914E+03  0.51067786761E+03  0.63317830315E+03  0.00000000000E+00 0. -1.
         22    1    1    2    0    0  0.15398196289E+03 -0.41033119294E+03  0.11971119119E+04  0.12748172663E+04  0.00000000000E+00 0. -1.
<mgrwt>
<rscale>  0 0.93935571E+03</rscale>
<asrwt>0</asrwt>
<pdfrwt beam="1">  1        1 0.28840269E+00 0.93935571E+03</pdfrwt>
<pdfrwt beam="2">  1       -1 0.18103984E-01 0.93935571E+03</pdfrwt>
<totfact> 0.88480934E+01</totfact>
</mgrwt>
</event>
<event>
 6    1  0.1637818E-005  0.4856414E+04  0.7818608E-02  0.7851047E-01
         -1   -1    0    0    0  501 -0.00000000000E+00  0.00000000000E+00  0.35791773442E+04  0.35791773442E+04  0.00000000000E+00 0.  1.
          1   -1    0    0  501    0  0.00000000000E+00 -0.00000000000E+00 -0.16473587579E+04  0.16473587579E+04  0.00000000000E+00 0. -1.
         23    2    1    2    0    0  0.37670646632E+03 -0.16030688938E+04  0.28852223521E+04  0.33237180917E+04  0.10419352956E+03 0.  0.
         11    1    3    3    0    0  0.10217110801E+03 -0.61253484992E+03  0.10268582901E+04  0.12000315936E+04  0.00000000000E+00 0.  1.
        -11    1    3    3    0    0  0.27453535832E+03 -0.99053404393E+03  0.18583640620E+04  0.21236864981E+04  0.00000000000E+00 0. -1.
         22    1    1    2    0    0 -0.37670646632E+03  0.16030688938E+04 -0.95340376585E+03  0.19028180105E+04  0.00000000000E+00 0. -1.
<mgrwt>
<rscale>  0 0.48564140E+04</rscale>
<asrwt>0</asrwt>
<pdfrwt beam="1">  1        1 0.25343981E+00 0.48564140E+04</pdfrwt>
<pdfrwt beam="2">  1       -1 0.55064267E+00 0.48564140E+04</pdfrwt>
<totfact> 0.28410116E-03</totfact>
</mgrwt>
</event>
<event>
 6    1  0.1637818E-005  0.4545364E+03  0.7818608E-02  0.1026378E+00
          1   -1    0    0  501    0  0.00000000000E+00  0.00000000000E+00  0.87286731144E+03  0.87286731144E+03  0.00000000000E+00 0. -1.
         -1   -1    0    0    0  501 -0.00000000000E+00 -0.00000000000E+00 -0.59173752099E+02  0.59173752099E+02  0.00000000000E+00 0.  1.
         23    2    1    2    0    0 -0.77824909303E+02  0.15484151536E+03  0.15266771123E+03  0.24867601962E+03  0.92193933049E+02 0.  0.
         11    1    3    3    0    0  0.13651563200E+02  0.43676964641E+02  0.11799126390E+02  0.47257399438E+02  0.00000000000E+00 0. -1.
        -11    1    3    3    0    0 -0.91476472503E+02  0.11116455072E+03  0.14086858484E+03  0.20141862018E+03  0.00000000000E+00 0.  1.
         22    1    1    2    0    0  0.77824909303E+02 -0.15484151536E+03  0.66102584810E+03  0.68336504392E+03  0.00000000000E+00 0. -1.
<mgrwt>
<rscale>  0 0.45453640E+03</rscale>
<asrwt>0</asrwt>
<pdfrwt beam="1">  1        1 0.13428727E+00 0.45453640E+03</pdfrwt>
<pdfrwt beam="2">  1       -1 0.91036548E-02 0.45453640E+03</pdfrwt>
<totfact> 0.14149840E+03</totfact>
</mgrwt>
</event>
<event>
 6    1  0.1637818E-005  0.3728281E+04  0.7818608E-02  0.8061723E-01
          2   -1    0    0  501    0  0.00000000000E+00  0.00000000000E+00  0.19609493600E+04  0.19609493600E+04  0.00000000000E+00 0. -1.
         -2   -1    0    0    0  501 -0.00000000000E+00 -0.00000000000E+00 -0.17721110995E+04  0.17721110995E+04  0.00000000000E+00 0.  1.
         23    2    1    2    0    0  0.19500406229E+03 -0.16629244715E+04  0.91266662827E+03  0.19089793516E+04  0.88867363759E+02 0.  0.
         13    1    3    3    0    0  0.53612242094E+01 -0.34673263089E+03  0.19797586098E+03  0.39930777801E+03  0.00000000000E+00 0.  1.
        -13    1    3    3    0    0  0.18964283808E+03 -0.13161918406E+04  0.71469076729E+03  0.15096715736E+04  0.00000000000E+00 0. -1.
         22    1    1    2    0    0 -0.19500406229E+03  0.16629244715E+04 -0.72382836775E+03  0.18240811079E+04  0.00000000000E+00 0.  1.
<mgrwt>
<rscale>  0 0.37282812E+04</rscale>
<asrwt>0</asrwt>
<pdfrwt beam="1">  1        2 0.30168452E+00 0.37282812E+04</pdfrwt>
<pdfrwt beam="2">  1       -2 0.27263247E+00 0.37282812E+04</pdfrwt>
<totfact> 0.26460084E-01</totfact>
</mgrwt>
</event>
<event>
 6    1  0.1637818E-005  0.5986465E+03  0.7818608E-02  0.9908218E-01
          2   -1    0    0  501    0  0.00000000000E+00  0.00000000000E+00  0.17995622491E+04  0.17995622491E+04  0.00000000000E+00 0.  1.
         -2   -1    0    0    0  501 -0.00000000000E+00 -0.00000000000E+00 -0.49786782341E+02  0.49786782341E+02  0.00000000000E+00 0. -1.
         23    2    1    2    0    0  0.23411203076E+02  0.26756201571E+03  0.53960859471E+03  0.60973563409E+03  0.91992343788E+02 0.  0.
         11    1    3    3    0    0  0.54032018921E+02  0.11430552669E+03  0.26920431431E+03  0.29741582901E+03  0.00000000000E+00 0. -1.
        -11    1    3    3    0    0 -0.30620815844E+02  0.15325648902E+03  0.27040428040E+03  0.31231980508E+03  0.00000000000E+00 0.  1.
         22    1    1    2    0    0 -0.23411203076E+02 -0.26756201571E+03  0.12101668720E+04  0.12396133973E+04  0.00000000000E+00 0.  1.
<mgrwt>
<rscale>  0 0.59864652E+03</rscale>
<asrwt>0</asrwt>
<pdfrwt beam="1">  1        2 0.27685568E+00 0.59864652E+03</pdfrwt>
<pdfrwt beam="2">  1       -2 0.76595064E-02 0.59864652E+03</pdfrwt>
<totfact> 0.93526831E+02</totfact>
</mgrwt>
</event>
<event>
 6    1  0.1637818E-005  0.1767188E+04  0.7818608E-02  0.8723946E-01
         -2   -1    0    0    0  501 -0.00000000000E+00  0.00000000000E+00  0.16642746699E+04  0.16642746699E+04  0.00000000000E+00 0.  1.
          2   -1    0    0  501    0  0.00000000000E+00 -0.00000000000E+00 -0.46911651171E+03  0.46911651171E+03  0.00000000000E+00 0. -1.
         23    2    1    2    0    0  0.98173527818E+02  0.38867049903E+03  0.15466589004E+04  0.16002349473E+04  0.88855691643E+02 0.  0.
         13    1    3    3    0    0  0.20671933473E+02  0.15560522401E+03  0.76331429294E+03  0.77928751073E+03  0.00000000000E+00 0.  1.
        -13    1    3    3    0    0  0.77501594345E+02  0.23306527502E+03  0.78334460747E+03  0.82094743656E+03  0.00000000000E+00 0. -1.
         22    1    1    2    0    0 -0.98173527818E+02 -0.38867049903E+03 -0.35150074224E+03  0.53315623430E+03  0.00000000000E+00 0. -1.
<mgrwt>
<rscale>  0 0.17671884E+04</rscale>
<asrwt>0</asrwt>
<pdfrwt beam="1">  1        2 0.72171772E-01 0.17671884E+04</pdfrwt>
<pdfrwt beam="2">  1       -2 0.25604225E+00 0.17671884E+04</pdfrwt>
<totfact> 0.37029898E+00</totfact>
</mgrwt>
</event>
<event>
 6    1  0.1637818E-005  0.2268641E+04  0.7818608E-02  0.8490389E-01
          2   -1    0    0  501    0  0.00000000000E+00  0.00000000000E+00  0.17650666196E+04  0.17650666196E+04  0.00000000000E+00 0.  1.
         -2   -1    0    0    0  501 -0.00000000000E+00 -0.00000000000E+00 -0.72897161575E+03  0.72897161575E+03  0.00000000000E+00 0. -1.
         23    2    1    2    0    0 -0.79865872650E+03 -0.29628594139E+03  0.13392547203E+04  0.15898552151E+04  0.91625752662E+02 0.  0.
         11    1    3    3    0    0 -0.62350781820E+03 -0.22748761999E+03  0.96878134342E+03  0.11743295568E+04  0.00000000000E+00 0.  1.
        -11    1    3    3    0    0 -0.17515090830E+03 -0.68798321400E+02  0.37047337686E+03  0.41552565826E+03  0.00000000000E+00 0. -1.
         22    1    1    2    0    0  0.79865872650E+03  0.29628594139E+03 -0.30315971645E+03  0.90418302027E+03  0.00000000000E+00 0. -1.
<mgrwt>
<rscale>  0 0.22686414E+04</rscale>
<asrwt>0</asrwt>
<pdfrwt beam="1">  1        2 0.27154871E+00 0.22686414E+04</pdfrwt>
<pdfrwt beam="2">  1       -2 0.11214948E+00 0.22686414E+04</pdfrwt>
<totfact> 0.51413962E+00</totfact>
</mgrwt>
</event>
<event>
 6    1  0.1637818E-005  0.1181712E+04  0.7818608E-02  0.9129016E-01
         -2   -1    0    0    0  501 -0.00000000000E+00  0.00000000000E+00  0.31046317371E+03  0.31046317371E+03  0.00000000000E+00 0.  1.
          2   -1    0    0  501    0  0.00000000000E+00 -0.00000000000E+00 -0.11244847183E+04  0.11244847183E+04  0.00000000000E+00 0. -1.
         23    2    1    2    0    0  0.20536587226E+03 -0.29326403156E+03 -0.97483532207E+03  0.10424685871E+04  0.90873077801E+02 0.  0.
         11    1    3    3    0    0  0.12576506116E+03 -0.24425594463E+03 -0.76186509535E+03  0.80988656033E+03  0.00000000000E+00 0. -1.
        -11    1    3    3    0    0  0.79600811100E+02 -0.49008086925E+02 -0.21297022672E+03  0.23258202678E+03  0.00000000000E+00 0.  1.
         22    1    1    2    0    0 -0.20536587226E+03  0.29326403156E+03  0.16081377752E+03  0.39247930485E+03  0.00000000000E+00 0.  1.
<mgrwt>
<rscale>  0 0.11817125E+04</rscale>
<asrwt>0</asrwt>
<pdfrwt beam="1">  1        2 0.17299765E+00 0.11817125E+04</pdfrwt>
<pdfrwt beam="2">  1       -2 0.47763565E-01 0.11817125E+04</pdfrwt>
<totfact> 0.86315062E+01</totfact>
</mgrwt>
</event>
<event>
 6    1  0.1637818E-005  0.4087004E+04  0.7818608E-02  0.7987221E-01
          2   -1    0    0  501    0  0.00000000000E+00  0.00000000000E+00  0.24341164192E+04  0.24341164192E+04  0.00000000000E+00 0.  1.
         -2   -1    0    0    0  501 -0.00000000000E+00 -0.00000000000E+00 -0.17155714796E+04  0.17155714796E+04  0.00000000000E+00 0. -1.
         23    2    1    2    0    0  0.82360545993E+03 -0.16237414769E+04 -0.58040187968E+03  0.19131447678E+04  0.91619993442E+02 0.  0.
         13    1    3    3    0    0  0.36889008758E+03 -0.66741291495E+03 -0.20507949387E+03  0.78966923111E+03  0.00000000000E+00 0.  1.
        -13    1    3    3    0    0  0.45471537235E+03 -0.95632856196E+03 -0.37532238581E+03  0.11234755367E+04  0.00000000000E+00 0. -1.
         22    1    1    2    0    0 -0.82360545993E+03  0.16237414769E+04  0.12989468192E+04  0.22365431310E+04  0.00000000000E+00 0.  1.
<mgrwt>
<rscale>  0 0.40870041E+04</rscale>
<asrwt>0</asrwt>
<pdfrwt beam="1">  1        2 0.37447945E+00 0.40870041E+04</pdfrwt>
<pdfrwt beam="2">  1       -2 0.26393407E+00 0.40870041E+04</pdfrwt>
<totfact> 0.15714099E-01</totfact>
</mgrwt>
</event>
<event>
 6    1  0.1637818E-005  0.2466009E+04  0.7818608E-02  0.8415196E-01
          2   -1    0    0  501    0  0.00000000000E+00  0.00000000000E+00  0.83074668716E+03  0.83074668716E+03  0.00000000000E+00 0. -1.
         -2   -1    0    0    0  501 -0.00000000000E+00 -0.00000000000E+00 -0.18300399953E+04  0.18300399953E+04  0.00000000000E+00 0.  1.
         23    2    1    2    0    0  0.40527396840E+03  0.19425896920E+03 -0.17372730853E+04  0.17967278372E+04  0.90164357870E+02 0.  0.
         11    1    3    3    0    0  0.14084690888E+03  0.23213171528E+02 -0.58911983577E+03  0.60616737290E+03  0.00000000000E+00 0.  1.
        -11    1    3    3    0    0  0.26442705953E+03  0.17104579767E+03 -0.11481532496E+04  0.11905604643E+04  0.00000000000E+00 0. -1.
         22    1    1    2    0    0 -0.40527396840E+03 -0.19425896920E+03  0.73797977717E+03  0.86405884527E+03  0.00000000000E+00 0. -1.
<mgrwt>
<rscale>  0 0.24660086E+04</rscale>
<asrwt>0</asrwt>
<pdfrwt beam="1">  1        2 0.12780718E+00 0.24660086E+04</pdfrwt>
<pdfrwt beam="2">  1       -2 0.28154461E+00 0.24660086E+04</pdfrwt>
<totfact> 0.12068786E+00</totfact>
</mgrwt>
</event>
<event>
 6    1  0.1637818E-005  0.1442229E+04  0.7818608E-02  0.8923806E-01
          1   -1    0    0  501    0  0.00000000000E+00  0.00000000000E+00  0.45356032868E+03  0.45356032868E+03  0.00000000000E+00 0. -1.
         -1   -1    0    0    0  501 -0.00000000000E+00 -0.00000000000E+00 -0.11464984252E+04  0.11464984252E+04  0.00000000000E+00 0.  1.
         23    2    1    2    0    0 -0.59050891533E+03 -0.38121770919E+03 -0.51094762612E+03  0.87400899509E+03  0.93789796750E+02 0.  0.
         11    1    3    3    0    0 -0.13122769543E+03 -0.84722927544E+02 -0.67783812032E+02  0.17027427191E+03  0.00000000000E+00 0. -1.
        -11    1    3    3    0    0 -0.45928121990E+03 -0.29649478164E+03 -0.44316381409E+03  0.70373472318E+03  0.00000000000E+00 0.  1.
         22    1    1    2    0    0  0.59050891533E+03  0.38121770919E+03 -0.18199047036E+03  0.72604975876E+03  0.00000000000E+00 0.  1.
<mgrwt>
<rscale>  0 0.14422291E+04</rscale>
<asrwt>0</asrwt>
<pdfrwt beam="1">  1        1 0.69778513E-01 0.14422291E+04</pdfrwt>
<pdfrwt beam="2">  1       -1 0.17638437E+00 0.14422291E+04</pdfrwt>
<totfact> 0.10879289E+01</totfact>
</mgrwt>
</event>
<event>
 6    1  0.1637818E-005  0.2400364E+04  0.7818608E-02  0.8439367E-01
          2   -1    0    0  501    0  0.00000000000E+00  0.00000000000E+00  0.34277015619E+04  0.34277015619E+04  0.00000000000E+00 0. -1.
         -2   -1    0    0    0  501 -0.00000000000E+00 -0.00000000000E+00 -0.42023409929E+03  0.42023409929E+03  0.00000000000E+00 0.  1.
         23    2    1    2    0    0  0.47200310646E+03 -0.10544912330E+04  0.20167042679E+04  0.23259795512E+04  0.91356856447E+02 0.  0.
         11    1    3    3    0    0  0.29983391360E+03 -0.58898056423E+03  0.12132884764E+04  0.13816176779E+04  0.00000000000E+00 0. -1.
        -11    1    3    3    0    0  0.17216919286E+03 -0.46551066875E+03  0.80341579148E+03  0.94436187327E+03  0.00000000000E+00 0.  1.
         22    1    1    2    0    0 -0.47200310646E+03  0.10544912330E+04  0.99076319473E+03  0.15219561101E+04  0.00000000000E+00 0.  1.
<mgrwt>
<rscale>  0 0.24003642E+04</rscale>
<asrwt>0</asrwt>
<pdfrwt beam="1">  1        2 0.52733868E+00 0.24003642E+04</pdfrwt>
<pdfrwt beam="2">  1       -2 0.64651402E-01 0.24003642E+04</pdfrwt>
<totfact> 0.18154008E+00</totfact>
</mgrwt>
</event>
<event>
 6    1  0.1637818E-005  0.3089190E+04  0.7818608E-02  0.8218711E-01
          1   -1    0    0  501    0  0.00000000000E+00  0.00000000000E+00  0.27477959281E+04  0.27477959281E+04  0.00000000000E+00 0. -1.
         -1   -1    0    0    0  501 -0.00000000000E+00 -0.00000000000E+00 -0.86824989572E+03  0.86824989572E+03  0.00000000000E+00 0.  1.
         23    2    1    2    0    0  0.39058876283E+03 -0.11077803749E+04 -0.23112159621E+03  0.12005428164E+04  0.90271373671E+02 0.  0.
         11    1    3    3    0    0  0.13725277019E+03 -0.48581233727E+03 -0.13089643896E+03  0.52152260517E+03  0.00000000000E+00 0. -1.
        -11    1    3    3    0    0  0.25333599263E+03 -0.62196803767E+03 -0.10022515725E+03  0.67902021118E+03  0.00000000000E+00 0.  1.
         22    1    1    2    0    0 -0.39058876283E+03  0.11077803749E+04  0.21106676286E+04  0.24155030075E+04  0.00000000000E+00 0. -1.
<mgrwt>
<rscale>  0 0.30891899E+04</rscale>
<asrwt>0</asrwt>
<pdfrwt beam="1">  1        1 0.42273783E+00 0.30891899E+04</pdfrwt>
<pdfrwt beam="2">  1       -1 0.13357691E+00 0.30891899E+04</pdfrwt>
<totfact> 0.36270050E-01</totfact>
</mgrwt>
</event>
<event>
 6    1  0.1637818E-005  0.2218255E+04  0.7818608E-02  0.8510868E-01
         -1   -1    0    0    0  501 -0.00000000000E+00  0.00000000000E+00  0.85729214716E+03  0.85729214716E+03  0.00000000000E+00 0.  1.
          1   -1    0    0  501    0  0.00000000000E+00 -0.00000000000E+00 -0.14349415361E+04  0.14349415361E+04  0.00000000000E+00 0. -1.
         23    2    1    2    0    0 -0.58962247410E+03  0.48153843688E+03  0.54168993173E+03  0.93855187317E+03  0.88981505599E+02 0.  0.
         11    1    3    3    0    0 -0.11843215573E+03  0.54894961328E+02  0.10182989219E+03  0.16555651371E+03  0.00000000000E+00 0. -1.
        -11    1    3    3    0    0 -0.47119031837E+03  0.42664347555E+03  0.43986003954E+03  0.77299535945E+03  0.00000000000E+00 0.  1.
         22    1    1    2    0    0  0.58962247410E+03 -0.48153843688E+03 -0.11193393206E+04  0.13536818101E+04  0.00000000000E+00 0. -1.
<mgrwt>
<rscale>  0 0.22182553E+04</rscale>
<asrwt>0</asrwt>
<pdfrwt beam="1">  1        1 0.22076023E+00 0.22182553E+04</pdfrwt>
<pdfrwt beam="2">  1       -1 0.13189110E+00 0.22182553E+04</pdfrwt>
<totfact> 0.32316330E+00</totfact>
</mgrwt>
</event>
<event>
 6    1  0.1637818E-005  0.2118438E+04  0.7818608E-02  0.8553165E-01
          1   -1    0    0  501    0  0.00000000000E+00  0.00000000000E+00  0.25607882107E+04  0.25607882107E+04  0.00000000000E+00 0. -1.
         -1   -1    0    0    0  501 -0.00000000000E+00 -0.00000000000E+00 -0.43812472186E+03  0.43812472186E+03  0.00000000000E+00 0.  1.
         23    2    1    2    0    0  0.15737505649E+03 -0.19232371256E+03  0.25180673723E+04  0.25319016374E+04  0.90040497852E+02 0.  0.
         13    1    3    3    0    0  0.29066920343E+02 -0.49343830892E+02  0.10138719180E+04  0.10154880431E+04  0.00000000000E+00 0.  1.
        -13    1    3    3    0    0  0.12830813615E+03 -0.14297988167E+03  0.15041954542E+04  0.15164135943E+04  0.00000000000E+00 0. -1.
         22    1    1    2    0    0 -0.15737505649E+03  0.19232371256E+03 -0.39540388341E+03  0.46701129519E+03  0.00000000000E+00 0.  1.
<mgrwt>
<rscale>  0 0.21184377E+04</rscale>
<asrwt>0</asrwt>
<pdfrwt beam="1">  1        1 0.39396741E+00 0.21184377E+04</pdfrwt>
<pdfrwt beam="2">  1       -1 0.67403805E-01 0.21184377E+04</pdfrwt>
<totfact> 0.25163651E+00</totfact>
</mgrwt>
</event>
<event>
 6    1  0.1637818E-005  0.2223179E+04  0.7818608E-02  0.8508842E-01
          2   -1    0    0  501    0  0.00000000000E+00  0.00000000000E+00  0.12494466109E+04  0.12494466109E+04  0.00000000000E+00 0. -1.
         -2   -1    0    0    0  501 -0.00000000000E+00 -0.00000000000E+00 -0.98894321102E+03  0.98894321102E+03  0.00000000000E+00 0.  1.
         23    2    1    2    0    0 -0.50365770480E+03 -0.81854618715E+03  0.68898071887E+03  0.11861152584E+04  0.92119657174E+02 0.  0.
         13    1    3    3    0    0 -0.20582685652E+03 -0.36899549771E+03  0.35459315222E+03  0.55159647914E+03  0.00000000000E+00 0. -1.
        -13    1    3    3    0    0 -0.29783084828E+03 -0.44955068945E+03  0.33438756665E+03  0.63451877931E+03  0.00000000000E+00 0.  1.
         22    1    1    2    0    0  0.50365770480E+03  0.81854618715E+03 -0.42847731898E+03  0.10522745635E+04  0.00000000000E+00 0.  1.
<mgrwt>
<rscale>  0 0.22231795E+04</rscale>
<asrwt>0</asrwt>
<pdfrwt beam="1">  1        2 0.19222256E+00 0.22231795E+04</pdfrwt>
<pdfrwt beam="2">  1       -2 0.15214511E+00 0.22231795E+04</pdfrwt>
<totfact> 0.46596193E+00</totfact>
</mgrwt>
</event>
<event>
 6    1  0.1637818E-005  0.3131001E+04  0.7818608E-02  0.8207281E-01
         -2   -1    0    0    0  501 -0.00000000000E+00  0.00000000000E+00  0.11841674978E+04  0.11841674978E+04  0.00000000000E+00 0.  1.
          2   -1    0    0  501    0  0.00000000000E+00 -0.00000000000E+00 -0.20696332497E+04  0.20696332497E+04  0.00000000000E+00 0. -1.
         23    2    1    2    0    0  0.12816475324E+04 -0.75481710811E+02  0.48511827415E+03  0.13758181973E+04  0.96010865344E+02 0.  0.
         13    1    3    3    0    0  0.77927922691E+03 -0.36769300142E+01  0.31577570471E+03  0.84083525675E+03  0.00000000000E+00 0. -1.
        -13    1    3    3    0    0  0.50236830550E+03 -0.71804780797E+02  0.16934256944E+03  0.53498294060E+03  0.00000000000E+00 0.  1.
         22    1    1    2    0    0 -0.12816475324E+04  0.75481710811E+02 -0.13705840261E+04  0.18779825501E+04  0.00000000000E+00 0. -1.
<mgrwt>
<rscale>  0 0.31310014E+04</rscale>
<asrwt>0</asrwt>
<pdfrwt beam="1">  1        2 0.31840511E+00 0.31310014E+04</pdfrwt>
<pdfrwt beam="2">  1       -2 0.18217962E+00 0.31310014E+04</pdfrwt>
<totfact> 0.90639132E-01</totfact>
</mgrwt>
</event>
<event>
 6    1  0.1637818E-005  0.2504528E+04  0.7818608E-02  0.8401374E-01
         -1   -1    0    0    0  501 -0.00000000000E+00  0.00000000000E+00  0.18968533481E+04  0.18968533481E+04  0.00000000000E+00 0.  1.
          1   -1    0    0  501    0  0.00000000000E+00 -0.00000000000E+00 -0.82671944613E+03  0.82671944613E+03  0.00000000000E+00 0. -1.
         23    2    1    2    0    0 -0.90749916924E+03 -0.59105577899E+03  0.12158822550E+04  0.16308037160E+04  0.90826351279E+02 0.  0.
         11    1    3    3    0    0 -0.55391595103E+03 -0.36460282752E+03  0.67730246527E+03  0.94789067518E+03  0.00000000000E+00 0. -1.
        -11    1    3    3    0    0 -0.35358321821E+03 -0.22645295147E+03  0.53857978969E+03  0.68291304080E+03  0.00000000000E+00 0.  1.
         22    1    1    2    0    0  0.90749916924E+03  0.59105577899E+03 -0.14574835296E+03  0.10927690783E+04  0.00000000000E+00 0. -1.
<mgrwt>
<rscale>  0 0.25045283E+04</rscale>
<asrwt>0</asrwt>
<pdfrwt beam="1">  1        1 0.12718761E+00 0.25045283E+04</pdfrwt>
<pdfrwt beam="2">  1       -1 0.29182359E+00 0.25045283E+04</pdfrwt>
<totfact> 0.69463948E-01</totfact>
</mgrwt>
</event>
<event>
 6    1  0.1637818E-005  0.3006711E+04  0.7818608E-02  0.8241817E-01
          1   -1    0    0  501    0  0.00000000000E+00  0.00000000000E+00  0.96915051138E+03  0.96915051138E+03  0.00000000000E+00 0. -1.
         -1   -1    0    0    0  501 -0.00000000000E+00 -0.00000000000E+00 -0.23320191186E+04  0.23320191186E+04  0.00000000000E+00 0.  1.
         23    2    1    2    0    0  0.95365220591E+03 -0.72603863197E+03  0.31170546572E+03  0.12418534933E+04  0.91952033958E+02 0.  0.
         11    1    3    3    0    0  0.31236527895E+03 -0.20741629316E+03  0.13391922936E+03  0.39815568080E+03  0.00000000000E+00 0.  1.
        -11    1    3    3    0    0  0.64128692696E+03 -0.51862233881E+03  0.17778623637E+03  0.84369781252E+03  0.00000000000E+00 0. -1.
         22    1    1    2    0    0 -0.95365220591E+03  0.72603863197E+03 -0.16745740729E+04  0.20593161367E+04  0.00000000000E+00 0.  1.
<mgrwt>
<rscale>  0 0.30067108E+04</rscale>
<asrwt>0</asrwt>
<pdfrwt beam="1">  1        1 0.14910008E+00 0.30067108E+04</pdfrwt>
<pdfrwt beam="2">  1       -1 0.35877217E+00 0.30067108E+04</pdfrwt>
<totfact> 0.18484036E-01</totfact>
</mgrwt>
</event>
<event>
 6    1  0.1637818E-005  0.2469789E+04  0.7818608E-02  0.8413828E-01
          1   -1    0    0  501    0  0.00000000000E+00  0.00000000000E+00  0.10175151622E+04  0.10175151622E+04  0.00000000000E+00 0.  1.
         -1   -1    0    0    0  501 -0.00000000000E+00 -0.00000000000E+00 -0.14987140675E+04  0.14987140675E+04  0.00000000000E+00 0. -1.
         23    2    1    2    0    0  0.66873839858E+03  0.85113286066E+03 -0.84287976057E+03  0.13749793740E+04  0.92107523014E+02 0.  0.
         13    1    3    3    0    0  0.47976675419E+03  0.66697497715E+03 -0.66120134432E+03  0.10546179291E+04  0.00000000000E+00 0. -1.
        -13    1    3    3    0    0  0.18897164440E+03  0.18415788351E+03 -0.18167841624E+03  0.32036144490E+03  0.00000000000E+00 0.  1.
         22    1    1    2    0    0 -0.66873839858E+03 -0.85113286066E+03  0.36168085522E+03  0.11412498558E+04  0.00000000000E+00 0. -1.
<mgrwt>
<rscale>  0 0.24697889E+04</rscale>
<asrwt>0</asrwt>
<pdfrwt beam="1">  1        1 0.15654079E+00 0.24697889E+04</pdfrwt>
<pdfrwt beam="2">  1       -1 0.23057140E+00 0.24697889E+04</pdfrwt>
<totfact> 0.12220133E+00</totfact>
</mgrwt>
</event>
<event>
 6    1  0.1637818E-005  0.3720405E+04  0.7818608E-02  0.8063455E-01
         -2   -1    0    0    0  501 -0.00000000000E+00  0.00000000000E+00  0.75162481392E+03  0.75162481392E+03  0.00000000000E+00 0. -1.
          2   -1    0    0  501    0  0.00000000000E+00 -0.00000000000E+00 -0.46038301107E+04  0.46038301107E+04  0.00000000000E+00 0.  1.
         23    2    1    2    0    0  0.34822733664E+03  0.91759633697E+03  0.34548438555E+03  0.10445566441E+04  0.92161849493E+02 0.  0.
         11    1    3    3    0    0  0.19989650555E+03  0.40955928331E+03  0.13913294169E+03  0.47650330003E+03  0.00000000000E+00 0. -1.
        -11    1    3    3    0    0  0.14833083110E+03  0.50803705365E+03  0.20635144387E+03  0.56805334408E+03  0.00000000000E+00 0.  1.
         22    1    1    2    0    0 -0.34822733664E+03 -0.91759633697E+03 -0.41976896823E+04  0.43108982805E+04  0.00000000000E+00 0.  1.
<mgrwt>
<rscale>  0 0.37204048E+04</rscale>
<asrwt>0</asrwt>
<pdfrwt beam="1">  1        2 0.70828156E+00 0.37204048E+04</pdfrwt>
<pdfrwt beam="2">  1       -2 0.11563459E+00 0.37204048E+04</pdfrwt>
<totfact> 0.45167519E-02</totfact>
</mgrwt>
</event>
<event>
 6    1  0.1637818E-005  0.1797096E+04  0.7818608E-02  0.8707845E-01
          2   -1    0    0  501    0  0.00000000000E+00  0.00000000000E+00  0.11346044203E+04  0.11346044203E+04  0.00000000000E+00 0. -1.
         -2   -1    0    0    0  501 -0.00000000000E+00 -0.00000000000E+00 -0.71160360813E+03  0.71160360813E+03  0.00000000000E+00 0.  1.
         23    2    1    2    0    0  0.83932709893E+03 -0.96107824893E+02 -0.95116559900E+02  0.85517205320E+03  0.92549379261E+02 0.  0.
         13    1    3    3    0    0  0.41827938482E+03 -0.58262735856E+02 -0.92929974497E+02  0.43242128800E+03  0.00000000000E+00 0.  1.
        -13    1    3    3    0    0  0.42104771411E+03 -0.37845089037E+02 -0.21865854033E+01  0.42275076520E+03  0.00000000000E+00 0. -1.
         22    1    1    2    0    0 -0.83932709893E+03  0.96107824893E+02  0.51811737211E+03  0.99103597527E+03  0.00000000000E+00 0. -1.
<mgrwt>
<rscale>  0 0.17970961E+04</rscale>
<asrwt>0</asrwt>
<pdfrwt beam="1">  1        2 0.17455453E+00 0.17970961E+04</pdfrwt>
<pdfrwt beam="2">  1       -2 0.10947748E+00 0.17970961E+04</pdfrwt>
<totfact> 0.13022347E+01</totfact>
</mgrwt>
</event>
<event>
 6    1  0.1637818E-005  0.7764457E+03  0.7818608E-02  0.9594751E-01
         -1   -1    0    0    0  501 -0.00000000000E+00  0.00000000000E+00  0.16660442215E+03  0.16660442215E+03  0.00000000000E+00 0.  1.
          1   -1    0    0  501    0  0.00000000000E+00 -0.00000000000E+00 -0.90463981613E+03  0.90463981613E+03  0.00000000000E+00 0. -1.
         23    2    1    2    0    0  0.17114039798E+03  0.33214088978E+03 -0.26223517613E+03  0.46627113657E+03  0.95051978995E+02 0.  0.
         11    1    3    3    0    0  0.13907811745E+03  0.31126780680E+03 -0.25846986102E+03  0.42782828256E+03  0.00000000000E+00 0. -1.
        -11    1    3    3    0    0  0.32062280538E+02  0.20873082982E+02 -0.37653151073E+01  0.38442854008E+02  0.00000000000E+00 0.  1.
         22    1    1    2    0    0 -0.17114039798E+03 -0.33214088978E+03 -0.47580021786E+03  0.60497310171E+03  0.00000000000E+00 0. -1.
<mgrwt>
<rscale>  0 0.77644573E+03</rscale>
<asrwt>0</asrwt>
<pdfrwt beam="1">  1        1 0.13917536E+00 0.77644573E+03</pdfrwt>
<pdfrwt beam="2">  1       -1 0.25631450E-01 0.77644573E+03</pdfrwt>
<totfact> 0.24450854E+02</totfact>
</mgrwt>
</event>
<event>
 6    1  0.1637818E-005  0.6532914E+03  0.7818608E-02  0.9800623E-01
          2   -1    0    0  501    0  0.00000000000E+00  0.00000000000E+00  0.19712853680E+04  0.19712853680E+04  0.00000000000E+00 0.  1.
         -2   -1    0    0    0  501 -0.00000000000E+00 -0.00000000000E+00 -0.54125809399E+02  0.54125809399E+02  0.00000000000E+00 0. -1.
         23    2    1    2    0    0  0.28021901928E+03  0.77650073511E+02  0.56383636629E+03  0.64120169343E+03  0.93144677873E+02 0.  0.
         13    1    3    3    0    0  0.18073161999E+03  0.91962250993E+01  0.38500084771E+03  0.42541055671E+03  0.00000000000E+00 0.  1.
        -13    1    3    3    0    0  0.99487399285E+02  0.68453848411E+02  0.17883551858E+03  0.21579113671E+03  0.00000000000E+00 0. -1.
         22    1    1    2    0    0 -0.28021901928E+03 -0.77650073511E+02  0.13533231923E+04  0.13842094840E+04  0.00000000000E+00 0.  1.
<mgrwt>
<rscale>  0 0.65329141E+03</rscale>
<asrwt>0</asrwt>
<pdfrwt beam="1">  1        2 0.30327462E+00 0.65329141E+03</pdfrwt>
<pdfrwt beam="2">  1       -2 0.83270491E-02 0.65329141E+03</pdfrwt>
<totfact> 0.65841268E+02</totfact>
</mgrwt>
</event>
<event>
 6    1  0.1637818E-005  0.1177790E+04  0.7818608E-02  0.9132522E-01
          1   -1    0    0  501    0  0.00000000000E+00  0.00000000000E+00  0.31133519974E+04  0.31133519974E+04  0.00000000000E+00 0. -1.
         -1   -1    0    0    0  501 -0.00000000000E+00 -0.00000000000E+00 -0.11139031512E+03  0.11139031512E+03  0.00000000000E+00 0.  1.
         23    2    1    2    0    0 -0.43171533455E+02 -0.43818795716E+03  0.25659368877E+04  0.26050729744E+04  0.92198824060E+02 0.  0.
         11    1    3    3    0    0 -0.47747142038E+02 -0.36483556129E+03  0.22966172836E+04  0.23259053557E+04  0.00000000000E+00 0.  1.
        -11    1    3    3    0    0  0.45756085829E+01 -0.73352395865E+02  0.26931960411E+03  0.27916761870E+03  0.00000000000E+00 0. -1.
         22    1    1    2    0    0  0.43171533455E+02  0.43818795716E+03  0.43602479450E+03  0.61966933805E+03  0.00000000000E+00 0.  1.
<mgrwt>
<rscale>  0 0.11777899E+04</rscale>
<asrwt>0</asrwt>
<pdfrwt beam="1">  1        1 0.47897716E+00 0.11777899E+04</pdfrwt>
<pdfrwt beam="2">  1       -1 0.17136974E-01 0.11777899E+04</pdfrwt>
<totfact> 0.13140419E+01</totfact>
</mgrwt>
</event>
<event>
 6    1  0.1637818E-005  0.1477794E+04  0.7818608E-02  0.8899355E-01
         -1   -1    0    0    0  501 -0.00000000000E+00  0.00000000000E+00  0.18091481212E+03  0.18091481212E+03  0.00000000000E+00 0.  1.
          1   -1    0    0  501    0  0.00000000000E+00 -0.00000000000E+00 -0.30178230224E+04  0.30178230224E+04  0.00000000000E+00 0. -1.
         23    2    1    2    0    0  0.40666861465E+03 -0.57625377447E+03 -0.18800576026E+04  0.20100365011E+04  0.90456463689E+02 0.  0.
         11    1    3    3    0    0  0.28622980042E+03 -0.42342086285E+03 -0.14659832430E+04  0.15525204007E+04  0.00000000000E+00 0.  1.
        -11    1    3    3    0    0  0.12043881423E+03 -0.15283291161E+03 -0.41407435954E+03  0.45751610034E+03  0.00000000000E+00 0. -1.
         22    1    1    2    0    0 -0.40666861465E+03  0.57625377447E+03 -0.95685060772E+03  0.11887013335E+04  0.00000000000E+00 0.  1.
<mgrwt>
<rscale>  0 0.14777941E+04</rscale>
<asrwt>0</asrwt>
<pdfrwt beam="1">  1        1 0.46428043E+00 0.14777941E+04</pdfrwt>
<pdfrwt beam="2">  1       -1 0.27833050E-01 0.14777941E+04</pdfrwt>
<totfact> 0.65842227E+00</totfact>
</mgrwt>
</event>
<event>
 6    1  0.1637818E-005  0.4722339E+04  0.7818608E-02  0.7872827E-01
         -2   -1    0    0    0  501 -0.00000000000E+00  0.00000000000E+00  0.16258049022E+04  0.16258049022E+04  0.00000000000E+00 0. -1.
          2   -1    0    0  501    0  0.00000000000E+00 -0.00000000000E+00 -0.34291450105E+04  0.34291450105E+04  0.00000000000E+00 0.  1.
         23    2    1    2    0    0  0.35412438253E+03  0.23138408971E+04 -0.12253232418E+04  0.26438573651E+04  0.96441407612E+02 0.  0.
         11    1    3    3    0    0  0.27359555081E+03  0.17387702889E+04 -0.96712768648E+03  0.20083606760E+04  0.00000000000E+00 0. -1.
        -11    1    3    3    0    0  0.80528831719E+02  0.57507060817E+03 -0.25819555530E+03  0.63549668913E+03  0.00000000000E+00 0.  1.
         22    1    1    2    0    0 -0.35412438253E+03 -0.23138408971E+04 -0.57801686651E+03  0.24110925476E+04  0.00000000000E+00 0. -1.
<mgrwt>
<rscale>  0 0.47223387E+04</rscale>
<asrwt>0</asrwt>
<pdfrwt beam="1">  1        2 0.52756077E+00 0.47223387E+04</pdfrwt>
<pdfrwt beam="2">  1       -2 0.25012383E+00 0.47223387E+04</pdfrwt>
<totfact> 0.43396412E-02</totfact>
</mgrwt>
</event>
<event>
 6    1  0.1637818E-005  0.2801921E+04  0.7818608E-02  0.8302672E-01
         -1   -1    0    0    0  501 -0.00000000000E+00  0.00000000000E+00  0.12946364179E+04  0.12946364179E+04  0.00000000000E+00 0.  1.
          1   -1    0    0  501    0  0.00000000000E+00 -0.00000000000E+00 -0.15160165394E+04  0.15160165394E+04  0.00000000000E+00 0. -1.
         23    2    1    2    0    0  0.59881395815E+03 -0.46682225571E+01  0.11581072907E+04  0.13067960927E+04  0.88902094744E+02 0.  0.
         11    1    3    3    0    0  0.52714517953E+03  0.23970680080E+02  0.99138923303E+03  0.11230802488E+04  0.00000000000E+00 0. -1.
        -11    1    3    3    0    0  0.71668778620E+02 -0.28638902637E+02  0.16671805764E+03  0.18371584395E+03  0.00000000000E+00 0.  1.
         22    1    1    2    0    0 -0.59881395815E+03  0.46682225571E+01 -0.13794874122E+04  0.15038568646E+04  0.00000000000E+00 0. -1.
<mgrwt>
<rscale>  0 0.28019209E+04</rscale>
<asrwt>0</asrwt>
<pdfrwt beam="1">  1        1 0.23323331E+00 0.28019209E+04</pdfrwt>
<pdfrwt beam="2">  1       -1 0.19917483E+00 0.28019209E+04</pdfrwt>
<totfact> 0.84171410E-01</totfact>
</mgrwt>
</event>
<event>
 6    1  0.1637818E-005  0.2311838E+04  0.7818608E-02  0.8473268E-01
          2   -1    0    0  501    0  0.00000000000E+00  0.00000000000E+00  0.14220680601E+04  0.14220680601E+04  0.00000000000E+00 0. -1.
         -2   -1    0    0    0  501 -0.00000000000E+00 -0.00000000000E+00 -0.93958142945E+03  0.93958142945E+03  0.00000000000E+00 0.  1.
         23    2    1    2    0    0  0.33913251392E+03  0.10794760496E+04  0.47400426708E+03  0.12301233722E+04  0.90796817267E+02 0.  0.
         13    1    3    3    0    0  0.18973251456E+03  0.45523272631E+03  0.19917572006E+03  0.53188930206E+03  0.00000000000E+00 0.  1.
        -13    1    3    3    0    0  0.14939999936E+03  0.62424332330E+03  0.27482854702E+03  0.69823407017E+03  0.00000000000E+00 0. -1.
         22    1    1    2    0    0 -0.33913251392E+03 -0.10794760496E+04  0.84823635640E+01  0.11315261173E+04  0.00000000000E+00 0. -1.
<mgrwt>
<rscale>  0 0.23118380E+04</rscale>
<asrwt>0</asrwt>
<pdfrwt beam="1">  1        2 0.21877970E+00 0.23118380E+04</pdfrwt>
<pdfrwt beam="2">  1       -2 0.14455099E+00 0.23118380E+04</pdfrwt>
<totfact> 0.42065218E+00</totfact>
</mgrwt>
</event>
<event>
 6    1  0.1637818E-005  0.7828953E+03  0.7818608E-02  0.9585111E-01
         -2   -1    0    0    0  501 -0.00000000000E+00  0.00000000000E+00  0.22008187041E+03  0.22008187041E+03  0.00000000000E+00 0.  1.
          2   -1    0    0  501    0  0.00000000000E+00 -0.00000000000E+00 -0.69624655129E+03  0.69624655129E+03  0.00000000000E+00 0. -1.
         23    2    1    2    0    0 -0.12170909236E+03  0.24005022182E+03 -0.56522637233E+03  0.63283380615E+03  0.92523305589E+02 0.  0.
         13    1    3    3    0    0 -0.90143048234E+02  0.90224592438E+02 -0.30987118624E+03  0.33509162670E+03  0.00000000000E+00 0. -1.
        -13    1    3    3    0    0 -0.31566044130E+02  0.14982562938E+03 -0.25535518609E+03  0.29774217945E+03  0.00000000000E+00 0.  1.
         22    1    1    2    0    0  0.12170909236E+03 -0.24005022182E+03  0.89061691449E+02  0.28349461555E+03  0.00000000000E+00 0.  1.
<mgrwt>
<rscale>  0 0.78289525E+03</rscale>
<asrwt>0</asrwt>
<pdfrwt beam="1">  1        2 0.10711485E+00 0.78289525E+03</pdfrwt>
<pdfrwt beam="2">  1       -2 0.33858750E-01 0.78289525E+03</pdfrwt>
<totfact> 0.33850845E+02</totfact>
</mgrwt>
</event>
<event>
 6    1  0.1637818E-005  0.1874976E+04  0.7818608E-02  0.8667414E-01
         -1   -1    0    0    0  501 -0.00000000000E+00  0.00000000000E+00  0.38472411236E+03  0.38472411236E+03  0.00000000000E+00 0.  1.
          1   -1    0    0  501    0  0.00000000000E+00 -0.00000000000E+00 -0.22844523505E+04  0.22844523505E+04  0.00000000000E+00 0. -1.
         23    2    1    2    0    0 -0.20227760356E+03  0.70726911249E+03 -0.12980789870E+03  0.75246995577E+03  0.90637284752E+02 0.  0.
         13    1    3    3    0    0 -0.17058793188E+03  0.54509626420E+03 -0.13592588028E+03  0.58711670448E+03  0.00000000000E+00 0.  1.
        -13    1    3    3    0    0 -0.31689671676E+02  0.16217284829E+03  0.61179815827E+01  0.16535325129E+03  0.00000000000E+00 0. -1.
         22    1    1    2    0    0  0.20227760356E+03 -0.70726911249E+03 -0.17699203395E+04  0.19167065071E+04  0.00000000000E+00 0. -1.
<mgrwt>
<rscale>  0 0.18749762E+04</rscale>
<asrwt>0</asrwt>
<pdfrwt beam="1">  1        1 0.35145421E+00 0.18749762E+04</pdfrwt>
<pdfrwt beam="2">  1       -1 0.59188325E-01 0.18749762E+04</pdfrwt>
<totfact> 0.51766044E+00</totfact>
</mgrwt>
</event>
<event>
 6    1  0.1637818E-005  0.3519937E+04  0.7818608E-02  0.8109081E-01
          1   -1    0    0  501    0  0.00000000000E+00  0.00000000000E+00  0.20936719186E+04  0.20936719186E+04  0.00000000000E+00 0. -1.
         -1   -1    0    0    0  501 -0.00000000000E+00 -0.00000000000E+00 -0.14794532478E+04  0.14794532478E+04  0.00000000000E+00 0.  1.
         23    2    1    2    0    0 -0.11767319693E+04 -0.13063635784E+04  0.34033343923E+03  0.17937159817E+04  0.10151968616E+03 0.  0.
         11    1    3    3    0    0 -0.89568436015E+03 -0.10074193325E+04  0.21778197371E+03  0.13654937468E+04  0.00000000000E+00 0. -1.
        -11    1    3    3    0    0 -0.28104760914E+03 -0.29894424585E+03  0.12255146553E+03  0.42822223487E+03  0.00000000000E+00 0.  1.
         22    1    1    2    0    0  0.11767319693E+04  0.13063635784E+04  0.27388523151E+03  0.17794091847E+04  0.00000000000E+00 0.  1.
<mgrwt>
<rscale>  0 0.35199373E+04</rscale>
<asrwt>0</asrwt>
<pdfrwt beam="1">  1        1 0.32210337E+00 0.35199373E+04</pdfrwt>
<pdfrwt beam="2">  1       -1 0.22760819E+00 0.35199373E+04</pdfrwt>
<totfact> 0.20526523E-01</totfact>
</mgrwt>
</event>
<event>
 6    1  0.1637818E-005  0.1059423E+04  0.7818608E-02  0.9245669E-01
          2   -1    0    0  501    0  0.00000000000E+00  0.00000000000E+00  0.10145709208E+04  0.10145709208E+04  0.00000000000E+00 0. -1.
         -2   -1    0    0    0  501 -0.00000000000E+00 -0.00000000000E+00 -0.27656442586E+03  0.27656442586E+03  0.00000000000E+00 0.  1.
         23    2    1    2    0    0 -0.52455051487E+03  0.40698827916E+02  0.34041439550E+03  0.63167411596E+03  0.79502143797E+02 0.  0.
         11    1    3    3    0    0 -0.96732020494E+02  0.38759949223E+02  0.70723461464E+02  0.12594135720E+03  0.00000000000E+00 0.  1.
        -11    1    3    3    0    0 -0.42781849438E+03  0.19388786928E+01  0.26969093404E+03  0.50573275876E+03  0.00000000000E+00 0. -1.
         22    1    1    2    0    0  0.52455051487E+03 -0.40698827916E+02  0.39759209940E+03  0.65946123067E+03  0.00000000000E+00 0.  1.
<mgrwt>
<rscale>  0 0.10594229E+04</rscale>
<asrwt>0</asrwt>
<pdfrwt beam="1">  1        2 0.15608783E+00 0.10594229E+04</pdfrwt>
<pdfrwt beam="2">  1       -2 0.42548374E-01 0.10594229E+04</pdfrwt>
<totfact> 0.12838054E+02</totfact>
</mgrwt>
</event>
<event>
 6    1  0.1637818E-005  0.1442320E+04  0.7818608E-02  0.8923742E-01
          1   -1    0    0  501    0  0.00000000000E+00  0.00000000000E+00  0.93429191089E+03  0.93429191089E+03  0.00000000000E+00 0.  1.
         -1   -1    0    0    0  501 -0.00000000000E+00 -0.00000000000E+00 -0.55664786697E+03  0.55664786697E+03  0.00000000000E+00 0. -1.
         23    2    1    2    0    0  0.18754727049E+03 -0.52194108793E+03  0.66132307899E+03  0.86798691216E+03  0.91959702796E+02 0.  0.
         11    1    3    3    0    0  0.15121557222E+03 -0.46349830095E+03  0.61598430255E+03  0.78557843991E+03  0.00000000000E+00 0.  1.
        -11    1    3    3    0    0  0.36331698274E+02 -0.58442786984E+02  0.45338776443E+02  0.82408472254E+02  0.00000000000E+00 0. -1.
         22    1    1    2    0    0 -0.18754727049E+03  0.52194108793E+03 -0.28367903507E+03  0.62295286569E+03  0.00000000000E+00 0.  1.
<mgrwt>
<rscale>  0 0.14423198E+04</rscale>
<asrwt>0</asrwt>
<pdfrwt beam="1">  1        1 0.14373722E+00 0.14423198E+04</pdfrwt>
<pdfrwt beam="2">  1       -1 0.85638133E-01 0.14423198E+04</pdfrwt>
<totfact> 0.22344032E+01</totfact>
</mgrwt>
</event>
<event>
 6    1  0.1637818E-005  0.3328594E+04  0.7818608E-02  0.8155657E-01
         -1   -1    0    0    0  501 -0.00000000000E+00  0.00000000000E+00  0.94811792489E+03  0.94811792489E+03  0.00000000000E+00 0.  1.
          1   -1    0    0  501    0  0.00000000000E+00 -0.00000000000E+00 -0.29214562007E+04  0.29214562007E+04  0.00000000000E+00 0. -1.
         23    2    1    2    0    0 -0.46574631111E+03  0.10642757942E+04  0.39645026955E+03  0.12303506902E+04  0.83590742432E+02 0.  0.
         11    1    3    3    0    0 -0.13884405553E+03  0.34664734105E+03  0.88406555674E+02  0.38374180108E+03  0.00000000000E+00 0.  1.
        -11    1    3    3    0    0 -0.32690225558E+03  0.71762845313E+03  0.30804371387E+03  0.84660888910E+03  0.00000000000E+00 0. -1.
         22    1    1    2    0    0  0.46574631111E+03 -0.10642757942E+04 -0.23697885454E+04  0.26392234355E+04  0.00000000000E+00 0. -1.
<mgrwt>
<rscale>  0 0.33285943E+04</rscale>
<asrwt>0</asrwt>
<pdfrwt beam="1">  1        1 0.44945480E+00 0.33285943E+04</pdfrwt>
<pdfrwt beam="2">  1       -1 0.14586430E+00 0.33285943E+04</pdfrwt>
<totfact> 0.21203416E-01</totfact>
</mgrwt>
</event>
<event>
 6    1  0.1637818E-005  0.2028264E+04  0.7818608E-02  0.8593519E-01
         -2   -1    0    0    0  501 -0.00000000000E+00  0.00000000000E+00  0.82813179674E+03  0.82813179674E+03  0.00000000000E+00 0.  1.
          2   -1    0    0  501    0  0.00000000000E+00 -0.00000000000E+00 -0.12419086961E+04  0.12419086961E+04  0.00000000000E+00 0. -1.
         23    2    1    2    0    0  0.90051521622E+03 -0.30787370581E+03 -0.55874149422E+03  0.11073730492E+04  0.91483000055E+02 0.  0.
         13    1    3    3    0    0  0.25569287248E+03 -0.12955082073E+03 -0.15278823867E+03  0.32481765048E+03  0.00000000000E+00 0.  1.
        -13    1    3    3    0    0  0.64482234374E+03 -0.17832288508E+03 -0.40595325555E+03  0.78255539869E+03  0.00000000000E+00 0. -1.
         22    1    1    2    0    0 -0.90051521622E+03  0.30787370581E+03  0.14496459485E+03  0.96266744368E+03  0.00000000000E+00 0.  1.
<mgrwt>
<rscale>  0 0.20282644E+04</rscale>
<asrwt>0</asrwt>
<pdfrwt beam="1">  1        2 0.19106288E+00 0.20282644E+04</pdfrwt>
<pdfrwt beam="2">  1       -2 0.12740489E+00 0.20282644E+04</pdfrwt>
<totfact> 0.75772548E+00</totfact>
</mgrwt>
</event>
<event>
 6    1  0.1637818E-005  0.1670079E+04  0.7818608E-02  0.8778616E-01
          2   -1    0    0  501    0  0.00000000000E+00  0.00000000000E+00  0.85768362350E+03  0.85768362350E+03  0.00000000000E+00 0. -1.
         -2   -1    0    0    0  501 -0.00000000000E+00 -0.00000000000E+00 -0.81299287221E+03  0.81299287221E+03  0.00000000000E+00 0.  1.
         23    2    1    2    0    0 -0.54404105974E+03 -0.24329308364E+03  0.60389930697E+03  0.85343332015E+03  0.92097012754E+02 0.  0.
         11    1    3    3    0    0 -0.34926478245E+03 -0.13574832616E+03  0.32018185444E+03  0.49287921059E+03  0.00000000000E+00 0.  1.
        -11    1    3    3    0    0 -0.19477627730E+03 -0.10754475748E+03  0.28371745253E+03  0.36055410957E+03  0.00000000000E+00 0. -1.
         22    1    1    2    0    0  0.54404105974E+03  0.24329308364E+03 -0.55920855568E+03  0.81724317555E+03  0.00000000000E+00 0.  1.
<mgrwt>
<rscale>  0 0.16700786E+04</rscale>
<asrwt>0</asrwt>
<pdfrwt beam="1">  1        2 0.13195133E+00 0.16700786E+04</pdfrwt>
<pdfrwt beam="2">  1       -2 0.12507583E+00 0.16700786E+04</pdfrwt>
<totfact> 0.14313740E+01</totfact>
</mgrwt>
</event>
<event>
 6    1  0.1637818E-005  0.2664114E+04  0.7818608E-02  0.8346743E-01
          1   -1    0    0  501    0  0.00000000000E+00  0.00000000000E+00  0.10572134646E+04  0.10572134646E+04  0.00000000000E+00 0. -1.
         -1   -1    0    0    0  501 -0.00000000000E+00 -0.00000000000E+00 -0.16783516650E+04  0.16783516650E+04  0.00000000000E+00 0.  1.
         23    2    1    2    0    0 -0.27058580893E+03 -0.24672134140E+03 -0.16247469255E+04  0.16672400043E+04  0.76148274819E+02 0.  0.
         13    1    3    3    0    0 -0.68980305126E+02 -0.52901389779E+02 -0.54367635295E+03  0.55058225206E+03  0.00000000000E+00 0. -1.
        -13    1    3    3    0    0 -0.20160550380E+03 -0.19381995162E+03 -0.10810705725E+04  0.11166577522E+04  0.00000000000E+00 0.  1.
         22    1    1    2    0    0  0.27058580893E+03  0.24672134140E+03  0.10036087251E+04  0.10683251253E+04  0.00000000000E+00 0. -1.
<mgrwt>
<rscale>  0 0.26641141E+04</rscale>
<asrwt>0</asrwt>
<pdfrwt beam="1">  1        1 0.16264823E+00 0.26641141E+04</pdfrwt>
<pdfrwt beam="2">  1       -1 0.25820795E+00 0.26641141E+04</pdfrwt>
<totfact> 0.73758563E-01</totfact>
</mgrwt>
</event>
<event>
 6    1  0.1637818E-005  0.1137517E+04  0.7818608E-02  0.9169377E-01
         -2   -1    0    0    0  501 -0.00000000000E+00  0.00000000000E+00  0.12897712017E+03  0.12897712017E+03  0.00000000000E+00 0.  1.
          2   -1    0    0  501    0  0.00000000000E+00 -0.00000000000E+00 -0.25080902823E+04  0.25080902823E+04  0.00000000000E+00 0. -1.
         23    2    1    2    0    0 -0.13744733462E+03 -0.36341532809E+03 -0.24318380006E+03  0.46608681521E+03  0.84475370507E+02 0.  0.
         11    1    3    3    0    0 -0.77140942031E+02 -0.22537284692E+03 -0.19525068199E+03  0.30800401602E+03  0.00000000000E+00 0.  1.
        -11    1    3    3    0    0 -0.60306392587E+02 -0.13804248117E+03 -0.47933118071E+02  0.15808279919E+03  0.00000000000E+00 0. -1.
         22    1    1    2    0    0  0.13744733462E+03  0.36341532809E+03 -0.21359293621E+04  0.21709805872E+04  0.00000000000E+00 0. -1.
<mgrwt>
<rscale>  0 0.11375171E+04</rscale>
<asrwt>0</asrwt>
<pdfrwt beam="1">  1        2 0.38586005E+00 0.11375171E+04</pdfrwt>
<pdfrwt beam="2">  1       -2 0.19842634E-01 0.11375171E+04</pdfrwt>
<totfact> 0.74526932E+01</totfact>
</mgrwt>
</event>
<event>
 6    1  0.1637818E-005  0.1646749E+04  0.7818608E-02  0.8792332E-01
          2   -1    0    0  501    0  0.00000000000E+00  0.00000000000E+00  0.35056222229E+04  0.35056222229E+04  0.00000000000E+00 0. -1.
         -2   -1    0    0    0  501 -0.00000000000E+00 -0.00000000000E+00 -0.19338800976E+03  0.19338800976E+03  0.00000000000E+00 0.  1.
         23    2    1    2    0    0 -0.65932891685E+03  0.40240596341E+03  0.10383473217E+04  0.12975092905E+04  0.93381039543E+02 0.  0.
         11    1    3    3    0    0 -0.39524050385E+03  0.29161997357E+03  0.67790503133E+03  0.83714544517E+03  0.00000000000E+00 0.  1.
        -11    1    3    3    0    0 -0.26408841300E+03  0.11078598984E+03  0.36044229039E+03  0.46036384537E+03  0.00000000000E+00 0. -1.
         22    1    1    2    0    0  0.65932891685E+03 -0.40240596341E+03  0.22738868914E+04  0.24015009421E+04  0.00000000000E+00 0.  1.
<mgrwt>
<rscale>  0 0.16467487E+04</rscale>
<asrwt>0</asrwt>
<pdfrwt beam="1">  1        2 0.53932645E+00 0.16467487E+04</pdfrwt>
<pdfrwt beam="2">  1       -2 0.29752004E-01 0.16467487E+04</pdfrwt>
<totfact> 0.81058192E+00</totfact>
</mgrwt>
</event>
<event>
 6    1  0.1637818E-005  0.2021815E+04  0.7818608E-02  0.8596489E-01
         -1   -1    0    0    0  501 -0.00000000000E+00  0.00000000000E+00  0.94614556324E+03  0.94614556324E+03  0.00000000000E+00 0.  1.
          1   -1    0    0  501    0  0.00000000000E+00 -0.00000000000E+00 -0.10801021058E+04  0.10801021058E+04  0.00000000000E+00 0. -1.
         23    2    1    2    0    0 -0.51924754413E+03  0.48484654177E+02 -0.93258677587E+03  0.10724242979E+04  0.91689728729E+02 0.  0.
         13    1    3    3    0    0 -0.24198362096E+03  0.56474046233E+02 -0.37835275593E+03  0.45265461295E+03  0.00000000000E+00 0. -1.
        -13    1    3    3    0    0 -0.27726392318E+03 -0.79893920559E+01 -0.55423401994E+03  0.61976968491E+03  0.00000000000E+00 0.  1.
         22    1    1    2    0    0  0.51924754413E+03 -0.48484654177E+02  0.79863023333E+03  0.95382337116E+03  0.00000000000E+00 0.  1.
<mgrwt>
<rscale>  0 0.20218148E+04</rscale>
<asrwt>0</asrwt>
<pdfrwt beam="1">  1        1 0.16616956E+00 0.20218148E+04</pdfrwt>
<pdfrwt beam="2">  1       -1 0.14556086E+00 0.20218148E+04</pdfrwt>
<totfact> 0.45965563E+00</totfact>
</mgrwt>
</event>
<event>
 6    1  0.1637818E-005  0.1750655E+04  0.7818608E-02  0.8732990E-01
          1   -1    0    0  501    0  0.00000000000E+00  0.00000000000E+00  0.54429592895E+03  0.54429592895E+03  0.00000000000E+00 0. -1.
         -1   -1    0    0    0  501 -0.00000000000E+00 -0.00000000000E+00 -0.14076876045E+04  0.14076876045E+04  0.00000000000E+00 0.  1.
         23    2    1    2    0    0  0.16410389249E+03  0.45316182338E+03  0.37888569389E+03  0.61949008569E+03  0.89038595771E+02 0.  0.
         11    1    3    3    0    0  0.11339471834E+03  0.32100859076E+03  0.21373297039E+03  0.40197843241E+03  0.00000000000E+00 0.  1.
        -11    1    3    3    0    0  0.50709174153E+02  0.13215323262E+03  0.16515272350E+03  0.21751165329E+03  0.00000000000E+00 0. -1.
         22    1    1    2    0    0 -0.16410389249E+03 -0.45316182338E+03 -0.12422773694E+04  0.13324934478E+04  0.00000000000E+00 0.  1.
<mgrwt>
<rscale>  0 0.17506555E+04</rscale>
<asrwt>0</asrwt>
<pdfrwt beam="1">  1        1 0.83737835E-01 0.17506555E+04</pdfrwt>
<pdfrwt beam="2">  1       -1 0.21656732E+00 0.17506555E+04</pdfrwt>
<totfact> 0.43284497E+00</totfact>
</mgrwt>
</event>
<event>
 6    1  0.1637818E-005  0.6694473E+04  0.7818608E-02  0.7609792E-01
         -3   -1    0    0    0  501 -0.00000000000E+00  0.00000000000E+00  0.24909917577E+04  0.24909917577E+04  0.00000000000E+00 0.  1.
          3   -1    0    0  501    0  0.00000000000E+00 -0.00000000000E+00 -0.44978031600E+04  0.44978031600E+04  0.00000000000E+00 0. -1.
         23    2    1    2    0    0 -0.51263708928E+03 -0.15888236936E+04 -0.40315707521E+04  0.43645220776E+04  0.91283742741E+02 0.  0.
         11    1    3    3    0    0 -0.24363624570E+03 -0.69395018182E+03 -0.16685536735E+04  0.18234573854E+04  0.00000000000E+00 0.  1.
        -11    1    3    3    0    0 -0.26900084358E+03 -0.89487351177E+03 -0.23630170786E+04  0.25410646921E+04  0.00000000000E+00 0. -1.
         22    1    1    2    0    0  0.51263708928E+03  0.15888236936E+04  0.20247593498E+04  0.26242728401E+04  0.00000000000E+00 0.  1.
<mgrwt>
<rscale>  0 0.66944725E+04</rscale>
<asrwt>0</asrwt>
<pdfrwt beam="1">  1        3 0.69196970E+00 0.66944725E+04</pdfrwt>
<pdfrwt beam="2">  1       -3 0.38322951E+00 0.66944725E+04</pdfrwt>
<totfact> 0.78197572E-06</totfact>
</mgrwt>
</event>
<event>
 6    1  0.1637818E-005  0.1928081E+04  0.7818608E-02  0.8641004E-01
         -1   -1    0    0    0  501 -0.00000000000E+00  0.00000000000E+00  0.79959373453E+03  0.79959373453E+03  0.00000000000E+00 0.  1.
          1   -1    0    0  501    0  0.00000000000E+00 -0.00000000000E+00 -0.11623074224E+04  0.11623074224E+04  0.00000000000E+00 0. -1.
         23    2    1    2    0    0 -0.65762589641E+03 -0.43755508501E+03 -0.74113597236E+03  0.10860417518E+04  0.79233106554E+02 0.  0.
         11    1    3    3    0    0 -0.14791014117E+03 -0.70990877899E+02 -0.18550426633E+03  0.24764681995E+03  0.00000000000E+00 0. -1.
        -11    1    3    3    0    0 -0.50971575524E+03 -0.36656420711E+03 -0.55563170603E+03  0.83839493189E+03  0.00000000000E+00 0.  1.
         22    1    1    2    0    0  0.65762589641E+03  0.43755508501E+03  0.37842228450E+03  0.87585940507E+03  0.00000000000E+00 0.  1.
<mgrwt>
<rscale>  0 0.19280806E+04</rscale>
<asrwt>0</asrwt>
<pdfrwt beam="1">  1        1 0.17881653E+00 0.19280806E+04</pdfrwt>
<pdfrwt beam="2">  1       -1 0.12301442E+00 0.19280806E+04</pdfrwt>
<totfact> 0.61919954E+00</totfact>
</mgrwt>
</event>
<event>
 6    1  0.1637818E-005  0.2793669E+04  0.7818608E-02  0.8305237E-01
         -2   -1    0    0    0  501 -0.00000000000E+00  0.00000000000E+00  0.72226917052E+03  0.72226917052E+03  0.00000000000E+00 0.  1.
          2   -1    0    0  501    0  0.00000000000E+00 -0.00000000000E+00 -0.27014115437E+04  0.27014115437E+04  0.00000000000E+00 0. -1.
         23    2    1    2    0    0  0.98174169739E+03  0.94910402534E+03 -0.13433969006E+04  0.19174312272E+04  0.84923889471E+02 0.  0.
         13    1    3    3    0    0  0.84351347085E+02  0.10546839689E+03 -0.15996086437E+03  0.20934710561E+03  0.00000000000E+00 0. -1.
        -13    1    3    3    0    0  0.89739035031E+03  0.84363562845E+03 -0.11834360362E+04  0.17080841215E+04  0.00000000000E+00 0.  1.
         22    1    1    2    0    0 -0.98174169739E+03 -0.94910402534E+03 -0.63574547256E+03  0.15062494870E+04  0.00000000000E+00 0.  1.
<mgrwt>
<rscale>  0 0.27936688E+04</rscale>
<asrwt>0</asrwt>
<pdfrwt beam="1">  1        2 0.41560178E+00 0.27936688E+04</pdfrwt>
<pdfrwt beam="2">  1       -2 0.11111833E+00 0.27936688E+04</pdfrwt>
<totfact> 0.14787710E+00</totfact>
</mgrwt>
</event>
<event>
 6    1  0.1637818E-005  0.2460869E+04  0.7818608E-02  0.8417060E-01
          1   -1    0    0  501    0  0.00000000000E+00  0.00000000000E+00  0.15314002050E+04  0.15314002050E+04  0.00000000000E+00 0. -1.
         -1   -1    0    0    0  501 -0.00000000000E+00 -0.00000000000E+00 -0.98861790328E+03  0.98861790328E+03  0.00000000000E+00 0.  1.
         23    2    1    2    0    0  0.58634104684E+03  0.94236843039E+03 -0.26831956209E+03  0.11453398494E+04  0.89184648473E+02 0.  0.
         13    1    3    3    0    0  0.49266364656E+03  0.75408865702E+03 -0.18762496555E+03  0.92009254914E+03  0.00000000000E+00 0. -1.
        -13    1    3    3    0    0  0.93677400280E+02  0.18827977336E+03 -0.80694596544E+02  0.22524730030E+03  0.00000000000E+00 0.  1.
         22    1    1    2    0    0 -0.58634104684E+03 -0.94236843039E+03  0.81110186378E+03  0.13746782588E+04  0.00000000000E+00 0. -1.
<mgrwt>
<rscale>  0 0.24608695E+04</rscale>
<asrwt>0</asrwt>
<pdfrwt beam="1">  1        1 0.23560003E+00 0.24608695E+04</pdfrwt>
<pdfrwt beam="2">  1       -1 0.15209506E+00 0.24608695E+04</pdfrwt>
<totfact> 0.18638811E+00</totfact>
</mgrwt>
</event>
<event>
 6    1  0.1637818E-005  0.1195992E+04  0.7818608E-02  0.9116372E-01
         -1   -1    0    0    0  501 -0.00000000000E+00  0.00000000000E+00  0.53462269422E+03  0.53462269422E+03  0.00000000000E+00 0.  1.
          1   -1    0    0  501    0  0.00000000000E+00 -0.00000000000E+00 -0.66888194862E+03  0.66888194862E+03  0.00000000000E+00 0. -1.
         23    2    1    2    0    0  0.39139561603E+02 -0.51964438059E+03 -0.35580223893E+03  0.63725074081E+03  0.89056644174E+02 0.  0.
         11    1    3    3    0    0 -0.14187945084E+02 -0.10256113350E+03 -0.10595414671E+03  0.14814305618E+03  0.00000000000E+00 0.  1.
        -11    1    3    3    0    0  0.53327506687E+02 -0.41708324709E+03 -0.24984809223E+03  0.48910768463E+03  0.00000000000E+00 0. -1.
         22    1    1    2    0    0 -0.39139561603E+02  0.51964438059E+03  0.22154298454E+03  0.56625390203E+03  0.00000000000E+00 0.  1.
<mgrwt>
<rscale>  0 0.11959924E+04</rscale>
<asrwt>0</asrwt>
<pdfrwt beam="1">  1        1 0.10290492E+00 0.11959924E+04</pdfrwt>
<pdfrwt beam="2">  1       -1 0.82249645E-01 0.11959924E+04</pdfrwt>
<totfact> 0.42489733E+01</totfact>
</mgrwt>
</event>
<event>
 6    1  0.1637818E-005  0.7791577E+03  0.7818608E-02  0.9590685E-01
         -1   -1    0    0    0  501 -0.00000000000E+00  0.00000000000E+00  0.48533373411E+03  0.48533373411E+03  0.00000000000E+00 0.  1.
          1   -1    0    0  501    0  0.00000000000E+00 -0.00000000000E+00 -0.31271612215E+03  0.31271612215E+03  0.00000000000E+00 0. -1.
         23    2    1    2    0    0  0.24958978614E+03 -0.28456451005E+03  0.15318788500E+03  0.41903859520E+03  0.94099917276E+02 0.  0.
         11    1    3    3    0    0  0.15764290761E+03 -0.22144349383E+03  0.14273772289E+03  0.30702209174E+03  0.00000000000E+00 0. -1.
        -11    1    3    3    0    0  0.91946878523E+02 -0.63121016218E+02  0.10450162110E+02  0.11201650346E+03  0.00000000000E+00 0.  1.
         22    1    1    2    0    0 -0.24958978614E+03  0.28456451005E+03  0.19429726956E+02  0.37901126107E+03  0.00000000000E+00 0. -1.
<mgrwt>
<rscale>  0 0.77915771E+03</rscale>
<asrwt>0</asrwt>
<pdfrwt beam="1">  1        1 0.48110172E-01 0.77915771E+03</pdfrwt>
<pdfrwt beam="2">  1       -1 0.74666729E-01 0.77915771E+03</pdfrwt>
<totfact> 0.15182436E+02</totfact>
</mgrwt>
</event>
<event>
 6    1  0.1637818E-005  0.1935084E+04  0.7818608E-02  0.8637587E-01
          2   -1    0    0  501    0  0.00000000000E+00  0.00000000000E+00  0.11973239771E+04  0.11973239771E+04  0.00000000000E+00 0.  1.
         -2   -1    0    0    0  501 -0.00000000000E+00 -0.00000000000E+00 -0.78185802817E+03  0.78185802817E+03  0.00000000000E+00 0. -1.
         23    2    1    2    0    0 -0.22141949940E+03  0.50002597389E+03 -0.60550505165E+03  0.82097893443E+03  0.91200185974E+02 0.  0.
         11    1    3    3    0    0 -0.76048249120E+02  0.17846463298E+03 -0.15259025180E+03  0.24681318110E+03  0.00000000000E+00 0. -1.
        -11    1    3    3    0    0 -0.14537125028E+03  0.32156134091E+03 -0.45291479985E+03  0.57416575333E+03  0.00000000000E+00 0.  1.
         22    1    1    2    0    0  0.22141949940E+03 -0.50002597389E+03  0.10209710006E+04  0.11582030709E+04  0.00000000000E+00 0.  1.
<mgrwt>
<rscale>  0 0.19350838E+04</rscale>
<asrwt>0</asrwt>
<pdfrwt beam="1">  1        2 0.18420369E+00 0.19350838E+04</pdfrwt>
<pdfrwt beam="2">  1       -2 0.12028585E+00 0.19350838E+04</pdfrwt>
<totfact> 0.93736948E+00</totfact>
</mgrwt>
</event>
<event>
 6    1  0.1637818E-005  0.1743516E+04  0.7818608E-02  0.8736928E-01
         -2   -1    0    0    0  501 -0.00000000000E+00  0.00000000000E+00  0.62472705200E+03  0.62472705200E+03  0.00000000000E+00 0.  1.
          2   -1    0    0  501    0  0.00000000000E+00 -0.00000000000E+00 -0.12164703165E+04  0.12164703165E+04  0.00000000000E+00 0. -1.
         23    2    1    2    0    0  0.34056315780E+03 -0.70379879533E+03  0.10486603894E+03  0.79401995737E+03  0.90303919142E+02 0.  0.
         11    1    3    3    0    0  0.20732295452E+03 -0.52163405853E+03  0.70812707427E+02  0.56577322138E+03  0.00000000000E+00 0.  1.
        -11    1    3    3    0    0  0.13324020328E+03 -0.18216473680E+03  0.34053331516E+02  0.22824673599E+03  0.00000000000E+00 0. -1.
         22    1    1    2    0    0 -0.34056315780E+03  0.70379879533E+03 -0.69660930346E+03  0.10471774112E+04  0.00000000000E+00 0. -1.
<mgrwt>
<rscale>  0 0.17435159E+04</rscale>
<asrwt>0</asrwt>
<pdfrwt beam="1">  1        2 0.18714928E+00 0.17435159E+04</pdfrwt>
<pdfrwt beam="2">  1       -2 0.96111856E-01 0.17435159E+04</pdfrwt>
<totfact> 0.15928162E+01</totfact>
</mgrwt>
</event>
<event>
 6    1  0.1637818E-005  0.3073839E+04  0.7818608E-02  0.8222954E-01
         -2   -1    0    0    0  501 -0.00000000000E+00  0.00000000000E+00  0.75410067698E+03  0.75410067698E+03  0.00000000000E+00 0.  1.
          2   -1    0    0  501    0  0.00000000000E+00 -0.00000000000E+00 -0.31323698279E+04  0.31323698279E+04  0.00000000000E+00 0. -1.
         23    2    1    2    0    0  0.89641477194E+03 -0.40402455946E+03  0.30115538972E+03  0.10323312026E+04  0.90652385824E+02 0.  0.
         13    1    3    3    0    0  0.47312669330E+03 -0.17228033651E+03  0.12693157916E+03  0.51926968721E+03  0.00000000000E+00 0.  1.
        -13    1    3    3    0    0  0.42328807864E+03 -0.23174422295E+03  0.17422381056E+03  0.51306151537E+03  0.00000000000E+00 0. -1.
         22    1    1    2    0    0 -0.89641477194E+03  0.40402455946E+03 -0.26794245406E+04  0.28541393023E+04  0.00000000000E+00 0. -1.
<mgrwt>
<rscale>  0 0.30738394E+04</rscale>
<asrwt>0</asrwt>
<pdfrwt beam="1">  1        2 0.48190304E+00 0.30738394E+04</pdfrwt>
<pdfrwt beam="2">  1       -2 0.11601549E+00 0.30738394E+04</pdfrwt>
<totfact> 0.70387155E-01</totfact>
</mgrwt>
</event>
<event>
 6    1  0.1637818E-005  0.1519237E+04  0.7818608E-02  0.8871760E-01
          1   -1    0    0  501    0  0.00000000000E+00  0.00000000000E+00  0.57381232362E+03  0.57381232362E+03  0.00000000000E+00 0. -1.
         -1   -1    0    0    0  501 -0.00000000000E+00 -0.00000000000E+00 -0.10055906070E+04  0.10055906070E+04  0.00000000000E+00 0.  1.
         23    2    1    2    0    0  0.39878174114E+03 -0.62666357095E+03 -0.36750849037E+03  0.83383957682E+03  0.92151186399E+02 0.  0.
         11    1    3    3    0    0  0.19983857998E+03 -0.39685031776E+03 -0.20885722909E+03  0.49096534999E+03  0.00000000000E+00 0.  1.
        -11    1    3    3    0    0  0.19894316116E+03 -0.22981325319E+03 -0.15865126128E+03  0.34287422683E+03  0.00000000000E+00 0. -1.
         22    1    1    2    0    0 -0.39878174114E+03  0.62666357095E+03 -0.64269792992E+02  0.74556335379E+03  0.00000000000E+00 0.  1.
<mgrwt>
<rscale>  0 0.15192370E+04</rscale>
<asrwt>0</asrwt>
<pdfrwt beam="1">  1        1 0.88278819E-01 0.15192370E+04</pdfrwt>
<pdfrwt beam="2">  1       -1 0.15470625E+00 0.15192370E+04</pdfrwt>
<totfact> 0.11315624E+01</totfact>
</mgrwt>
</event>
<event>
 6    1  0.1637818E-005  0.1973833E+04  0.7818608E-02  0.8618953E-01
          2   -1    0    0  501    0  0.00000000000E+00  0.00000000000E+00  0.14438131786E+04  0.14438131786E+04  0.00000000000E+00 0. -1.
         -2   -1    0    0    0  501 -0.00000000000E+00 -0.00000000000E+00 -0.67460574201E+03  0.67460574201E+03  0.00000000000E+00 0.  1.
         23    2    1    2    0    0  0.50114451708E+02  0.46714066257E+03  0.13142225031E+04  0.13988542747E+04  0.94237132908E+02 0.  0.
         11    1    3    3    0    0  0.55730410639E+02  0.17653855398E+03  0.59450681888E+03  0.62266371132E+03  0.00000000000E+00 0. -1.
        -11    1    3    3    0    0 -0.56159589303E+01  0.29060210859E+03  0.71971568427E+03  0.77619056339E+03  0.00000000000E+00 0.  1.
         22    1    1    2    0    0 -0.50114451708E+02 -0.46714066257E+03 -0.54501506653E+03  0.71956464591E+03  0.00000000000E+00 0.  1.
<mgrwt>
<rscale>  0 0.19738335E+04</rscale>
<asrwt>0</asrwt>
<pdfrwt beam="1">  1        2 0.22212510E+00 0.19738335E+04</pdfrwt>
<pdfrwt beam="2">  1       -2 0.10378550E+00 0.19738335E+04</pdfrwt>
<totfact> 0.96149604E+00</totfact>
</mgrwt>
</event>
<event>
 6    1  0.1637818E-005  0.1347146E+04  0.7818608E-02  0.8992992E-01
         -1   -1    0    0    0  501 -0.00000000000E+00  0.00000000000E+00  0.43213535816E+03  0.43213535816E+03  0.00000000000E+00 0.  1.
          1   -1    0    0  501    0  0.00000000000E+00 -0.00000000000E+00 -0.10499035523E+04  0.10499035523E+04  0.00000000000E+00 0. -1.
         23    2    1    2    0    0  0.19404411537E+03  0.15480499070E+03  0.37466004358E+03  0.45903768325E+03  0.93422387719E+02 0.  0.
         11    1    3    3    0    0  0.16125278880E+03  0.16517329577E+03  0.32566470168E+03  0.39917687490E+03  0.00000000000E+00 0. -1.
        -11    1    3    3    0    0  0.32791326575E+02 -0.10368305068E+02  0.48995341897E+02  0.59860808349E+02  0.00000000000E+00 0.  1.
         22    1    1    2    0    0 -0.19404411537E+03 -0.15480499070E+03 -0.99242823769E+03  0.10230012272E+04  0.00000000000E+00 0. -1.
<mgrwt>
<rscale>  0 0.13471458E+04</rscale>
<asrwt>0</asrwt>
<pdfrwt beam="1">  1        1 0.16152362E+00 0.13471458E+04</pdfrwt>
<pdfrwt beam="2">  1       -1 0.66482363E-01 0.13471458E+04</pdfrwt>
<totfact> 0.31070483E+01</totfact>
</mgrwt>
</event>
<event>
 6    1  0.1637818E-005  0.8778732E+03  0.7818608E-02  0.9453672E-01
          1   -1    0    0  501    0  0.00000000000E+00  0.00000000000E+00  0.44213481248E+03  0.44213481248E+03  0.00000000000E+00 0. -1.
         -1   -1    0    0    0  501 -0.00000000000E+00 -0.00000000000E+00 -0.43576148464E+03  0.43576148464E+03  0.00000000000E+00 0.  1.
         23    2    1    2    0    0 -0.29058397862E+03  0.18322844074E+03 -0.26258300347E+03  0.44160600582E+03  0.89745866397E+02 0.  0.
         13    1    3    3    0    0 -0.88790600431E+02  0.11125117540E+02 -0.74962473476E+02  0.11673436253E+03  0.00000000000E+00 0.  1.
        -13    1    3    3    0    0 -0.20179337819E+03  0.17210332321E+03 -0.18762052999E+03  0.32487164329E+03  0.00000000000E+00 0. -1.
         22    1    1    2    0    0  0.29058397862E+03 -0.18322844074E+03  0.26895633131E+03  0.43629029130E+03  0.00000000000E+00 0. -1.
<mgrwt>
<rscale>  0 0.87787316E+03</rscale>
<asrwt>0</asrwt>
<pdfrwt beam="1">  1        1 0.68020741E-01 0.87787316E+03</pdfrwt>
<pdfrwt beam="2">  1       -1 0.67040228E-01 0.87787316E+03</pdfrwt>
<totfact> 0.11930465E+02</totfact>
</mgrwt>
</event>
<event>
 6    1  0.1637818E-005  0.4548574E+04  0.7818608E-02  0.7902188E-01
          1   -1    0    0  501    0  0.00000000000E+00  0.00000000000E+00  0.49412108780E+04  0.49412108780E+04  0.00000000000E+00 0. -1.
         -1   -1    0    0    0  501 -0.00000000000E+00 -0.00000000000E+00 -0.10467840912E+04  0.10467840912E+04  0.00000000000E+00 0.  1.
         23    2    1    2    0    0 -0.10614801548E+04 -0.93981448699E+03  0.42875284715E+04  0.45167640820E+04  0.90917484014E+02 0.  0.
         13    1    3    3    0    0 -0.20357823270E+03 -0.19575481535E+03  0.96816341368E+03  0.10085159593E+04  0.00000000000E+00 0.  1.
        -13    1    3    3    0    0 -0.85790192212E+03 -0.74405967164E+03  0.33193650578E+04  0.35082481227E+04  0.00000000000E+00 0. -1.
         22    1    1    2    0    0  0.10614801548E+04  0.93981448699E+03 -0.39310168470E+03  0.14712308872E+04  0.00000000000E+00 0.  1.
<mgrwt>
<rscale>  0 0.45485738E+04</rscale>
<asrwt>0</asrwt>
<pdfrwt beam="1">  1        1 0.76018627E+00 0.45485738E+04</pdfrwt>
<pdfrwt beam="2">  1       -1 0.16104371E+00 0.45485738E+04</pdfrwt>
<totfact> 0.21768405E-03</totfact>
</mgrwt>
</event>
<event>
 6    1  0.1637818E-005  0.2226026E+04  0.7818608E-02  0.8507673E-01
          2   -1    0    0  501    0  0.00000000000E+00  0.00000000000E+00  0.71940289578E+03  0.71940289578E+03  0.00000000000E+00 0. -1.
         -2   -1    0    0    0  501 -0.00000000000E+00 -0.00000000000E+00 -0.17219805010E+04  0.17219805010E+04  0.00000000000E+00 0.  1.
         23    2    1    2    0    0  0.10433461893E+04 -0.22994085243E+03 -0.16728067012E+03  0.10852252068E+04  0.91032195554E+02 0.  0.
         11    1    3    3    0    0  0.51769580842E+03 -0.72140243990E+02 -0.10163960342E+03  0.53248828517E+03  0.00000000000E+00 0. -1.
        -11    1    3    3    0    0  0.52565038087E+03 -0.15780060844E+03 -0.65641066701E+02  0.55273692166E+03  0.00000000000E+00 0.  1.
         22    1    1    2    0    0 -0.10433461893E+04  0.22994085243E+03 -0.83529693508E+03  0.13561581899E+04  0.00000000000E+00 0.  1.
<mgrwt>
<rscale>  0 0.22260258E+04</rscale>
<asrwt>0</asrwt>
<pdfrwt beam="1">  1        2 0.11067737E+00 0.22260258E+04</pdfrwt>
<pdfrwt beam="2">  1       -2 0.26492008E+00 0.22260258E+04</pdfrwt>
<totfact> 0.18787950E+00</totfact>
</mgrwt>
</event>
<event>
 6    1  0.1637818E-005  0.1793186E+04  0.7818608E-02  0.8709932E-01
          2   -1    0    0  501    0  0.00000000000E+00  0.00000000000E+00  0.69125476709E+03  0.69125476709E+03  0.00000000000E+00 0. -1.
         -2   -1    0    0    0  501 -0.00000000000E+00 -0.00000000000E+00 -0.11629272097E+04  0.11629272097E+04  0.00000000000E+00 0.  1.
         23    2    1    2    0    0  0.23090930716E+03  0.52752602415E+03 -0.94407490778E+03  0.11093552161E+04  0.88253892869E+02 0.  0.
         13    1    3    3    0    0  0.11052817005E+03  0.29907311089E+03 -0.59631608120E+03  0.67620564234E+03  0.00000000000E+00 0. -1.
        -13    1    3    3    0    0  0.12038113711E+03  0.22845291327E+03 -0.34775882658E+03  0.43314957372E+03  0.00000000000E+00 0.  1.
         22    1    1    2    0    0 -0.23090930716E+03 -0.52752602415E+03  0.47240246521E+03  0.74482676068E+03  0.00000000000E+00 0. -1.
<mgrwt>
<rscale>  0 0.17931860E+04</rscale>
<asrwt>0</asrwt>
<pdfrwt beam="1">  1        2 0.10634689E+00 0.17931860E+04</pdfrwt>
<pdfrwt beam="2">  1       -2 0.17891187E+00 0.17931860E+04</pdfrwt>
<totfact> 0.72499001E+00</totfact>
</mgrwt>
</event>
<event>
 6    1  0.1637818E-005  0.1751304E+04  0.7818608E-02  0.8732633E-01
         -1   -1    0    0    0  501 -0.00000000000E+00  0.00000000000E+00  0.31222054144E+03  0.31222054144E+03  0.00000000000E+00 0.  1.
          1   -1    0    0  501    0  0.00000000000E+00 -0.00000000000E+00 -0.24558492120E+04  0.24558492120E+04  0.00000000000E+00 0. -1.
         23    2    1    2    0    0  0.62860892919E+03 -0.45661256167E+02 -0.11949179200E+03  0.64807818758E+03  0.92157000212E+02 0.  0.
         11    1    3    3    0    0  0.20405749307E+03  0.28275014563E+02 -0.36335347169E+02  0.20918698425E+03  0.00000000000E+00 0. -1.
        -11    1    3    3    0    0  0.42455143612E+03 -0.73936270729E+02 -0.83156444835E+02  0.43889120333E+03  0.00000000000E+00 0.  1.
         22    1    1    2    0    0 -0.62860892919E+03  0.45661256167E+02 -0.20241368785E+04  0.21199915658E+04  0.00000000000E+00 0. -1.
<mgrwt>
<rscale>  0 0.17513042E+04</rscale>
<asrwt>0</asrwt>
<pdfrwt beam="1">  1        1 0.37782298E+00 0.17513042E+04</pdfrwt>
<pdfrwt beam="2">  1       -1 0.48033927E-01 0.17513042E+04</pdfrwt>
<totfact> 0.59732796E+00</totfact>
</mgrwt>
</event>
<event>
 6    1  0.1637818E-005  0.1838218E+04  0.7818608E-02  0.8686235E-01
          2   -1    0    0  501    0  0.00000000000E+00  0.00000000000E+00  0.15906948421E+04  0.15906948421E+04  0.00000000000E+00 0. -1.
         -2   -1    0    0    0  501 -0.00000000000E+00 -0.00000000000E+00 -0.53106444768E+03  0.53106444768E+03  0.00000000000E+00 0.  1.
         23    2    1    2    0    0 -0.41183482183E+03 -0.20178255698E+03 -0.38516229552E+03  0.60592617308E+03  0.92045709108E+02 0.  0.
         11    1    3    3    0    0 -0.29747963406E+03 -0.98525766591E+02 -0.24773773463E+03  0.39946895314E+03  0.00000000000E+00 0. -1.
        -11    1    3    3    0    0 -0.11435518777E+03 -0.10325679039E+03 -0.13742456089E+03  0.20645721995E+03  0.00000000000E+00 0.  1.
         22    1    1    2    0    0  0.41183482183E+03  0.20178255698E+03  0.14447926899E+04  0.15158331167E+04  0.00000000000E+00 0. -1.
<mgrwt>
<rscale>  0 0.18382181E+04</rscale>
<asrwt>0</asrwt>
<pdfrwt beam="1">  1        2 0.24472228E+00 0.18382181E+04</pdfrwt>
<pdfrwt beam="2">  1       -2 0.81702223E-01 0.18382181E+04</pdfrwt>
<totfact> 0.14002132E+01</totfact>
</mgrwt>
</event>
<event>
 6    1  0.1637818E-005  0.2312311E+04  0.7818608E-02  0.8473083E-01
          1   -1    0    0  501    0  0.00000000000E+00  0.00000000000E+00  0.11593720768E+04  0.11593720768E+04  0.00000000000E+00 0. -1.
         -1   -1    0    0    0  501 -0.00000000000E+00 -0.00000000000E+00 -0.11529475351E+04  0.11529475351E+04  0.00000000000E+00 0.  1.
         23    2    1    2    0    0  0.49863932808E+03  0.10123202332E+04 -0.23974150925E+03  0.11573169459E+04  0.92049377304E+02 0.  0.
         11    1    3    3    0    0  0.39176465576E+03  0.71553483367E+03 -0.19469017478E+03  0.83867389840E+03  0.00000000000E+00 0.  1.
        -11    1    3    3    0    0  0.10687467232E+03  0.29678539954E+03 -0.45051334472E+02  0.31864304746E+03  0.00000000000E+00 0. -1.
         22    1    1    2    0    0 -0.49863932808E+03 -0.10123202332E+04  0.24616605091E+03  0.11550026661E+04  0.00000000000E+00 0.  1.
<mgrwt>
<rscale>  0 0.23123107E+04</rscale>
<asrwt>0</asrwt>
<pdfrwt beam="1">  1        1 0.17836493E+00 0.23123107E+04</pdfrwt>
<pdfrwt beam="2">  1       -1 0.17737655E+00 0.23123107E+04</pdfrwt>
<totfact> 0.22470361E+00</totfact>
</mgrwt>
</event>
<event>
 6    1  0.1637818E-005  0.1244021E+04  0.7818608E-02  0.9075174E-01
          2   -1    0    0  501    0  0.00000000000E+00  0.00000000000E+00  0.74718712381E+03  0.74718712381E+03  0.00000000000E+00 0. -1.
         -2   -1    0    0    0  501 -0.00000000000E+00 -0.00000000000E+00 -0.51780511742E+03  0.51780511742E+03  0.00000000000E+00 0.  1.
         23    2    1    2    0    0  0.18174784148E+03 -0.58616279640E+03  0.19512578399E+03  0.65034389416E+03  0.90851567548E+02 0.  0.
         11    1    3    3    0    0  0.37698278370E+02 -0.11993319954E+03  0.25528508133E+01  0.12574438195E+03  0.00000000000E+00 0.  1.
        -11    1    3    3    0    0  0.14404956311E+03 -0.46622959686E+03  0.19257293318E+03  0.52459951221E+03  0.00000000000E+00 0. -1.
         22    1    1    2    0    0 -0.18174784148E+03  0.58616279640E+03  0.34256222400E+02  0.61464834706E+03  0.00000000000E+00 0. -1.
<mgrwt>
<rscale>  0 0.12440214E+04</rscale>
<asrwt>0</asrwt>
<pdfrwt beam="1">  1        2 0.11495187E+00 0.12440214E+04</pdfrwt>
<pdfrwt beam="2">  1       -2 0.79662326E-01 0.12440214E+04</pdfrwt>
<totfact> 0.51765218E+01</totfact>
</mgrwt>
</event>
<event>
 6    1  0.1637818E-005  0.2667646E+04  0.7818608E-02  0.8345580E-01
         -2   -1    0    0    0  501 -0.00000000000E+00  0.00000000000E+00  0.11285033611E+04  0.11285033611E+04  0.00000000000E+00 0.  1.
          2   -1    0    0  501    0  0.00000000000E+00 -0.00000000000E+00 -0.15764982207E+04  0.15764982207E+04  0.00000000000E+00 0. -1.
         23    2    1    2    0    0 -0.71373942911E+03 -0.61811653205E+03  0.72701755751E+03  0.11976375911E+04  0.11953765466E+03 0.  0.
         13    1    3    3    0    0 -0.64701418557E+03 -0.50653734767E+03  0.62612380452E+03  0.10330723399E+04  0.00000000000E+00 0. -1.
        -13    1    3    3    0    0 -0.66725243541E+02 -0.11157918438E+03  0.10089375298E+03  0.16456525120E+03  0.00000000000E+00 0.  1.
         22    1    1    2    0    0  0.71373942911E+03  0.61811653205E+03 -0.11750124171E+04  0.15073639906E+04  0.00000000000E+00 0. -1.
<mgrwt>
<rscale>  0 0.26676458E+04</rscale>
<asrwt>0</asrwt>
<pdfrwt beam="1">  1        2 0.24253819E+00 0.26676458E+04</pdfrwt>
<pdfrwt beam="2">  1       -2 0.17361590E+00 0.26676458E+04</pdfrwt>
<totfact> 0.20321450E+00</totfact>
</mgrwt>
</event>
<event>
 6    1  0.1637818E-005  0.9017335E+03  0.7818608E-02  0.9423417E-01
         -2   -1    0    0    0  501 -0.00000000000E+00  0.00000000000E+00  0.99702113134E+02  0.99702113134E+02  0.00000000000E+00 0. -1.
          2   -1    0    0  501    0  0.00000000000E+00 -0.00000000000E+00 -0.20388819566E+04  0.20388819566E+04  0.00000000000E+00 0.  1.
         23    2    1    2    0    0  0.17445676776E+03  0.24325638202E+03 -0.17643349806E+04  0.17919148365E+04  0.92043610432E+02 0.  0.
         13    1    3    3    0    0  0.22836573905E+02  0.10100173228E+03 -0.67827207688E+03  0.68613108755E+03  0.00000000000E+00 0.  1.
        -13    1    3    3    0    0  0.15162019386E+03  0.14225464975E+03 -0.10860629038E+04  0.11057837490E+04  0.00000000000E+00 0. -1.
         22    1    1    2    0    0 -0.17445676776E+03 -0.24325638202E+03 -0.17484486287E+03  0.34666923325E+03  0.00000000000E+00 0. -1.
<mgrwt>
<rscale>  0 0.90173353E+03</rscale>
<asrwt>0</asrwt>
<pdfrwt beam="1">  1        2 0.31367413E+00 0.90173353E+03</pdfrwt>
<pdfrwt beam="2">  1       -2 0.15338788E-01 0.90173353E+03</pdfrwt>
<totfact> 0.21706586E+02</totfact>
</mgrwt>
</event>
<event>
 6    1  0.1637818E-005  0.1865794E+04  0.7818608E-02  0.8672073E-01
         -1   -1    0    0    0  501 -0.00000000000E+00  0.00000000000E+00  0.29018127255E+03  0.29018127255E+03  0.00000000000E+00 0.  1.
          1   -1    0    0  501    0  0.00000000000E+00 -0.00000000000E+00 -0.29991497892E+04  0.29991497892E+04  0.00000000000E+00 0. -1.
         23    2    1    2    0    0 -0.43170363585E+03  0.67595305314E+03 -0.52477063524E+03  0.96253048061E+03  0.88318442200E+02 0.  0.
         13    1    3    3    0    0 -0.15384641148E+03  0.25404613173E+03 -0.24527024486E+03  0.38518261693E+03  0.00000000000E+00 0.  1.
        -13    1    3    3    0    0 -0.27785722437E+03  0.42190692141E+03 -0.27950039038E+03  0.57734786367E+03  0.00000000000E+00 0. -1.
         22    1    1    2    0    0  0.43170363585E+03 -0.67595305314E+03 -0.21841978814E+04  0.23268005811E+04  0.00000000000E+00 0. -1.
<mgrwt>
<rscale>  0 0.18657943E+04</rscale>
<asrwt>0</asrwt>
<pdfrwt beam="1">  1        1 0.46140768E+00 0.18657943E+04</pdfrwt>
<pdfrwt beam="2">  1       -1 0.44643270E-01 0.18657943E+04</pdfrwt>
<totfact> 0.27995073E+00</totfact>
</mgrwt>
</event>
<event>
 6    1  0.1637818E-005  0.1378939E+04  0.7818608E-02  0.8969206E-01
          2   -1    0    0  501    0  0.00000000000E+00  0.00000000000E+00  0.87061049176E+03  0.87061049176E+03  0.00000000000E+00 0. -1.
         -2   -1    0    0    0  501 -0.00000000000E+00 -0.00000000000E+00 -0.54601732094E+03  0.54601732094E+03  0.00000000000E+00 0.  1.
         23    2    1    2    0    0 -0.53172892949E+03  0.21969305358E+03 -0.22212603954E+03  0.62296378603E+03  0.87995505706E+02 0.  0.
         13    1    3    3    0    0 -0.32985975779E+03  0.18173589466E+03 -0.14369627891E+03  0.40309306095E+03  0.00000000000E+00 0.  1.
        -13    1    3    3    0    0 -0.20186917170E+03  0.37957158919E+02 -0.78429760627E+02  0.21987072508E+03  0.00000000000E+00 0. -1.
         22    1    1    2    0    0  0.53172892949E+03 -0.21969305358E+03  0.54671921037E+03  0.79366402667E+03  0.00000000000E+00 0. -1.
<mgrwt>
<rscale>  0 0.13789393E+04</rscale>
<asrwt>0</asrwt>
<pdfrwt beam="1">  1        2 0.13394008E+00 0.13789393E+04</pdfrwt>
<pdfrwt beam="2">  1       -2 0.84002665E-01 0.13789393E+04</pdfrwt>
<totfact> 0.37064203E+01</totfact>
</mgrwt>
</event>
<event>
 6    1  0.1637818E-005  0.2728254E+04  0.7818608E-02  0.8325896E-01
          2   -1    0    0  501    0  0.00000000000E+00  0.00000000000E+00  0.19801616829E+04  0.19801616829E+04  0.00000000000E+00 0. -1.
         -2   -1    0    0    0  501 -0.00000000000E+00 -0.00000000000E+00 -0.93974235461E+03  0.93974235461E+03  0.00000000000E+00 0.  1.
         23    2    1    2    0    0 -0.15677866214E+03  0.12974245151E+04  0.10802235562E+03  0.13145212059E+04  0.91691059231E+02 0.  0.
         13    1    3    3    0    0 -0.23401199049E+02  0.63591515190E+02  0.18680312967E+02  0.70288341947E+02  0.00000000000E+00 0.  1.
        -13    1    3    3    0    0 -0.13337746309E+03  0.12338329999E+04  0.89342042658E+02  0.12442328640E+04  0.00000000000E+00 0. -1.
         22    1    1    2    0    0  0.15677866214E+03 -0.12974245151E+04  0.93239697263E+03  0.16053828315E+04  0.00000000000E+00 0. -1.
<mgrwt>
<rscale>  0 0.27282535E+04</rscale>
<asrwt>0</asrwt>
<pdfrwt beam="1">  1        2 0.30464026E+00 0.27282535E+04</pdfrwt>
<pdfrwt beam="2">  1       -2 0.14457575E+00 0.27282535E+04</pdfrwt>
<totfact> 0.19808797E+00</totfact>
</mgrwt>
</event>
<event>
 6    1  0.1637818E-005  0.1807903E+04  0.7818608E-02  0.8702108E-01
          1   -1    0    0  501    0  0.00000000000E+00  0.00000000000E+00  0.82868186314E+03  0.82868186314E+03  0.00000000000E+00 0. -1.
         -1   -1    0    0    0  501 -0.00000000000E+00 -0.00000000000E+00 -0.98605743531E+03  0.98605743531E+03  0.00000000000E+00 0.  1.
         23    2    1    2    0    0  0.33131860428E+03  0.53635118485E+03  0.56820299632E+03  0.85353751418E+03  0.90702988189E+02 0.  0.
         11    1    3    3    0    0  0.15635154380E+03  0.33294533530E+03  0.30745724826E+03  0.47940417296E+03  0.00000000000E+00 0. -1.
        -11    1    3    3    0    0  0.17496706048E+03  0.20340584955E+03  0.26074574805E+03  0.37413334122E+03  0.00000000000E+00 0.  1.
         22    1    1    2    0    0 -0.33131860428E+03 -0.53635118485E+03 -0.72557856849E+03  0.96120178427E+03  0.00000000000E+00 0.  1.
<mgrwt>
<rscale>  0 0.18079026E+04</rscale>
<asrwt>0</asrwt>
<pdfrwt beam="1">  1        1 0.12748952E+00 0.18079026E+04</pdfrwt>
<pdfrwt beam="2">  1       -1 0.15170114E+00 0.18079026E+04</pdfrwt>
<totfact> 0.66641906E+00</totfact>
</mgrwt>
</event>
<event>
 6    1  0.1637818E-005  0.7937352E+03  0.7818608E-02  0.9569130E-01
         -2   -1    0    0    0  501 -0.00000000000E+00  0.00000000000E+00  0.11970551307E+03  0.11970551307E+03  0.00000000000E+00 0. -1.
          2   -1    0    0  501    0  0.00000000000E+00 -0.00000000000E+00 -0.13157612515E+04  0.13157612515E+04  0.00000000000E+00 0.  1.
         23    2    1    2    0    0 -0.26800212839E+03 -0.25933820613E+03 -0.38992536935E+03  0.54725078976E+03  0.91434059556E+02 0.  0.
         13    1    3    3    0    0 -0.36170615419E+02 -0.25009643173E+01 -0.23066539890E+02  0.42972473803E+02  0.00000000000E+00 0.  1.
        -13    1    3    3    0    0 -0.23183151298E+03 -0.25683724181E+03 -0.36685882946E+03  0.50427831596E+03  0.00000000000E+00 0. -1.
         22    1    1    2    0    0  0.26800212839E+03  0.25933820613E+03 -0.80613036908E+03  0.88821597483E+03  0.00000000000E+00 0.  1.
<mgrwt>
<rscale>  0 0.79373516E+03</rscale>
<asrwt>0</asrwt>
<pdfrwt beam="1">  1        2 0.20242479E+00 0.79373516E+03</pdfrwt>
<pdfrwt beam="2">  1       -2 0.18416234E-01 0.79373516E+03</pdfrwt>
<totfact> 0.40189220E+02</totfact>
</mgrwt>
</event>
<event>
 6    1  0.1637818E-005  0.1060185E+04  0.7818608E-02  0.9244892E-01
          2   -1    0    0  501    0  0.00000000000E+00  0.00000000000E+00  0.16362311080E+04  0.16362311080E+04  0.00000000000E+00 0.  1.
         -2   -1    0    0    0  501 -0.00000000000E+00 -0.00000000000E+00 -0.17173490653E+03  0.17173490653E+03  0.00000000000E+00 0. -1.
         23    2    1    2    0    0 -0.70287240084E+02 -0.27646447091E+03 -0.17227533465E+02  0.29903323720E+03  0.88040838533E+02 0.  0.
         11    1    3    3    0    0 -0.32688920766E+02 -0.18430588886E+03  0.28779031749E+02  0.18938178075E+03  0.00000000000E+00 0. -1.
        -11    1    3    3    0    0 -0.37598319319E+02 -0.92158582048E+02 -0.46006565214E+02  0.10965145646E+03  0.00000000000E+00 0.  1.
         22    1    1    2    0    0  0.70287240084E+02  0.27646447091E+03  0.14817237350E+04  0.15089327773E+04  0.00000000000E+00 0.  1.
<mgrwt>
<rscale>  0 0.10601849E+04</rscale>
<asrwt>0</asrwt>
<pdfrwt beam="1">  1        2 0.25172785E+00 0.10601849E+04</pdfrwt>
<pdfrwt beam="2">  1       -2 0.26420756E-01 0.10601849E+04</pdfrwt>
<totfact> 0.13734727E+02</totfact>
</mgrwt>
</event>
<event>
 6    1  0.1637818E-005  0.1958559E+04  0.7818608E-02  0.8626245E-01
         -1   -1    0    0    0  501 -0.00000000000E+00  0.00000000000E+00  0.66882965295E+03  0.66882965295E+03  0.00000000000E+00 0.  1.
          1   -1    0    0  501    0  0.00000000000E+00 -0.00000000000E+00 -0.14338303444E+04  0.14338303444E+04  0.00000000000E+00 0. -1.
         23    2    1    2    0    0 -0.47137882337E+03  0.84031340587E+03 -0.55786419725E+03  0.11171499048E+04  0.92124004088E+02 0.  0.
         13    1    3    3    0    0 -0.15813165834E+03  0.21752565317E+03 -0.18657243868E+03  0.32731071787E+03  0.00000000000E+00 0.  1.
        -13    1    3    3    0    0 -0.31324716503E+03  0.62278775269E+03 -0.37129175857E+03  0.78983918698E+03  0.00000000000E+00 0. -1.
         22    1    1    2    0    0  0.47137882337E+03 -0.84031340587E+03 -0.20713649421E+03  0.98551009251E+03  0.00000000000E+00 0. -1.
<mgrwt>
<rscale>  0 0.19585589E+04</rscale>
<asrwt>0</asrwt>
<pdfrwt beam="1">  1        1 0.22058928E+00 0.19585589E+04</pdfrwt>
<pdfrwt beam="2">  1       -1 0.10289687E+00 0.19585589E+04</pdfrwt>
<totfact> 0.60431343E+00</totfact>
</mgrwt>
</event>
<event>
 6    1  0.1637818E-005  0.2164169E+04  0.7818608E-02  0.8533491E-01
          1   -1    0    0  501    0  0.00000000000E+00  0.00000000000E+00  0.81453205389E+03  0.81453205389E+03  0.00000000000E+00 0. -1.
         -1   -1    0    0    0  501 -0.00000000000E+00 -0.00000000000E+00 -0.14375213687E+04  0.14375213687E+04  0.00000000000E+00 0.  1.
         23    2    1    2    0    0 -0.55097391760E+03 -0.90270440793E+03 -0.54087121254E+03  0.11913032688E+04  0.90632796111E+02 0.  0.
         13    1    3    3    0    0 -0.47716435522E+03 -0.83227108968E+03 -0.48494507580E+03  0.10749570760E+04  0.00000000000E+00 0. -1.
        -13    1    3    3    0    0 -0.73809562376E+02 -0.70433318243E+02 -0.55926136739E+02  0.11634619284E+03  0.00000000000E+00 0.  1.
         22    1    1    2    0    0  0.55097391760E+03  0.90270440793E+03 -0.82118102241E+02  0.10607501538E+04  0.00000000000E+00 0.  1.
<mgrwt>
<rscale>  0 0.21641693E+04</rscale>
<asrwt>0</asrwt>
<pdfrwt beam="1">  1        1 0.12531263E+00 0.21641693E+04</pdfrwt>
<pdfrwt beam="2">  1       -1 0.22115713E+00 0.21641693E+04</pdfrwt>
<totfact> 0.21230618E+00</totfact>
</mgrwt>
</event>
<event>
 6    1  0.1637818E-005  0.2821573E+04  0.7818608E-02  0.8296602E-01
          2   -1    0    0  501    0  0.00000000000E+00  0.00000000000E+00  0.10958115854E+04  0.10958115854E+04  0.00000000000E+00 0.  1.
         -2   -1    0    0    0  501 -0.00000000000E+00 -0.00000000000E+00 -0.18162963123E+04  0.18162963123E+04  0.00000000000E+00 0. -1.
         23    2    1    2    0    0 -0.13922540652E+04 -0.48002011993E+02 -0.58038261885E+03  0.15119992677E+04  0.92855942695E+02 0.  0.
         13    1    3    3    0    0 -0.67615406606E+03 -0.62473462314E+02 -0.25544739627E+03  0.72549336786E+03  0.00000000000E+00 0. -1.
        -13    1    3    3    0    0 -0.71609999910E+03  0.14471450320E+02 -0.32493522257E+03  0.78650589982E+03  0.00000000000E+00 0.  1.
         22    1    1    2    0    0  0.13922540652E+04  0.48002011993E+02 -0.14010210799E+03  0.14001086300E+04  0.00000000000E+00 0. -1.
<mgrwt>
<rscale>  0 0.28215730E+04</rscale>
<asrwt>0</asrwt>
<pdfrwt beam="1">  1        2 0.16858640E+00 0.28215730E+04</pdfrwt>
<pdfrwt beam="2">  1       -2 0.27943020E+00 0.28215730E+04</pdfrwt>
<totfact> 0.80812052E-01</totfact>
</mgrwt>
</event>
<event>
 6    1  0.1637818E-005  0.1719171E+04  0.7818608E-02  0.8750505E-01
         -2   -1    0    0    0  501 -0.00000000000E+00  0.00000000000E+00  0.21872749310E+03  0.21872749310E+03  0.00000000000E+00 0. -1.
          2   -1    0    0  501    0  0.00000000000E+00 -0.00000000000E+00 -0.33781177184E+04  0.33781177184E+04  0.00000000000E+00 0.  1.
         23    2    1    2    0    0  0.69196859796E+03  0.16040866298E+03 -0.58056400325E+03  0.92198144614E+03  0.91889854938E+02 0.  0.
         13    1    3    3    0    0  0.32026616738E+03  0.11822343622E+03 -0.25586082558E+03  0.42662859832E+03  0.00000000000E+00 0. -1.
        -13    1    3    3    0    0  0.37170243057E+03  0.42185226765E+02 -0.32470317767E+03  0.49535284782E+03  0.00000000000E+00 0.  1.
         22    1    1    2    0    0 -0.69196859796E+03 -0.16040866298E+03 -0.25788262220E+04  0.26748637654E+04  0.00000000000E+00 0.  1.
<mgrwt>
<rscale>  0 0.17191710E+04</rscale>
<asrwt>0</asrwt>
<pdfrwt beam="1">  1        2 0.51971048E+00 0.17191710E+04</pdfrwt>
<pdfrwt beam="2">  1       -2 0.33650380E-01 0.17191710E+04</pdfrwt>
<totfact> 0.78059515E+00</totfact>
</mgrwt>
</event>
<event>
 6    1  0.1637818E-005  0.7891619E+03  0.7818608E-02  0.9575839E-01
         -1   -1    0    0    0  501 -0.00000000000E+00  0.00000000000E+00  0.21421847113E+03  0.21421847113E+03  0.00000000000E+00 0.  1.
          1   -1    0    0  501    0  0.00000000000E+00 -0.00000000000E+00 -0.72680063487E+03  0.72680063487E+03  0.00000000000E+00 0. -1.
         23    2    1    2    0    0 -0.27694641348E+03 -0.20929705232E+03 -0.49740116264E+02  0.36246285725E+03  0.91655178057E+02 0.  0.
         13    1    3    3    0    0 -0.19061945160E+03 -0.11367232984E+03  0.61727486386E+01  0.22202539658E+03  0.00000000000E+00 0.  1.
        -13    1    3    3    0    0 -0.86326961888E+02 -0.95624722478E+02 -0.55912864902E+02  0.14043746067E+03  0.00000000000E+00 0. -1.
         22    1    1    2    0    0  0.27694641348E+03  0.20929705232E+03 -0.46284204748E+03  0.57855624875E+03  0.00000000000E+00 0. -1.
<mgrwt>
<rscale>  0 0.78916189E+03</rscale>
<asrwt>0</asrwt>
<pdfrwt beam="1">  1        1 0.11181548E+00 0.78916189E+03</pdfrwt>
<pdfrwt beam="2">  1       -1 0.32956688E-01 0.78916189E+03</pdfrwt>
<totfact> 0.22449199E+02</totfact>
</mgrwt>
</event>
<event>
 6    1  0.1637818E-005  0.1037006E+04  0.7818608E-02  0.9268863E-01
          2   -1    0    0  501    0  0.00000000000E+00  0.00000000000E+00  0.25838001136E+03  0.25838001136E+03  0.00000000000E+00 0. -1.
         -2   -1    0    0    0  501 -0.00000000000E+00 -0.00000000000E+00 -0.10405035548E+04  0.10405035548E+04  0.00000000000E+00 0.  1.
         23    2    1    2    0    0 -0.70318159462E+02  0.25168404210E+03  0.16100417064E+03  0.32022152762E+03  0.91268741572E+02 0.  0.
         11    1    3    3    0    0 -0.38738257980E+02  0.10822710168E+03  0.12329094959E+03  0.16856576290E+03  0.00000000000E+00 0.  1.
        -11    1    3    3    0    0 -0.31579901482E+02  0.14345694042E+03  0.37713221055E+02  0.15165576473E+03  0.00000000000E+00 0. -1.
         22    1    1    2    0    0  0.70318159462E+02 -0.25168404210E+03 -0.94312771409E+03  0.97866203854E+03  0.00000000000E+00 0.  1.
<mgrwt>
<rscale>  0 0.10370059E+04</rscale>
<asrwt>0</asrwt>
<pdfrwt beam="1">  1        2 0.39750771E-01 0.10370059E+04</pdfrwt>
<pdfrwt beam="2">  1       -2 0.16007747E+00 0.10370059E+04</pdfrwt>
<totfact> 0.32481950E+01</totfact>
</mgrwt>
</event>
<event>
 6    1  0.1637818E-005  0.2927690E+04  0.7818608E-02  0.8264686E-01
          1   -1    0    0  501    0  0.00000000000E+00  0.00000000000E+00  0.10543049404E+04  0.10543049404E+04  0.00000000000E+00 0. -1.
         -1   -1    0    0    0  501 -0.00000000000E+00 -0.00000000000E+00 -0.20324684508E+04  0.20324684508E+04  0.00000000000E+00 0.  1.
         23    2    1    2    0    0  0.10071434873E+04  0.23003805022E+03 -0.15816798362E+04  0.18903255385E+04  0.66060795203E+02 0.  0.
         13    1    3    3    0    0  0.10546591144E+03  0.43885247204E+02 -0.16147403516E+03  0.19779493783E+03  0.00000000000E+00 0. -1.
        -13    1    3    3    0    0  0.90167757584E+03  0.18615280301E+03 -0.14202058011E+04  0.16925306007E+04  0.00000000000E+00 0.  1.
         22    1    1    2    0    0 -0.10071434873E+04 -0.23003805022E+03  0.60351632582E+03  0.11964478526E+04  0.00000000000E+00 0. -1.
<mgrwt>
<rscale>  0 0.29276896E+04</rscale>
<asrwt>0</asrwt>
<pdfrwt beam="1">  1        1 0.16220076E+00 0.29276896E+04</pdfrwt>
<pdfrwt beam="2">  1       -1 0.31268745E+00 0.29276896E+04</pdfrwt>
<totfact> 0.32120801E-01</totfact>
</mgrwt>
</event>
<event>
 6    1  0.1637818E-005  0.3454191E+04  0.7818608E-02  0.8124733E-01
         -1   -1    0    0    0  501 -0.00000000000E+00  0.00000000000E+00  0.69457433695E+03  0.69457433695E+03  0.00000000000E+00 0.  1.
          1   -1    0    0  501    0  0.00000000000E+00 -0.00000000000E+00 -0.42945125997E+04  0.42945125997E+04  0.00000000000E+00 0. -1.
         23    2    1    2    0    0  0.16161616444E+03  0.10829186906E+04 -0.37280187314E+04  0.38867089246E+04  0.97723730004E+02 0.  0.
         13    1    3    3    0    0  0.10678994764E+03  0.46428431995E+03 -0.17292672793E+04  0.17936915415E+04  0.00000000000E+00 0.  1.
        -13    1    3    3    0    0  0.54826216807E+02  0.61863437065E+03 -0.19987514521E+04  0.20930173831E+04  0.00000000000E+00 0. -1.
         22    1    1    2    0    0 -0.16161616444E+03 -0.10829186906E+04  0.12808046868E+03  0.11023780121E+04  0.00000000000E+00 0.  1.
<mgrwt>
<rscale>  0 0.34541906E+04</rscale>
<asrwt>0</asrwt>
<pdfrwt beam="1">  1        1 0.66069427E+00 0.34541906E+04</pdfrwt>
<pdfrwt beam="2">  1       -1 0.10685759E+00 0.34541906E+04</pdfrwt>
<totfact> 0.34358060E-02</totfact>
</mgrwt>
</event>
<event>
 6    1  0.1637818E-005  0.3026854E+04  0.7818608E-02  0.8236104E-01
         -2   -1    0    0    0  501 -0.00000000000E+00  0.00000000000E+00  0.84642298918E+03  0.84642298918E+03  0.00000000000E+00 0.  1.
          2   -1    0    0  501    0  0.00000000000E+00 -0.00000000000E+00 -0.27060472248E+04  0.27060472248E+04  0.00000000000E+00 0. -1.
         23    2    1    2    0    0  0.14568371923E+04 -0.34499904952E+03 -0.11792800929E+04  0.19080046165E+04  0.91548511034E+02 0.  0.
         13    1    3    3    0    0  0.11020882907E+04 -0.27926243643E+03 -0.93868461632E+03  0.14743523724E+04  0.00000000000E+00 0. -1.
        -13    1    3    3    0    0  0.35474890151E+03 -0.65736613091E+02 -0.24059547662E+03  0.43365224408E+03  0.00000000000E+00 0.  1.
         22    1    1    2    0    0 -0.14568371923E+04  0.34499904952E+03 -0.68034414265E+03  0.16444655975E+04  0.00000000000E+00 0. -1.
<mgrwt>
<rscale>  0 0.30268535E+04</rscale>
<asrwt>0</asrwt>
<pdfrwt beam="1">  1        2 0.41631495E+00 0.30268535E+04</pdfrwt>
<pdfrwt beam="2">  1       -2 0.13021892E+00 0.30268535E+04</pdfrwt>
<totfact> 0.97239073E-01</totfact>
</mgrwt>
</event>
<event>
 6    1  0.1637818E-005  0.3855299E+04  0.7818608E-02  0.8034391E-01
          2   -1    0    0  501    0  0.00000000000E+00  0.00000000000E+00  0.23254121272E+04  0.23254121272E+04  0.00000000000E+00 0. -1.
         -2   -1    0    0    0  501 -0.00000000000E+00 -0.00000000000E+00 -0.15979239532E+04  0.15979239532E+04  0.00000000000E+00 0.  1.
         23    2    1    2    0    0  0.25359909016E+03 -0.73409833410E+03 -0.14302597488E+04  0.16300657168E+04  0.90875900838E+02 0.  0.
         13    1    3    3    0    0  0.11674158253E+03 -0.44431268870E+03 -0.78315236117E+03  0.90794822718E+03  0.00000000000E+00 0.  1.
        -13    1    3    3    0    0  0.13685750764E+03 -0.28978564540E+03 -0.64710738759E+03  0.72211748958E+03  0.00000000000E+00 0. -1.
         22    1    1    2    0    0 -0.25359909016E+03  0.73409833410E+03  0.21577479227E+04  0.22932703636E+04  0.00000000000E+00 0. -1.
<mgrwt>
<rscale>  0 0.38552986E+04</rscale>
<asrwt>0</asrwt>
<pdfrwt beam="1">  1        2 0.35775571E+00 0.38552986E+04</pdfrwt>
<pdfrwt beam="2">  1       -2 0.24583445E+00 0.38552986E+04</pdfrwt>
<totfact> 0.23864356E-01</totfact>
</mgrwt>
</event>
<event>
 6    1  0.1637818E-005  0.2873867E+04  0.7818608E-02  0.8280696E-01
          1   -1    0    0  501    0  0.00000000000E+00  0.00000000000E+00  0.13721861009E+04  0.13721861009E+04  0.00000000000E+00 0. -1.
         -1   -1    0    0    0  501 -0.00000000000E+00 -0.00000000000E+00 -0.15047360406E+04  0.15047360406E+04  0.00000000000E+00 0.  1.
         23    2    1    2    0    0  0.80959193483E+03 -0.11372071549E+04 -0.40109733237E+03  0.14553747747E+04  0.92506491073E+02 0.  0.
         13    1    3    3    0    0  0.45728720852E+03 -0.62413986624E+03 -0.17564279758E+03  0.79341827307E+03  0.00000000000E+00 0. -1.
        -13    1    3    3    0    0  0.35230472631E+03 -0.51306728862E+03 -0.22545453479E+03  0.66195650166E+03  0.00000000000E+00 0.  1.
         22    1    1    2    0    0 -0.80959193483E+03  0.11372071549E+04  0.26854739265E+03  0.14215473668E+04  0.00000000000E+00 0. -1.
<mgrwt>
<rscale>  0 0.28738670E+04</rscale>
<asrwt>0</asrwt>
<pdfrwt beam="1">  1        1 0.21110555E+00 0.28738670E+04</pdfrwt>
<pdfrwt beam="2">  1       -1 0.23149785E+00 0.28738670E+04</pdfrwt>
<totfact> 0.63792530E-01</totfact>
</mgrwt>
</event>
<event>
 6    1  0.1637818E-005  0.1876807E+04  0.7818608E-02  0.8666488E-01
         -2   -1    0    0    0  501 -0.00000000000E+00  0.00000000000E+00  0.17192547864E+04  0.17192547864E+04  0.00000000000E+00 0.  1.
          2   -1    0    0  501    0  0.00000000000E+00 -0.00000000000E+00 -0.51219956440E+03  0.51219956440E+03  0.00000000000E+00 0. -1.
         23    2    1    2    0    0 -0.19027673474E+03  0.30222919571E+03  0.16341702577E+04  0.16747003870E+04  0.81001436520E+02 0.  0.
         13    1    3    3    0    0 -0.14238574903E+03  0.17040638112E+03  0.87898508193E+03  0.90660179269E+03  0.00000000000E+00 0.  1.
        -13    1    3    3    0    0 -0.47890985711E+02  0.13182281460E+03  0.75518517575E+03  0.76809859434E+03  0.00000000000E+00 0. -1.
         22    1    1    2    0    0  0.19027673474E+03 -0.30222919571E+03 -0.42711503565E+03  0.55675396380E+03  0.00000000000E+00 0. -1.
<mgrwt>
<rscale>  0 0.18768075E+04</rscale>
<asrwt>0</asrwt>
<pdfrwt beam="1">  1        2 0.78799934E-01 0.18768075E+04</pdfrwt>
<pdfrwt beam="2">  1       -2 0.26450073E+00 0.18768075E+04</pdfrwt>
<totfact> 0.29424961E+00</totfact>
</mgrwt>
</event>
<event>
 6    1  0.1637818E-005  0.1836231E+04  0.7818608E-02  0.8687266E-01
          1   -1    0    0  501    0  0.00000000000E+00  0.00000000000E+00  0.21607123660E+04  0.21607123660E+04  0.00000000000E+00 0. -1.
         -1   -1    0    0    0  501 -0.00000000000E+00 -0.00000000000E+00 -0.39011961161E+03  0.39011961161E+03  0.00000000000E+00 0.  1.
         23    2    1    2    0    0  0.69185531591E+03 -0.55445621049E+03  0.12064301617E+04  0.14999443059E+04  0.90959981705E+02 0.  0.
         13    1    3    3    0    0  0.28613656965E+03 -0.22226880077E+03  0.56880292722E+03  0.67439923361E+03  0.00000000000E+00 0.  1.
        -13    1    3    3    0    0  0.40571874626E+03 -0.33218740972E+03  0.63762723452E+03  0.82554507233E+03  0.00000000000E+00 0. -1.
         22    1    1    2    0    0 -0.69185531591E+03  0.55445621049E+03  0.56416259264E+03  0.10508876717E+04  0.00000000000E+00 0.  1.
<mgrwt>
<rscale>  0 0.18362312E+04</rscale>
<asrwt>0</asrwt>
<pdfrwt beam="1">  1        1 0.33241728E+00 0.18362312E+04</pdfrwt>
<pdfrwt beam="2">  1       -1 0.60018403E-01 0.18362312E+04</pdfrwt>
<totfact> 0.61370543E+00</totfact>
</mgrwt>
</event>
<event>
 6    1  0.1637818E-005  0.3209841E+04  0.7818608E-02  0.8186223E-01
         -1   -1    0    0    0  501 -0.00000000000E+00  0.00000000000E+00  0.18099729250E+04  0.18099729250E+04  0.00000000000E+00 0.  1.
          1   -1    0    0  501    0  0.00000000000E+00 -0.00000000000E+00 -0.14230989331E+04  0.14230989331E+04  0.00000000000E+00 0. -1.
         23    2    1    2    0    0 -0.15435182197E+04 -0.24197411269E+03  0.55718295464E+03  0.16614468683E+04  0.94619687788E+02 0.  0.
         11    1    3    3    0    0 -0.99735270683E+03 -0.14024569810E+03  0.31382603649E+03  0.10549256177E+04  0.00000000000E+00 0. -1.
        -11    1    3    3    0    0 -0.54616551291E+03 -0.10172841460E+03  0.24335691815E+03  0.60652125061E+03  0.00000000000E+00 0.  1.
         22    1    1    2    0    0  0.15435182197E+04  0.24197411269E+03 -0.17030896273E+03  0.15716249898E+04  0.00000000000E+00 0. -1.
<mgrwt>
<rscale>  0 0.32098415E+04</rscale>
<asrwt>0</asrwt>
<pdfrwt beam="1">  1        1 0.21893830E+00 0.32098415E+04</pdfrwt>
<pdfrwt beam="2">  1       -1 0.27845738E+00 0.32098415E+04</pdfrwt>
<totfact> 0.28175506E-01</totfact>
</mgrwt>
</event>
<event>
 6    1  0.1637818E-005  0.1737929E+04  0.7818608E-02  0.8740023E-01
         -1   -1    0    0    0  501 -0.00000000000E+00  0.00000000000E+00  0.77693505170E+03  0.77693505170E+03  0.00000000000E+00 0.  1.
          1   -1    0    0  501    0  0.00000000000E+00 -0.00000000000E+00 -0.97189500556E+03  0.97189500556E+03  0.00000000000E+00 0. -1.
         23    2    1    2    0    0 -0.34073433950E+03 -0.14237939478E+03 -0.88660962159E+03  0.96476944414E+03  0.91278020796E+02 0.  0.
         13    1    3    3    0    0 -0.24122446205E+03 -0.13496172455E+03 -0.71018241950E+03  0.76207806500E+03  0.00000000000E+00 0.  1.
        -13    1    3    3    0    0 -0.99509877450E+02 -0.74176702310E+01 -0.17642720209E+03  0.20269137914E+03  0.00000000000E+00 0. -1.
         22    1    1    2    0    0  0.34073433950E+03  0.14237939478E+03  0.69164966773E+03  0.78406061312E+03  0.00000000000E+00 0.  1.
<mgrwt>
<rscale>  0 0.17379290E+04</rscale>
<asrwt>0</asrwt>
<pdfrwt beam="1">  1        1 0.14952231E+00 0.17379290E+04</pdfrwt>
<pdfrwt beam="2">  1       -1 0.11952847E+00 0.17379290E+04</pdfrwt>
<totfact> 0.94429171E+00</totfact>
</mgrwt>
</event>
<event>
 6    1  0.1637818E-005  0.3473918E+04  0.7818608E-02  0.8119999E-01
         -2   -1    0    0    0  501 -0.00000000000E+00  0.00000000000E+00  0.21959281199E+04  0.21959281199E+04  0.00000000000E+00 0. -1.
          2   -1    0    0  501    0  0.00000000000E+00 -0.00000000000E+00 -0.13739184636E+04  0.13739184636E+04  0.00000000000E+00 0.  1.
         23    2    1    2    0    0 -0.28227145427E+03 -0.10723547831E+04 -0.96102716313E+03  0.14701222553E+04  0.89801350696E+02 0.  0.
         11    1    3    3    0    0 -0.13177132111E+03 -0.33797198640E+03 -0.32339175820E+03  0.48597425233E+03  0.00000000000E+00 0.  1.
        -11    1    3    3    0    0 -0.15050013317E+03 -0.73438279668E+03 -0.63763540493E+03  0.98414800298E+03  0.00000000000E+00 0. -1.
         22    1    1    2    0    0  0.28227145427E+03  0.10723547831E+04  0.17830368194E+04  0.20997243281E+04  0.00000000000E+00 0. -1.
<mgrwt>
<rscale>  0 0.34739178E+04</rscale>
<asrwt>0</asrwt>
<pdfrwt beam="1">  1        2 0.21137207E+00 0.34739178E+04</pdfrwt>
<pdfrwt beam="2">  1       -2 0.33783510E+00 0.34739178E+04</pdfrwt>
<totfact> 0.22872843E-01</totfact>
</mgrwt>
</event>
<event>
 6    1  0.1637818E-005  0.2011562E+04  0.7818608E-02  0.8601234E-01
         -2   -1    0    0    0  501 -0.00000000000E+00  0.00000000000E+00  0.34259477836E+03  0.34259477836E+03  0.00000000000E+00 0. -1.
          2   -1    0    0  501    0  0.00000000000E+00 -0.00000000000E+00 -0.29527466191E+04  0.29527466191E+04  0.00000000000E+00 0.  1.
         23    2    1    2    0    0 -0.29520046757E+03  0.74233814076E+03 -0.23032471075E+04  0.24395378297E+04  0.90489519439E+02 0.  0.
         13    1    3    3    0    0 -0.18611378847E+03  0.52407968513E+03 -0.14868423486E+04  0.15874501656E+04  0.00000000000E+00 0.  1.
        -13    1    3    3    0    0 -0.10908667910E+03  0.21825845563E+03 -0.81640475888E+03  0.85208766411E+03  0.00000000000E+00 0. -1.
         22    1    1    2    0    0  0.29520046757E+03 -0.74233814076E+03 -0.30690473326E+03  0.85580356776E+03  0.00000000000E+00 0. -1.
<mgrwt>
<rscale>  0 0.20115622E+04</rscale>
<asrwt>0</asrwt>
<pdfrwt beam="1">  1        2 0.45426872E+00 0.20115622E+04</pdfrwt>
<pdfrwt beam="2">  1       -2 0.52706887E-01 0.20115622E+04</pdfrwt>
<totfact> 0.58864759E+00</totfact>
</mgrwt>
</event>
<event>
 6    1  0.1637818E-005  0.1737000E+04  0.7818608E-02  0.8740539E-01
          1   -1    0    0  501    0  0.00000000000E+00  0.00000000000E+00  0.34590739484E+03  0.34590739484E+03  0.00000000000E+00 0. -1.
         -1   -1    0    0    0  501 -0.00000000000E+00 -0.00000000000E+00 -0.21806180849E+04  0.21806180849E+04  0.00000000000E+00 0.  1.
         23    2    1    2    0    0  0.49912463585E+03 -0.63425206608E+03 -0.46248571236E+03  0.93454480308E+03  0.89888093776E+02 0.  0.
         11    1    3    3    0    0  0.10426424133E+02 -0.28427350602E+02 -0.24047477656E+01  0.30374452988E+02  0.00000000000E+00 0. -1.
        -11    1    3    3    0    0  0.48869821171E+03 -0.60582471547E+03 -0.46008096460E+03  0.90417035010E+03  0.00000000000E+00 0.  1.
         22    1    1    2    0    0 -0.49912463585E+03  0.63425206608E+03 -0.13722249777E+04  0.15919806767E+04  0.00000000000E+00 0.  1.
<mgrwt>
<rscale>  0 0.17369996E+04</rscale>
<asrwt>0</asrwt>
<pdfrwt beam="1">  1        1 0.53216523E-01 0.17369996E+04</pdfrwt>
<pdfrwt beam="2">  1       -1 0.33547970E+00 0.17369996E+04</pdfrwt>
<totfact> 0.13404362E+00</totfact>
</mgrwt>
</event>
<event>
 6    1  0.1637818E-005  0.3566405E+04  0.7818608E-02  0.8098231E-01
          2   -1    0    0  501    0  0.00000000000E+00  0.00000000000E+00  0.36121025663E+04  0.36121025663E+04  0.00000000000E+00 0. -1.
         -2   -1    0    0    0  501 -0.00000000000E+00 -0.00000000000E+00 -0.88032151053E+03  0.88032151053E+03  0.00000000000E+00 0.  1.
         23    2    1    2    0    0 -0.10402442200E+04  0.13147818738E+04  0.60590671745E+03  0.17850081289E+04  0.91496759764E+02 0.  0.
         13    1    3    3    0    0 -0.75070888884E+03  0.95834617732E+03  0.39661259142E+03  0.12803486943E+04  0.00000000000E+00 0. -1.
        -13    1    3    3    0    0 -0.28953533117E+03  0.35643569646E+03  0.20929412603E+03  0.50465943457E+03  0.00000000000E+00 0.  1.
         22    1    1    2    0    0  0.10402442200E+04 -0.13147818738E+04  0.21258743384E+04  0.27074159480E+04  0.00000000000E+00 0. -1.
<mgrwt>
<rscale>  0 0.35664052E+04</rscale>
<asrwt>0</asrwt>
<pdfrwt beam="1">  1        2 0.55570808E+00 0.35664052E+04</pdfrwt>
<pdfrwt beam="2">  1       -2 0.13543408E+00 0.35664052E+04</pdfrwt>
<totfact> 0.21598187E-01</totfact>
</mgrwt>
</event>
<event>
 6    1  0.1637818E-005  0.1594782E+04  0.7818608E-02  0.8823760E-01
          2   -1    0    0  501    0  0.00000000000E+00  0.00000000000E+00  0.39365911394E+04  0.39365911394E+04  0.00000000000E+00 0.  1.
         -2   -1    0    0    0  501 -0.00000000000E+00 -0.00000000000E+00 -0.16151858531E+03  0.16151858531E+03  0.00000000000E+00 0. -1.
         23    2    1    2    0    0  0.63709366027E+03  0.14674984236E+02  0.31138818364E+04  0.31798086563E+04  0.93911194026E+02 0.  0.
         11    1    3    3    0    0  0.81368138176E+02  0.14817170456E+02  0.28034374165E+03  0.29228913071E+03  0.00000000000E+00 0. -1.
        -11    1    3    3    0    0  0.55572552209E+03 -0.14218621987E+00  0.28335380948E+04  0.28875195256E+04  0.00000000000E+00 0.  1.
         22    1    1    2    0    0 -0.63709366027E+03 -0.14674984236E+02  0.66119071766E+03  0.91830106841E+03  0.00000000000E+00 0. -1.
<mgrwt>
<rscale>  0 0.15947823E+04</rscale>
<asrwt>0</asrwt>
<pdfrwt beam="1">  1        2 0.60562934E+00 0.15947823E+04</pdfrwt>
<pdfrwt beam="2">  1       -2 0.24849016E-01 0.15947823E+04</pdfrwt>
<totfact> 0.54555854E+00</totfact>
</mgrwt>
</event>
<event>
 6    1  0.1637818E-005  0.3406756E+04  0.7818608E-02  0.8136250E-01
         -2   -1    0    0    0  501 -0.00000000000E+00  0.00000000000E+00  0.13045252828E+04  0.13045252828E+04  0.00000000000E+00 0. -1.
          2   -1    0    0  501    0  0.00000000000E+00 -0.00000000000E+00 -0.22241782134E+04  0.22241782134E+04  0.00000000000E+00 0.  1.
         23    2    1    2    0    0 -0.16333619371E+04 -0.11802636562E+03  0.20825965618E+02  0.16402379830E+04  0.90252309003E+02 0.  0.
         11    1    3    3    0    0 -0.91355202419E+03 -0.22903312808E+02  0.24286973488E+02  0.91416175796E+03  0.00000000000E+00 0. -1.
        -11    1    3    3    0    0 -0.71980991296E+03 -0.95123052816E+02 -0.34610078699E+01  0.72607622503E+03  0.00000000000E+00 0.  1.
         22    1    1    2    0    0  0.16333619371E+04  0.11802636562E+03 -0.94047889619E+03  0.18884655133E+04  0.00000000000E+00 0. -1.
<mgrwt>
<rscale>  0 0.34067561E+04</rscale>
<asrwt>0</asrwt>
<pdfrwt beam="1">  1        2 0.34218126E+00 0.34067561E+04</pdfrwt>
<pdfrwt beam="2">  1       -2 0.20069620E+00 0.34067561E+04</pdfrwt>
<totfact> 0.54532080E-01</totfact>
</mgrwt>
</event>
<event>
 6    1  0.1637818E-005  0.2357584E+04  0.7818608E-02  0.8455556E-01
         -2   -1    0    0    0  501 -0.00000000000E+00  0.00000000000E+00  0.84932967980E+03  0.84932967980E+03  0.00000000000E+00 0. -1.
          2   -1    0    0  501    0  0.00000000000E+00 -0.00000000000E+00 -0.16360555544E+04  0.16360555544E+04  0.00000000000E+00 0.  1.
         23    2    1    2    0    0 -0.43665570874E+03  0.17633472973E+03  0.74330776418E+03  0.88452137969E+03  0.90052728750E+02 0.  0.
         11    1    3    3    0    0 -0.24718491787E+03  0.52401001664E+02  0.37472539145E+03  0.45195726302E+03  0.00000000000E+00 0. -1.
        -11    1    3    3    0    0 -0.18947079087E+03  0.12393372806E+03  0.36858237273E+03  0.43256411667E+03  0.00000000000E+00 0.  1.
         22    1    1    2    0    0  0.43665570874E+03 -0.17633472973E+03 -0.15300336388E+04  0.16008638545E+04  0.00000000000E+00 0.  1.
<mgrwt>
<rscale>  0 0.23575840E+04</rscale>
<asrwt>0</asrwt>
<pdfrwt beam="1">  1        2 0.25170085E+00 0.23575840E+04</pdfrwt>
<pdfrwt beam="2">  1       -2 0.13066611E+00 0.23575840E+04</pdfrwt>
<totfact> 0.41190172E+00</totfact>
</mgrwt>
</event>
<event>
 6    1  0.1637818E-005  0.3247614E+04  0.7818608E-02  0.8176355E-01
         -2   -1    0    0    0  501 -0.00000000000E+00  0.00000000000E+00  0.95678462517E+03  0.95678462517E+03  0.00000000000E+00 0.  1.
          2   -1    0    0  501    0  0.00000000000E+00 -0.00000000000E+00 -0.27558433691E+04  0.27558433691E+04  0.00000000000E+00 0. -1.
         23    2    1    2    0    0 -0.15105816130E+04  0.50427078755E+03 -0.54515348276E+03  0.16857031707E+04  0.90868163875E+02 0.  0.
         13    1    3    3    0    0 -0.87932900673E+03  0.26933944169E+03 -0.35534613999E+03  0.98591790537E+03  0.00000000000E+00 0.  1.
        -13    1    3    3    0    0 -0.63125260623E+03  0.23493134585E+03 -0.18980734276E+03  0.69978526528E+03  0.00000000000E+00 0. -1.
         22    1    1    2    0    0  0.15105816130E+04 -0.50427078755E+03 -0.12539052612E+04  0.20269248236E+04  0.00000000000E+00 0.  1.
<mgrwt>
<rscale>  0 0.32476136E+04</rscale>
<asrwt>0</asrwt>
<pdfrwt beam="1">  1        2 0.42397590E+00 0.32476136E+04</pdfrwt>
<pdfrwt beam="2">  1       -2 0.14719764E+00 0.32476136E+04</pdfrwt>
<totfact> 0.64924851E-01</totfact>
</mgrwt>
</event>
<event>
 6    1  0.1637818E-005  0.2264184E+04  0.7818608E-02  0.8492178E-01
         -1   -1    0    0    0  501 -0.00000000000E+00  0.00000000000E+00  0.96419397523E+03  0.96419397523E+03  0.00000000000E+00 0.  1.
          1   -1    0    0  501    0  0.00000000000E+00 -0.00000000000E+00 -0.13292270709E+04  0.13292270709E+04  0.00000000000E+00 0. -1.
         23    2    1    2    0    0  0.14992053938E+03  0.47805040062E+03 -0.12086675763E+04  0.13122342695E+04  0.10036490735E+03 0.  0.
         11    1    3    3    0    0  0.48159640059E+02  0.12960704543E+03 -0.45783145466E+03  0.47825409359E+03  0.00000000000E+00 0. -1.
        -11    1    3    3    0    0  0.10176089932E+03  0.34844335519E+03 -0.75083612159E+03  0.83398017596E+03  0.00000000000E+00 0.  1.
         22    1    1    2    0    0 -0.14992053938E+03 -0.47805040062E+03  0.84363448060E+03  0.98118677657E+03  0.00000000000E+00 0.  1.
<mgrwt>
<rscale>  0 0.22641844E+04</rscale>
<asrwt>0</asrwt>
<pdfrwt beam="1">  1        1 0.20449647E+00 0.22641844E+04</pdfrwt>
<pdfrwt beam="2">  1       -1 0.14833754E+00 0.22641844E+04</pdfrwt>
<totfact> 0.28106154E+00</totfact>
</mgrwt>
</event>
<event>
 6    1  0.1637818E-005  0.3377589E+04  0.7818608E-02  0.8143429E-01
         -1   -1    0    0    0  501 -0.00000000000E+00  0.00000000000E+00  0.16761370551E+04  0.16761370551E+04  0.00000000000E+00 0.  1.
          1   -1    0    0  501    0  0.00000000000E+00 -0.00000000000E+00 -0.17015475134E+04  0.17015475134E+04  0.00000000000E+00 0. -1.
         23    2    1    2    0    0 -0.13052765494E+03 -0.12304594905E+04 -0.11601780104E+04  0.16987666361E+04  0.93418637045E+02 0.  0.
         11    1    3    3    0    0 -0.31051232428E+02 -0.65792390315E+03 -0.58037180544E+03  0.87787212845E+03  0.00000000000E+00 0.  1.
        -11    1    3    3    0    0 -0.99476422511E+02 -0.57253558731E+03 -0.57980620493E+03  0.82089450762E+03  0.00000000000E+00 0. -1.
         22    1    1    2    0    0  0.13052765494E+03  0.12304594905E+04  0.11347675521E+04  0.16789179323E+04  0.00000000000E+00 0.  1.
<mgrwt>
<rscale>  0 0.33775890E+04</rscale>
<asrwt>0</asrwt>
<pdfrwt beam="1">  1        1 0.26177654E+00 0.33775890E+04</pdfrwt>
<pdfrwt beam="2">  1       -1 0.25786724E+00 0.33775890E+04</pdfrwt>
<totfact> 0.24277040E-01</totfact>
</mgrwt>
</event>
<event>
 6    1  0.1637818E-005  0.3117727E+04  0.7818608E-02  0.8210890E-01
          1   -1    0    0  501    0  0.00000000000E+00  0.00000000000E+00  0.38249448338E+04  0.38249448338E+04  0.00000000000E+00 0. -1.
         -1   -1    0    0    0  501 -0.00000000000E+00 -0.00000000000E+00 -0.63531771986E+03  0.63531771986E+03  0.00000000000E+00 0.  1.
         23    2    1    2    0    0  0.41980884908E+03 -0.14988283424E+04  0.16766289479E+04  0.22895738795E+04  0.91312928111E+02 0.  0.
         11    1    3    3    0    0  0.21352840904E+03 -0.91016042237E+03  0.97571871132E+03  0.13513006252E+04  0.00000000000E+00 0.  1.
        -11    1    3    3    0    0  0.20628044004E+03 -0.58866792005E+03  0.70091023660E+03  0.93827325434E+03  0.00000000000E+00 0. -1.
         22    1    1    2    0    0 -0.41980884908E+03  0.14988283424E+04  0.15129981661E+04  0.21706886742E+04  0.00000000000E+00 0.  1.
<mgrwt>
<rscale>  0 0.31177269E+04</rscale>
<asrwt>0</asrwt>
<pdfrwt beam="1">  1        1 0.58845304E+00 0.31177269E+04</pdfrwt>
<pdfrwt beam="2">  1       -1 0.97741190E-01 0.31177269E+04</pdfrwt>
<totfact> 0.11474448E-01</totfact>
</mgrwt>
</event>
<event>
 6    1  0.1637818E-005  0.4921857E+04  0.7818608E-02  0.7840676E-01
         -2   -1    0    0    0  501 -0.00000000000E+00  0.00000000000E+00  0.27273635397E+04  0.27273635397E+04  0.00000000000E+00 0.  1.
          2   -1    0    0  501    0  0.00000000000E+00 -0.00000000000E+00 -0.22205209451E+04  0.22205209451E+04  0.00000000000E+00 0. -1.
         23    2    1    2    0    0  0.60929152878E+03  0.15147884236E+04  0.21033420510E+04  0.26643279058E+04  0.93676415892E+02 0.  0.
         11    1    3    3    0    0  0.69322848346E+02  0.15600145961E+03  0.17676016928E+03  0.24573617997E+03  0.00000000000E+00 0. -1.
        -11    1    3    3    0    0  0.53996868043E+03  0.13587869640E+04  0.19265818817E+04  0.24185917258E+04  0.00000000000E+00 0.  1.
         22    1    1    2    0    0 -0.60929152878E+03 -0.15147884236E+04 -0.15964994563E+04  0.22835565790E+04  0.00000000000E+00 0. -1.
<mgrwt>
<rscale>  0 0.49218565E+04</rscale>
<asrwt>0</asrwt>
<pdfrwt beam="1">  1        2 0.34161861E+00 0.49218565E+04</pdfrwt>
<pdfrwt beam="2">  1       -2 0.41959439E+00 0.49218565E+04</pdfrwt>
<totfact> 0.20344320E-02</totfact>
</mgrwt>
</event>
<event>
 6    1  0.1637818E-005  0.2172623E+04  0.7818608E-02  0.8529910E-01
         -2   -1    0    0    0  501 -0.00000000000E+00  0.00000000000E+00  0.91557054639E+03  0.91557054639E+03  0.00000000000E+00 0.  1.
          2   -1    0    0  501    0  0.00000000000E+00 -0.00000000000E+00 -0.12888928819E+04  0.12888928819E+04  0.00000000000E+00 0. -1.
         23    2    1    2    0    0  0.12025853531E+03 -0.10443851427E+04 -0.45686641464E+03  0.11498630041E+04  0.90860144220E+02 0.  0.
         13    1    3    3    0    0  0.64541580019E+02 -0.24337584964E+03 -0.12383356695E+03  0.28059253740E+03  0.00000000000E+00 0. -1.
        -13    1    3    3    0    0  0.55716955295E+02 -0.80100929303E+03 -0.33303284769E+03  0.86927046669E+03  0.00000000000E+00 0.  1.
         22    1    1    2    0    0 -0.12025853531E+03  0.10443851427E+04  0.83544079141E+02  0.10546004242E+04  0.00000000000E+00 0.  1.
<mgrwt>
<rscale>  0 0.21726227E+04</rscale>
<asrwt>0</asrwt>
<pdfrwt beam="1">  1        2 0.19829121E+00 0.21726227E+04</pdfrwt>
<pdfrwt beam="2">  1       -2 0.14085701E+00 0.21726227E+04</pdfrwt>
<totfact> 0.54349821E+00</totfact>
</mgrwt>
</event>
<event>
 6    1  0.1637818E-005  0.1354779E+04  0.7818608E-02  0.8987218E-01
         -1   -1    0    0    0  501 -0.00000000000E+00  0.00000000000E+00  0.43361315242E+03  0.43361315242E+03  0.00000000000E+00 0.  1.
          1   -1    0    0  501    0  0.00000000000E+00 -0.00000000000E+00 -0.10582170240E+04  0.10582170240E+04  0.00000000000E+00 0. -1.
         23    2    1    2    0    0  0.44414806362E+03 -0.49186630369E+03 -0.45928804724E+03  0.80880068592E+03  0.63348844377E+02 0.  0.
         13    1    3    3    0    0  0.28549548290E+03 -0.27146638655E+03 -0.26157269729E+03  0.47288682130E+03  0.00000000000E+00 0. -1.
        -13    1    3    3    0    0  0.15865258072E+03 -0.22039991713E+03 -0.19771534994E+03  0.33591386462E+03  0.00000000000E+00 0.  1.
         22    1    1    2    0    0 -0.44414806362E+03  0.49186630369E+03 -0.16531582434E+03  0.68302949050E+03  0.00000000000E+00 0.  1.
<mgrwt>
<rscale>  0 0.13547794E+04</rscale>
<asrwt>0</asrwt>
<pdfrwt beam="1">  1        1 0.16280262E+00 0.13547794E+04</pdfrwt>
<pdfrwt beam="2">  1       -1 0.66709716E-01 0.13547794E+04</pdfrwt>
<totfact> 0.30388543E+01</totfact>
</mgrwt>
</event>
<event>
 6    1  0.1637818E-005  0.2254662E+04  0.7818608E-02  0.8496015E-01
          2   -1    0    0  501    0  0.00000000000E+00  0.00000000000E+00  0.25814053935E+04  0.25814053935E+04  0.00000000000E+00 0. -1.
         -2   -1    0    0    0  501 -0.00000000000E+00 -0.00000000000E+00 -0.49231906946E+03  0.49231906946E+03  0.00000000000E+00 0.  1.
         23    2    1    2    0    0 -0.54586976314E+03 -0.18575416142E+03 -0.27114851380E+03  0.64407697894E+03  0.93995912005E+02 0.  0.
         11    1    3    3    0    0 -0.64087407400E+02 -0.55604407401E+02 -0.47034716039E+02  0.97011908664E+02  0.00000000000E+00 0. -1.
        -11    1    3    3    0    0 -0.48178235574E+03 -0.13014975402E+03 -0.22411379776E+03  0.54706507028E+03  0.00000000000E+00 0.  1.
         22    1    1    2    0    0  0.54586976314E+03  0.18575416142E+03  0.23602348378E+04  0.24296474840E+04  0.00000000000E+00 0. -1.
<mgrwt>
<rscale>  0 0.22546619E+04</rscale>
<asrwt>0</asrwt>
<pdfrwt beam="1">  1        2 0.39713928E+00 0.22546619E+04</pdfrwt>
<pdfrwt beam="2">  1       -2 0.75741397E-01 0.22546619E+04</pdfrwt>
<totfact> 0.44369689E+00</totfact>
</mgrwt>
</event>
<event>
 6    1  0.1637818E-005  0.2443733E+04  0.7818608E-02  0.8423310E-01
          2   -1    0    0  501    0  0.00000000000E+00  0.00000000000E+00  0.97203817624E+03  0.97203817624E+03  0.00000000000E+00 0. -1.
         -2   -1    0    0    0  501 -0.00000000000E+00 -0.00000000000E+00 -0.15359039953E+04  0.15359039953E+04  0.00000000000E+00 0.  1.
         23    2    1    2    0    0  0.76245476595E+03 -0.80387496836E+03  0.24211951108E+03  0.11378456102E+04  0.92295938149E+02 0.  0.
         13    1    3    3    0    0  0.17467261127E+03 -0.18225598648E+03  0.95274569261E+02  0.26982403393E+03  0.00000000000E+00 0.  1.
        -13    1    3    3    0    0  0.58778215468E+03 -0.62161898189E+03  0.14684494182E+03  0.86802157631E+03  0.00000000000E+00 0. -1.
         22    1    1    2    0    0 -0.76245476595E+03  0.80387496836E+03 -0.80598533014E+03  0.13700965613E+04  0.00000000000E+00 0.  1.
<mgrwt>
<rscale>  0 0.24437327E+04</rscale>
<asrwt>0</asrwt>
<pdfrwt beam="1">  1        2 0.14954433E+00 0.24437327E+04</pdfrwt>
<pdfrwt beam="2">  1       -2 0.23629292E+00 0.24437327E+04</pdfrwt>
<totfact> 0.18375575E+00</totfact>
</mgrwt>
</event>
<event>
 6    1  0.1637818E-005  0.6039922E+03  0.7818608E-02  0.9897158E-01
         -2   -1    0    0    0  501 -0.00000000000E+00  0.00000000000E+00  0.28372822884E+03  0.28372822884E+03  0.00000000000E+00 0.  1.
          2   -1    0    0  501    0  0.00000000000E+00 -0.00000000000E+00 -0.32144016250E+03  0.32144016250E+03  0.00000000000E+00 0. -1.
         23    2    1    2    0    0  0.19709727038E+03  0.87483778761E+02  0.18261292891E+03  0.29687666163E+03  0.91035843943E+02 0.  0.
         13    1    3    3    0    0  0.76889089153E+02  0.41040882733E+01  0.10804352602E+03  0.13267320410E+03  0.00000000000E+00 0. -1.
        -13    1    3    3    0    0  0.12020818122E+03  0.83379690487E+02  0.74569402887E+02  0.16420345753E+03  0.00000000000E+00 0.  1.
         22    1    1    2    0    0 -0.19709727038E+03 -0.87483778761E+02 -0.22032486257E+03  0.30829172970E+03  0.00000000000E+00 0. -1.
<mgrwt>
<rscale>  0 0.60399221E+03</rscale>
<asrwt>0</asrwt>
<pdfrwt beam="1">  1        2 0.49452333E-01 0.60399221E+03</pdfrwt>
<pdfrwt beam="2">  1       -2 0.43650497E-01 0.60399221E+03</pdfrwt>
<totfact> 0.51001680E+02</totfact>
</mgrwt>
</event>
<event>
 6    1  0.1637818E-005  0.3822495E+04  0.7818608E-02  0.8041345E-01
         -1   -1    0    0    0  501 -0.00000000000E+00  0.00000000000E+00  0.16430828443E+04  0.16430828443E+04  0.00000000000E+00 0. -1.
          1   -1    0    0  501    0  0.00000000000E+00 -0.00000000000E+00 -0.22231785293E+04  0.22231785293E+04  0.00000000000E+00 0.  1.
         23    2    1    2    0    0  0.94111691723E+03 -0.15409198610E+04  0.34027349814E+03  0.18396349888E+04  0.91300431052E+02 0.  0.
         13    1    3    3    0    0  0.68762635860E+03 -0.11856461340E+04  0.28200171049E+03  0.13993254550E+04  0.00000000000E+00 0. -1.
        -13    1    3    3    0    0  0.25349055862E+03 -0.35527372696E+03  0.58271787651E+02  0.44030953387E+03  0.00000000000E+00 0.  1.
         22    1    1    2    0    0 -0.94111691723E+03  0.15409198610E+04 -0.92036918314E+03  0.20266263847E+04  0.00000000000E+00 0.  1.
<mgrwt>
<rscale>  0 0.38224947E+04</rscale>
<asrwt>0</asrwt>
<pdfrwt beam="1">  1        1 0.34202747E+00 0.38224947E+04</pdfrwt>
<pdfrwt beam="2">  1       -1 0.25278198E+00 0.38224947E+04</pdfrwt>
<totfact> 0.11155102E-01</totfact>
</mgrwt>
</event>
<event>
 6    1  0.1637818E-005  0.3589690E+04  0.7818608E-02  0.8092857E-01
          1   -1    0    0  501    0  0.00000000000E+00  0.00000000000E+00  0.17670839811E+04  0.17670839811E+04  0.00000000000E+00 0. -1.
         -1   -1    0    0    0  501 -0.00000000000E+00 -0.00000000000E+00 -0.18230423746E+04  0.18230423746E+04  0.00000000000E+00 0.  1.
         23    2    1    2    0    0 -0.23511484528E+03  0.11250457105E+04  0.13491865293E+04  0.17747919250E+04  0.92602619510E+02 0.  0.
         11    1    3    3    0    0 -0.15160433366E+03  0.64094712263E+03  0.83754729625E+03  0.10654963920E+04  0.00000000000E+00 0. -1.
        -11    1    3    3    0    0 -0.83510511621E+02  0.48409858791E+03  0.51163923303E+03  0.70929553300E+03  0.00000000000E+00 0.  1.
         22    1    1    2    0    0  0.23511484528E+03 -0.11250457105E+04 -0.14051449227E+04  0.18153344307E+04  0.00000000000E+00 0.  1.
<mgrwt>
<rscale>  0 0.35896902E+04</rscale>
<asrwt>0</asrwt>
<pdfrwt beam="1">  1        1 0.27185907E+00 0.35896902E+04</pdfrwt>
<pdfrwt beam="2">  1       -1 0.28046806E+00 0.35896902E+04</pdfrwt>
<totfact> 0.15351799E-01</totfact>
</mgrwt>
</event>
<event>
 6    1  0.1637818E-005  0.2195048E+04  0.7818608E-02  0.8520492E-01
          2   -1    0    0  501    0  0.00000000000E+00  0.00000000000E+00  0.19659420726E+04  0.19659420726E+04  0.00000000000E+00 0. -1.
         -2   -1    0    0    0  501 -0.00000000000E+00 -0.00000000000E+00 -0.61271360914E+03  0.61271360914E+03  0.00000000000E+00 0.  1.
         23    2    1    2    0    0  0.10463563772E+03 -0.80388460782E+03 -0.18796077059E+03  0.83726447512E+03  0.92214264876E+02 0.  0.
         13    1    3    3    0    0  0.98055156227E+02 -0.64940726496E+03 -0.11686518545E+03  0.66708476299E+03  0.00000000000E+00 0. -1.
        -13    1    3    3    0    0  0.65804814900E+01 -0.15447734286E+03 -0.71095585138E+02  0.17017971213E+03  0.00000000000E+00 0.  1.
         22    1    1    2    0    0 -0.10463563772E+03  0.80388460782E+03  0.15411892340E+04  0.17413912066E+04  0.00000000000E+00 0. -1.
<mgrwt>
<rscale>  0 0.21950485E+04</rscale>
<asrwt>0</asrwt>
<pdfrwt beam="1">  1        2 0.30245262E+00 0.21950485E+04</pdfrwt>
<pdfrwt beam="2">  1       -2 0.94263633E-01 0.21950485E+04</pdfrwt>
<totfact> 0.60566142E+00</totfact>
</mgrwt>
</event>
<event>
 6    1  0.1637818E-005  0.2447246E+04  0.7818608E-02  0.8422024E-01
          2   -1    0    0  501    0  0.00000000000E+00  0.00000000000E+00  0.22816972775E+04  0.22816972775E+04  0.00000000000E+00 0. -1.
         -2   -1    0    0    0  501 -0.00000000000E+00 -0.00000000000E+00 -0.65620138020E+03  0.65620138020E+03  0.00000000000E+00 0.  1.
         23    2    1    2    0    0 -0.21336709251E+03 -0.11679307810E+04  0.11606627549E+04  0.16628858438E+04  0.91997138255E+02 0.  0.
         11    1    3    3    0    0 -0.57967388483E+02 -0.14913937325E+03  0.14486529651E+03  0.21584421445E+03  0.00000000000E+00 0. -1.
        -11    1    3    3    0    0 -0.15539970403E+03 -0.10187914078E+04  0.10157974584E+04  0.14470416293E+04  0.00000000000E+00 0.  1.
         22    1    1    2    0    0  0.21336709251E+03  0.11679307810E+04  0.46483314239E+03  0.12750128139E+04  0.00000000000E+00 0. -1.
<mgrwt>
<rscale>  0 0.24472457E+04</rscale>
<asrwt>0</asrwt>
<pdfrwt beam="1">  1        2 0.35103035E+00 0.24472457E+04</pdfrwt>
<pdfrwt beam="2">  1       -2 0.10095406E+00 0.24472457E+04</pdfrwt>
<totfact> 0.33583439E+00</totfact>
</mgrwt>
</event>
<event>
 6    1  0.1637818E-005  0.2073930E+04  0.7818608E-02  0.8572815E-01
         -1   -1    0    0    0  501 -0.00000000000E+00  0.00000000000E+00  0.11752809363E+04  0.11752809363E+04  0.00000000000E+00 0.  1.
          1   -1    0    0  501    0  0.00000000000E+00 -0.00000000000E+00 -0.91492724260E+03  0.91492724260E+03  0.00000000000E+00 0. -1.
         23    2    1    2    0    0  0.35249388783E+03  0.12313315451E+03  0.11033584386E+04  0.11682153835E+04  0.88958549201E+02 0.  0.
         11    1    3    3    0    0  0.24155118161E+03  0.47128354944E+02  0.78328927200E+03  0.82104210538E+03  0.00000000000E+00 0. -1.
        -11    1    3    3    0    0  0.11094270622E+03  0.76004799565E+02  0.32006916665E+03  0.34717327815E+03  0.00000000000E+00 0.  1.
         22    1    1    2    0    0 -0.35249388783E+03 -0.12313315451E+03 -0.84300474495E+03  0.92199279537E+03  0.00000000000E+00 0. -1.
<mgrwt>
<rscale>  0 0.20739301E+04</rscale>
<asrwt>0</asrwt>
<pdfrwt beam="1">  1        1 0.14075804E+00 0.20739301E+04</pdfrwt>
<pdfrwt beam="2">  1       -1 0.18081245E+00 0.20739301E+04</pdfrwt>
<totfact> 0.33484367E+00</totfact>
</mgrwt>
</event>
<event>
 6    1  0.1637818E-005  0.1788893E+04  0.7818608E-02  0.8712229E-01
         -2   -1    0    0    0  501 -0.00000000000E+00  0.00000000000E+00  0.16209404824E+04  0.16209404824E+04  0.00000000000E+00 0.  1.
          2   -1    0    0  501    0  0.00000000000E+00 -0.00000000000E+00 -0.49356167688E+03  0.49356167688E+03  0.00000000000E+00 0. -1.
         23    2    1    2    0    0  0.39053890382E+03  0.41458427652E+03  0.13762854393E+04  0.14929273286E+04  0.10133923309E+03 0.  0.
         13    1    3    3    0    0  0.33454334951E+03  0.36049772007E+03  0.12638573923E+04  0.13561760089E+04  0.00000000000E+00 0.  1.
        -13    1    3    3    0    0  0.55995554304E+02  0.54086556447E+02  0.11242804702E+03  0.13675131973E+03  0.00000000000E+00 0. -1.
         22    1    1    2    0    0 -0.39053890382E+03 -0.41458427652E+03 -0.24890663385E+03  0.62157483066E+03  0.00000000000E+00 0. -1.
<mgrwt>
<rscale>  0 0.17888925E+04</rscale>
<asrwt>0</asrwt>
<pdfrwt beam="1">  1        2 0.75932566E-01 0.17888925E+04</pdfrwt>
<pdfrwt beam="2">  1       -2 0.24937546E+00 0.17888925E+04</pdfrwt>
<totfact> 0.38294821E+00</totfact>
</mgrwt>
</event>
<event>
 6    1  0.1637818E-005  0.6031907E+03  0.7818608E-02  0.9898808E-01
         -1   -1    0    0    0  501 -0.00000000000E+00  0.00000000000E+00  0.14777413641E+03  0.14777413641E+03  0.00000000000E+00 0.  1.
          1   -1    0    0  501    0  0.00000000000E+00 -0.00000000000E+00 -0.61553227670E+03  0.61553227670E+03  0.00000000000E+00 0. -1.
         23    2    1    2    0    0 -0.16523023650E+03 -0.17854710523E+03 -0.29434896144E+02  0.26200075166E+03  0.92724758943E+02 0.  0.
         13    1    3    3    0    0 -0.11883617265E+03 -0.17578483750E+03 -0.35488289988E+02  0.21513196822E+03  0.00000000000E+00 0. -1.
        -13    1    3    3    0    0 -0.46394063856E+02 -0.27622677237E+01  0.60533938441E+01  0.46868783439E+02  0.00000000000E+00 0.  1.
         22    1    1    2    0    0  0.16523023650E+03  0.17854710523E+03 -0.43832324415E+03  0.50130566145E+03  0.00000000000E+00 0. -1.
<mgrwt>
<rscale>  0 0.60319069E+03</rscale>
<asrwt>0</asrwt>
<pdfrwt beam="1">  1        1 0.94697272E-01 0.60319069E+03</pdfrwt>
<pdfrwt beam="2">  1       -1 0.22734483E-01 0.60319069E+03</pdfrwt>
<totfact> 0.54900130E+02</totfact>
</mgrwt>
</event>
<event>
 6    1  0.1637818E-005  0.1407914E+04  0.7818608E-02  0.8948110E-01
          2   -1    0    0  501    0  0.00000000000E+00  0.00000000000E+00  0.16552648786E+04  0.16552648786E+04  0.00000000000E+00 0. -1.
         -2   -1    0    0    0  501 -0.00000000000E+00 -0.00000000000E+00 -0.29938155562E+03  0.29938155562E+03  0.00000000000E+00 0.  1.
         23    2    1    2    0    0 -0.35414161917E+03 -0.56517752033E+03  0.37999483191E+03  0.77261417453E+03  0.87719293781E+02 0.  0.
         11    1    3    3    0    0 -0.10949400468E+03 -0.19052151512E+03  0.17261900031E+03  0.27943640430E+03  0.00000000000E+00 0.  1.
        -11    1    3    3    0    0 -0.24464761449E+03 -0.37465600521E+03  0.20737583160E+03  0.49317777023E+03  0.00000000000E+00 0. -1.
         22    1    1    2    0    0  0.35414161917E+03  0.56517752033E+03  0.97588849104E+03  0.11820322597E+04  0.00000000000E+00 0. -1.
<mgrwt>
<rscale>  0 0.14079144E+04</rscale>
<asrwt>0</asrwt>
<pdfrwt beam="1">  1        2 0.25465613E+00 0.14079144E+04</pdfrwt>
<pdfrwt beam="2">  1       -2 0.46058702E-01 0.14079144E+04</pdfrwt>
<totfact> 0.45150284E+01</totfact>
</mgrwt>
</event>
<event>
 6    1  0.1637818E-005  0.1932299E+04  0.7818608E-02  0.8638944E-01
         -2   -1    0    0    0  501 -0.00000000000E+00  0.00000000000E+00  0.41994992350E+03  0.41994992350E+03  0.00000000000E+00 0.  1.
          2   -1    0    0  501    0  0.00000000000E+00 -0.00000000000E+00 -0.22227517292E+04  0.22227517292E+04  0.00000000000E+00 0. -1.
         23    2    1    2    0    0 -0.72895576083E+03 -0.63030787855E+03 -0.93466670056E+03  0.13456576736E+04  0.92348309658E+02 0.  0.
         11    1    3    3    0    0 -0.69907279841E+03 -0.57482406407E+03 -0.87548094628E+03  0.12592030692E+04  0.00000000000E+00 0.  1.
        -11    1    3    3    0    0 -0.29882962420E+02 -0.55483814483E+02 -0.59185754282E+02  0.86454604403E+02  0.00000000000E+00 0. -1.
         22    1    1    2    0    0  0.72895576083E+03  0.63030787855E+03 -0.86813510512E+03  0.12970439791E+04  0.00000000000E+00 0.  1.
<mgrwt>
<rscale>  0 0.19322985E+04</rscale>
<asrwt>0</asrwt>
<pdfrwt beam="1">  1        2 0.34196181E+00 0.19322985E+04</pdfrwt>
<pdfrwt beam="2">  1       -2 0.64607680E-01 0.19322985E+04</pdfrwt>
<totfact> 0.10360006E+01</totfact>
</mgrwt>
</event>
<event>
 6    1  0.1637818E-005  0.1846019E+04  0.7818608E-02  0.8682203E-01
         -1   -1    0    0    0  501 -0.00000000000E+00  0.00000000000E+00  0.62266152931E+03  0.62266152931E+03  0.00000000000E+00 0.  1.
          1   -1    0    0  501    0  0.00000000000E+00 -0.00000000000E+00 -0.13682340751E+04  0.13682340751E+04  0.00000000000E+00 0. -1.
         23    2    1    2    0    0 -0.27211124512E+03 -0.10305706882E+03  0.56837224099E+03  0.64511843421E+03  0.92008155478E+02 0.  0.
         11    1    3    3    0    0 -0.47826646448E+02  0.11750887700E+02  0.13659829037E+03  0.14520524923E+03  0.00000000000E+00 0.  1.
        -11    1    3    3    0    0 -0.22428459867E+03 -0.11480795652E+03  0.43177395062E+03  0.49991318498E+03  0.00000000000E+00 0. -1.
         22    1    1    2    0    0  0.27211124512E+03  0.10305706882E+03 -0.13139447867E+04  0.13457771702E+04  0.00000000000E+00 0. -1.
<mgrwt>
<rscale>  0 0.18460192E+04</rscale>
<asrwt>0</asrwt>
<pdfrwt beam="1">  1        1 0.21049755E+00 0.18460192E+04</pdfrwt>
<pdfrwt beam="2">  1       -1 0.95794082E-01 0.18460192E+04</pdfrwt>
<totfact> 0.79902383E+00</totfact>
</mgrwt>
</event>
<event>
 6    1  0.1637818E-005  0.2757519E+04  0.7818608E-02  0.8316580E-01
          1   -1    0    0  501    0  0.00000000000E+00  0.00000000000E+00  0.15067036447E+04  0.15067036447E+04  0.00000000000E+00 0. -1.
         -1   -1    0    0    0  501 -0.00000000000E+00 -0.00000000000E+00 -0.12616800961E+04  0.12616800961E+04  0.00000000000E+00 0.  1.
         23    2    1    2    0    0 -0.28766855745E+02  0.74410810662E+03 -0.10405057585E+04  0.12827491943E+04  0.90933248527E+02 0.  0.
         13    1    3    3    0    0  0.25975298930E+02  0.43774971278E+03 -0.58623505258E+03  0.73210044671E+03  0.00000000000E+00 0. -1.
        -13    1    3    3    0    0 -0.54742154676E+02  0.30635839385E+03 -0.45427070587E+03  0.55064874756E+03  0.00000000000E+00 0.  1.
         22    1    1    2    0    0  0.28766855745E+02 -0.74410810662E+03  0.12855293071E+04  0.14856345465E+04  0.00000000000E+00 0. -1.
<mgrwt>
<rscale>  0 0.27575192E+04</rscale>
<asrwt>0</asrwt>
<pdfrwt beam="1">  1        1 0.23180056E+00 0.27575192E+04</pdfrwt>
<pdfrwt beam="2">  1       -1 0.19410463E+00 0.27575192E+04</pdfrwt>
<totfact> 0.93003631E-01</totfact>
</mgrwt>
</event>
<event>
 6    1  0.1637818E-005  0.1496182E+04  0.7818608E-02  0.8886996E-01
          2   -1    0    0  501    0  0.00000000000E+00  0.00000000000E+00  0.18960116713E+04  0.18960116713E+04  0.00000000000E+00 0. -1.
         -2   -1    0    0    0  501 -0.00000000000E+00 -0.00000000000E+00 -0.29516707113E+03  0.29516707113E+03  0.00000000000E+00 0.  1.
         23    2    1    2    0    0 -0.30583561207E+03  0.48092510017E+02 -0.18961732549E+03  0.37414758740E+03  0.90462013569E+02 0.  0.
         13    1    3    3    0    0 -0.14239042095E+03  0.67836970684E+02 -0.86498421191E+02  0.17988569548E+03  0.00000000000E+00 0.  1.
        -13    1    3    3    0    0 -0.16344519111E+03 -0.19744460667E+02 -0.10311890430E+03  0.19426189191E+03  0.00000000000E+00 0. -1.
         22    1    1    2    0    0  0.30583561207E+03 -0.48092510017E+02  0.17904619256E+04  0.18170311550E+04  0.00000000000E+00 0. -1.
<mgrwt>
<rscale>  0 0.14961821E+04</rscale>
<asrwt>0</asrwt>
<pdfrwt beam="1">  1        2 0.29169410E+00 0.14961821E+04</pdfrwt>
<pdfrwt beam="2">  1       -2 0.45410320E-01 0.14961821E+04</pdfrwt>
<totfact> 0.33926551E+01</totfact>
</mgrwt>
</event>
<event>
 6    1  0.1637818E-005  0.2977887E+04  0.7818608E-02  0.8250074E-01
          1   -1    0    0  501    0  0.00000000000E+00  0.00000000000E+00  0.27063655970E+04  0.27063655970E+04  0.00000000000E+00 0. -1.
         -1   -1    0    0    0  501 -0.00000000000E+00 -0.00000000000E+00 -0.81916254298E+03  0.81916254298E+03  0.00000000000E+00 0.  1.
         23    2    1    2    0    0 -0.12285529787E+04  0.10814596093E+03 -0.39724717738E+02  0.12377150777E+04  0.96553560838E+02 0.  0.
         11    1    3    3    0    0 -0.70781353519E+03  0.76170597356E+02 -0.68590578690E+02  0.71519691553E+03  0.00000000000E+00 0. -1.
        -11    1    3    3    0    0 -0.52073944349E+03  0.31975363569E+02  0.28865860952E+02  0.52251816219E+03  0.00000000000E+00 0.  1.
         22    1    1    2    0    0  0.12285529787E+04 -0.10814596093E+03  0.19269277718E+04  0.22878130623E+04  0.00000000000E+00 0. -1.
<mgrwt>
<rscale>  0 0.29778874E+04</rscale>
<asrwt>0</asrwt>
<pdfrwt beam="1">  1        1 0.41636393E+00 0.29778874E+04</pdfrwt>
<pdfrwt beam="2">  1       -1 0.12602501E+00 0.29778874E+04</pdfrwt>
<totfact> 0.45386026E-01</totfact>
</mgrwt>
</event>
<event>
 6    1  0.1637818E-005  0.3816914E+04  0.7818608E-02  0.8042535E-01
          2   -1    0    0  501    0  0.00000000000E+00  0.00000000000E+00  0.20061810924E+04  0.20061810924E+04  0.00000000000E+00 0. -1.
         -2   -1    0    0    0  501 -0.00000000000E+00 -0.00000000000E+00 -0.18154935616E+04  0.18154935616E+04  0.00000000000E+00 0.  1.
         23    2    1    2    0    0 -0.36990466783E+03 -0.10012249360E+04 -0.14873065224E+04  0.18329703325E+04  0.91753541893E+02 0.  0.
         11    1    3    3    0    0 -0.14043647479E+03 -0.49449221272E+03 -0.67497013796E+03  0.84842774532E+03  0.00000000000E+00 0. -1.
        -11    1    3    3    0    0 -0.22946819304E+03 -0.50673272331E+03 -0.81233638441E+03  0.98454258715E+03  0.00000000000E+00 0.  1.
         22    1    1    2    0    0  0.36990466783E+03  0.10012249360E+04  0.16779940532E+04  0.19887043215E+04  0.00000000000E+00 0. -1.
<mgrwt>
<rscale>  0 0.38169144E+04</rscale>
<asrwt>0</asrwt>
<pdfrwt beam="1">  1        2 0.30864325E+00 0.38169144E+04</pdfrwt>
<pdfrwt beam="2">  1       -2 0.27930670E+00 0.38169144E+04</pdfrwt>
<totfact> 0.22570979E-01</totfact>
</mgrwt>
</event>
<event>
 6    1  0.1637818E-005  0.5027730E+03  0.7818608E-02  0.1013058E+00
          1   -1    0    0  501    0  0.00000000000E+00  0.00000000000E+00  0.17898665436E+04  0.17898665436E+04  0.00000000000E+00 0. -1.
         -1   -1    0    0    0  501 -0.00000000000E+00 -0.00000000000E+00 -0.35307195849E+02  0.35307195849E+02  0.00000000000E+00 0.  1.
         23    2    1    2    0    0 -0.26496967942E+02  0.92701395570E+02  0.17162720941E+04  0.17214358397E+04  0.91955483881E+02 0.  0.
         13    1    3    3    0    0 -0.23362274972E+02 -0.16325260409E+01  0.11370949976E+03  0.11609612987E+03  0.00000000000E+00 0.  1.
        -13    1    3    3    0    0 -0.31346929702E+01  0.94333921611E+02  0.16025625944E+04  0.16053397098E+04  0.00000000000E+00 0. -1.
         22    1    1    2    0    0  0.26496967942E+02 -0.92701395570E+02  0.38287253570E+02  0.10373789971E+03  0.00000000000E+00 0.  1.
<mgrwt>
<rscale>  0 0.50277298E+03</rscale>
<asrwt>0</asrwt>
<pdfrwt beam="1">  1        1 0.27536401E+00 0.50277298E+03</pdfrwt>
<pdfrwt beam="2">  1       -1 0.54318777E-02 0.50277298E+03</pdfrwt>
<totfact> 0.70339613E+02</totfact>
</mgrwt>
</event>
<event>
 6    1  0.1637818E-005  0.5897207E+04  0.7818608E-02  0.7703279E-01
         -1   -1    0    0    0  501 -0.00000000000E+00  0.00000000000E+00  0.34329829645E+04  0.34329829645E+04  0.00000000000E+00 0.  1.
          1   -1    0    0  501    0  0.00000000000E+00 -0.00000000000E+00 -0.25325682080E+04  0.25325682080E+04  0.00000000000E+00 0. -1.
         23    2    1    2    0    0  0.45855550797E+03 -0.14532246356E+04 -0.21027121191E+04  0.25979250017E+04  0.75372829523E+02 0.  0.
         13    1    3    3    0    0  0.40618931042E+03 -0.13343558729E+04 -0.19489164964E+04  0.23966165445E+04  0.00000000000E+00 0.  1.
        -13    1    3    3    0    0  0.52366197558E+02 -0.11886876271E+03 -0.15379562270E+03  0.20130845724E+03  0.00000000000E+00 0. -1.
         22    1    1    2    0    0 -0.45855550797E+03  0.14532246356E+04  0.30031268756E+04  0.33676261708E+04  0.00000000000E+00 0.  1.
<mgrwt>
<rscale>  0 0.58972073E+04</rscale>
<asrwt>0</asrwt>
<pdfrwt beam="1">  1        1 0.38962588E+00 0.58972073E+04</pdfrwt>
<pdfrwt beam="2">  1       -1 0.52815123E+00 0.58972073E+04</pdfrwt>
<totfact> 0.87483733E-04</totfact>
</mgrwt>
</event>
<event>
 6    1  0.1637818E-005  0.5100109E+04  0.7818608E-02  0.7813247E-01
         -2   -1    0    0    0  501 -0.00000000000E+00  0.00000000000E+00  0.25269257718E+04  0.25269257718E+04  0.00000000000E+00 0.  1.
          2   -1    0    0  501    0  0.00000000000E+00 -0.00000000000E+00 -0.25733951981E+04  0.25733951981E+04  0.00000000000E+00 0. -1.
         23    2    1    2    0    0  0.20124127528E+04  0.49022658196E+03 -0.15094442716E+04  0.25644931786E+04  0.89866927794E+02 0.  0.
         11    1    3    3    0    0  0.41259951145E+03  0.10905697201E+03 -0.35557676335E+03  0.55548772680E+03  0.00000000000E+00 0.  1.
        -11    1    3    3    0    0  0.15998132413E+04  0.38116960995E+03 -0.11538675082E+04  0.20090054518E+04  0.00000000000E+00 0. -1.
         22    1    1    2    0    0 -0.20124127528E+04 -0.49022658196E+03  0.14629748453E+04  0.25358277913E+04  0.00000000000E+00 0.  1.
<mgrwt>
<rscale>  0 0.51001093E+04</rscale>
<asrwt>0</asrwt>
<pdfrwt beam="1">  1        2 0.39590696E+00 0.51001093E+04</pdfrwt>
<pdfrwt beam="2">  1       -2 0.38875781E+00 0.51001093E+04</pdfrwt>
<totfact> 0.20030883E-02</totfact>
</mgrwt>
</event>
<event>
 6    1  0.1637818E-005  0.2335196E+04  0.7818608E-02  0.8464172E-01
         -2   -1    0    0    0  501 -0.00000000000E+00  0.00000000000E+00  0.92025645191E+03  0.92025645191E+03  0.00000000000E+00 0.  1.
          2   -1    0    0  501    0  0.00000000000E+00 -0.00000000000E+00 -0.14814185344E+04  0.14814185344E+04  0.00000000000E+00 0. -1.
         23    2    1    2    0    0 -0.33752130437E+03 -0.16460278254E+03 -0.14150367300E+04  0.14688745678E+04  0.11936851220E+03 0.  0.
         11    1    3    3    0    0 -0.13915119297E+03 -0.57924043121E+02 -0.79578112855E+03  0.80992953634E+03  0.00000000000E+00 0. -1.
        -11    1    3    3    0    0 -0.19837011139E+03 -0.10667873942E+03 -0.61925560150E+03  0.65894503149E+03  0.00000000000E+00 0.  1.
         22    1    1    2    0    0  0.33752130437E+03  0.16460278254E+03  0.85387464758E+03  0.93280041847E+03  0.00000000000E+00 0.  1.
<mgrwt>
<rscale>  0 0.23351959E+04</rscale>
<asrwt>0</asrwt>
<pdfrwt beam="1">  1        2 0.22791054E+00 0.23351959E+04</pdfrwt>
<pdfrwt beam="2">  1       -2 0.14157792E+00 0.23351959E+04</pdfrwt>
<totfact> 0.41017082E+00</totfact>
</mgrwt>
</event>
<event>
 6    1  0.1637818E-005  0.2119247E+04  0.7818608E-02  0.8552812E-01
          2   -1    0    0  501    0  0.00000000000E+00  0.00000000000E+00  0.11003739767E+04  0.11003739767E+04  0.00000000000E+00 0. -1.
         -2   -1    0    0    0  501 -0.00000000000E+00 -0.00000000000E+00 -0.10203818112E+04  0.10203818112E+04  0.00000000000E+00 0.  1.
         23    2    1    2    0    0 -0.14216984172E+03  0.75019762572E+03  0.77269352195E+03  0.10898125738E+04  0.87335134327E+02 0.  0.
         11    1    3    3    0    0 -0.14461597408E+03  0.62376855234E+03  0.67150384424E+03  0.92785688534E+03  0.00000000000E+00 0.  1.
        -11    1    3    3    0    0  0.24461323598E+01  0.12642907338E+03  0.10118967771E+03  0.16195568849E+03  0.00000000000E+00 0. -1.
         22    1    1    2    0    0  0.14216984172E+03 -0.75019762572E+03 -0.69270135638E+03  0.10309432141E+04  0.00000000000E+00 0.  1.
<mgrwt>
<rscale>  0 0.21192467E+04</rscale>
<asrwt>0</asrwt>
<pdfrwt beam="1">  1        2 0.16928830E+00 0.21192467E+04</pdfrwt>
<pdfrwt beam="2">  1       -2 0.15698182E+00 0.21192467E+04</pdfrwt>
<totfact> 0.53144317E+00</totfact>
</mgrwt>
</event>
<event>
 6    1  0.1637818E-005  0.1190618E+04  0.7818608E-02  0.9121109E-01
         -1   -1    0    0    0  501 -0.00000000000E+00  0.00000000000E+00  0.45074742803E+03  0.45074742803E+03  0.00000000000E+00 0.  1.
          1   -1    0    0  501    0  0.00000000000E+00 -0.00000000000E+00 -0.78623309129E+03  0.78623309129E+03  0.00000000000E+00 0. -1.
         23    2    1    2    0    0  0.27572343316E+03 -0.16918131586E+03  0.34543086867E+03  0.48312837685E+03  0.97184434241E+02 0.  0.
         11    1    3    3    0    0  0.15399282141E+03 -0.78983054911E+02  0.25004423280E+03  0.30409575854E+03  0.00000000000E+00 0. -1.
        -11    1    3    3    0    0  0.12173061175E+03 -0.90198260949E+02  0.95386635877E+02  0.17903261831E+03  0.00000000000E+00 0.  1.
         22    1    1    2    0    0 -0.27572343316E+03  0.16918131586E+03 -0.68091653194E+03  0.75385214246E+03  0.00000000000E+00 0. -1.
<mgrwt>
<rscale>  0 0.11906176E+04</rscale>
<asrwt>0</asrwt>
<pdfrwt beam="1">  1        1 0.12095894E+00 0.11906176E+04</pdfrwt>
<pdfrwt beam="2">  1       -1 0.69345759E-01 0.11906176E+04</pdfrwt>
<totfact> 0.47372064E+01</totfact>
</mgrwt>
</event>
<event>
 6    1  0.1637818E-005  0.2264194E+04  0.7818608E-02  0.8492174E-01
          1   -1    0    0  501    0  0.00000000000E+00  0.00000000000E+00  0.10713449897E+04  0.10713449897E+04  0.00000000000E+00 0. -1.
         -1   -1    0    0    0  501 -0.00000000000E+00 -0.00000000000E+00 -0.11962941944E+04  0.11962941944E+04  0.00000000000E+00 0.  1.
         23    2    1    2    0    0  0.16350540791E+02  0.10372023466E+04  0.38684320468E+03  0.11109250802E+04  0.91928346689E+02 0.  0.
         11    1    3    3    0    0  0.23755682072E+02  0.50050719158E+03  0.14082884395E+03  0.52048491288E+03  0.00000000000E+00 0.  1.
        -11    1    3    3    0    0 -0.74051412806E+01  0.53669515501E+03  0.24601436074E+03  0.59044016735E+03  0.00000000000E+00 0. -1.
         22    1    1    2    0    0 -0.16350540791E+02 -0.10372023466E+04 -0.51179240940E+03  0.11567141039E+04  0.00000000000E+00 0.  1.
<mgrwt>
<rscale>  0 0.22641942E+04</rscale>
<asrwt>0</asrwt>
<pdfrwt beam="1">  1        1 0.16482231E+00 0.22641942E+04</pdfrwt>
<pdfrwt beam="2">  1       -1 0.18404526E+00 0.22641942E+04</pdfrwt>
<totfact> 0.23529012E+00</totfact>
</mgrwt>
</event>
<event>
 6    1  0.1637818E-005  0.1973424E+04  0.7818608E-02  0.8619148E-01
         -2   -1    0    0    0  501 -0.00000000000E+00  0.00000000000E+00  0.73153717181E+03  0.73153717181E+03  0.00000000000E+00 0. -1.
          2   -1    0    0  501    0  0.00000000000E+00 -0.00000000000E+00 -0.13308964666E+04  0.13308964666E+04  0.00000000000E+00 0.  1.
         23    2    1    2    0    0  0.50231657037E+03  0.26220066697E+03 -0.11420888119E+04  0.12778149696E+04  0.85866847603E+02 0.  0.
         13    1    3    3    0    0  0.43780034515E+03  0.24317745240E+03 -0.94397161136E+03  0.10685910437E+04  0.00000000000E+00 0. -1.
        -13    1    3    3    0    0  0.64516225217E+02  0.19023214569E+02 -0.19811720055E+03  0.20922392589E+03  0.00000000000E+00 0.  1.
         22    1    1    2    0    0 -0.50231657037E+03 -0.26220066697E+03  0.54272951716E+03  0.78461866880E+03  0.00000000000E+00 0. -1.
<mgrwt>
<rscale>  0 0.19734237E+04</rscale>
<asrwt>0</asrwt>
<pdfrwt beam="1">  1        2 0.20475330E+00 0.19734237E+04</pdfrwt>
<pdfrwt beam="2">  1       -2 0.11254418E+00 0.19734237E+04</pdfrwt>
<totfact> 0.91798867E+00</totfact>
</mgrwt>
</event>
<event>
 6    1  0.1637818E-005  0.3509335E+04  0.7818608E-02  0.8111581E-01
          2   -1    0    0  501    0  0.00000000000E+00  0.00000000000E+00  0.11641263455E+04  0.11641263455E+04  0.00000000000E+00 0.  1.
         -2   -1    0    0    0  501 -0.00000000000E+00 -0.00000000000E+00 -0.26447797536E+04  0.26447797536E+04  0.00000000000E+00 0. -1.
         23    2    1    2    0    0 -0.16516291688E+04  0.15416233563E+03 -0.13579665113E+04  0.21455669840E+04  0.87975566404E+02 0.  0.
         11    1    3    3    0    0 -0.10136359448E+04  0.12964922028E+03 -0.86765701124E+03  0.13405578831E+04  0.00000000000E+00 0.  1.
        -11    1    3    3    0    0 -0.63799322398E+03  0.24513115349E+02 -0.49030950007E+03  0.80500910090E+03  0.00000000000E+00 0. -1.
         22    1    1    2    0    0  0.16516291688E+04 -0.15416233563E+03 -0.12268689679E+03  0.16633391150E+04  0.00000000000E+00 0.  1.
<mgrwt>
<rscale>  0 0.35093349E+04</rscale>
<asrwt>0</asrwt>
<pdfrwt beam="1">  1        2 0.17909636E+00 0.35093349E+04</pdfrwt>
<pdfrwt beam="2">  1       -2 0.40688919E+00 0.35093349E+04</pdfrwt>
<totfact> 0.10923563E-01</totfact>
</mgrwt>
</event>
<event>
 6    1  0.1637818E-005  0.2284483E+04  0.7818608E-02  0.8484065E-01
         -1   -1    0    0    0  501 -0.00000000000E+00  0.00000000000E+00  0.94394242701E+03  0.94394242701E+03  0.00000000000E+00 0.  1.
          1   -1    0    0  501    0  0.00000000000E+00 -0.00000000000E+00 -0.13821979586E+04  0.13821979586E+04  0.00000000000E+00 0. -1.
         23    2    1    2    0    0  0.96218097968E+03 -0.93393391111E+02 -0.83559468208E+03  0.12809643412E+04  0.90203146242E+02 0.  0.
         11    1    3    3    0    0  0.38831160293E+03 -0.15766630845E+02 -0.28535693086E+03  0.48214423735E+03  0.00000000000E+00 0.  1.
        -11    1    3    3    0    0  0.57386937675E+03 -0.77626760266E+02 -0.55023775121E+03  0.79882010387E+03  0.00000000000E+00 0. -1.
         22    1    1    2    0    0 -0.96218097968E+03  0.93393391111E+02  0.39733915053E+03  0.10451760444E+04  0.00000000000E+00 0.  1.
<mgrwt>
<rscale>  0 0.22844827E+04</rscale>
<asrwt>0</asrwt>
<pdfrwt beam="1">  1        1 0.21264584E+00 0.22844827E+04</pdfrwt>
<pdfrwt beam="2">  1       -1 0.14522191E+00 0.22844827E+04</pdfrwt>
<totfact> 0.27237464E+00</totfact>
</mgrwt>
</event>
<event>
 6    1  0.1637818E-005  0.1252140E+04  0.7818608E-02  0.9068404E-01
         -2   -1    0    0    0  501 -0.00000000000E+00  0.00000000000E+00  0.58837561531E+03  0.58837561531E+03  0.00000000000E+00 0. -1.
          2   -1    0    0  501    0  0.00000000000E+00 -0.00000000000E+00 -0.66617912363E+03  0.66617912363E+03  0.00000000000E+00 0.  1.
         23    2    1    2    0    0  0.45033079587E+03  0.37168626950E+02  0.39204305747E+03  0.60268425494E+03  0.73152031480E+02 0.  0.
         11    1    3    3    0    0  0.32936645337E+03  0.59520731542E+02  0.28980685252E+03  0.44273354272E+03  0.00000000000E+00 0.  1.
        -11    1    3    3    0    0  0.12096434250E+03 -0.22352104592E+02  0.10223620495E+03  0.15995071222E+03  0.00000000000E+00 0. -1.
         22    1    1    2    0    0 -0.45033079587E+03 -0.37168626950E+02 -0.46984656579E+03  0.65187048401E+03  0.00000000000E+00 0.  1.
<mgrwt>
<rscale>  0 0.12521399E+04</rscale>
<asrwt>0</asrwt>
<pdfrwt beam="1">  1        2 0.10248910E+00 0.12521399E+04</pdfrwt>
<pdfrwt beam="2">  1       -2 0.90519325E-01 0.12521399E+04</pdfrwt>
<totfact> 0.44737892E+01</totfact>
</mgrwt>
</event>
<event>
 6    1  0.1637818E-005  0.7121267E+03  0.7818608E-02  0.9696716E-01
          1   -1    0    0  501    0  0.00000000000E+00  0.00000000000E+00  0.11903415044E+04  0.11903415044E+04  0.00000000000E+00 0. -1.
         -1   -1    0    0    0  501 -0.00000000000E+00 -0.00000000000E+00 -0.10650818863E+03  0.10650818863E+03  0.00000000000E+00 0.  1.
         23    2    1    2    0    0 -0.25065527710E+03 -0.17263482696E+03  0.86674301143E+03  0.92300607377E+03  0.89810427831E+02 0.  0.
         11    1    3    3    0    0 -0.10671495991E+03 -0.40339400908E+02  0.22697083578E+03  0.25402974280E+03  0.00000000000E+00 0. -1.
        -11    1    3    3    0    0 -0.14394031719E+03 -0.13229542605E+03  0.63977217565E+03  0.66897633097E+03  0.00000000000E+00 0.  1.
         22    1    1    2    0    0  0.25065527710E+03  0.17263482696E+03  0.21709030431E+03  0.37384361923E+03  0.00000000000E+00 0.  1.
<mgrwt>
<rscale>  0 0.71212672E+03</rscale>
<asrwt>0</asrwt>
<pdfrwt beam="1">  1        1 0.18312945E+00 0.71212672E+03</pdfrwt>
<pdfrwt beam="2">  1       -1 0.16385876E-01 0.71212672E+03</pdfrwt>
<totfact> 0.31376366E+02</totfact>
</mgrwt>
</event>
<event>
 6    1  0.1637818E-005  0.2405162E+04  0.7818608E-02  0.8437573E-01
          2   -1    0    0  501    0  0.00000000000E+00  0.00000000000E+00  0.19192594863E+04  0.19192594863E+04  0.00000000000E+00 0. -1.
         -2   -1    0    0    0  501 -0.00000000000E+00 -0.00000000000E+00 -0.75352052886E+03  0.75352052886E+03  0.00000000000E+00 0.  1.
         23    2    1    2    0    0  0.20474480205E+03  0.11105824707E+04  0.12948143986E+03  0.11400884281E+04  0.87876745280E+02 0.  0.
         11    1    3    3    0    0  0.11590704446E+03  0.40514589220E+03  0.60956876910E+02  0.42578560070E+03  0.00000000000E+00 0. -1.
        -11    1    3    3    0    0  0.88837757588E+02  0.70543657855E+03  0.68524562945E+02  0.71430282741E+03  0.00000000000E+00 0.  1.
         22    1    1    2    0    0 -0.20474480205E+03 -0.11105824707E+04  0.10362575176E+04  0.15326915871E+04  0.00000000000E+00 0. -1.
<mgrwt>
<rscale>  0 0.24051623E+04</rscale>
<asrwt>0</asrwt>
<pdfrwt beam="1">  1        2 0.29527069E+00 0.24051623E+04</pdfrwt>
<pdfrwt beam="2">  1       -2 0.11592624E+00 0.24051623E+04</pdfrwt>
<totfact> 0.38504659E+00</totfact>
</mgrwt>
</event>
<event>
 6    1  0.1637818E-005  0.2290385E+04  0.7818608E-02  0.8481722E-01
          2   -1    0    0  501    0  0.00000000000E+00  0.00000000000E+00  0.20069986875E+04  0.20069986875E+04  0.00000000000E+00 0. -1.
         -2   -1    0    0    0  501 -0.00000000000E+00 -0.00000000000E+00 -0.65344605278E+03  0.65344605278E+03  0.00000000000E+00 0.  1.
         23    2    1    2    0    0 -0.39339763167E+03 -0.26209844005E+03 -0.53126474608E+03  0.71725307505E+03  0.93554552829E+02 0.  0.
         11    1    3    3    0    0 -0.22486421686E+02 -0.48221053950E+02 -0.69607587381E+02  0.87613500246E+02  0.00000000000E+00 0. -1.
        -11    1    3    3    0    0 -0.37091120998E+03 -0.21387738610E+03 -0.46165715870E+03  0.62963957480E+03  0.00000000000E+00 0.  1.
         22    1    1    2    0    0  0.39339763167E+03  0.26209844005E+03  0.18848173808E+04  0.19431916652E+04  0.00000000000E+00 0. -1.
<mgrwt>
<rscale>  0 0.22903846E+04</rscale>
<asrwt>0</asrwt>
<pdfrwt beam="1">  1        2 0.30876903E+00 0.22903846E+04</pdfrwt>
<pdfrwt beam="2">  1       -2 0.10053016E+00 0.22903846E+04</pdfrwt>
<totfact> 0.49002708E+00</totfact>
</mgrwt>
</event>
<event>
 6    1  0.1637818E-005  0.3424486E+04  0.7818608E-02  0.8131923E-01
          1   -1    0    0  501    0  0.00000000000E+00  0.00000000000E+00  0.16118134364E+04  0.16118134364E+04  0.00000000000E+00 0. -1.
         -1   -1    0    0    0  501 -0.00000000000E+00 -0.00000000000E+00 -0.18189298304E+04  0.18189298304E+04  0.00000000000E+00 0.  1.
         23    2    1    2    0    0 -0.42918342357E+02  0.76134151915E+03 -0.16381250617E+04  0.18092412779E+04  0.91746339961E+02 0.  0.
         11    1    3    3    0    0  0.10889253068E+02  0.25108249521E+03 -0.45849671073E+03  0.52285775215E+03  0.00000000000E+00 0.  1.
        -11    1    3    3    0    0 -0.53807595424E+02  0.51025902394E+03 -0.11796283510E+04  0.12863835257E+04  0.00000000000E+00 0. -1.
         22    1    1    2    0    0  0.42918342357E+02 -0.76134151915E+03  0.14310086678E+04  0.16215019889E+04  0.00000000000E+00 0. -1.
<mgrwt>
<rscale>  0 0.34244857E+04</rscale>
<asrwt>0</asrwt>
<pdfrwt beam="1">  1        1 0.24797130E+00 0.34244857E+04</pdfrwt>
<pdfrwt beam="2">  1       -1 0.27983536E+00 0.34244857E+04</pdfrwt>
<totfact> 0.20060812E-01</totfact>
</mgrwt>
</event>
<event>
 6    1  0.1749629E-005  0.3781116E+04  0.7818608E-02  0.8050219E-01
         -2   -1    0    0    0  501 -0.00000000000E+00  0.00000000000E+00  0.15304845216E+04  0.15304845216E+04  0.00000000000E+00 0.  1.
          2   -1    0    0  501    0  0.00000000000E+00 -0.00000000000E+00 -0.23353456574E+04  0.23353456574E+04  0.00000000000E+00 0. -1.
         23    2    1    2    0    0 -0.26727112260E+03 -0.23020084091E+03 -0.23004879105E+04  0.23291696019E+04  0.91433733988E+02 0.  0.
         11    1    3    3    0    0 -0.94911766837E+02 -0.30413412165E+02 -0.70506855875E+03  0.71207786910E+03  0.00000000000E+00 0.  1.
        -11    1    3    3    0    0 -0.17235935577E+03 -0.19978742874E+03 -0.15954193518E+04  0.16170917328E+04  0.00000000000E+00 0. -1.
         22    1    1    2    0    0  0.26727112260E+03  0.23020084091E+03  0.14956267747E+04  0.15366605771E+04  0.00000000000E+00 0.  1.
<mgrwt>
<rscale>  0 0.37811164E+04</rscale>
<asrwt>0</asrwt>
<pdfrwt beam="1">  1        2 0.35928395E+00 0.37811164E+04</pdfrwt>
<pdfrwt beam="2">  1       -2 0.23545916E+00 0.37811164E+04</pdfrwt>
<totfact> 0.27477490E-01</totfact>
</mgrwt>
</event>
<event>
 6    1  0.1637818E-005  0.2252568E+04  0.7818608E-02  0.8496861E-01
          1   -1    0    0  501    0  0.00000000000E+00  0.00000000000E+00  0.11645188483E+04  0.11645188483E+04  0.00000000000E+00 0. -1.
         -1   -1    0    0    0  501 -0.00000000000E+00 -0.00000000000E+00 -0.10893045566E+04  0.10893045566E+04  0.00000000000E+00 0.  1.
         23    2    1    2    0    0 -0.90034644837E+03 -0.18300256809E+03 -0.61099651355E+03  0.11070893746E+04  0.90644783348E+02 0.  0.
         13    1    3    3    0    0 -0.37402211606E+03 -0.45008040899E+02 -0.28933814099E+03  0.47501034397E+03  0.00000000000E+00 0. -1.
        -13    1    3    3    0    0 -0.52632433231E+03 -0.13799452719E+03 -0.32165837256E+03  0.63207903063E+03  0.00000000000E+00 0.  1.
         22    1    1    2    0    0  0.90034644837E+03  0.18300256809E+03  0.68621080524E+03  0.11467340303E+04  0.00000000000E+00 0. -1.
<mgrwt>
<rscale>  0 0.22525680E+04</rscale>
<asrwt>0</asrwt>
<pdfrwt beam="1">  1        1 0.17915675E+00 0.22525680E+04</pdfrwt>
<pdfrwt beam="2">  1       -1 0.16758532E+00 0.22525680E+04</pdfrwt>
<totfact> 0.26406088E+00</totfact>
</mgrwt>
</event>
<event>
 6    1  0.1637818E-005  0.2611178E+04  0.7818608E-02  0.8364414E-01
         -2   -1    0    0    0  501 -0.00000000000E+00  0.00000000000E+00  0.91220427649E+03  0.91220427649E+03  0.00000000000E+00 0.  1.
          2   -1    0    0  501    0  0.00000000000E+00 -0.00000000000E+00 -0.18686198833E+04  0.18686198833E+04  0.00000000000E+00 0. -1.
         23    2    1    2    0    0  0.12677860364E+04 -0.28468773461E+03 -0.59602899920E+03  0.14324150796E+04  0.90740575206E+02 0.  0.
         11    1    3    3    0    0  0.18401181008E+03 -0.96535805749E+01 -0.91386058220E+02  0.20568167032E+03  0.00000000000E+00 0. -1.
        -11    1    3    3    0    0  0.10837742264E+04 -0.27503415404E+03 -0.50464294098E+03  0.12267334093E+04  0.00000000000E+00 0.  1.
         22    1    1    2    0    0 -0.12677860364E+04  0.28468773461E+03 -0.36038660756E+03  0.13484090801E+04  0.00000000000E+00 0.  1.
<mgrwt>
<rscale>  0 0.26111783E+04</rscale>
<asrwt>0</asrwt>
<pdfrwt beam="1">  1        2 0.28747998E+00 0.26111783E+04</pdfrwt>
<pdfrwt beam="2">  1       -2 0.14033912E+00 0.26111783E+04</pdfrwt>
<totfact> 0.24933771E+00</totfact>
</mgrwt>
</event>
<event>
 6    1  0.1637818E-005  0.1593950E+04  0.7818608E-02  0.8824273E-01
         -1   -1    0    0    0  501 -0.00000000000E+00  0.00000000000E+00  0.28996148633E+03  0.28996148633E+03  0.00000000000E+00 0.  1.
          1   -1    0    0  501    0  0.00000000000E+00 -0.00000000000E+00 -0.21905298498E+04  0.21905298498E+04  0.00000000000E+00 0. -1.
         23    2    1    2    0    0 -0.40786788127E+03 -0.34839733172E+03 -0.41800790886E+02  0.54587152897E+03  0.92149393412E+02 0.  0.
         13    1    3    3    0    0 -0.12905846946E+03 -0.95189228890E+02 -0.53520555411E+02  0.16906072189E+03  0.00000000000E+00 0. -1.
        -13    1    3    3    0    0 -0.27880941181E+03 -0.25320810283E+03  0.11719764525E+02  0.37681080708E+03  0.00000000000E+00 0.  1.
         22    1    1    2    0    0  0.40786788127E+03  0.34839733172E+03 -0.18587675726E+04  0.19346198071E+04  0.00000000000E+00 0. -1.
<mgrwt>
<rscale>  0 0.15939502E+04</rscale>
<asrwt>0</asrwt>
<pdfrwt beam="1">  1        1 0.33700459E+00 0.15939502E+04</pdfrwt>
<pdfrwt beam="2">  1       -1 0.44609459E-01 0.15939502E+04</pdfrwt>
<totfact> 0.10576428E+01</totfact>
</mgrwt>
</event>
<event>
 6    1  0.1637818E-005  0.4170739E+03  0.7818608E-02  0.1038023E+00
          2   -1    0    0  501    0  0.00000000000E+00  0.00000000000E+00  0.18184784624E+03  0.18184784624E+03  0.00000000000E+00 0. -1.
         -2   -1    0    0    0  501 -0.00000000000E+00 -0.00000000000E+00 -0.23914306477E+03  0.23914306477E+03  0.00000000000E+00 0.  1.
         23    2    1    2    0    0 -0.89180308244E+02 -0.57270476249E+02  0.13891832840E+03  0.19798241157E+03  0.93089733579E+02 0.  0.
         11    1    3    3    0    0 -0.36637163413E+02  0.24268046566E+02  0.39643133524E+02  0.59184439363E+02  0.00000000000E+00 0. -1.
        -11    1    3    3    0    0 -0.52543144831E+02 -0.81538522815E+02  0.99275194871E+02  0.13879797221E+03  0.00000000000E+00 0.  1.
         22    1    1    2    0    0  0.89180308244E+02  0.57270476249E+02 -0.19621354692E+03  0.22300849944E+03  0.00000000000E+00 0.  1.
<mgrwt>
<rscale>  0 0.41707386E+03</rscale>
<asrwt>0</asrwt>
<pdfrwt beam="1">  1        2 0.27976592E-01 0.41707386E+03</pdfrwt>
<pdfrwt beam="2">  1       -2 0.36791241E-01 0.41707386E+03</pdfrwt>
<totfact> 0.13348973E+03</totfact>
</mgrwt>
</event>
<event>
 6    1  0.1637818E-005  0.2683216E+04  0.7818608E-02  0.8340471E-01
          2   -1    0    0  501    0  0.00000000000E+00  0.00000000000E+00  0.77278383367E+03  0.77278383367E+03  0.00000000000E+00 0. -1.
         -2   -1    0    0    0  501 -0.00000000000E+00 -0.00000000000E+00 -0.23291281136E+04  0.23291281136E+04  0.00000000000E+00 0.  1.
         23    2    1    2    0    0  0.10287782923E+04 -0.83353355507E+03 -0.54066483438E+03  0.14331496220E+04  0.91849952079E+02 0.  0.
         13    1    3    3    0    0  0.89638054956E+03 -0.71905928059E+03 -0.50141210119E+03  0.12537776652E+04  0.00000000000E+00 0.  1.
        -13    1    3    3    0    0  0.13239774274E+03 -0.11447427448E+03 -0.39252733190E+02  0.17937195674E+03  0.00000000000E+00 0. -1.
         22    1    1    2    0    0 -0.10287782923E+04  0.83353355507E+03 -0.10156794455E+04  0.16687623253E+04  0.00000000000E+00 0.  1.
<mgrwt>
<rscale>  0 0.26832164E+04</rscale>
<asrwt>0</asrwt>
<pdfrwt beam="1">  1        2 0.11888982E+00 0.26832164E+04</pdfrwt>
<pdfrwt beam="2">  1       -2 0.35832740E+00 0.26832164E+04</pdfrwt>
<totfact> 0.43661286E-01</totfact>
</mgrwt>
</event>
<event>
 6    1  0.1637818E-005  0.1357355E+04  0.7818608E-02  0.8985279E-01
          2   -1    0    0  501    0  0.00000000000E+00  0.00000000000E+00  0.98150751843E+03  0.98150751843E+03  0.00000000000E+00 0. -1.
         -2   -1    0    0    0  501 -0.00000000000E+00 -0.00000000000E+00 -0.46928100701E+03  0.46928100701E+03  0.00000000000E+00 0.  1.
         23    2    1    2    0    0  0.31950938184E+03 -0.30308056784E+03  0.80410344631E+03  0.92245508829E+03  0.10196549351E+03 0.  0.
         13    1    3    3    0    0  0.14284748910E+03 -0.19888434344E+03  0.39331797714E+03  0.46331352058E+03  0.00000000000E+00 0.  1.
        -13    1    3    3    0    0  0.17666189274E+03 -0.10419622440E+03  0.41078546917E+03  0.45914156772E+03  0.00000000000E+00 0. -1.
         22    1    1    2    0    0 -0.31950938184E+03  0.30308056784E+03 -0.29187693488E+03  0.52833343714E+03  0.00000000000E+00 0.  1.
<mgrwt>
<rscale>  0 0.13573545E+04</rscale>
<asrwt>0</asrwt>
<pdfrwt beam="1">  1        2 0.15100116E+00 0.13573545E+04</pdfrwt>
<pdfrwt beam="2">  1       -2 0.72197078E-01 0.13573545E+04</pdfrwt>
<totfact> 0.43919196E+01</totfact>
</mgrwt>
</event>
<event>
 6    1  0.1637818E-005  0.1506051E+04  0.7818608E-02  0.8880439E-01
          1   -1    0    0  501    0  0.00000000000E+00  0.00000000000E+00  0.25781025644E+03  0.25781025644E+03  0.00000000000E+00 0. -1.
         -1   -1    0    0    0  501 -0.00000000000E+00 -0.00000000000E+00 -0.21994756830E+04  0.21994756830E+04  0.00000000000E+00 0.  1.
         23    2    1    2    0    0  0.72796257677E+02  0.64964046350E+03 -0.15751344724E+04  0.17078348288E+04  0.91209479756E+02 0.  0.
         11    1    3    3    0    0  0.80144491430E+02  0.52951111511E+03 -0.13541249337E+04  0.14561797611E+04  0.00000000000E+00 0. -1.
        -11    1    3    3    0    0 -0.73482337529E+01  0.12012934839E+03 -0.22100953872E+03  0.25165506769E+03  0.00000000000E+00 0.  1.
         22    1    1    2    0    0 -0.72796257677E+02 -0.64964046350E+03 -0.36653095416E+03  0.74945111069E+03  0.00000000000E+00 0. -1.
<mgrwt>
<rscale>  0 0.15060510E+04</rscale>
<asrwt>0</asrwt>
<pdfrwt beam="1">  1        1 0.39663118E-01 0.15060510E+04</pdfrwt>
<pdfrwt beam="2">  1       -1 0.33838086E+00 0.15060510E+04</pdfrwt>
<totfact> 0.19241575E+00</totfact>
</mgrwt>
</event>
<event>
 6    1  0.1637818E-005  0.3837756E+04  0.7818608E-02  0.8038101E-01
         -1   -1    0    0    0  501 -0.00000000000E+00  0.00000000000E+00  0.27893404119E+04  0.27893404119E+04  0.00000000000E+00 0.  1.
          1   -1    0    0  501    0  0.00000000000E+00 -0.00000000000E+00 -0.13200584048E+04  0.13200584048E+04  0.00000000000E+00 0. -1.
         23    2    1    2    0    0 -0.17059174598E+04 -0.49748340864E+03  0.15073514463E+04  0.23320149517E+04  0.92418779967E+02 0.  0.
         13    1    3    3    0    0 -0.11471957994E+04 -0.36783927169E+03  0.98275509874E+03  0.15547255436E+04  0.00000000000E+00 0. -1.
        -13    1    3    3    0    0 -0.55872166038E+03 -0.12964413696E+03  0.52459634755E+03  0.77728940806E+03  0.00000000000E+00 0.  1.
         22    1    1    2    0    0  0.17059174598E+04  0.49748340864E+03 -0.38069439250E+02  0.17773838650E+04  0.00000000000E+00 0. -1.
<mgrwt>
<rscale>  0 0.38377557E+04</rscale>
<asrwt>0</asrwt>
<pdfrwt beam="1">  1        1 0.20308591E+00 0.38377557E+04</pdfrwt>
<pdfrwt beam="2">  1       -1 0.42912929E+00 0.38377557E+04</pdfrwt>
<totfact> 0.31285279E-02</totfact>
</mgrwt>
</event>
<event>
 6    1  0.1637818E-005  0.4282689E+04  0.7818608E-02  0.7949827E-01
         -2   -1    0    0    0  501 -0.00000000000E+00  0.00000000000E+00  0.27095029514E+04  0.27095029514E+04  0.00000000000E+00 0.  1.
          2   -1    0    0  501    0  0.00000000000E+00 -0.00000000000E+00 -0.16923238127E+04  0.16923238127E+04  0.00000000000E+00 0. -1.
         23    2    1    2    0    0  0.50013231795E+03 -0.19954428209E+04  0.11163629230E+04  0.23422729750E+04  0.89733642526E+02 0.  0.
         11    1    3    3    0    0  0.15432306694E+03 -0.78326788627E+03  0.45096847696E+03  0.91689517278E+03  0.00000000000E+00 0. -1.
        -11    1    3    3    0    0  0.34580925101E+03 -0.12121749346E+04  0.66539444599E+03  0.14253778022E+04  0.00000000000E+00 0.  1.
         22    1    1    2    0    0 -0.50013231795E+03  0.19954428209E+04 -0.99183784223E+02  0.20595537891E+04  0.00000000000E+00 0. -1.
<mgrwt>
<rscale>  0 0.42826890E+04</rscale>
<asrwt>0</asrwt>
<pdfrwt beam="1">  1        2 0.26035751E+00 0.42826890E+04</pdfrwt>
<pdfrwt beam="2">  1       -2 0.41684661E+00 0.42826890E+04</pdfrwt>
<totfact> 0.43929726E-02</totfact>
</mgrwt>
</event>
<event>
 6    1  0.1637818E-005  0.1337540E+04  0.7818608E-02  0.9000314E-01
          2   -1    0    0  501    0  0.00000000000E+00  0.00000000000E+00  0.93896948948E+03  0.93896948948E+03  0.00000000000E+00 0. -1.
         -2   -1    0    0    0  501 -0.00000000000E+00 -0.00000000000E+00 -0.47632353193E+03  0.47632353193E+03  0.00000000000E+00 0.  1.
         23    2    1    2    0    0  0.95606950501E+02  0.46710271679E+03 -0.25922387160E+03  0.55017933682E+03  0.90413771312E+02 0.  0.
         11    1    3    3    0    0  0.24866517350E+02  0.26033835206E+03 -0.18108933803E+03  0.31810021940E+03  0.00000000000E+00 0.  1.
        -11    1    3    3    0    0  0.70740433151E+02  0.20676436474E+03 -0.78134533571E+02  0.23207911742E+03  0.00000000000E+00 0. -1.
         22    1    1    2    0    0 -0.95606950501E+02 -0.46710271679E+03  0.72186982915E+03  0.86511368459E+03  0.00000000000E+00 0. -1.
<mgrwt>
<rscale>  0 0.13375399E+04</rscale>
<asrwt>0</asrwt>
<pdfrwt beam="1">  1        2 0.14445684E+00 0.13375399E+04</pdfrwt>
<pdfrwt beam="2">  1       -2 0.73280543E-01 0.13375399E+04</pdfrwt>
<totfact> 0.45386109E+01</totfact>
</mgrwt>
</event>
<event>
 6    1  0.1637818E-005  0.2271662E+04  0.7818608E-02  0.8489179E-01
          1   -1    0    0  501    0  0.00000000000E+00  0.00000000000E+00  0.85062770796E+03  0.85062770796E+03  0.00000000000E+00 0. -1.
         -1   -1    0    0    0  501 -0.00000000000E+00 -0.00000000000E+00 -0.15166587250E+04  0.15166587250E+04  0.00000000000E+00 0.  1.
         23    2    1    2    0    0 -0.10249648245E+04  0.96046898829E+02  0.16204498971E+03  0.10461173404E+04  0.91241508686E+02 0.  0.
         11    1    3    3    0    0 -0.15616202315E+02  0.13335951990E+02  0.21240567943E+00  0.20536759880E+02  0.00000000000E+00 0.  1.
        -11    1    3    3    0    0 -0.10093486222E+04  0.82710946839E+02  0.16183258403E+03  0.10255805805E+04  0.00000000000E+00 0. -1.
         22    1    1    2    0    0  0.10249648245E+04 -0.96046898829E+02 -0.82807600672E+03  0.13211690926E+04  0.00000000000E+00 0.  1.
<mgrwt>
<rscale>  0 0.22716619E+04</rscale>
<asrwt>0</asrwt>
<pdfrwt beam="1">  1        1 0.13086580E+00 0.22716619E+04</pdfrwt>
<pdfrwt beam="2">  1       -1 0.23333211E+00 0.22716619E+04</pdfrwt>
<totfact> 0.16259220E+00</totfact>
</mgrwt>
</event>
<event>
 6    1  0.1637818E-005  0.4388451E+04  0.7818608E-02  0.7930462E-01
          2   -1    0    0  501    0  0.00000000000E+00  0.00000000000E+00  0.35725428230E+04  0.35725428230E+04  0.00000000000E+00 0. -1.
         -2   -1    0    0    0  501 -0.00000000000E+00 -0.00000000000E+00 -0.13476745895E+04  0.13476745895E+04  0.00000000000E+00 0.  1.
         23    2    1    2    0    0 -0.12580485150E+04 -0.53985929798E+03 -0.80835630436E+03  0.15923674723E+04  0.89778195720E+02 0.  0.
         11    1    3    3    0    0 -0.94123994238E+03 -0.36374551125E+03 -0.57806336622E+03  0.11629276338E+04  0.00000000000E+00 0.  1.
        -11    1    3    3    0    0 -0.31680857264E+03 -0.17611378673E+03 -0.23029293814E+03  0.42943983855E+03  0.00000000000E+00 0. -1.
         22    1    1    2    0    0  0.12580485150E+04  0.53985929798E+03  0.30332245378E+04  0.33278499402E+04  0.00000000000E+00 0. -1.
<mgrwt>
<rscale>  0 0.43884508E+04</rscale>
<asrwt>0</asrwt>
<pdfrwt beam="1">  1        2 0.54962197E+00 0.43884508E+04</pdfrwt>
<pdfrwt beam="2">  1       -2 0.20733455E+00 0.43884508E+04</pdfrwt>
<totfact> 0.65658036E-02</totfact>
</mgrwt>
</event>
<event>
 6    1  0.1637818E-005  0.4606089E+03  0.7818608E-02  0.1024605E+00
          2   -1    0    0  501    0  0.00000000000E+00  0.00000000000E+00  0.54938496084E+03  0.54938496084E+03  0.00000000000E+00 0. -1.
         -2   -1    0    0    0  501 -0.00000000000E+00 -0.00000000000E+00 -0.96544584335E+02  0.96544584335E+02  0.00000000000E+00 0.  1.
         23    2    1    2    0    0 -0.17328364751E+03 -0.47591468510E+02  0.41705580899E+03  0.46270098397E+03  0.88681916920E+02 0.  0.
         13    1    3    3    0    0 -0.38567921773E+02 -0.26988122328E+01  0.19734999452E+03  0.20110143837E+03  0.00000000000E+00 0. -1.
        -13    1    3    3    0    0 -0.13471572573E+03 -0.44892656277E+02  0.21970581447E+03  0.26159954560E+03  0.00000000000E+00 0.  1.
         22    1    1    2    0    0  0.17328364751E+03  0.47591468510E+02  0.35784567514E+02  0.18322856120E+03  0.00000000000E+00 0.  1.
<mgrwt>
<rscale>  0 0.46060891E+03</rscale>
<asrwt>0</asrwt>
<pdfrwt beam="1">  1        2 0.84520762E-01 0.46060891E+03</pdfrwt>
<pdfrwt beam="2">  1       -2 0.14853013E-01 0.46060891E+03</pdfrwt>
<totfact> 0.19562869E+03</totfact>
</mgrwt>
</event>
<event>
 6    1  0.1637818E-005  0.1302083E+04  0.7818608E-02  0.9027915E-01
          2   -1    0    0  501    0  0.00000000000E+00  0.00000000000E+00  0.32881152020E+03  0.32881152020E+03  0.00000000000E+00 0.  1.
         -2   -1    0    0    0  501 -0.00000000000E+00 -0.00000000000E+00 -0.12890510023E+04  0.12890510023E+04  0.00000000000E+00 0. -1.
         23    2    1    2    0    0  0.17459919782E+03  0.15348790771E+03 -0.12337436553E+04  0.12589085556E+04  0.93187588303E+02 0.  0.
         13    1    3    3    0    0  0.93201372202E+01  0.54264109142E+02 -0.35706497010E+03  0.36128500020E+03  0.00000000000E+00 0.  1.
        -13    1    3    3    0    0  0.16527906060E+03  0.99223798563E+02 -0.87667868518E+03  0.89762355536E+03  0.00000000000E+00 0. -1.
         22    1    1    2    0    0 -0.17459919782E+03 -0.15348790771E+03  0.27350417314E+03  0.35895396699E+03  0.00000000000E+00 0.  1.
<mgrwt>
<rscale>  0 0.13020827E+04</rscale>
<asrwt>0</asrwt>
<pdfrwt beam="1">  1        2 0.50586387E-01 0.13020827E+04</pdfrwt>
<pdfrwt beam="2">  1       -2 0.19831554E+00 0.13020827E+04</pdfrwt>
<totfact> 0.13239836E+01</totfact>
</mgrwt>
</event>
<event>
 6    1  0.1637818E-005  0.1427490E+04  0.7818608E-02  0.8934157E-01
          1   -1    0    0  501    0  0.00000000000E+00  0.00000000000E+00  0.24623327285E+03  0.24623327285E+03  0.00000000000E+00 0. -1.
         -1   -1    0    0    0  501 -0.00000000000E+00 -0.00000000000E+00 -0.20688998898E+04  0.20688998898E+04  0.00000000000E+00 0.  1.
         23    2    1    2    0    0 -0.60949191307E+03 -0.28035513725E+03 -0.12965177234E+04  0.14625417873E+04  0.89391708271E+02 0.  0.
         13    1    3    3    0    0 -0.46667907733E+03 -0.19291765616E+03 -0.89752117345E+03  0.10298304909E+04  0.00000000000E+00 0. -1.
        -13    1    3    3    0    0 -0.14281283575E+03 -0.87437481097E+02 -0.39899654993E+03  0.43271129637E+03  0.00000000000E+00 0.  1.
         22    1    1    2    0    0  0.60949191307E+03  0.28035513725E+03 -0.52614889356E+03  0.85259137533E+03  0.00000000000E+00 0. -1.
<mgrwt>
<rscale>  0 0.14274901E+04</rscale>
<asrwt>0</asrwt>
<pdfrwt beam="1">  1        1 0.37882040E-01 0.14274901E+04</pdfrwt>
<pdfrwt beam="2">  1       -1 0.31829231E+00 0.14274901E+04</pdfrwt>
<totfact> 0.27833191E+00</totfact>
</mgrwt>
</event>
<event>
 6    1  0.1637818E-005  0.2488745E+04  0.7818608E-02  0.8407006E-01
          1   -1    0    0  501    0  0.00000000000E+00  0.00000000000E+00  0.21114565828E+04  0.21114565828E+04  0.00000000000E+00 0. -1.
         -1   -1    0    0    0  501 -0.00000000000E+00 -0.00000000000E+00 -0.73336239546E+03  0.73336239546E+03  0.00000000000E+00 0.  1.
         23    2    1    2    0    0 -0.10253939771E+04 -0.57932492423E+03  0.23672787503E+03  0.12047679928E+04  0.91518597336E+02 0.  0.
         11    1    3    3    0    0 -0.35482395723E+03 -0.21281290757E+03  0.40150438597E+02  0.41569391621E+03  0.00000000000E+00 0.  1.
        -11    1    3    3    0    0 -0.67057001982E+03 -0.36651201666E+03  0.19657743643E+03  0.78907407660E+03  0.00000000000E+00 0. -1.
         22    1    1    2    0    0  0.10253939771E+04  0.57932492423E+03  0.11413663123E+04  0.16400509854E+04  0.00000000000E+00 0. -1.
<mgrwt>
<rscale>  0 0.24887450E+04</rscale>
<asrwt>0</asrwt>
<pdfrwt beam="1">  1        1 0.32483947E+00 0.24887450E+04</pdfrwt>
<pdfrwt beam="2">  1       -1 0.11282498E+00 0.24887450E+04</pdfrwt>
<totfact> 0.15990360E+00</totfact>
</mgrwt>
</event>
<event>
 6    1  0.2201071E-005  0.2980445E+04  0.7818608E-02  0.8249337E-01
         -2   -1    0    0    0  501 -0.00000000000E+00  0.00000000000E+00  0.69542100059E+03  0.69542100059E+03  0.00000000000E+00 0.  1.
          2   -1    0    0  501    0  0.00000000000E+00 -0.00000000000E+00 -0.31934082655E+04  0.31934082655E+04  0.00000000000E+00 0. -1.
         23    2    1    2    0    0 -0.12159220682E+04  0.44812486511E+03 -0.29373070961E+03  0.13318722207E+04  0.91233281664E+02 0.  0.
         13    1    3    3    0    0 -0.63376538146E+03  0.25245417203E+03 -0.11151381090E+03  0.69125031482E+03  0.00000000000E+00 0. -1.
        -13    1    3    3    0    0 -0.58215668675E+03  0.19567069308E+03 -0.18221689872E+03  0.64062190583E+03  0.00000000000E+00 0.  1.
         22    1    1    2    0    0  0.12159220682E+04 -0.44812486511E+03 -0.22042565553E+04  0.25569570455E+04  0.00000000000E+00 0. -1.
<mgrwt>
<rscale>  0 0.29804450E+04</rscale>
<asrwt>0</asrwt>
<pdfrwt beam="1">  1        2 0.49129359E+00 0.29804450E+04</pdfrwt>
<pdfrwt beam="2">  1       -2 0.10698784E+00 0.29804450E+04</pdfrwt>
<totfact> 0.78844673E-01</totfact>
</mgrwt>
</event>
<event>
 6    1  0.1637818E-005  0.3186354E+04  0.7818608E-02  0.8192430E-01
         -2   -1    0    0    0  501 -0.00000000000E+00  0.00000000000E+00  0.67429613154E+03  0.67429613154E+03  0.00000000000E+00 0.  1.
          2   -1    0    0  501    0  0.00000000000E+00 -0.00000000000E+00 -0.37642395758E+04  0.37642395758E+04  0.00000000000E+00 0. -1.
         23    2    1    2    0    0 -0.94861744605E+03  0.87615007940E+03 -0.24968793183E+03  0.13185092016E+04  0.92781629718E+02 0.  0.
         13    1    3    3    0    0 -0.11308352741E+03  0.14583267961E+03 -0.24329704731E+02  0.18613701713E+03  0.00000000000E+00 0. -1.
        -13    1    3    3    0    0 -0.83553391864E+03  0.73031739979E+03 -0.22535822710E+03  0.11323721845E+04  0.00000000000E+00 0.  1.
         22    1    1    2    0    0  0.94861744605E+03 -0.87615007940E+03 -0.28402555124E+04  0.31200265057E+04  0.00000000000E+00 0. -1.
<mgrwt>
<rscale>  0 0.31863535E+04</rscale>
<asrwt>0</asrwt>
<pdfrwt beam="1">  1        2 0.57911377E+00 0.31863535E+04</pdfrwt>
<pdfrwt beam="2">  1       -2 0.10373787E+00 0.31863535E+04</pdfrwt>
<totfact> 0.33296501E-01</totfact>
</mgrwt>
</event>
<event>
 6    1  0.1637818E-005  0.7416121E+03  0.7818608E-02  0.9648602E-01
          1   -1    0    0  501    0  0.00000000000E+00  0.00000000000E+00  0.27424225765E+04  0.27424225765E+04  0.00000000000E+00 0. -1.
         -1   -1    0    0    0  501 -0.00000000000E+00 -0.00000000000E+00 -0.50137109116E+02  0.50137109116E+02  0.00000000000E+00 0.  1.
         23    2    1    2    0    0 -0.88243896822E+02 -0.10614903112E+03  0.26396516612E+04  0.26448270904E+04  0.91076031884E+02 0.  0.
         13    1    3    3    0    0 -0.50867153352E+02 -0.84993724983E+01  0.50760731493E+03  0.51022043549E+03  0.00000000000E+00 0. -1.
        -13    1    3    3    0    0 -0.37376743470E+02 -0.97649658619E+02  0.21320443462E+04  0.21346066549E+04  0.00000000000E+00 0.  1.
         22    1    1    2    0    0  0.88243896822E+02  0.10614903112E+03  0.52633806196E+02  0.14773259521E+03  0.00000000000E+00 0.  1.
<mgrwt>
<rscale>  0 0.74161214E+03</rscale>
<asrwt>0</asrwt>
<pdfrwt beam="1">  1        1 0.42191105E+00 0.74161214E+03</pdfrwt>
<pdfrwt beam="2">  1       -1 0.77134035E-02 0.74161214E+03</pdfrwt>
<totfact> 0.91339998E+01</totfact>
</mgrwt>
</event>
<event>
 6    1  0.1637818E-005  0.2384786E+04  0.7818608E-02  0.8445221E-01
          2   -1    0    0  501    0  0.00000000000E+00  0.00000000000E+00  0.71267909281E+03  0.71267909281E+03  0.00000000000E+00 0. -1.
         -2   -1    0    0    0  501 -0.00000000000E+00 -0.00000000000E+00 -0.19950091494E+04  0.19950091494E+04  0.00000000000E+00 0.  1.
         23    2    1    2    0    0 -0.11156085498E+04 -0.28250112436E+03 -0.29535931974E+03  0.11916075857E+04  0.91116348184E+02 0.  0.
         13    1    3    3    0    0 -0.69411409807E+03 -0.13008026484E+03 -0.18389345372E+03  0.72974794194E+03  0.00000000000E+00 0.  1.
        -13    1    3    3    0    0 -0.42149445172E+03 -0.15242085952E+03 -0.11146586602E+03  0.46185964377E+03  0.00000000000E+00 0. -1.
         22    1    1    2    0    0  0.11156085498E+04  0.28250112436E+03 -0.98697073684E+03  0.15160806565E+04  0.00000000000E+00 0.  1.
<mgrwt>
<rscale>  0 0.23847862E+04</rscale>
<asrwt>0</asrwt>
<pdfrwt beam="1">  1        2 0.10964294E+00 0.23847862E+04</pdfrwt>
<pdfrwt beam="2">  1       -2 0.30692448E+00 0.23847862E+04</pdfrwt>
<totfact> 0.10396522E+00</totfact>
</mgrwt>
</event>
<event>
 6    1  0.1637818E-005  0.2754497E+04  0.7818608E-02  0.8317536E-01
          2   -1    0    0  501    0  0.00000000000E+00  0.00000000000E+00  0.22062942193E+04  0.22062942193E+04  0.00000000000E+00 0. -1.
         -2   -1    0    0    0  501 -0.00000000000E+00 -0.00000000000E+00 -0.85972831490E+03  0.85972831490E+03  0.00000000000E+00 0.  1.
         23    2    1    2    0    0  0.17937304973E+03 -0.35101887352E+03  0.21410689103E+04  0.21791042928E+04  0.94501321002E+02 0.  0.
         13    1    3    3    0    0  0.34708703125E+02 -0.80946999023E+02  0.72111743181E+03  0.72647605686E+03  0.00000000000E+00 0.  1.
        -13    1    3    3    0    0  0.14466434661E+03 -0.27007187450E+03  0.14199514785E+04  0.14526282360E+04  0.00000000000E+00 0. -1.
         22    1    1    2    0    0 -0.17937304973E+03  0.35101887352E+03 -0.79450300591E+03  0.88691824141E+03  0.00000000000E+00 0.  1.
<mgrwt>
<rscale>  0 0.27544971E+04</rscale>
<asrwt>0</asrwt>
<pdfrwt beam="1">  1        2 0.33942988E+00 0.27544971E+04</pdfrwt>
<pdfrwt beam="2">  1       -2 0.13226590E+00 0.27544971E+04</pdfrwt>
<totfact> 0.18592755E+00</totfact>
</mgrwt>
</event>
<event>
 6    1  0.1637818E-005  0.4053203E+03  0.7818608E-02  0.1041953E+00
          1   -1    0    0  501    0  0.00000000000E+00  0.00000000000E+00  0.10184263280E+04  0.10184263280E+04  0.00000000000E+00 0. -1.
         -1   -1    0    0    0  501 -0.00000000000E+00 -0.00000000000E+00 -0.40328045734E+02  0.40328045734E+02  0.00000000000E+00 0.  1.
         23    2    1    2    0    0 -0.18545406479E+03  0.51923063088E+02  0.52653879385E+03  0.56784176827E+03  0.90066407336E+02 0.  0.
         11    1    3    3    0    0  0.52589694955E+01  0.17631934706E+00 -0.18982918253E+00  0.52653474516E+01  0.00000000000E+00 0.  1.
        -11    1    3    3    0    0 -0.19071303429E+03  0.51746743741E+02  0.52672862304E+03  0.56257642082E+03  0.00000000000E+00 0. -1.
         22    1    1    2    0    0  0.18545406479E+03 -0.51923063088E+02  0.45155948840E+03  0.49091260545E+03  0.00000000000E+00 0. -1.
<mgrwt>
<rscale>  0 0.40532034E+03</rscale>
<asrwt>0</asrwt>
<pdfrwt beam="1">  1        1 0.15668095E+00 0.40532034E+03</pdfrwt>
<pdfrwt beam="2">  1       -1 0.62043155E-02 0.40532034E+03</pdfrwt>
<totfact> 0.19687838E+03</totfact>
</mgrwt>
</event>
<event>
 6    1  0.1637818E-005  0.1168208E+04  0.7818608E-02  0.9141148E-01
          2   -1    0    0  501    0  0.00000000000E+00  0.00000000000E+00  0.21191598625E+04  0.21191598625E+04  0.00000000000E+00 0. -1.
         -2   -1    0    0    0  501 -0.00000000000E+00 -0.00000000000E+00 -0.16099665169E+03  0.16099665169E+03  0.00000000000E+00 0.  1.
         23    2    1    2    0    0 -0.53615050846E+03 -0.10585171650E+03  0.13656498086E+04  0.14740956695E+04  0.96419341504E+02 0.  0.
         11    1    3    3    0    0 -0.11960660486E+03  0.37543157215E+01  0.22520803847E+03  0.25502646021E+03  0.00000000000E+00 0.  1.
        -11    1    3    3    0    0 -0.41654390360E+03 -0.10960603222E+03  0.11404417701E+04  0.12190692093E+04  0.00000000000E+00 0. -1.
         22    1    1    2    0    0  0.53615050846E+03  0.10585171650E+03  0.59251340227E+03  0.80606084477E+03  0.00000000000E+00 0.  1.
<mgrwt>
<rscale>  0 0.11682083E+04</rscale>
<asrwt>0</asrwt>
<pdfrwt beam="1">  1        2 0.32602457E+00 0.11682083E+04</pdfrwt>
<pdfrwt beam="2">  1       -2 0.24768717E-01 0.11682083E+04</pdfrwt>
<totfact> 0.82911618E+01</totfact>
</mgrwt>
</event>
<event>
 6    1  0.1637818E-005  0.6136188E+03  0.7818608E-02  0.9877547E-01
          1   -1    0    0  501    0  0.00000000000E+00  0.00000000000E+00  0.16270322820E+03  0.16270322820E+03  0.00000000000E+00 0. -1.
         -1   -1    0    0    0  501 -0.00000000000E+00 -0.00000000000E+00 -0.57855031943E+03  0.57855031943E+03  0.00000000000E+00 0.  1.
         23    2    1    2    0    0 -0.74544074701E+02 -0.28916480708E+03 -0.24996123025E+03  0.39965257633E+03  0.89824609162E+02 0.  0.
         13    1    3    3    0    0 -0.35449952367E+02 -0.19519088162E+03 -0.11075696485E+03  0.22720758053E+03  0.00000000000E+00 0. -1.
        -13    1    3    3    0    0 -0.39094122334E+02 -0.93973925459E+02 -0.13920426541E+03  0.17244499580E+03  0.00000000000E+00 0.  1.
         22    1    1    2    0    0  0.74544074701E+02  0.28916480708E+03 -0.16588586097E+03  0.34160097130E+03  0.00000000000E+00 0. -1.
<mgrwt>
<rscale>  0 0.61361879E+03</rscale>
<asrwt>0</asrwt>
<pdfrwt beam="1">  1        1 0.25031266E-01 0.61361879E+03</pdfrwt>
<pdfrwt beam="2">  1       -1 0.89007740E-01 0.61361879E+03</pdfrwt>
<totfact> 0.24529731E+02</totfact>
</mgrwt>
</event>
<event>
 6    1  0.1637818E-005  0.2465159E+04  0.7818608E-02  0.8415504E-01
         -1   -1    0    0    0  501 -0.00000000000E+00  0.00000000000E+00  0.50272801336E+03  0.50272801336E+03  0.00000000000E+00 0.  1.
          1   -1    0    0  501    0  0.00000000000E+00 -0.00000000000E+00 -0.30220173531E+04  0.30220173531E+04  0.00000000000E+00 0. -1.
         23    2    1    2    0    0  0.87410569161E+03  0.66397828206E+03 -0.46514948299E+03  0.11957072667E+04  0.91781843934E+02 0.  0.
         13    1    3    3    0    0  0.45738434974E+03  0.40184810600E+03 -0.24164074362E+03  0.65503632927E+03  0.00000000000E+00 0. -1.
        -13    1    3    3    0    0  0.41672134187E+03  0.26213017606E+03 -0.22350873937E+03  0.54067093740E+03  0.00000000000E+00 0.  1.
         22    1    1    2    0    0 -0.87410569161E+03 -0.66397828206E+03 -0.20541398568E+04  0.23290380998E+04  0.00000000000E+00 0. -1.
<mgrwt>
<rscale>  0 0.24651595E+04</rscale>
<asrwt>0</asrwt>
<pdfrwt beam="1">  1        1 0.46492574E+00 0.24651595E+04</pdfrwt>
<pdfrwt beam="2">  1       -1 0.77342773E-01 0.24651595E+04</pdfrwt>
<totfact> 0.86023023E-01</totfact>
</mgrwt>
</event>
<event>
 6    1  0.1637818E-005  0.2978587E+04  0.7818608E-02  0.8249872E-01
         -1   -1    0    0    0  501 -0.00000000000E+00  0.00000000000E+00  0.12356703105E+04  0.12356703105E+04  0.00000000000E+00 0.  1.
          1   -1    0    0  501    0  0.00000000000E+00 -0.00000000000E+00 -0.17949732486E+04  0.17949732486E+04  0.00000000000E+00 0. -1.
         23    2    1    2    0    0 -0.50057826185E+02  0.88377834636E+03 -0.14967814834E+04  0.17412886915E+04  0.90341278433E+02 0.  0.
         13    1    3    3    0    0  0.86973148076E+01  0.59232519003E+03 -0.98503499425E+03  0.11494427841E+04  0.00000000000E+00 0. -1.
        -13    1    3    3    0    0 -0.58755140993E+02  0.29145315632E+03 -0.51174648919E+03  0.59184590742E+03  0.00000000000E+00 0.  1.
         22    1    1    2    0    0  0.50057826185E+02 -0.88377834636E+03  0.93747854533E+03  0.12893548675E+04  0.00000000000E+00 0.  1.
<mgrwt>
<rscale>  0 0.29785870E+04</rscale>
<asrwt>0</asrwt>
<pdfrwt beam="1">  1        1 0.27614973E+00 0.29785870E+04</pdfrwt>
<pdfrwt beam="2">  1       -1 0.19010313E+00 0.29785870E+04</pdfrwt>
<totfact> 0.61762679E-01</totfact>
</mgrwt>
</event>
<event>
 6    1  0.1637818E-005  0.1284899E+04  0.7818608E-02  0.9041627E-01
         -2   -1    0    0    0  501 -0.00000000000E+00  0.00000000000E+00  0.24026775181E+03  0.24026775181E+03  0.00000000000E+00 0.  1.
          2   -1    0    0  501    0  0.00000000000E+00 -0.00000000000E+00 -0.17178387377E+04  0.17178387377E+04  0.00000000000E+00 0. -1.
         23    2    1    2    0    0  0.27346128445E+03 -0.39516640281E+03 -0.13850290666E+04  0.14687175165E+04  0.88814797243E+02 0.  0.
         13    1    3    3    0    0  0.27801082063E+02 -0.10363776156E+03 -0.28871580615E+03  0.30801055584E+03  0.00000000000E+00 0.  1.
        -13    1    3    3    0    0  0.24566020239E+03 -0.29152864124E+03 -0.10963132604E+04  0.11607069607E+04  0.00000000000E+00 0. -1.
         22    1    1    2    0    0 -0.27346128445E+03  0.39516640281E+03 -0.92541919322E+02  0.48938897294E+03  0.00000000000E+00 0.  1.
<mgrwt>
<rscale>  0 0.12848988E+04</rscale>
<asrwt>0</asrwt>
<pdfrwt beam="1">  1        2 0.26428288E+00 0.12848988E+04</pdfrwt>
<pdfrwt beam="2">  1       -2 0.36964270E-01 0.12848988E+04</pdfrwt>
<totfact> 0.64854066E+01</totfact>
</mgrwt>
</event>
<event>
 6    1  0.1637818E-005  0.4309730E+04  0.7818608E-02  0.7944821E-01
          2   -1    0    0  501    0  0.00000000000E+00  0.00000000000E+00  0.10745663703E+04  0.10745663703E+04  0.00000000000E+00 0. -1.
         -2   -1    0    0    0  501 -0.00000000000E+00 -0.00000000000E+00 -0.43212249831E+04  0.43212249831E+04  0.00000000000E+00 0.  1.
         23    2    1    2    0    0  0.45190004663E+03 -0.14907643441E+04  0.23828682019E+03  0.15785362333E+04  0.91673602177E+02 0.  0.
         11    1    3    3    0    0  0.16836210720E+03 -0.41959800453E+03  0.55632912602E+02  0.45552530722E+03  0.00000000000E+00 0.  1.
        -11    1    3    3    0    0  0.28353793943E+03 -0.10711663396E+04  0.18265390759E+03  0.11230109261E+04  0.00000000000E+00 0. -1.
         22    1    1    2    0    0 -0.45190004663E+03  0.14907643441E+04 -0.34849454329E+04  0.38172551201E+04  0.00000000000E+00 0.  1.
<mgrwt>
<rscale>  0 0.43097299E+04</rscale>
<asrwt>0</asrwt>
<pdfrwt beam="1">  1        2 0.16531790E+00 0.43097299E+04</pdfrwt>
<pdfrwt beam="2">  1       -2 0.66480384E+00 0.43097299E+04</pdfrwt>
<totfact> 0.52258430E-03</totfact>
</mgrwt>
</event>
<event>
 6    1  0.1637818E-005  0.3474065E+04  0.7818608E-02  0.8119964E-01
          2   -1    0    0  501    0  0.00000000000E+00  0.00000000000E+00  0.15625471054E+04  0.15625471054E+04  0.00000000000E+00 0. -1.
         -2   -1    0    0    0  501 -0.00000000000E+00 -0.00000000000E+00 -0.19310022088E+04  0.19310022088E+04  0.00000000000E+00 0.  1.
         23    2    1    2    0    0 -0.17030227367E+04 -0.13298059697E+02 -0.52242376477E+03  0.17835289549E+04  0.87095710130E+02 0.  0.
         13    1    3    3    0    0 -0.92565385129E+03  0.25168056373E+02 -0.25363837595E+03  0.96010463452E+03  0.00000000000E+00 0. -1.
        -13    1    3    3    0    0 -0.77736888545E+03 -0.38466116071E+02 -0.26878538882E+03  0.82342432038E+03  0.00000000000E+00 0.  1.
         22    1    1    2    0    0  0.17030227367E+04  0.13298059697E+02  0.15396866138E+03  0.17100203592E+04  0.00000000000E+00 0.  1.
<mgrwt>
<rscale>  0 0.34740650E+04</rscale>
<asrwt>0</asrwt>
<pdfrwt beam="1">  1        2 0.24039186E+00 0.34740650E+04</pdfrwt>
<pdfrwt beam="2">  1       -2 0.29707726E+00 0.34740650E+04</pdfrwt>
<totfact> 0.31918719E-01</totfact>
</mgrwt>
</event>
<event>
 6    1  0.1637818E-005  0.1527606E+04  0.7818608E-02  0.8866300E-01
          2   -1    0    0  501    0  0.00000000000E+00  0.00000000000E+00  0.21692361492E+04  0.21692361492E+04  0.00000000000E+00 0.  1.
         -2   -1    0    0    0  501 -0.00000000000E+00 -0.00000000000E+00 -0.26894040705E+03  0.26894040705E+03  0.00000000000E+00 0. -1.
         23    2    1    2    0    0 -0.59554341423E+03 -0.22867359867E+03  0.29090045622E+03  0.70695826864E+03  0.90572320279E+02 0.  0.
         11    1    3    3    0    0 -0.17337603759E+03 -0.11036637090E+03  0.10421697760E+03  0.23043689951E+03  0.00000000000E+00 0. -1.
        -11    1    3    3    0    0 -0.42216737665E+03 -0.11830722777E+03  0.18668347862E+03  0.47652136913E+03  0.00000000000E+00 0.  1.
         22    1    1    2    0    0  0.59554341423E+03  0.22867359867E+03  0.16093952859E+04  0.17312182876E+04  0.00000000000E+00 0.  1.
<mgrwt>
<rscale>  0 0.15276063E+04</rscale>
<asrwt>0</asrwt>
<pdfrwt beam="1">  1        2 0.33372863E+00 0.15276063E+04</pdfrwt>
<pdfrwt beam="2">  1       -2 0.41375449E-01 0.15276063E+04</pdfrwt>
<totfact> 0.28696792E+01</totfact>
</mgrwt>
</event>
<event>
 6    1  0.1637818E-005  0.1858626E+04  0.7818608E-02  0.8675729E-01
          1   -1    0    0  501    0  0.00000000000E+00  0.00000000000E+00  0.19783983837E+04  0.19783983837E+04  0.00000000000E+00 0. -1.
         -1   -1    0    0    0  501 -0.00000000000E+00 -0.00000000000E+00 -0.43652620856E+03  0.43652620856E+03  0.00000000000E+00 0.  1.
         23    2    1    2    0    0  0.35777103868E+03  0.83759329196E+03  0.99773246169E+03  0.13539577377E+04  0.90381698439E+02 0.  0.
         11    1    3    3    0    0  0.25609426441E+03  0.51557753841E+03  0.58607293401E+03  0.82151442736E+03  0.00000000000E+00 0. -1.
        -11    1    3    3    0    0  0.10167677427E+03  0.32201575355E+03  0.41165952768E+03  0.53244331030E+03  0.00000000000E+00 0.  1.
         22    1    1    2    0    0 -0.35777103868E+03 -0.83759329196E+03  0.54413971350E+03  0.10609668546E+04  0.00000000000E+00 0.  1.
<mgrwt>
<rscale>  0 0.18586261E+04</rscale>
<asrwt>0</asrwt>
<pdfrwt beam="1">  1        1 0.30436898E+00 0.18586261E+04</pdfrwt>
<pdfrwt beam="2">  1       -1 0.67157880E-01 0.18586261E+04</pdfrwt>
<totfact> 0.64998373E+00</totfact>
</mgrwt>
</event>
<event>
 6    1  0.1637818E-005  0.5648691E+04  0.7818608E-02  0.7735554E-01
          1   -1    0    0  501    0  0.00000000000E+00  0.00000000000E+00  0.21539236707E+04  0.21539236707E+04  0.00000000000E+00 0. -1.
         -1   -1    0    0    0  501 -0.00000000000E+00 -0.00000000000E+00 -0.37034397363E+04  0.37034397363E+04  0.00000000000E+00 0.  1.
         23    2    1    2    0    0  0.63202947228E+03 -0.17770491176E+04 -0.29538573689E+04  0.35058661571E+04  0.91974643914E+02 0.  0.
         11    1    3    3    0    0  0.10978607649E+03 -0.28815151686E+03 -0.42326272330E+03  0.52367510176E+03  0.00000000000E+00 0.  1.
        -11    1    3    3    0    0  0.52224339578E+03 -0.14888976008E+04 -0.25305946456E+04  0.29821910553E+04  0.00000000000E+00 0. -1.
         22    1    1    2    0    0 -0.63202947228E+03  0.17770491176E+04  0.14043413033E+04  0.23514972499E+04  0.00000000000E+00 0. -1.
<mgrwt>
<rscale>  0 0.56486906E+04</rscale>
<asrwt>0</asrwt>
<pdfrwt beam="1">  1        1 0.33137287E+00 0.56486906E+04</pdfrwt>
<pdfrwt beam="2">  1       -1 0.56975996E+00 0.56486906E+04</pdfrwt>
<totfact> 0.97496516E-04</totfact>
</mgrwt>
</event>
<event>
 6    1  0.1637818E-005  0.1679390E+04  0.7818608E-02  0.8773207E-01
          1   -1    0    0  501    0  0.00000000000E+00  0.00000000000E+00  0.12309461127E+04  0.12309461127E+04  0.00000000000E+00 0. -1.
         -1   -1    0    0    0  501 -0.00000000000E+00 -0.00000000000E+00 -0.57280143088E+03  0.57280143088E+03  0.00000000000E+00 0.  1.
         23    2    1    2    0    0  0.81270229934E+03  0.63999358109E+01  0.54544095882E+03  0.98324275035E+03  0.93458440135E+02 0.  0.
         11    1    3    3    0    0  0.24403273399E+03 -0.69971250848E+01  0.11473600118E+03  0.26975041239E+03  0.00000000000E+00 0. -1.
        -11    1    3    3    0    0  0.56866956535E+03  0.13397060896E+02  0.43070495764E+03  0.71349233796E+03  0.00000000000E+00 0.  1.
         22    1    1    2    0    0 -0.81270229934E+03 -0.63999358109E+01  0.11270372298E+03  0.82050479322E+03  0.00000000000E+00 0. -1.
<mgrwt>
<rscale>  0 0.16793900E+04</rscale>
<asrwt>0</asrwt>
<pdfrwt beam="1">  1        1 0.18937632E+00 0.16793900E+04</pdfrwt>
<pdfrwt beam="2">  1       -1 0.88123298E-01 0.16793900E+04</pdfrwt>
<totfact> 0.12237206E+01</totfact>
</mgrwt>
</event>
<event>
 6    1  0.1637818E-005  0.1800336E+04  0.7818608E-02  0.8706121E-01
         -2   -1    0    0    0  501 -0.00000000000E+00  0.00000000000E+00  0.79290073813E+03  0.79290073813E+03  0.00000000000E+00 0.  1.
          2   -1    0    0  501    0  0.00000000000E+00 -0.00000000000E+00 -0.10219469438E+04  0.10219469438E+04  0.00000000000E+00 0. -1.
         23    2    1    2    0    0 -0.68609463354E+03  0.89356526044E+02 -0.68936632602E+03  0.98382117921E+03  0.11818522029E+03 0.  0.
         11    1    3    3    0    0 -0.47048003516E+03  0.11374192938E+03 -0.49852199539E+03  0.69484737163E+03  0.00000000000E+00 0. -1.
        -11    1    3    3    0    0 -0.21561459838E+03 -0.24385403334E+02 -0.19084433063E+03  0.28897380757E+03  0.00000000000E+00 0.  1.
         22    1    1    2    0    0  0.68609463354E+03 -0.89356526044E+02  0.46032012040E+03  0.83102650268E+03  0.00000000000E+00 0.  1.
<mgrwt>
<rscale>  0 0.18003361E+04</rscale>
<asrwt>0</asrwt>
<pdfrwt beam="1">  1        2 0.15722261E+00 0.18003361E+04</pdfrwt>
<pdfrwt beam="2">  1       -2 0.12198473E+00 0.18003361E+04</pdfrwt>
<totfact> 0.11735536E+01</totfact>
</mgrwt>
</event>
<event>
 6    1  0.1637818E-005  0.3069484E+04  0.7818608E-02  0.8224163E-01
          1   -1    0    0  501    0  0.00000000000E+00  0.00000000000E+00  0.37954736085E+04  0.37954736085E+04  0.00000000000E+00 0. -1.
         -1   -1    0    0    0  501 -0.00000000000E+00 -0.00000000000E+00 -0.62059012494E+03  0.62059012494E+03  0.00000000000E+00 0.  1.
         23    2    1    2    0    0  0.22969446747E+03 -0.34005621471E+03  0.37144708290E+04  0.37381608783E+04  0.90307448562E+02 0.  0.
         13    1    3    3    0    0  0.82088533139E+02 -0.19132646902E+03  0.16498910141E+04  0.16629746551E+04  0.00000000000E+00 0.  1.
        -13    1    3    3    0    0  0.14760593433E+03 -0.14872974569E+03  0.20645798149E+04  0.20751862232E+04  0.00000000000E+00 0. -1.
         22    1    1    2    0    0 -0.22969446747E+03  0.34005621471E+03 -0.53958734546E+03  0.67790285508E+03  0.00000000000E+00 0.  1.
<mgrwt>
<rscale>  0 0.30694843E+04</rscale>
<asrwt>0</asrwt>
<pdfrwt beam="1">  1        1 0.58391900E+00 0.30694843E+04</pdfrwt>
<pdfrwt beam="2">  1       -1 0.95475406E-01 0.30694843E+04</pdfrwt>
<totfact> 0.12865281E-01</totfact>
</mgrwt>
</event>
<event>
 6    1  0.1637818E-005  0.2899419E+04  0.7818608E-02  0.8273050E-01
          2   -1    0    0  501    0  0.00000000000E+00  0.00000000000E+00  0.22785828619E+04  0.22785828619E+04  0.00000000000E+00 0. -1.
         -2   -1    0    0    0  501 -0.00000000000E+00 -0.00000000000E+00 -0.92235279559E+03  0.92235279559E+03  0.00000000000E+00 0.  1.
         23    2    1    2    0    0 -0.34080515919E+03  0.21081834741E+03 -0.85758666043E+03  0.95114077089E+03  0.92851245309E+02 0.  0.
         11    1    3    3    0    0 -0.27955308088E+03  0.12834748417E+03 -0.61282600906E+03  0.68569579195E+03  0.00000000000E+00 0.  1.
        -11    1    3    3    0    0 -0.61252078317E+02  0.82470863239E+02 -0.24476065138E+03  0.26544497894E+03  0.00000000000E+00 0. -1.
         22    1    1    2    0    0  0.34080515919E+03 -0.21081834741E+03  0.22138167267E+04  0.22497948865E+04  0.00000000000E+00 0. -1.
<mgrwt>
<rscale>  0 0.28994188E+04</rscale>
<asrwt>0</asrwt>
<pdfrwt beam="1">  1        2 0.35055121E+00 0.28994188E+04</pdfrwt>
<pdfrwt beam="2">  1       -2 0.14190043E+00 0.28994188E+04</pdfrwt>
<totfact> 0.13952364E+00</totfact>
</mgrwt>
</event>
<event>
 6    1  0.1637818E-005  0.2422286E+04  0.7818608E-02  0.8431207E-01
          2   -1    0    0  501    0  0.00000000000E+00  0.00000000000E+00  0.79353654029E+03  0.79353654029E+03  0.00000000000E+00 0. -1.
         -2   -1    0    0    0  501 -0.00000000000E+00 -0.00000000000E+00 -0.18485195646E+04  0.18485195646E+04  0.00000000000E+00 0.  1.
         23    2    1    2    0    0 -0.10507043977E+04 -0.59887062355E+03 -0.53169675404E+03  0.13243101978E+04  0.92034268113E+02 0.  0.
         11    1    3    3    0    0 -0.89371699729E+03 -0.47052875702E+03 -0.44916173468E+03  0.11053839362E+04  0.00000000000E+00 0.  1.
        -11    1    3    3    0    0 -0.15698740043E+03 -0.12834186653E+03 -0.82535019362E+02  0.21892626160E+03  0.00000000000E+00 0. -1.
         22    1    1    2    0    0  0.10507043977E+04  0.59887062355E+03 -0.52328627028E+03  0.13177459071E+04  0.00000000000E+00 0. -1.
<mgrwt>
<rscale>  0 0.24222864E+04</rscale>
<asrwt>0</asrwt>
<pdfrwt beam="1">  1        2 0.12208255E+00 0.24222864E+04</pdfrwt>
<pdfrwt beam="2">  1       -2 0.28438762E+00 0.24222864E+04</pdfrwt>
<totfact> 0.12376350E+00</totfact>
</mgrwt>
</event>
<event>
 6    1  0.1637818E-005  0.1399396E+04  0.7818608E-02  0.8954256E-01
         -2   -1    0    0    0  501 -0.00000000000E+00  0.00000000000E+00  0.28870802650E+03  0.28870802650E+03  0.00000000000E+00 0.  1.
          2   -1    0    0  501    0  0.00000000000E+00 -0.00000000000E+00 -0.16957520627E+04  0.16957520627E+04  0.00000000000E+00 0. -1.
         23    2    1    2    0    0 -0.30014407660E+03 -0.76795600466E+02  0.17868168021E+03  0.36875278939E+03  0.89818961623E+02 0.  0.
         11    1    3    3    0    0 -0.21394664312E+03 -0.91676750754E+02  0.14906600345E+03  0.27640272451E+03  0.00000000000E+00 0. -1.
        -11    1    3    3    0    0 -0.86197433483E+02  0.14881150287E+02  0.29615676755E+02  0.92350064876E+02  0.00000000000E+00 0.  1.
         22    1    1    2    0    0  0.30014407660E+03  0.76795600466E+02 -0.15857257164E+04  0.16157072998E+04  0.00000000000E+00 0. -1.
<mgrwt>
<rscale>  0 0.13993959E+04</rscale>
<asrwt>0</asrwt>
<pdfrwt beam="1">  1        2 0.26088494E+00 0.13993959E+04</pdfrwt>
<pdfrwt beam="2">  1       -2 0.44416618E-01 0.13993959E+04</pdfrwt>
<totfact> 0.46130350E+01</totfact>
</mgrwt>
</event>
<event>
 6    1  0.1637818E-005  0.1475071E+04  0.7818608E-02  0.8901202E-01
          1   -1    0    0  501    0  0.00000000000E+00  0.00000000000E+00  0.10901284683E+04  0.10901284683E+04  0.00000000000E+00 0. -1.
         -1   -1    0    0    0  501 -0.00000000000E+00 -0.00000000000E+00 -0.49898568829E+03  0.49898568829E+03  0.00000000000E+00 0.  1.
         23    2    1    2    0    0  0.22699757421E+03 -0.42493310812E+03  0.89439422882E+03  0.10198536834E+04  0.89802304951E+02 0.  0.
         11    1    3    3    0    0  0.13153099816E+02 -0.72092438580E+02  0.18826089434E+03  0.20202100899E+03  0.00000000000E+00 0. -1.
        -11    1    3    3    0    0  0.21384447440E+03 -0.35284066954E+03  0.70613333448E+03  0.81783267444E+03  0.00000000000E+00 0.  1.
         22    1    1    2    0    0 -0.22699757421E+03  0.42493310812E+03 -0.30325144882E+03  0.56926047315E+03  0.00000000000E+00 0.  1.
<mgrwt>
<rscale>  0 0.14750709E+04</rscale>
<asrwt>0</asrwt>
<pdfrwt beam="1">  1        1 0.16771207E+00 0.14750709E+04</pdfrwt>
<pdfrwt beam="2">  1       -1 0.76767029E-01 0.14750709E+04</pdfrwt>
<totfact> 0.21288357E+01</totfact>
</mgrwt>
</event>
<event>
 6    1  0.1637818E-005  0.1977147E+04  0.7818608E-02  0.8617380E-01
         -1   -1    0    0    0  501 -0.00000000000E+00  0.00000000000E+00  0.59139649845E+03  0.59139649845E+03  0.00000000000E+00 0.  1.
          1   -1    0    0  501    0  0.00000000000E+00 -0.00000000000E+00 -0.16524906970E+04  0.16524906970E+04  0.00000000000E+00 0. -1.
         23    2    1    2    0    0  0.12608642086E+03  0.61109419352E+03  0.33541336869E+03  0.71432278548E+03  0.91766088954E+02 0.  0.
         13    1    3    3    0    0  0.83295369284E+02  0.54437389771E+03  0.28171492987E+03  0.61858254160E+03  0.00000000000E+00 0. -1.
        -13    1    3    3    0    0  0.42791051575E+02  0.66720295809E+02  0.53698438818E+02  0.95740243886E+02  0.00000000000E+00 0.  1.
         22    1    1    2    0    0 -0.12608642086E+03 -0.61109419352E+03 -0.13965075673E+04  0.15295644100E+04  0.00000000000E+00 0. -1.
<mgrwt>
<rscale>  0 0.19771466E+04</rscale>
<asrwt>0</asrwt>
<pdfrwt beam="1">  1        1 0.25422933E+00 0.19771466E+04</pdfrwt>
<pdfrwt beam="2">  1       -1 0.90984079E-01 0.19771466E+04</pdfrwt>
<totfact> 0.56288909E+00</totfact>
</mgrwt>
</event>
<event>
 6    1  0.1637818E-005  0.2948865E+04  0.7818608E-02  0.8258486E-01
         -1   -1    0    0    0  501 -0.00000000000E+00  0.00000000000E+00  0.20289035186E+04  0.20289035186E+04  0.00000000000E+00 0.  1.
          1   -1    0    0  501    0  0.00000000000E+00 -0.00000000000E+00 -0.10714903814E+04  0.10714903814E+04  0.00000000000E+00 0. -1.
         23    2    1    2    0    0  0.94908152690E+03  0.38742149632E+03 -0.63291607040E+03  0.12083055962E+04  0.92566199155E+02 0.  0.
         13    1    3    3    0    0  0.83264733954E+03  0.36448623536E+03 -0.58114171773E+03  0.10788315457E+04  0.00000000000E+00 0. -1.
        -13    1    3    3    0    0  0.11643418737E+03  0.22935260959E+02 -0.51774352674E+02  0.12947405060E+03  0.00000000000E+00 0.  1.
         22    1    1    2    0    0 -0.94908152690E+03 -0.38742149632E+03  0.15903292077E+04  0.18920883038E+04  0.00000000000E+00 0.  1.
<mgrwt>
<rscale>  0 0.29488646E+04</rscale>
<asrwt>0</asrwt>
<pdfrwt beam="1">  1        1 0.16484467E+00 0.29488646E+04</pdfrwt>
<pdfrwt beam="2">  1       -1 0.31213900E+00 0.29488646E+04</pdfrwt>
<totfact> 0.31364552E-01</totfact>
</mgrwt>
</event>
<event>
 6    1  0.1637818E-005  0.2285178E+04  0.7818608E-02  0.8483788E-01
          2   -1    0    0  501    0  0.00000000000E+00  0.00000000000E+00  0.28397967878E+04  0.28397967878E+04  0.00000000000E+00 0. -1.
         -2   -1    0    0    0  501 -0.00000000000E+00 -0.00000000000E+00 -0.45971934129E+03  0.45971934129E+03  0.00000000000E+00 0.  1.
         23    2    1    2    0    0  0.71062407217E+03  0.69098016650E+03  0.37662588099E+03  0.10642849693E+04  0.91734830606E+02 0.  0.
         13    1    3    3    0    0  0.70712918558E+02  0.10717285677E+03  0.34444152533E+02  0.13293884956E+03  0.00000000000E+00 0. -1.
        -13    1    3    3    0    0  0.63991115361E+03  0.58380730973E+03  0.34218172845E+03  0.93134611970E+03  0.00000000000E+00 0.  1.
         22    1    1    2    0    0 -0.71062407217E+03 -0.69098016650E+03  0.20034515655E+04  0.22352311598E+04  0.00000000000E+00 0. -1.
<mgrwt>
<rscale>  0 0.22851779E+04</rscale>
<asrwt>0</asrwt>
<pdfrwt beam="1">  1        2 0.43689180E+00 0.22851779E+04</pdfrwt>
<pdfrwt beam="2">  1       -2 0.70726054E-01 0.22851779E+04</pdfrwt>
<totfact> 0.36098744E+00</totfact>
</mgrwt>
</event>
<event>
 6    1  0.1637818E-005  0.6302291E+03  0.7818608E-02  0.9844602E-01
         -2   -1    0    0    0  501 -0.00000000000E+00  0.00000000000E+00  0.31120246802E+03  0.31120246802E+03  0.00000000000E+00 0.  1.
          2   -1    0    0  501    0  0.00000000000E+00 -0.00000000000E+00 -0.31907581528E+03  0.31907581528E+03  0.00000000000E+00 0. -1.
         23    2    1    2    0    0  0.21933444700E+01  0.14204280685E+03 -0.27785140154E+03  0.32520596476E+03  0.91523485707E+02 0.  0.
         13    1    3    3    0    0 -0.44665574520E+02  0.67559829499E+02 -0.13221021533E+03  0.15504478433E+03  0.00000000000E+00 0. -1.
        -13    1    3    3    0    0  0.46858918990E+02  0.74482977356E+02 -0.14564118621E+03  0.17016118043E+03  0.00000000000E+00 0.  1.
         22    1    1    2    0    0 -0.21933444700E+01 -0.14204280685E+03  0.26997805429E+03  0.30507231854E+03  0.00000000000E+00 0.  1.
<mgrwt>
<rscale>  0 0.63022911E+03</rscale>
<asrwt>0</asrwt>
<pdfrwt beam="1">  1        2 0.49088587E-01 0.63022911E+03</pdfrwt>
<pdfrwt beam="2">  1       -2 0.47877303E-01 0.63022911E+03</pdfrwt>
<totfact> 0.42746270E+02</totfact>
</mgrwt>
</event>
<event>
 6    1  0.1637818E-005  0.1804315E+04  0.7818608E-02  0.8704008E-01
          2   -1    0    0  501    0  0.00000000000E+00  0.00000000000E+00  0.13125894071E+04  0.13125894071E+04  0.00000000000E+00 0. -1.
         -2   -1    0    0    0  501 -0.00000000000E+00 -0.00000000000E+00 -0.62006286744E+03  0.62006286744E+03  0.00000000000E+00 0.  1.
         23    2    1    2    0    0 -0.46451784903E+03  0.48586952022E+03  0.98776407060E+03  0.11984784379E+04  0.93950434728E+02 0.  0.
         13    1    3    3    0    0 -0.21776519967E+03  0.27772119274E+03  0.57183067285E+03  0.67196805095E+03  0.00000000000E+00 0. -1.
        -13    1    3    3    0    0 -0.24675264936E+03  0.20814832748E+03  0.41593339775E+03  0.52651038695E+03  0.00000000000E+00 0.  1.
         22    1    1    2    0    0  0.46451784903E+03 -0.48586952022E+03 -0.29523753094E+03  0.73417383665E+03  0.00000000000E+00 0.  1.
<mgrwt>
<rscale>  0 0.18043148E+04</rscale>
<asrwt>0</asrwt>
<pdfrwt beam="1">  1        2 0.20193683E+00 0.18043148E+04</pdfrwt>
<pdfrwt beam="2">  1       -2 0.95394288E-01 0.18043148E+04</pdfrwt>
<totfact> 0.14160990E+01</totfact>
</mgrwt>
</event>
<event>
 6    1  0.1637818E-005  0.3467013E+04  0.7818608E-02  0.8121652E-01
          1   -1    0    0  501    0  0.00000000000E+00  0.00000000000E+00  0.28554587459E+04  0.28554587459E+04  0.00000000000E+00 0. -1.
         -1   -1    0    0    0  501 -0.00000000000E+00 -0.00000000000E+00 -0.10523860866E+04  0.10523860866E+04  0.00000000000E+00 0.  1.
         23    2    1    2    0    0 -0.45914442256E+03  0.69661421462E+03  0.26133422249E+04  0.27448221613E+04  0.91685047651E+02 0.  0.
         11    1    3    3    0    0 -0.33096574043E+03  0.46217547166E+03  0.18936013996E+04  0.19770864292E+04  0.00000000000E+00 0. -1.
        -11    1    3    3    0    0 -0.12817868213E+03  0.23443874296E+03  0.71974082531E+03  0.76773573212E+03  0.00000000000E+00 0.  1.
         22    1    1    2    0    0  0.45914442256E+03 -0.69661421462E+03 -0.81026956560E+03  0.11630226712E+04  0.00000000000E+00 0.  1.
<mgrwt>
<rscale>  0 0.34670132E+04</rscale>
<asrwt>0</asrwt>
<pdfrwt beam="1">  1        1 0.43930134E+00 0.34670132E+04</pdfrwt>
<pdfrwt beam="2">  1       -1 0.16190555E+00 0.34670132E+04</pdfrwt>
<totfact> 0.17580864E-01</totfact>
</mgrwt>
</event>
<event>
 6    1  0.1637818E-005  0.1266130E+04  0.7818608E-02  0.9056864E-01
          2   -1    0    0  501    0  0.00000000000E+00  0.00000000000E+00  0.28155661702E+04  0.28155661702E+04  0.00000000000E+00 0. -1.
         -2   -1    0    0    0  501 -0.00000000000E+00 -0.00000000000E+00 -0.14234120285E+03  0.14234120285E+03  0.00000000000E+00 0.  1.
         23    2    1    2    0    0 -0.54234322670E+03  0.31804770496E+03  0.12662930159E+04  0.14168856230E+04  0.93682166437E+02 0.  0.
         13    1    3    3    0    0 -0.33456581864E+03  0.24208073579E+03  0.77774557326E+03  0.88058250401E+03  0.00000000000E+00 0.  1.
        -13    1    3    3    0    0 -0.20777740805E+03  0.75966969164E+02  0.48854744262E+03  0.53630311895E+03  0.00000000000E+00 0. -1.
         22    1    1    2    0    0  0.54234322670E+03 -0.31804770496E+03  0.14069319515E+04  0.15410217501E+04  0.00000000000E+00 0. -1.
<mgrwt>
<rscale>  0 0.12661297E+04</rscale>
<asrwt>0</asrwt>
<pdfrwt beam="1">  1        2 0.43316399E+00 0.12661297E+04</pdfrwt>
<pdfrwt beam="2">  1       -2 0.21898649E-01 0.12661297E+04</pdfrwt>
<totfact> 0.40849592E+01</totfact>
</mgrwt>
</event>
<event>
 6    1  0.1637818E-005  0.7493686E+03  0.7818608E-02  0.9636342E-01
          2   -1    0    0  501    0  0.00000000000E+00  0.00000000000E+00  0.30097362648E+04  0.30097362648E+04  0.00000000000E+00 0. -1.
         -2   -1    0    0    0  501 -0.00000000000E+00 -0.00000000000E+00 -0.46644720399E+02  0.46644720399E+02  0.00000000000E+00 0.  1.
         23    2    1    2    0    0  0.29902649917E+03  0.10395687895E+03  0.22774801311E+04  0.23012075681E+04  0.91742268841E+02 0.  0.
         11    1    3    3    0    0  0.14667727450E+03  0.21626922045E+02  0.13087068930E+04  0.13170784632E+04  0.00000000000E+00 0. -1.
        -11    1    3    3    0    0  0.15234922467E+03  0.82329956909E+02  0.96877323816E+03  0.98412910487E+03  0.00000000000E+00 0.  1.
         22    1    1    2    0    0 -0.29902649917E+03 -0.10395687895E+03  0.68561141328E+03  0.75517341711E+03  0.00000000000E+00 0.  1.
<mgrwt>
<rscale>  0 0.74936855E+03</rscale>
<asrwt>0</asrwt>
<pdfrwt beam="1">  1        2 0.46303620E+00 0.74936855E+03</pdfrwt>
<pdfrwt beam="2">  1       -2 0.71761132E-02 0.74936855E+03</pdfrwt>
<totfact> 0.21209839E+02</totfact>
</mgrwt>
</event>
<event>
 6    1  0.1637818E-005  0.2057825E+04  0.7818608E-02  0.8580053E-01
          1   -1    0    0  501    0  0.00000000000E+00  0.00000000000E+00  0.22039207001E+04  0.22039207001E+04  0.00000000000E+00 0. -1.
         -1   -1    0    0    0  501 -0.00000000000E+00 -0.00000000000E+00 -0.48035336024E+03  0.48035336024E+03  0.00000000000E+00 0.  1.
         23    2    1    2    0    0  0.51389942578E+02  0.90131974028E+03  0.22509863016E+03  0.93486653938E+03  0.91037644580E+02 0.  0.
         13    1    3    3    0    0  0.16175084521E+02  0.72126168201E+03  0.20674092899E+03  0.75048108505E+03  0.00000000000E+00 0.  1.
        -13    1    3    3    0    0  0.35214858057E+02  0.18005805827E+03  0.18357701170E+02  0.18438545433E+03  0.00000000000E+00 0. -1.
         22    1    1    2    0    0 -0.51389942578E+02 -0.90131974028E+03  0.14984687097E+04  0.17494075209E+04  0.00000000000E+00 0.  1.
<mgrwt>
<rscale>  0 0.20578248E+04</rscale>
<asrwt>0</asrwt>
<pdfrwt beam="1">  1        1 0.33906472E+00 0.20578248E+04</pdfrwt>
<pdfrwt beam="2">  1       -1 0.73900518E-01 0.20578248E+04</pdfrwt>
<totfact> 0.36852164E+00</totfact>
</mgrwt>
</event>
<event>
 6    1  0.1637818E-005  0.2674435E+04  0.7818608E-02  0.8343348E-01
         -2   -1    0    0    0  501 -0.00000000000E+00  0.00000000000E+00  0.20464576971E+04  0.20464576971E+04  0.00000000000E+00 0.  1.
          2   -1    0    0  501    0  0.00000000000E+00 -0.00000000000E+00 -0.87377868273E+03  0.87377868273E+03  0.00000000000E+00 0. -1.
         23    2    1    2    0    0  0.26027526330E+03 -0.26581318058E+03  0.19877076044E+04  0.20243170407E+04  0.92076604940E+02 0.  0.
         11    1    3    3    0    0  0.13343667683E+03 -0.18719774546E+03  0.10558504052E+04  0.10805870723E+04  0.00000000000E+00 0. -1.
        -11    1    3    3    0    0  0.12683858648E+03 -0.78615435120E+02  0.93185719910E+03  0.94372996836E+03  0.00000000000E+00 0.  1.
         22    1    1    2    0    0 -0.26027526330E+03  0.26581318058E+03 -0.81502859001E+03  0.89591933911E+03  0.00000000000E+00 0. -1.
<mgrwt>
<rscale>  0 0.26744354E+04</rscale>
<asrwt>0</asrwt>
<pdfrwt beam="1">  1        2 0.13442749E+00 0.26744354E+04</pdfrwt>
<pdfrwt beam="2">  1       -2 0.31483965E+00 0.26744354E+04</pdfrwt>
<totfact> 0.69220047E-01</totfact>
</mgrwt>
</event>
<event>
 6    1  0.1637818E-005  0.1540431E+04  0.7818608E-02  0.8858003E-01
         -2   -1    0    0    0  501 -0.00000000000E+00  0.00000000000E+00  0.20227926844E+03  0.20227926844E+03  0.00000000000E+00 0.  1.
          2   -1    0    0  501    0  0.00000000000E+00 -0.00000000000E+00 -0.29327387511E+04  0.29327387511E+04  0.00000000000E+00 0. -1.
         23    2    1    2    0    0 -0.35975587692E+03 -0.65418254792E+03 -0.10065253621E+04  0.12563674536E+04  0.89368769194E+02 0.  0.
         13    1    3    3    0    0 -0.30131725748E+02 -0.11979501556E+03 -0.14875832125E+03  0.19335926353E+03  0.00000000000E+00 0.  1.
        -13    1    3    3    0    0 -0.32962415117E+03 -0.53438753236E+03 -0.85776704089E+03  0.10630081901E+04  0.00000000000E+00 0. -1.
         22    1    1    2    0    0  0.35975587692E+03  0.65418254792E+03 -0.17239341205E+04  0.18786505659E+04  0.00000000000E+00 0. -1.
<mgrwt>
<rscale>  0 0.15404314E+04</rscale>
<asrwt>0</asrwt>
<pdfrwt beam="1">  1        2 0.45119055E+00 0.15404314E+04</pdfrwt>
<pdfrwt beam="2">  1       -2 0.31119889E-01 0.15404314E+04</pdfrwt>
<totfact> 0.17792164E+01</totfact>
</mgrwt>
</event>
<event>
 6    1  0.1637818E-005  0.4327612E+04  0.7818608E-02  0.7941532E-01
         -1   -1    0    0    0  501 -0.00000000000E+00  0.00000000000E+00  0.16980226294E+04  0.16980226294E+04  0.00000000000E+00 0.  1.
          1   -1    0    0  501    0  0.00000000000E+00 -0.00000000000E+00 -0.27573576038E+04  0.27573576038E+04  0.00000000000E+00 0. -1.
         23    2    1    2    0    0 -0.11359458364E+04 -0.44150439987E+03 -0.23694134329E+04  0.26660773953E+04  0.92463956971E+02 0.  0.
         11    1    3    3    0    0 -0.86446561037E+03 -0.30657008842E+03 -0.18423967298E+04  0.20580844785E+04  0.00000000000E+00 0.  1.
        -11    1    3    3    0    0 -0.27148022604E+03 -0.13493431145E+03 -0.52701670304E+03  0.60799291676E+03  0.00000000000E+00 0. -1.
         22    1    1    2    0    0  0.11359458364E+04  0.44150439987E+03  0.13100784585E+04  0.17893028379E+04  0.00000000000E+00 0.  1.
<mgrwt>
<rscale>  0 0.43276116E+04</rscale>
<asrwt>0</asrwt>
<pdfrwt beam="1">  1        1 0.42420886E+00 0.43276116E+04</pdfrwt>
<pdfrwt beam="2">  1       -1 0.26123425E+00 0.43276116E+04</pdfrwt>
<totfact> 0.40113728E-02</totfact>
</mgrwt>
</event>
<event>
 6    1  0.1637818E-005  0.2602495E+04  0.7818608E-02  0.8367354E-01
          2   -1    0    0  501    0  0.00000000000E+00  0.00000000000E+00  0.27507064875E+04  0.27507064875E+04  0.00000000000E+00 0. -1.
         -2   -1    0    0    0  501 -0.00000000000E+00 -0.00000000000E+00 -0.61556727442E+03  0.61556727442E+03  0.00000000000E+00 0.  1.
         23    2    1    2    0    0  0.72157336250E+03  0.30435680876E+03  0.24105249198E+04  0.25361301165E+04  0.89578984162E+02 0.  0.
         11    1    3    3    0    0  0.61137080632E+03  0.28168707056E+03  0.19875012927E+04  0.20984001661E+04  0.00000000000E+00 0.  1.
        -11    1    3    3    0    0  0.11020255618E+03  0.22669738199E+02  0.42302362703E+03  0.43772995036E+03  0.00000000000E+00 0. -1.
         22    1    1    2    0    0 -0.72157336250E+03 -0.30435680876E+03 -0.27538570673E+03  0.83014364539E+03  0.00000000000E+00 0.  1.
<mgrwt>
<rscale>  0 0.26024949E+04</rscale>
<asrwt>0</asrwt>
<pdfrwt beam="1">  1        2 0.42318561E+00 0.26024949E+04</pdfrwt>
<pdfrwt beam="2">  1       -2 0.94702659E-01 0.26024949E+04</pdfrwt>
<totfact> 0.20556426E+00</totfact>
</mgrwt>
</event>
<event>
 6    1  0.1637818E-005  0.7535686E+03  0.7818608E-02  0.9629768E-01
          2   -1    0    0  501    0  0.00000000000E+00  0.00000000000E+00  0.13128126807E+04  0.13128126807E+04  0.00000000000E+00 0.  1.
         -2   -1    0    0    0  501 -0.00000000000E+00 -0.00000000000E+00 -0.10813911191E+03  0.10813911191E+03  0.00000000000E+00 0. -1.
         23    2    1    2    0    0  0.32793301225E+03 -0.95158121942E+02  0.88604858859E+03  0.95392180782E+03  0.91047160282E+02 0.  0.
         13    1    3    3    0    0  0.18439357707E+03 -0.61590971534E+01  0.46428114341E+03  0.49959574244E+03  0.00000000000E+00 0. -1.
        -13    1    3    3    0    0  0.14353943518E+03 -0.88999024788E+02  0.42176744518E+03  0.45432606538E+03  0.00000000000E+00 0.  1.
         22    1    1    2    0    0 -0.32793301225E+03  0.95158121942E+02  0.31862498020E+03  0.46702998480E+03  0.00000000000E+00 0. -1.
<mgrwt>
<rscale>  0 0.75356857E+03</rscale>
<asrwt>0</asrwt>
<pdfrwt beam="1">  1        2 0.20197117E+00 0.75356857E+03</pdfrwt>
<pdfrwt beam="2">  1       -2 0.16636787E-01 0.75356857E+03</pdfrwt>
<totfact> 0.48159113E+02</totfact>
</mgrwt>
</event>
<event>
 6    1  0.1637818E-005  0.2345157E+04  0.7818608E-02  0.8460326E-01
          1   -1    0    0  501    0  0.00000000000E+00  0.00000000000E+00  0.90087483191E+03  0.90087483191E+03  0.00000000000E+00 0. -1.
         -1   -1    0    0    0  501 -0.00000000000E+00 -0.00000000000E+00 -0.15262283679E+04  0.15262283679E+04  0.00000000000E+00 0.  1.
         23    2    1    2    0    0 -0.10487711977E+04 -0.51962848216E+03 -0.27784437732E+03  0.12061620055E+04  0.87718304336E+02 0.  0.
         13    1    3    3    0    0 -0.82210439566E+03 -0.36853811772E+03 -0.22634899910E+03  0.92892941119E+03  0.00000000000E+00 0. -1.
        -13    1    3    3    0    0 -0.22666680205E+03 -0.15109036444E+03 -0.51495378218E+02  0.27723259433E+03  0.00000000000E+00 0.  1.
         22    1    1    2    0    0  0.10487711977E+04  0.51962848216E+03 -0.34750915871E+03  0.12209411943E+04  0.00000000000E+00 0.  1.
<mgrwt>
<rscale>  0 0.23451573E+04</rscale>
<asrwt>0</asrwt>
<pdfrwt beam="1">  1        1 0.13859613E+00 0.23451573E+04</pdfrwt>
<pdfrwt beam="2">  1       -1 0.23480436E+00 0.23451573E+04</pdfrwt>
<totfact> 0.14347956E+00</totfact>
</mgrwt>
</event>
<event>
 6    1  0.1637818E-005  0.1649451E+04  0.7818608E-02  0.8790732E-01
         -2   -1    0    0    0  501 -0.00000000000E+00  0.00000000000E+00  0.11674810383E+04  0.11674810383E+04  0.00000000000E+00 0.  1.
          2   -1    0    0  501    0  0.00000000000E+00 -0.00000000000E+00 -0.58259773384E+03  0.58259773384E+03  0.00000000000E+00 0. -1.
         23    2    1    2    0    0 -0.52669114092E+03 -0.50697013558E+03  0.69268628370E+03  0.10111310347E+04  0.90274057547E+02 0.  0.
         13    1    3    3    0    0 -0.47576360819E+02 -0.88192888185E+02  0.98311214397E+02  0.14038016424E+03  0.00000000000E+00 0. -1.
        -13    1    3    3    0    0 -0.47911478010E+03 -0.41877724739E+03  0.59437506930E+03  0.87075087049E+03  0.00000000000E+00 0.  1.
         22    1    1    2    0    0  0.52669114092E+03  0.50697013558E+03 -0.10780297925E+03  0.73894773741E+03  0.00000000000E+00 0. -1.
<mgrwt>
<rscale>  0 0.16494506E+04</rscale>
<asrwt>0</asrwt>
<pdfrwt beam="1">  1        2 0.89630421E-01 0.16494506E+04</pdfrwt>
<pdfrwt beam="2">  1       -2 0.17961247E+00 0.16494506E+04</pdfrwt>
<totfact> 0.89486617E+00</totfact>
</mgrwt>
</event>
<event>
 6    1  0.1637818E-005  0.1361619E+04  0.7818608E-02  0.8982079E-01
          1   -1    0    0  501    0  0.00000000000E+00  0.00000000000E+00  0.19425665331E+04  0.19425665331E+04  0.00000000000E+00 0. -1.
         -1   -1    0    0    0  501 -0.00000000000E+00 -0.00000000000E+00 -0.23860265841E+03  0.23860265841E+03  0.00000000000E+00 0.  1.
         23    2    1    2    0    0  0.29301026941E+03  0.79925463136E+02  0.18264474983E+04  0.18536858550E+04  0.89429791612E+02 0.  0.
         11    1    3    3    0    0  0.15534343310E+03 -0.38198871733E+01  0.91746779147E+03  0.93053389091E+03  0.00000000000E+00 0. -1.
        -11    1    3    3    0    0  0.13766683632E+03  0.83745350309E+02  0.90897970678E+03  0.92315196412E+03  0.00000000000E+00 0.  1.
         22    1    1    2    0    0 -0.29301026941E+03 -0.79925463136E+02 -0.12248362355E+03  0.32748333649E+03  0.00000000000E+00 0.  1.
<mgrwt>
<rscale>  0 0.13616189E+04</rscale>
<asrwt>0</asrwt>
<pdfrwt beam="1">  1        1 0.29885638E+00 0.13616189E+04</pdfrwt>
<pdfrwt beam="2">  1       -1 0.36708103E-01 0.13616189E+04</pdfrwt>
<totfact> 0.22722173E+01</totfact>
</mgrwt>
</event>
<event>
 6    1  0.1637818E-005  0.1276176E+04  0.7818608E-02  0.9048674E-01
          1   -1    0    0  501    0  0.00000000000E+00  0.00000000000E+00  0.54609710810E+03  0.54609710810E+03  0.00000000000E+00 0. -1.
         -1   -1    0    0    0  501 -0.00000000000E+00 -0.00000000000E+00 -0.74557513551E+03  0.74557513551E+03  0.00000000000E+00 0.  1.
         23    2    1    2    0    0 -0.53116245502E+03  0.10475173604E+03  0.23540948232E+03  0.59724181084E+03  0.90408386859E+02 0.  0.
         11    1    3    3    0    0 -0.27233648625E+03  0.32154916411E+02  0.75383178716E+02  0.28440063999E+03  0.00000000000E+00 0. -1.
        -11    1    3    3    0    0 -0.25882596877E+03  0.72596819632E+02  0.16002630361E+03  0.31284117085E+03  0.00000000000E+00 0.  1.
         22    1    1    2    0    0  0.53116245502E+03 -0.10475173604E+03 -0.43488750973E+03  0.69443043277E+03  0.00000000000E+00 0.  1.
<mgrwt>
<rscale>  0 0.12761762E+04</rscale>
<asrwt>0</asrwt>
<pdfrwt beam="1">  1        1 0.84014940E-01 0.12761762E+04</pdfrwt>
<pdfrwt beam="2">  1       -1 0.11470387E+00 0.12761762E+04</pdfrwt>
<totfact> 0.26648626E+01</totfact>
</mgrwt>
</event>
<event>
 6    1  0.1789612E-005  0.3495140E+04  0.7818608E-02  0.8114943E-01
          2   -1    0    0  501    0  0.00000000000E+00  0.00000000000E+00  0.20617776759E+04  0.20617776759E+04  0.00000000000E+00 0. -1.
         -2   -1    0    0    0  501 -0.00000000000E+00 -0.00000000000E+00 -0.14812468644E+04  0.14812468644E+04  0.00000000000E+00 0.  1.
         23    2    1    2    0    0 -0.32195606768E+03  0.11560967740E+04  0.15766081572E+04  0.19834138392E+04  0.89564034089E+02 0.  0.
         13    1    3    3    0    0 -0.19196072110E+03  0.74133931848E+03  0.93755463118E+03  0.12105542491E+04  0.00000000000E+00 0.  1.
        -13    1    3    3    0    0 -0.12999534658E+03  0.41475745549E+03  0.63905352597E+03  0.77285959014E+03  0.00000000000E+00 0. -1.
         22    1    1    2    0    0  0.32195606768E+03 -0.11560967740E+04 -0.99607734565E+03  0.15596107010E+04  0.00000000000E+00 0. -1.
<mgrwt>
<rscale>  0 0.34951405E+04</rscale>
<asrwt>0</asrwt>
<pdfrwt beam="1">  1        2 0.31719657E+00 0.34951405E+04</pdfrwt>
<pdfrwt beam="2">  1       -2 0.22788413E+00 0.34951405E+04</pdfrwt>
<totfact> 0.44726596E-01</totfact>
</mgrwt>
</event>
<event>
 6    1  0.1637818E-005  0.1281398E+04  0.7818608E-02  0.9044448E-01
          2   -1    0    0  501    0  0.00000000000E+00  0.00000000000E+00  0.20716960161E+04  0.20716960161E+04  0.00000000000E+00 0.  1.
         -2   -1    0    0    0  501 -0.00000000000E+00 -0.00000000000E+00 -0.19814466535E+03  0.19814466535E+03  0.00000000000E+00 0. -1.
         23    2    1    2    0    0 -0.60224370779E+02  0.81910526355E+02  0.20562262628E+04  0.20607798466E+04  0.91710539456E+02 0.  0.
         13    1    3    3    0    0 -0.65188278879E+02  0.40753236733E+02  0.75730459001E+03  0.76119680770E+03  0.00000000000E+00 0.  1.
        -13    1    3    3    0    0  0.49639081003E+01  0.41157289622E+02  0.12989216728E+04  0.12995830389E+04  0.00000000000E+00 0. -1.
         22    1    1    2    0    0  0.60224370779E+02 -0.81910526355E+02 -0.18267491208E+03  0.20906083485E+03  0.00000000000E+00 0. -1.
<mgrwt>
<rscale>  0 0.12813985E+04</rscale>
<asrwt>0</asrwt>
<pdfrwt beam="1">  1        2 0.31872245E+00 0.12813985E+04</pdfrwt>
<pdfrwt beam="2">  1       -2 0.30483796E-01 0.12813985E+04</pdfrwt>
<totfact> 0.59600772E+01</totfact>
</mgrwt>
</event>
<event>
 6    1  0.1637818E-005  0.1511943E+04  0.7818608E-02  0.8876549E-01
          2   -1    0    0  501    0  0.00000000000E+00  0.00000000000E+00  0.37270677909E+04  0.37270677909E+04  0.00000000000E+00 0. -1.
         -2   -1    0    0    0  501 -0.00000000000E+00 -0.00000000000E+00 -0.15333582636E+03  0.15333582636E+03  0.00000000000E+00 0.  1.
         23    2    1    2    0    0 -0.66329211257E+03  0.34547581247E+03  0.20239224539E+04  0.21595841953E+04  0.90729453478E+02 0.  0.
         13    1    3    3    0    0 -0.55322726843E+03  0.25532623633E+03  0.15796647111E+04  0.16931014432E+04  0.00000000000E+00 0. -1.
        -13    1    3    3    0    0 -0.11006484413E+03  0.90149576135E+02  0.44425774273E+03  0.46648275206E+03  0.00000000000E+00 0.  1.
         22    1    1    2    0    0  0.66329211257E+03 -0.34547581247E+03  0.15498095107E+04  0.17208194219E+04  0.00000000000E+00 0.  1.
<mgrwt>
<rscale>  0 0.15119431E+04</rscale>
<asrwt>0</asrwt>
<pdfrwt beam="1">  1        2 0.57339497E+00 0.15119431E+04</pdfrwt>
<pdfrwt beam="2">  1       -2 0.23590130E-01 0.15119431E+04</pdfrwt>
<totfact> 0.87262266E+00</totfact>
</mgrwt>
</event>
<event>
 6    1  0.1637818E-005  0.1714125E+04  0.7818608E-02  0.8753349E-01
          1   -1    0    0  501    0  0.00000000000E+00  0.00000000000E+00  0.11509649805E+04  0.11509649805E+04  0.00000000000E+00 0. -1.
         -1   -1    0    0    0  501 -0.00000000000E+00 -0.00000000000E+00 -0.63820913649E+03  0.63820913649E+03  0.00000000000E+00 0.  1.
         23    2    1    2    0    0  0.57840512893E+03 -0.30288402468E+03 -0.31521976747E+03  0.73473832530E+03  0.11910364935E+03 0.  0.
         13    1    3    3    0    0  0.71553546060E+02  0.23736230546E+01 -0.26107764487E+02  0.76204720370E+02  0.00000000000E+00 0. -1.
        -13    1    3    3    0    0  0.50685158287E+03 -0.30525764773E+03 -0.28911200299E+03  0.65853360493E+03  0.00000000000E+00 0.  1.
         22    1    1    2    0    0 -0.57840512893E+03  0.30288402468E+03  0.82797561145E+03  0.10544357917E+04  0.00000000000E+00 0.  1.
<mgrwt>
<rscale>  0 0.17141253E+04</rscale>
<asrwt>0</asrwt>
<pdfrwt beam="1">  1        1 0.17707154E+00 0.17141253E+04</pdfrwt>
<pdfrwt beam="2">  1       -1 0.98186021E-01 0.17141253E+04</pdfrwt>
<totfact> 0.10970988E+01</totfact>
</mgrwt>
</event>
<event>
 6    1  0.1637818E-005  0.3741401E+04  0.7818608E-02  0.8058848E-01
          2   -1    0    0  501    0  0.00000000000E+00  0.00000000000E+00  0.21565645682E+04  0.21565645682E+04  0.00000000000E+00 0. -1.
         -2   -1    0    0    0  501 -0.00000000000E+00 -0.00000000000E+00 -0.16227294798E+04  0.16227294798E+04  0.00000000000E+00 0.  1.
         23    2    1    2    0    0 -0.78532219145E+02  0.90284118399E+03 -0.13847532976E+04  0.16574385139E+04  0.90946242243E+02 0.  0.
         13    1    3    3    0    0 -0.82266512089E+02  0.55529536398E+03 -0.90629590547E+03  0.10660642516E+04  0.00000000000E+00 0.  1.
        -13    1    3    3    0    0  0.37342929441E+01  0.34754582001E+03 -0.47845739215E+03  0.59137426225E+03  0.00000000000E+00 0. -1.
         22    1    1    2    0    0  0.78532219145E+02 -0.90284118399E+03  0.19185883860E+04  0.21218555342E+04  0.00000000000E+00 0. -1.
<mgrwt>
<rscale>  0 0.37414013E+04</rscale>
<asrwt>0</asrwt>
<pdfrwt beam="1">  1        2 0.33177917E+00 0.37414013E+04</pdfrwt>
<pdfrwt beam="2">  1       -2 0.24965069E+00 0.37414013E+04</pdfrwt>
<totfact> 0.28423209E-01</totfact>
</mgrwt>
</event>
<event>
 6    1  0.1637818E-005  0.4058491E+04  0.7818608E-02  0.7992850E-01
         -2   -1    0    0    0  501 -0.00000000000E+00  0.00000000000E+00  0.19866498602E+04  0.19866498602E+04  0.00000000000E+00 0.  1.
          2   -1    0    0  501    0  0.00000000000E+00 -0.00000000000E+00 -0.20727541286E+04  0.20727541286E+04  0.00000000000E+00 0. -1.
         23    2    1    2    0    0  0.93901611989E+03  0.12125198931E+03  0.17510115707E+04  0.19926558365E+04  0.90456861143E+02 0.  0.
         13    1    3    3    0    0  0.12352221909E+03  0.36844635529E+02  0.28940727403E+03  0.31681514490E+03  0.00000000000E+00 0.  1.
        -13    1    3    3    0    0  0.81549390080E+03  0.84407353785E+02  0.14616042967E+04  0.16758406916E+04  0.00000000000E+00 0. -1.
         22    1    1    2    0    0 -0.93901611989E+03 -0.12125198931E+03 -0.18371158391E+04  0.20667481522E+04  0.00000000000E+00 0. -1.
<mgrwt>
<rscale>  0 0.40584907E+04</rscale>
<asrwt>0</asrwt>
<pdfrwt beam="1">  1        2 0.31888525E+00 0.40584907E+04</pdfrwt>
<pdfrwt beam="2">  1       -2 0.30563844E+00 0.40584907E+04</pdfrwt>
<totfact> 0.14024906E-01</totfact>
</mgrwt>
</event>
<event>
 6    1  0.1637818E-005  0.6610388E+04  0.7818608E-02  0.7619008E-01
         -2   -1    0    0    0  501 -0.00000000000E+00  0.00000000000E+00  0.26029087916E+04  0.26029087916E+04  0.00000000000E+00 0.  1.
          2   -1    0    0  501    0  0.00000000000E+00 -0.00000000000E+00 -0.41969610936E+04  0.41969610936E+04  0.00000000000E+00 0. -1.
         23    2    1    2    0    0  0.11314241328E+04 -0.90878420823E+03  0.22568601297E+04  0.26845891095E+04  0.87130572504E+02 0.  0.
         11    1    3    3    0    0  0.68974500741E+03 -0.58446545969E+03  0.14690058797E+04  0.17249134249E+04  0.00000000000E+00 0. -1.
        -11    1    3    3    0    0  0.44167912535E+03 -0.32431874854E+03  0.78785425001E+03  0.95967568463E+03  0.00000000000E+00 0.  1.
         22    1    1    2    0    0 -0.11314241328E+04  0.90878420823E+03 -0.38509124318E+04  0.41152807757E+04  0.00000000000E+00 0. -1.
<mgrwt>
<rscale>  0 0.66103879E+04</rscale>
<asrwt>0</asrwt>
<pdfrwt beam="1">  1        2 0.64568632E+00 0.66103879E+04</pdfrwt>
<pdfrwt beam="2">  1       -2 0.40044751E+00 0.66103879E+04</pdfrwt>
<totfact> 0.11007040E-03</totfact>
</mgrwt>
</event>
<event>
 6    1  0.1637818E-005  0.1911846E+04  0.7818608E-02  0.8648982E-01
         -2   -1    0    0    0  501 -0.00000000000E+00  0.00000000000E+00  0.12987129897E+04  0.12987129897E+04  0.00000000000E+00 0.  1.
          2   -1    0    0  501    0  0.00000000000E+00 -0.00000000000E+00 -0.70361095987E+03  0.70361095987E+03  0.00000000000E+00 0. -1.
         23    2    1    2    0    0  0.86450687652E+03  0.34364746107E+03  0.78277847905E+02  0.93809984153E+03  0.91859534901E+02 0.  0.
         11    1    3    3    0    0  0.76347063403E+03  0.33293381455E+03  0.77386189472E+02  0.83649324935E+03  0.00000000000E+00 0. -1.
        -11    1    3    3    0    0  0.10103624250E+03  0.10713646525E+02  0.89165843339E+00  0.10160659218E+03  0.00000000000E+00 0.  1.
         22    1    1    2    0    0 -0.86450687652E+03 -0.34364746107E+03  0.51682418189E+03  0.10642241080E+04  0.00000000000E+00 0. -1.
<mgrwt>
<rscale>  0 0.19118459E+04</rscale>
<asrwt>0</asrwt>
<pdfrwt beam="1">  1        2 0.10824784E+00 0.19118459E+04</pdfrwt>
<pdfrwt beam="2">  1       -2 0.19980200E+00 0.19118459E+04</pdfrwt>
<totfact> 0.50774623E+00</totfact>
</mgrwt>
</event>
<event>
 6    1  0.1637818E-005  0.8742916E+03  0.7818608E-02  0.9458301E-01
         -2   -1    0    0    0  501 -0.00000000000E+00  0.00000000000E+00  0.35519802270E+03  0.35519802270E+03  0.00000000000E+00 0.  1.
          2   -1    0    0  501    0  0.00000000000E+00 -0.00000000000E+00 -0.53799979896E+03  0.53799979896E+03  0.00000000000E+00 0. -1.
         23    2    1    2    0    0  0.20279264007E+03 -0.26796650687E+03  0.18682427334E+03  0.39364370024E+03  0.84386906308E+02 0.  0.
         11    1    3    3    0    0  0.73589782665E+02 -0.13831527383E+03  0.12506015951E+03  0.20046599358E+03  0.00000000000E+00 0.  1.
        -11    1    3    3    0    0  0.12920285741E+03 -0.12965123304E+03  0.61764113835E+02  0.19317770666E+03  0.00000000000E+00 0. -1.
         22    1    1    2    0    0 -0.20279264007E+03  0.26796650687E+03 -0.36962604960E+03  0.49955412141E+03  0.00000000000E+00 0. -1.
<mgrwt>
<rscale>  0 0.87429163E+03</rscale>
<asrwt>0</asrwt>
<pdfrwt beam="1">  1        2 0.82769199E-01 0.87429163E+03</pdfrwt>
<pdfrwt beam="2">  1       -2 0.54645850E-01 0.87429163E+03</pdfrwt>
<totfact> 0.17890504E+02</totfact>
</mgrwt>
</event>
<event>
 6    1  0.1637818E-005  0.3049702E+04  0.7818608E-02  0.8229679E-01
          2   -1    0    0  501    0  0.00000000000E+00  0.00000000000E+00  0.16769070496E+04  0.16769070496E+04  0.00000000000E+00 0. -1.
         -2   -1    0    0    0  501 -0.00000000000E+00 -0.00000000000E+00 -0.13865830938E+04  0.13865830938E+04  0.00000000000E+00 0.  1.
         23    2    1    2    0    0 -0.98616259091E+03  0.28666378064E+03  0.12756446598E+04  0.16402720757E+04  0.92360193886E+02 0.  0.
         11    1    3    3    0    0 -0.22957927544E+03  0.28151014427E+02  0.30291555421E+03  0.38112590611E+03  0.00000000000E+00 0. -1.
        -11    1    3    3    0    0 -0.75658331547E+03  0.25851276621E+03  0.97272910556E+03  0.12591461696E+04  0.00000000000E+00 0.  1.
         22    1    1    2    0    0  0.98616259091E+03 -0.28666378064E+03 -0.98532070392E+03  0.14232180678E+04  0.00000000000E+00 0.  1.
<mgrwt>
<rscale>  0 0.30497023E+04</rscale>
<asrwt>0</asrwt>
<pdfrwt beam="1">  1        2 0.25798570E+00 0.30497023E+04</pdfrwt>
<pdfrwt beam="2">  1       -2 0.21332048E+00 0.30497023E+04</pdfrwt>
<totfact> 0.93894476E-01</totfact>
</mgrwt>
</event>
<event>
 6    1  0.1637818E-005  0.2458107E+04  0.7818608E-02  0.8418064E-01
          1   -1    0    0  501    0  0.00000000000E+00  0.00000000000E+00  0.25471206131E+04  0.25471206131E+04  0.00000000000E+00 0. -1.
         -1   -1    0    0    0  501 -0.00000000000E+00 -0.00000000000E+00 -0.59305109516E+03  0.59305109516E+03  0.00000000000E+00 0.  1.
         23    2    1    2    0    0  0.30666063432E+03 -0.10408950563E+04  0.24581630711E+03  0.11164048503E+04  0.91819769696E+02 0.  0.
         11    1    3    3    0    0  0.13384881235E+03 -0.41927469929E+03  0.14493513108E+03  0.46337130927E+03  0.00000000000E+00 0.  1.
        -11    1    3    3    0    0  0.17281182197E+03 -0.62162035702E+03  0.10088117603E+03  0.65303354106E+03  0.00000000000E+00 0. -1.
         22    1    1    2    0    0 -0.30666063432E+03  0.10408950563E+04  0.17082532108E+04  0.20237668579E+04  0.00000000000E+00 0. -1.
<mgrwt>
<rscale>  0 0.24581071E+04</rscale>
<asrwt>0</asrwt>
<pdfrwt beam="1">  1        1 0.39186470E+00 0.24581071E+04</pdfrwt>
<pdfrwt beam="2">  1       -1 0.91238631E-01 0.24581071E+04</pdfrwt>
<totfact> 0.13123321E+00</totfact>
</mgrwt>
</event>
<event>
 6    1  0.1637818E-005  0.1793014E+04  0.7818608E-02  0.8710023E-01
         -1   -1    0    0    0  501 -0.00000000000E+00  0.00000000000E+00  0.57714250521E+03  0.57714250521E+03  0.00000000000E+00 0.  1.
          1   -1    0    0  501    0  0.00000000000E+00 -0.00000000000E+00 -0.13925930858E+04  0.13925930858E+04  0.00000000000E+00 0. -1.
         23    2    1    2    0    0  0.19326709253E+03 -0.25623297788E+03  0.50804126390E+03  0.60788458211E+03  0.91707313414E+02 0.  0.
         11    1    3    3    0    0  0.70937582751E+02 -0.15948192047E+03  0.22558092436E+03  0.28522513395E+03  0.00000000000E+00 0.  1.
        -11    1    3    3    0    0  0.12232950978E+03 -0.96751057419E+02  0.28246033954E+03  0.32265944816E+03  0.00000000000E+00 0. -1.
         22    1    1    2    0    0 -0.19326709253E+03  0.25623297788E+03 -0.13234918445E+04  0.13618510089E+04  0.00000000000E+00 0. -1.
<mgrwt>
<rscale>  0 0.17930138E+04</rscale>
<asrwt>0</asrwt>
<pdfrwt beam="1">  1        1 0.21424509E+00 0.17930138E+04</pdfrwt>
<pdfrwt beam="2">  1       -1 0.88791156E-01 0.17930138E+04</pdfrwt>
<totfact> 0.91366159E+00</totfact>
</mgrwt>
</event>
<event>
 6    1  0.1637818E-005  0.3860052E+04  0.7818608E-02  0.8033389E-01
          2   -1    0    0  501    0  0.00000000000E+00  0.00000000000E+00  0.37180773147E+04  0.37180773147E+04  0.00000000000E+00 0. -1.
         -2   -1    0    0    0  501 -0.00000000000E+00 -0.00000000000E+00 -0.10018622414E+04  0.10018622414E+04  0.00000000000E+00 0.  1.
         23    2    1    2    0    0 -0.47982229390E+03 -0.16720561191E+04  0.33915959206E+03  0.17743676490E+04  0.85733456883E+02 0.  0.
         11    1    3    3    0    0 -0.90029719164E+02 -0.29604689507E+03  0.27530580247E+02  0.31065583410E+03  0.00000000000E+00 0. -1.
        -11    1    3    3    0    0 -0.38979257474E+03 -0.13760092240E+04  0.31162901181E+03  0.14637118149E+04  0.00000000000E+00 0.  1.
         22    1    1    2    0    0  0.47982229390E+03  0.16720561191E+04  0.23770554812E+04  0.29455719071E+04  0.00000000000E+00 0. -1.
<mgrwt>
<rscale>  0 0.38600525E+04</rscale>
<asrwt>0</asrwt>
<pdfrwt beam="1">  1        2 0.57201189E+00 0.38600525E+04</pdfrwt>
<pdfrwt beam="2">  1       -2 0.15413265E+00 0.38600525E+04</pdfrwt>
<totfact> 0.12553750E-01</totfact>
</mgrwt>
</event>
<event>
 6    1  0.1637818E-005  0.5392845E+04  0.7818608E-02  0.7770608E-01
          2   -1    0    0  501    0  0.00000000000E+00  0.00000000000E+00  0.22518262765E+04  0.22518262765E+04  0.00000000000E+00 0.  1.
         -2   -1    0    0    0  501 -0.00000000000E+00 -0.00000000000E+00 -0.32287984491E+04  0.32287984491E+04  0.00000000000E+00 0. -1.
         23    2    1    2    0    0  0.11483568169E+04  0.22835657078E+03 -0.29562407911E+04  0.31809781513E+04  0.91609397951E+02 0.  0.
         11    1    3    3    0    0  0.77676604396E+03  0.13556141352E+03 -0.18821816075E+04  0.20406739053E+04  0.00000000000E+00 0. -1.
        -11    1    3    3    0    0  0.37159077296E+03  0.92795157259E+02 -0.10740591835E+04  0.11403042460E+04  0.00000000000E+00 0.  1.
         22    1    1    2    0    0 -0.11483568169E+04 -0.22835657078E+03  0.19792686185E+04  0.22996465742E+04  0.00000000000E+00 0.  1.
<mgrwt>
<rscale>  0 0.53928446E+04</rscale>
<asrwt>0</asrwt>
<pdfrwt beam="1">  1        2 0.34643481E+00 0.53928446E+04</pdfrwt>
<pdfrwt beam="2">  1       -2 0.49673822E+00 0.53928446E+04</pdfrwt>
<totfact> 0.59391915E-03</totfact>
</mgrwt>
</event>
<event>
 6    1  0.1637818E-005  0.2875324E+04  0.7818608E-02  0.8280257E-01
          1   -1    0    0  501    0  0.00000000000E+00  0.00000000000E+00  0.11273189052E+04  0.11273189052E+04  0.00000000000E+00 0. -1.
         -1   -1    0    0    0  501 -0.00000000000E+00 -0.00000000000E+00 -0.18334401033E+04  0.18334401033E+04  0.00000000000E+00 0.  1.
         23    2    1    2    0    0  0.27477620409E+03  0.45717153503E+03  0.10196209998E+04  0.11544661451E+04  0.93044732473E+02 0.  0.
         13    1    3    3    0    0  0.17962528570E+03  0.36799574007E+03  0.73449873617E+03  0.84093668098E+03  0.00000000000E+00 0.  1.
        -13    1    3    3    0    0  0.95150918389E+02  0.89175794963E+02  0.28512226358E+03  0.31352946411E+03  0.00000000000E+00 0. -1.
         22    1    1    2    0    0 -0.27477620409E+03 -0.45717153503E+03 -0.17257421979E+04  0.18062928634E+04  0.00000000000E+00 0.  1.
<mgrwt>
<rscale>  0 0.28753238E+04</rscale>
<asrwt>0</asrwt>
<pdfrwt beam="1">  1        1 0.17343368E+00 0.28753238E+04</pdfrwt>
<pdfrwt beam="2">  1       -1 0.28206771E+00 0.28753238E+04</pdfrwt>
<totfact> 0.44890990E-01</totfact>
</mgrwt>
</event>
<event>
 6    1  0.1637818E-005  0.2815709E+03  0.7818608E-02  0.1094834E+00
          2   -1    0    0  501    0  0.00000000000E+00  0.00000000000E+00  0.14398404054E+04  0.14398404054E+04  0.00000000000E+00 0. -1.
         -2   -1    0    0    0  501 -0.00000000000E+00 -0.00000000000E+00 -0.13765792005E+02  0.13765792005E+02  0.00000000000E+00 0.  1.
         23    2    1    2    0    0 -0.68013914719E+02  0.61744349272E+02  0.12342117663E+04  0.12408866417E+04  0.89903928478E+02 0.  0.
         11    1    3    3    0    0 -0.32544256981E+02 -0.13984580170E+02  0.18588292418E+03  0.18922779565E+03  0.00000000000E+00 0.  1.
        -11    1    3    3    0    0 -0.35469657738E+02  0.75728929442E+02  0.10483288421E+04  0.10516588461E+04  0.00000000000E+00 0. -1.
         22    1    1    2    0    0  0.68013914719E+02 -0.61744349272E+02  0.19186284716E+03  0.21271955571E+03  0.00000000000E+00 0.  1.
<mgrwt>
<rscale>  0 0.28157090E+03</rscale>
<asrwt>0</asrwt>
<pdfrwt beam="1">  1        2 0.22151379E+00 0.28157090E+03</pdfrwt>
<pdfrwt beam="2">  1       -2 0.21178153E-02 0.28157090E+03</pdfrwt>
<totfact> 0.10450167E+04</totfact>
</mgrwt>
</event>
<event>
 6    1  0.1637818E-005  0.3710627E+04  0.7818608E-02  0.8065611E-01
          1   -1    0    0  501    0  0.00000000000E+00  0.00000000000E+00  0.25834809050E+04  0.25834809050E+04  0.00000000000E+00 0. -1.
         -1   -1    0    0    0  501 -0.00000000000E+00 -0.00000000000E+00 -0.13323839403E+04  0.13323839403E+04  0.00000000000E+00 0.  1.
         23    2    1    2    0    0 -0.13933594134E+04 -0.34657160160E+03 -0.61211356616E+03  0.15636072464E+04  0.92856196219E+02 0.  0.
         11    1    3    3    0    0 -0.79715465070E+03 -0.19968404273E+03 -0.40006073710E+03  0.91399006965E+03  0.00000000000E+00 0.  1.
        -11    1    3    3    0    0 -0.59620476266E+03 -0.14688755887E+03 -0.21205282906E+03  0.64961717671E+03  0.00000000000E+00 0. -1.
         22    1    1    2    0    0  0.13933594134E+04  0.34657160160E+03  0.18632105308E+04  0.23522575990E+04  0.00000000000E+00 0.  1.
<mgrwt>
<rscale>  0 0.37106272E+04</rscale>
<asrwt>0</asrwt>
<pdfrwt beam="1">  1        1 0.39745860E+00 0.37106272E+04</pdfrwt>
<pdfrwt beam="2">  1       -1 0.20498215E+00 0.37106272E+04</pdfrwt>
<totfact> 0.13210263E-01</totfact>
</mgrwt>
</event>
<event>
 6    1  0.1637818E-005  0.3870911E+04  0.7818608E-02  0.8031107E-01
         -2   -1    0    0    0  501 -0.00000000000E+00  0.00000000000E+00  0.17921001092E+04  0.17921001092E+04  0.00000000000E+00 0. -1.
          2   -1    0    0  501    0  0.00000000000E+00 -0.00000000000E+00 -0.20902778671E+04  0.20902778671E+04  0.00000000000E+00 0.  1.
         23    2    1    2    0    0 -0.90541439401E+03 -0.59752819430E+03  0.14571062443E+04  0.18189252640E+04  0.92278604174E+02 0.  0.
         13    1    3    3    0    0 -0.28398702472E+03 -0.15611621113E+03  0.38056217544E+03  0.49984844800E+03  0.00000000000E+00 0. -1.
        -13    1    3    3    0    0 -0.62142736929E+03 -0.44141198317E+03  0.10765440689E+04  0.13190768160E+04  0.00000000000E+00 0.  1.
         22    1    1    2    0    0  0.90541439401E+03  0.59752819430E+03 -0.17552840022E+04  0.20634527124E+04  0.00000000000E+00 0.  1.
<mgrwt>
<rscale>  0 0.38709106E+04</rscale>
<asrwt>0</asrwt>
<pdfrwt beam="1">  1        2 0.32158121E+00 0.38709106E+04</pdfrwt>
<pdfrwt beam="2">  1       -2 0.27570771E+00 0.38709106E+04</pdfrwt>
<totfact> 0.21217145E-01</totfact>
</mgrwt>
</event>
<event>
 6    1  0.1637818E-005  0.1235208E+04  0.7818608E-02  0.9082585E-01
         -1   -1    0    0    0  501 -0.00000000000E+00  0.00000000000E+00  0.38169221539E+03  0.38169221539E+03  0.00000000000E+00 0.  1.
          1   -1    0    0  501    0  0.00000000000E+00 -0.00000000000E+00 -0.99932573639E+03  0.99932573639E+03  0.00000000000E+00 0. -1.
         23    2    1    2    0    0 -0.36582349777E+03  0.49279645205E+03 -0.33838619607E+03  0.70673741436E+03  0.91089958270E+02 0.  0.
         11    1    3    3    0    0 -0.33122913652E+03  0.44084494949E+03 -0.26939510382E+03  0.61370247867E+03  0.00000000000E+00 0.  1.
        -11    1    3    3    0    0 -0.34594361249E+02  0.51951502561E+02 -0.68991092253E+02  0.93034935690E+02  0.00000000000E+00 0. -1.
         22    1    1    2    0    0  0.36582349777E+03 -0.49279645205E+03 -0.27924732492E+03  0.67428053742E+03  0.00000000000E+00 0. -1.
<mgrwt>
<rscale>  0 0.12352082E+04</rscale>
<asrwt>0</asrwt>
<pdfrwt beam="1">  1        1 0.15374242E+00 0.12352082E+04</pdfrwt>
<pdfrwt beam="2">  1       -1 0.58721880E-01 0.12352082E+04</pdfrwt>
<totfact> 0.43955031E+01</totfact>
</mgrwt>
</event>
<event>
 6    1  0.1637818E-005  0.1326386E+04  0.7818608E-02  0.9008899E-01
         -2   -1    0    0    0  501 -0.00000000000E+00  0.00000000000E+00  0.27432357680E+03  0.27432357680E+03  0.00000000000E+00 0.  1.
          2   -1    0    0  501    0  0.00000000000E+00 -0.00000000000E+00 -0.16033069681E+04  0.16033069681E+04  0.00000000000E+00 0. -1.
         23    2    1    2    0    0  0.38608410132E+02  0.58138336984E+02 -0.15968138399E+04  0.16008565853E+04  0.89759077874E+02 0.  0.
         13    1    3    3    0    0  0.37721873733E+02 -0.14966367794E+02 -0.56206515801E+03  0.56352832562E+03  0.00000000000E+00 0.  1.
        -13    1    3    3    0    0  0.88653639850E+00  0.73104704778E+02 -0.10347486819E+04  0.10373282597E+04  0.00000000000E+00 0. -1.
         22    1    1    2    0    0 -0.38608410132E+02 -0.58138336984E+02  0.26783044852E+03  0.27677395960E+03  0.00000000000E+00 0.  1.
<mgrwt>
<rscale>  0 0.13263859E+04</rscale>
<asrwt>0</asrwt>
<pdfrwt beam="1">  1        2 0.24666261E+00 0.13263859E+04</pdfrwt>
<pdfrwt beam="2">  1       -2 0.42203628E-01 0.13263859E+04</pdfrwt>
<totfact> 0.57797539E+01</totfact>
</mgrwt>
</event>
<event>
 6    1  0.1637818E-005  0.3064641E+04  0.7818608E-02  0.8225510E-01
         -1   -1    0    0    0  501 -0.00000000000E+00  0.00000000000E+00  0.17043462031E+04  0.17043462031E+04  0.00000000000E+00 0.  1.
          1   -1    0    0  501    0  0.00000000000E+00 -0.00000000000E+00 -0.13776575865E+04  0.13776575865E+04  0.00000000000E+00 0. -1.
         23    2    1    2    0    0  0.99556387350E+03  0.92113198215E+03 -0.55052427550E+03  0.14667223860E+04  0.92552822218E+02 0.  0.
         13    1    3    3    0    0  0.45464785709E+03  0.41440104814E+03 -0.29926839833E+03  0.68410121831E+03  0.00000000000E+00 0. -1.
        -13    1    3    3    0    0  0.54091601641E+03  0.50673093401E+03 -0.25125587717E+03  0.78262116768E+03  0.00000000000E+00 0.  1.
         22    1    1    2    0    0 -0.99556387350E+03 -0.92113198215E+03  0.87721289216E+03  0.16152814036E+04  0.00000000000E+00 0.  1.
<mgrwt>
<rscale>  0 0.30646406E+04</rscale>
<asrwt>0</asrwt>
<pdfrwt beam="1">  1        1 0.21194732E+00 0.30646406E+04</pdfrwt>
<pdfrwt beam="2">  1       -1 0.26220711E+00 0.30646406E+04</pdfrwt>
<totfact> 0.39140480E-01</totfact>
</mgrwt>
</event>
<event>
 6    1  0.1637818E-005  0.5853962E+03  0.7818608E-02  0.9936176E-01
         -2   -1    0    0    0  501 -0.00000000000E+00  0.00000000000E+00  0.76478188648E+02  0.76478188648E+02  0.00000000000E+00 0.  1.
          2   -1    0    0  501    0  0.00000000000E+00 -0.00000000000E+00 -0.11202172903E+04  0.11202172903E+04  0.00000000000E+00 0. -1.
         23    2    1    2    0    0 -0.27525444572E+03 -0.50640879382E+02 -0.42285855932E+03  0.51565057852E+03  0.93576970362E+02 0.  0.
         11    1    3    3    0    0 -0.23501985516E+03 -0.46713998133E+02 -0.40685329358E+03  0.47217171922E+03  0.00000000000E+00 0. -1.
        -11    1    3    3    0    0 -0.40234590561E+02 -0.39268812481E+01 -0.16005265743E+02  0.43478859293E+02  0.00000000000E+00 0.  1.
         22    1    1    2    0    0  0.27525444572E+03  0.50640879382E+02 -0.62088054230E+03  0.68104490040E+03  0.00000000000E+00 0. -1.
<mgrwt>
<rscale>  0 0.58539624E+03</rscale>
<asrwt>0</asrwt>
<pdfrwt beam="1">  1        2 0.17234111E+00 0.58539624E+03</pdfrwt>
<pdfrwt beam="2">  1       -2 0.11765876E-01 0.58539624E+03</pdfrwt>
<totfact> 0.11244830E+03</totfact>
</mgrwt>
</event>
<event>
 6    1  0.1637818E-005  0.1408059E+04  0.7818608E-02  0.8948006E-01
         -2   -1    0    0    0  501 -0.00000000000E+00  0.00000000000E+00  0.54007645297E+03  0.54007645297E+03  0.00000000000E+00 0.  1.
          2   -1    0    0  501    0  0.00000000000E+00 -0.00000000000E+00 -0.91775419489E+03  0.91775419489E+03  0.00000000000E+00 0. -1.
         23    2    1    2    0    0  0.49791004350E+03 -0.31233366709E+03 -0.58513544461E+03  0.83452861079E+03  0.92670290144E+02 0.  0.
         11    1    3    3    0    0  0.19126329301E+03 -0.95446437943E+02 -0.26906465811E+03  0.34363856014E+03  0.00000000000E+00 0.  1.
        -11    1    3    3    0    0  0.30664675048E+03 -0.21688722915E+03 -0.31607078650E+03  0.49089005065E+03  0.00000000000E+00 0. -1.
         22    1    1    2    0    0 -0.49791004350E+03  0.31233366709E+03  0.20745770269E+03  0.62330203707E+03  0.00000000000E+00 0.  1.
<mgrwt>
<rscale>  0 0.14080588E+04</rscale>
<asrwt>0</asrwt>
<pdfrwt beam="1">  1        2 0.14119295E+00 0.14080588E+04</pdfrwt>
<pdfrwt beam="2">  1       -2 0.83088686E-01 0.14080588E+04</pdfrwt>
<totfact> 0.35217484E+01</totfact>
</mgrwt>
</event>
<event>
 6    1  0.1637818E-005  0.8543890E+03  0.7818608E-02  0.9484465E-01
          1   -1    0    0  501    0  0.00000000000E+00  0.00000000000E+00  0.41778601348E+03  0.41778601348E+03  0.00000000000E+00 0. -1.
         -1   -1    0    0    0  501 -0.00000000000E+00 -0.00000000000E+00 -0.43681486957E+03  0.43681486957E+03  0.00000000000E+00 0.  1.
         23    2    1    2    0    0  0.21382962767E+03  0.32416896058E+03  0.15595499759E+03  0.42865725566E+03  0.92824872117E+02 0.  0.
         11    1    3    3    0    0  0.81897963837E+02  0.20778155699E+03  0.85759701079E+02  0.23923874736E+03  0.00000000000E+00 0. -1.
        -11    1    3    3    0    0  0.13193166384E+03  0.11638740358E+03  0.70195296511E+02  0.18941850830E+03  0.00000000000E+00 0.  1.
         22    1    1    2    0    0 -0.21382962767E+03 -0.32416896058E+03 -0.17498385368E+03  0.42594362740E+03  0.00000000000E+00 0.  1.
<mgrwt>
<rscale>  0 0.85438901E+03</rscale>
<asrwt>0</asrwt>
<pdfrwt beam="1">  1        1 0.64274771E-01 0.85438901E+03</pdfrwt>
<pdfrwt beam="2">  1       -1 0.67202287E-01 0.85438901E+03</pdfrwt>
<totfact> 0.12826577E+02</totfact>
</mgrwt>
</event>
<event>
 6    1  0.1637818E-005  0.1754765E+04  0.7818608E-02  0.8730732E-01
         -2   -1    0    0    0  501 -0.00000000000E+00  0.00000000000E+00  0.61476142034E+03  0.61476142034E+03  0.00000000000E+00 0.  1.
          2   -1    0    0  501    0  0.00000000000E+00 -0.00000000000E+00 -0.12521929634E+04  0.12521929634E+04  0.00000000000E+00 0. -1.
         23    2    1    2    0    0  0.50587155815E+03 -0.28107068845E+03 -0.10179160280E+04  0.11743684984E+04  0.89897524468E+02 0.  0.
         11    1    3    3    0    0  0.15111468059E+03 -0.13096583237E+03 -0.37057545799E+03  0.42108653030E+03  0.00000000000E+00 0.  1.
        -11    1    3    3    0    0  0.35475687756E+03 -0.15010485608E+03 -0.64734056997E+03  0.75328196814E+03  0.00000000000E+00 0. -1.
         22    1    1    2    0    0 -0.50587155815E+03  0.28107068845E+03  0.38048448491E+03  0.69258588529E+03  0.00000000000E+00 0.  1.
<mgrwt>
<rscale>  0 0.17547649E+04</rscale>
<asrwt>0</asrwt>
<pdfrwt beam="1">  1        2 0.19264507E+00 0.17547649E+04</pdfrwt>
<pdfrwt beam="2">  1       -2 0.94578682E-01 0.17547649E+04</pdfrwt>
<totfact> 0.15737585E+01</totfact>
</mgrwt>
</event>
<event>
 6    1  0.1637818E-005  0.2226039E+04  0.7818608E-02  0.8507668E-01
         -1   -1    0    0    0  501 -0.00000000000E+00  0.00000000000E+00  0.21149960145E+04  0.21149960145E+04  0.00000000000E+00 0.  1.
          1   -1    0    0  501    0  0.00000000000E+00 -0.00000000000E+00 -0.58572792293E+03  0.58572792293E+03  0.00000000000E+00 0. -1.
         23    2    1    2    0    0 -0.97287979290E+02  0.10547755653E+04  0.11726086610E+04  0.15830377590E+04  0.94768299272E+02 0.  0.
         11    1    3    3    0    0 -0.32975068077E+02  0.56522078769E+03  0.69048218919E+03  0.89293199491E+03  0.00000000000E+00 0.  1.
        -11    1    3    3    0    0 -0.64312911214E+02  0.48955477759E+03  0.48212647185E+03  0.69010576412E+03  0.00000000000E+00 0. -1.
         22    1    1    2    0    0  0.97287979290E+02 -0.10547755653E+04  0.35665943054E+03  0.11176861784E+04  0.00000000000E+00 0. -1.
<mgrwt>
<rscale>  0 0.22260388E+04</rscale>
<asrwt>0</asrwt>
<pdfrwt beam="1">  1        1 0.90111989E-01 0.22260388E+04</pdfrwt>
<pdfrwt beam="2">  1       -1 0.32538400E+00 0.22260388E+04</pdfrwt>
<totfact> 0.72845225E-01</totfact>
</mgrwt>
</event>
<event>
 6    1  0.1637818E-005  0.1324589E+04  0.7818608E-02  0.9010290E-01
          2   -1    0    0  501    0  0.00000000000E+00  0.00000000000E+00  0.11267185467E+04  0.11267185467E+04  0.00000000000E+00 0.  1.
         -2   -1    0    0    0  501 -0.00000000000E+00 -0.00000000000E+00 -0.38930221355E+03  0.38930221355E+03  0.00000000000E+00 0. -1.
         23    2    1    2    0    0  0.45382415596E+03  0.96998902002E+02 -0.16563135828E+03  0.50070786044E+03  0.88935162574E+02 0.  0.
         11    1    3    3    0    0  0.45399884194E+03  0.96921102843E+02 -0.15404531405E+03  0.48912023823E+03  0.00000000000E+00 0.  1.
        -11    1    3    3    0    0 -0.17468598022E+00  0.77799158573E-01 -0.11586044224E+02  0.11587622218E+02  0.00000000000E+00 0. -1.
         22    1    1    2    0    0 -0.45382415596E+03 -0.96998902002E+02  0.90304769138E+03  0.10153128998E+04  0.00000000000E+00 0.  1.
<mgrwt>
<rscale>  0 0.13245890E+04</rscale>
<asrwt>0</asrwt>
<pdfrwt beam="1">  1        2 0.17334131E+00 0.13245890E+04</pdfrwt>
<pdfrwt beam="2">  1       -2 0.59892649E-01 0.13245890E+04</pdfrwt>
<totfact> 0.53365550E+01</totfact>
</mgrwt>
</event>
<event>
 6    1  0.1637818E-005  0.1683059E+04  0.7818608E-02  0.8771086E-01
         -2   -1    0    0    0  501 -0.00000000000E+00  0.00000000000E+00  0.30706663249E+03  0.30706663249E+03  0.00000000000E+00 0.  1.
          2   -1    0    0  501    0  0.00000000000E+00 -0.00000000000E+00 -0.23062483187E+04  0.23062483187E+04  0.00000000000E+00 0. -1.
         23    2    1    2    0    0 -0.50270774139E+03 -0.19204936163E+03 -0.20021907699E+04  0.20751634064E+04  0.89091264884E+02 0.  0.
         11    1    3    3    0    0 -0.25537092451E+03 -0.14237163052E+03 -0.11311293077E+04  0.11683053971E+04  0.00000000000E+00 0. -1.
        -11    1    3    3    0    0 -0.24733681687E+03 -0.49677731113E+02 -0.87106146225E+03  0.90685800926E+03  0.00000000000E+00 0.  1.
         22    1    1    2    0    0  0.50270774139E+03  0.19204936163E+03  0.30090837449E+01  0.53815154477E+03  0.00000000000E+00 0.  1.
<mgrwt>
<rscale>  0 0.16830590E+04</rscale>
<asrwt>0</asrwt>
<pdfrwt beam="1">  1        2 0.35480742E+00 0.16830590E+04</pdfrwt>
<pdfrwt beam="2">  1       -2 0.47241022E-01 0.16830590E+04</pdfrwt>
<totfact> 0.18212275E+01</totfact>
</mgrwt>
</event>
<event>
 6    1  0.1637818E-005  0.5279433E+04  0.7818608E-02  0.7786791E-01
          1   -1    0    0  501    0  0.00000000000E+00  0.00000000000E+00  0.17671965468E+04  0.17671965468E+04  0.00000000000E+00 0. -1.
         -1   -1    0    0    0  501 -0.00000000000E+00 -0.00000000000E+00 -0.39430268886E+04  0.39430268886E+04  0.00000000000E+00 0.  1.
         23    2    1    2    0    0 -0.95811316921E+03 -0.17245508679E+04 -0.29839453844E+04  0.35782979061E+04  0.90715526608E+02 0.  0.
         11    1    3    3    0    0 -0.85641156599E+03 -0.14881942844E+04 -0.25650965060E+04  0.30867269208E+04  0.00000000000E+00 0. -1.
        -11    1    3    3    0    0 -0.10170160323E+03 -0.23635658348E+03 -0.41884887834E+03  0.49157098525E+03  0.00000000000E+00 0.  1.
         22    1    1    2    0    0  0.95811316921E+03  0.17245508679E+04  0.80811504251E+03  0.21319255294E+04  0.00000000000E+00 0. -1.
<mgrwt>
<rscale>  0 0.52794331E+04</rscale>
<asrwt>0</asrwt>
<pdfrwt beam="1">  1        1 0.27187640E+00 0.52794331E+04</pdfrwt>
<pdfrwt beam="2">  1       -1 0.60661951E+00 0.52794331E+04</pdfrwt>
<totfact> 0.12759900E-03</totfact>
</mgrwt>
</event>
<event>
 6    1  0.1637818E-005  0.1417493E+04  0.7818608E-02  0.8941253E-01
          1   -1    0    0  501    0  0.00000000000E+00  0.00000000000E+00  0.69091874523E+03  0.69091874523E+03  0.00000000000E+00 0. -1.
         -1   -1    0    0    0  501 -0.00000000000E+00 -0.00000000000E+00 -0.72703414613E+03  0.72703414613E+03  0.00000000000E+00 0.  1.
         23    2    1    2    0    0  0.52004181999E+02  0.65438439562E+03 -0.27758978322E+03  0.71850078471E+03  0.90906092739E+02 0.  0.
         11    1    3    3    0    0  0.29769213540E+01  0.44934245450E+03 -0.21786499184E+03  0.49938227657E+03  0.00000000000E+00 0.  1.
        -11    1    3    3    0    0  0.49027260645E+02  0.20504194112E+03 -0.59724791383E+02  0.21911850814E+03  0.00000000000E+00 0. -1.
         22    1    1    2    0    0 -0.52004181999E+02 -0.65438439562E+03  0.24147438232E+03  0.69945210665E+03  0.00000000000E+00 0. -1.
<mgrwt>
<rscale>  0 0.14174929E+04</rscale>
<asrwt>0</asrwt>
<pdfrwt beam="1">  1        1 0.10629519E+00 0.14174929E+04</pdfrwt>
<pdfrwt beam="2">  1       -1 0.11185141E+00 0.14174929E+04</pdfrwt>
<totfact> 0.19857304E+01</totfact>
</mgrwt>
</event>
<event>
 6    1  0.1637818E-005  0.1046844E+04  0.7818608E-02  0.9258609E-01
         -1   -1    0    0    0  501 -0.00000000000E+00  0.00000000000E+00  0.23483043698E+03  0.23483043698E+03  0.00000000000E+00 0. -1.
          1   -1    0    0  501    0  0.00000000000E+00 -0.00000000000E+00 -0.11666735129E+04  0.11666735129E+04  0.00000000000E+00 0.  1.
         23    2    1    2    0    0  0.24506631064E+03  0.96220223951E+02  0.13168301805E+03  0.30587464184E+03  0.83084602491E+02 0.  0.
         11    1    3    3    0    0  0.81611376627E+02  0.74605148169E+02  0.63019569537E+02  0.12727062141E+03  0.00000000000E+00 0. -1.
        -11    1    3    3    0    0  0.16345493401E+03  0.21615075782E+02  0.68663448510E+02  0.17860402043E+03  0.00000000000E+00 0.  1.
         22    1    1    2    0    0 -0.24506631064E+03 -0.96220223951E+02 -0.10635260939E+04  0.10956293080E+04  0.00000000000E+00 0.  1.
<mgrwt>
<rscale>  0 0.10468437E+04</rscale>
<asrwt>0</asrwt>
<pdfrwt beam="1">  1        1 0.17948823E+00 0.10468437E+04</pdfrwt>
<pdfrwt beam="2">  1       -1 0.36127759E-01 0.10468437E+04</pdfrwt>
<totfact> 0.82775773E+01</totfact>
</mgrwt>
</event>
<event>
 6    1  0.1637818E-005  0.2688225E+04  0.7818608E-02  0.8338836E-01
         -1   -1    0    0    0  501 -0.00000000000E+00  0.00000000000E+00  0.18844468176E+04  0.18844468176E+04  0.00000000000E+00 0.  1.
          1   -1    0    0  501    0  0.00000000000E+00 -0.00000000000E+00 -0.95871028407E+03  0.95871028407E+03  0.00000000000E+00 0. -1.
         23    2    1    2    0    0  0.10932015263E+04 -0.53554157805E+03 -0.13578105766E+03  0.12280057294E+04  0.87562645578E+02 0.  0.
         13    1    3    3    0    0  0.99772511461E+02 -0.53623063445E+02  0.12444954457E+02  0.11395114685E+03  0.00000000000E+00 0. -1.
        -13    1    3    3    0    0  0.99342901484E+03 -0.48191851461E+03 -0.14822601212E+03  0.11140545826E+04  0.00000000000E+00 0.  1.
         22    1    1    2    0    0 -0.10932015263E+04  0.53554157805E+03  0.10615175912E+04  0.16151513723E+04  0.00000000000E+00 0.  1.
<mgrwt>
<rscale>  0 0.26882251E+04</rscale>
<asrwt>0</asrwt>
<pdfrwt beam="1">  1        1 0.14749389E+00 0.26882251E+04</pdfrwt>
<pdfrwt beam="2">  1       -1 0.28991489E+00 0.26882251E+04</pdfrwt>
<totfact> 0.54727509E-01</totfact>
</mgrwt>
</event>
<event>
 6    1  0.1637818E-005  0.1522064E+04  0.7818608E-02  0.8869912E-01
         -1   -1    0    0    0  501 -0.00000000000E+00  0.00000000000E+00  0.30149337545E+03  0.30149337545E+03  0.00000000000E+00 0.  1.
          1   -1    0    0  501    0  0.00000000000E+00 -0.00000000000E+00 -0.19210024980E+04  0.19210024980E+04  0.00000000000E+00 0. -1.
         23    2    1    2    0    0  0.62240454547E+03 -0.40938605436E+03 -0.10189080619E+04  0.12655705923E+04  0.92254678699E+02 0.  0.
         13    1    3    3    0    0  0.23755645888E+03 -0.14880113315E+03 -0.31054877377E+03  0.41834840656E+03  0.00000000000E+00 0. -1.
        -13    1    3    3    0    0  0.38484808659E+03 -0.26058492121E+03 -0.70835928811E+03  0.84722218571E+03  0.00000000000E+00 0.  1.
         22    1    1    2    0    0 -0.62240454547E+03  0.40938605436E+03 -0.60060106072E+03  0.95692528123E+03  0.00000000000E+00 0. -1.
<mgrwt>
<rscale>  0 0.15220638E+04</rscale>
<asrwt>0</asrwt>
<pdfrwt beam="1">  1        1 0.29553886E+00 0.15220638E+04</pdfrwt>
<pdfrwt beam="2">  1       -1 0.46383594E-01 0.15220638E+04</pdfrwt>
<totfact> 0.15070072E+01</totfact>
</mgrwt>
</event>
<event>
 6    1  0.1637818E-005  0.2971434E+04  0.7818608E-02  0.8251936E-01
         -2   -1    0    0    0  501 -0.00000000000E+00  0.00000000000E+00  0.13185530377E+04  0.13185530377E+04  0.00000000000E+00 0.  1.
          2   -1    0    0  501    0  0.00000000000E+00 -0.00000000000E+00 -0.16740732435E+04  0.16740732435E+04  0.00000000000E+00 0. -1.
         23    2    1    2    0    0 -0.61694500035E+03  0.13245042958E+04 -0.44126873763E+03  0.15289714129E+04  0.90015108103E+02 0.  0.
         11    1    3    3    0    0 -0.53978115115E+03  0.10997452401E+04 -0.34646602528E+03  0.12731229284E+04  0.00000000000E+00 0. -1.
        -11    1    3    3    0    0 -0.77163849200E+02  0.22475905567E+03 -0.94802712352E+02  0.25584848445E+03  0.00000000000E+00 0.  1.
         22    1    1    2    0    0  0.61694500035E+03 -0.13245042958E+04  0.85748531821E+02  0.14636548684E+04  0.00000000000E+00 0.  1.
<mgrwt>
<rscale>  0 0.29714336E+04</rscale>
<asrwt>0</asrwt>
<pdfrwt beam="1">  1        2 0.25754973E+00 0.29714336E+04</pdfrwt>
<pdfrwt beam="2">  1       -2 0.20285431E+00 0.29714336E+04</pdfrwt>
<totfact> 0.11083464E+00</totfact>
</mgrwt>
</event>
<event>
 6    1  0.1637818E-005  0.2194081E+04  0.7818608E-02  0.8520896E-01
          2   -1    0    0  501    0  0.00000000000E+00  0.00000000000E+00  0.28412096030E+04  0.28412096030E+04  0.00000000000E+00 0. -1.
         -2   -1    0    0    0  501 -0.00000000000E+00 -0.00000000000E+00 -0.42358653416E+03  0.42358653416E+03  0.00000000000E+00 0.  1.
         23    2    1    2    0    0 -0.83269838637E+03  0.53758903109E+03  0.19038159915E+04  0.21483794221E+04  0.92899099537E+02 0.  0.
         13    1    3    3    0    0 -0.21974316101E+03  0.12996825768E+03  0.40895509542E+03  0.48210276382E+03  0.00000000000E+00 0. -1.
        -13    1    3    3    0    0 -0.61295522537E+03  0.40762077341E+03  0.14948608961E+04  0.16662766583E+04  0.00000000000E+00 0.  1.
         22    1    1    2    0    0  0.83269838637E+03 -0.53758903109E+03  0.51380707736E+03  0.11164167151E+04  0.00000000000E+00 0. -1.
<mgrwt>
<rscale>  0 0.21940812E+04</rscale>
<asrwt>0</asrwt>
<pdfrwt beam="1">  1        2 0.43710916E+00 0.21940812E+04</pdfrwt>
<pdfrwt beam="2">  1       -2 0.65167161E-01 0.21940812E+04</pdfrwt>
<totfact> 0.43373283E+00</totfact>
</mgrwt>
</event>
<event>
 6    1  0.1637818E-005  0.1190334E+04  0.7818608E-02  0.9121359E-01
          1   -1    0    0  501    0  0.00000000000E+00  0.00000000000E+00  0.97634415366E+03  0.97634415366E+03  0.00000000000E+00 0. -1.
         -1   -1    0    0    0  501 -0.00000000000E+00 -0.00000000000E+00 -0.36280641580E+03  0.36280641580E+03  0.00000000000E+00 0.  1.
         23    2    1    2    0    0 -0.74278197316E+02  0.41245218695E+03 -0.16105875069E+03  0.45844983868E+03  0.92748457134E+02 0.  0.
         11    1    3    3    0    0  0.75792910654E+01  0.20989380186E+03 -0.65644496271E+02  0.22005011612E+03  0.00000000000E+00 0. -1.
        -11    1    3    3    0    0 -0.81857488381E+02  0.20255838509E+03 -0.95414254419E+02  0.23839972256E+03  0.00000000000E+00 0.  1.
         22    1    1    2    0    0  0.74278197316E+02 -0.41245218695E+03  0.77459648855E+03  0.88070073078E+03  0.00000000000E+00 0. -1.
<mgrwt>
<rscale>  0 0.11903343E+04</rscale>
<asrwt>0</asrwt>
<pdfrwt beam="1">  1        1 0.15020679E+00 0.11903343E+04</pdfrwt>
<pdfrwt beam="2">  1       -1 0.55816372E-01 0.11903343E+04</pdfrwt>
<totfact> 0.50778127E+01</totfact>
</mgrwt>
</event>
<event>
 6    1  0.1637818E-005  0.2751022E+04  0.7818608E-02  0.8318637E-01
          1   -1    0    0  501    0  0.00000000000E+00  0.00000000000E+00  0.12289597027E+04  0.12289597027E+04  0.00000000000E+00 0. -1.
         -1   -1    0    0    0  501 -0.00000000000E+00 -0.00000000000E+00 -0.15395384097E+04  0.15395384097E+04  0.00000000000E+00 0.  1.
         23    2    1    2    0    0  0.12538564241E+04 -0.43217421538E+03  0.20578449271E+03  0.13452759096E+04  0.92138649836E+02 0.  0.
         11    1    3    3    0    0  0.45127051490E+03 -0.13425417817E+03  0.33434422013E+02  0.47200330777E+03  0.00000000000E+00 0. -1.
        -11    1    3    3    0    0  0.80258590922E+03 -0.29792003721E+03  0.17235007070E+03  0.87327260183E+03  0.00000000000E+00 0.  1.
         22    1    1    2    0    0 -0.12538564241E+04  0.43217421538E+03 -0.51636319971E+03  0.14232222029E+04  0.00000000000E+00 0. -1.
<mgrwt>
<rscale>  0 0.27510221E+04</rscale>
<asrwt>0</asrwt>
<pdfrwt beam="1">  1        1 0.18907073E+00 0.27510221E+04</pdfrwt>
<pdfrwt beam="2">  1       -1 0.23685206E+00 0.27510221E+04</pdfrwt>
<totfact> 0.75243860E-01</totfact>
</mgrwt>
</event>
<event>
 6    1  0.1637818E-005  0.6269767E+04  0.7818608E-02  0.7657825E-01
         -2   -1    0    0    0  501 -0.00000000000E+00  0.00000000000E+00  0.56694632075E+04  0.56694632075E+04  0.00000000000E+00 0.  1.
          2   -1    0    0  501    0  0.00000000000E+00 -0.00000000000E+00 -0.17334082273E+04  0.17334082273E+04  0.00000000000E+00 0. -1.
         23    2    1    2    0    0 -0.10044238359E+04  0.28762659865E+04  0.28373903204E+04  0.41642239854E+04  0.90577608747E+02 0.  0.
         11    1    3    3    0    0 -0.43875124972E+03  0.13522565375E+04  0.13679158922E+04  0.19728898324E+04  0.00000000000E+00 0. -1.
        -11    1    3    3    0    0 -0.56567258615E+03  0.15240094489E+04  0.14694744282E+04  0.21913341530E+04  0.00000000000E+00 0.  1.
         22    1    1    2    0    0  0.10044238359E+04 -0.28762659865E+04  0.10986646598E+04  0.32386474494E+04  0.00000000000E+00 0. -1.
<mgrwt>
<rscale>  0 0.62697669E+04</rscale>
<asrwt>0</asrwt>
<pdfrwt beam="1">  1        2 0.26667819E+00 0.62697669E+04</pdfrwt>
<pdfrwt beam="2">  1       -2 0.87222510E+00 0.62697669E+04</pdfrwt>
<totfact> 0.12047347E-04</totfact>
</mgrwt>
</event>
<event>
 6    1  0.1637818E-005  0.4067868E+04  0.7818608E-02  0.7990994E-01
         -2   -1    0    0    0  501 -0.00000000000E+00  0.00000000000E+00  0.23943214894E+04  0.23943214894E+04  0.00000000000E+00 0. -1.
          2   -1    0    0  501    0  0.00000000000E+00 -0.00000000000E+00 -0.17277908177E+04  0.17277908177E+04  0.00000000000E+00 0.  1.
         23    2    1    2    0    0 -0.24177748146E+03  0.19602685069E+04  0.81980648274E+03  0.21410513681E+04  0.10444769923E+03 0.  0.
         11    1    3    3    0    0 -0.16192931611E+03  0.16280703737E+04  0.68703965560E+03  0.17745021086E+04  0.00000000000E+00 0.  1.
        -11    1    3    3    0    0 -0.79848165348E+02  0.33219813320E+03  0.13276682714E+03  0.36654925944E+03  0.00000000000E+00 0. -1.
         22    1    1    2    0    0  0.24177748146E+03 -0.19602685069E+04 -0.15327581102E+03  0.19810609390E+04  0.00000000000E+00 0.  1.
<mgrwt>
<rscale>  0 0.40678676E+04</rscale>
<asrwt>0</asrwt>
<pdfrwt beam="1">  1        2 0.26581397E+00 0.40678676E+04</pdfrwt>
<pdfrwt beam="2">  1       -2 0.36835715E+00 0.40678676E+04</pdfrwt>
<totfact> 0.88289539E-02</totfact>
</mgrwt>
</event>
<event>
 6    1  0.1637818E-005  0.2345440E+04  0.7818608E-02  0.8460217E-01
          1   -1    0    0  501    0  0.00000000000E+00  0.00000000000E+00  0.10715213074E+04  0.10715213074E+04  0.00000000000E+00 0. -1.
         -1   -1    0    0    0  501 -0.00000000000E+00 -0.00000000000E+00 -0.12834762493E+04  0.12834762493E+04  0.00000000000E+00 0.  1.
         23    2    1    2    0    0  0.10772787873E+04  0.33529354508E+03  0.20911259058E+03  0.11507346228E+04  0.86664581970E+02 0.  0.
         13    1    3    3    0    0  0.82951061860E+03  0.26390856580E+03  0.19762835382E+03  0.89263237881E+03  0.00000000000E+00 0. -1.
        -13    1    3    3    0    0  0.24776816867E+03  0.71384979281E+02  0.11484236762E+02  0.25810224402E+03  0.00000000000E+00 0.  1.
         22    1    1    2    0    0 -0.10772787873E+04 -0.33529354508E+03 -0.42106753244E+03  0.12042629338E+04  0.00000000000E+00 0. -1.
<mgrwt>
<rscale>  0 0.23454400E+04</rscale>
<asrwt>0</asrwt>
<pdfrwt beam="1">  1        1 0.16484943E+00 0.23454400E+04</pdfrwt>
<pdfrwt beam="2">  1       -1 0.19745788E+00 0.23454400E+04</pdfrwt>
<totfact> 0.18802332E+00</totfact>
</mgrwt>
</event>
<event>
 6    1  0.1637818E-005  0.3267912E+04  0.7818608E-02  0.8171109E-01
          1   -1    0    0  501    0  0.00000000000E+00  0.00000000000E+00  0.12393613589E+04  0.12393613589E+04  0.00000000000E+00 0. -1.
         -1   -1    0    0    0  501 -0.00000000000E+00 -0.00000000000E+00 -0.21541834474E+04  0.21541834474E+04  0.00000000000E+00 0.  1.
         23    2    1    2    0    0  0.14390017365E+04 -0.63272457473E+03  0.32872230812E+00  0.15745980255E+04  0.91062884512E+02 0.  0.
         11    1    3    3    0    0  0.92466998041E+03 -0.36476851168E+03 -0.21351600918E+02  0.99424671518E+03  0.00000000000E+00 0. -1.
        -11    1    3    3    0    0  0.51433175605E+03 -0.26795606305E+03  0.21680323226E+02  0.58035131035E+03  0.00000000000E+00 0.  1.
         22    1    1    2    0    0 -0.14390017365E+04  0.63272457473E+03 -0.91515081079E+03  0.18189467808E+04  0.00000000000E+00 0. -1.
<mgrwt>
<rscale>  0 0.32679117E+04</rscale>
<asrwt>0</asrwt>
<pdfrwt beam="1">  1        1 0.19067098E+00 0.32679117E+04</pdfrwt>
<pdfrwt beam="2">  1       -1 0.33141283E+00 0.32679117E+04</pdfrwt>
<totfact> 0.17141336E-01</totfact>
</mgrwt>
</event>
<event>
 6    1  0.1637818E-005  0.2245672E+04  0.7818608E-02  0.8499655E-01
         -2   -1    0    0    0  501 -0.00000000000E+00  0.00000000000E+00  0.32977162273E+03  0.32977162273E+03  0.00000000000E+00 0.  1.
          2   -1    0    0  501    0  0.00000000000E+00 -0.00000000000E+00 -0.38231317726E+04  0.38231317726E+04  0.00000000000E+00 0. -1.
         23    2    1    2    0    0  0.10311876498E+04 -0.34194757617E+02 -0.25600811170E+04  0.27616712063E+04  0.91078403472E+02 0.  0.
         11    1    3    3    0    0  0.11064078730E+03  0.99610887577E+01 -0.21516666907E+03  0.24215140426E+03  0.00000000000E+00 0. -1.
        -11    1    3    3    0    0  0.92054686252E+03 -0.44155846375E+02 -0.23449144480E+04  0.25195198021E+04  0.00000000000E+00 0.  1.
         22    1    1    2    0    0 -0.10311876498E+04  0.34194757617E+02 -0.93327903287E+03  0.13912321890E+04  0.00000000000E+00 0.  1.
<mgrwt>
<rscale>  0 0.22456717E+04</rscale>
<asrwt>0</asrwt>
<pdfrwt beam="1">  1        2 0.58817416E+00 0.22456717E+04</pdfrwt>
<pdfrwt beam="2">  1       -2 0.50734093E-01 0.22456717E+04</pdfrwt>
<totfact> 0.15853942E+00</totfact>
</mgrwt>
</event>
<event>
 6    1  0.1637818E-005  0.3041580E+04  0.7818608E-02  0.8231956E-01
         -2   -1    0    0    0  501 -0.00000000000E+00  0.00000000000E+00  0.14735063072E+04  0.14735063072E+04  0.00000000000E+00 0.  1.
          2   -1    0    0  501    0  0.00000000000E+00 -0.00000000000E+00 -0.15695911096E+04  0.15695911096E+04  0.00000000000E+00 0. -1.
         23    2    1    2    0    0 -0.28399821876E+03 -0.71378571771E+03 -0.13596475500E+04  0.15643358213E+04  0.91433377858E+02 0.  0.
         11    1    3    3    0    0 -0.21801406847E+03 -0.62910316506E+03 -0.11514421419E+04  0.13300826788E+04  0.00000000000E+00 0.  1.
        -11    1    3    3    0    0 -0.65984150290E+02 -0.84682552651E+02 -0.20820540810E+03  0.23425314251E+03  0.00000000000E+00 0. -1.
         22    1    1    2    0    0  0.28399821876E+03  0.71378571771E+03  0.12635627476E+04  0.14787615954E+04  0.00000000000E+00 0.  1.
<mgrwt>
<rscale>  0 0.30415801E+04</rscale>
<asrwt>0</asrwt>
<pdfrwt beam="1">  1        2 0.24147555E+00 0.30415801E+04</pdfrwt>
<pdfrwt beam="2">  1       -2 0.22669328E+00 0.30415801E+04</pdfrwt>
<totfact> 0.88740054E-01</totfact>
</mgrwt>
</event>
<event>
 6    1  0.1637818E-005  0.4962844E+04  0.7818608E-02  0.7834265E-01
         -2   -1    0    0    0  501 -0.00000000000E+00  0.00000000000E+00  0.17705285946E+04  0.17705285946E+04  0.00000000000E+00 0. -1.
          2   -1    0    0  501    0  0.00000000000E+00 -0.00000000000E+00 -0.34777496171E+04  0.34777496171E+04  0.00000000000E+00 0.  1.
         23    2    1    2    0    0  0.17377154160E+04 -0.14263559724E+04 -0.19626420472E+04  0.29856721641E+04  0.90156745669E+02 0.  0.
         13    1    3    3    0    0  0.42129750731E+03 -0.31544627204E+03 -0.41989713907E+03  0.67328415072E+03  0.00000000000E+00 0. -1.
        -13    1    3    3    0    0  0.13164179087E+04 -0.11109097003E+04 -0.15427449082E+04  0.23123880133E+04  0.00000000000E+00 0.  1.
         22    1    1    2    0    0 -0.17377154160E+04  0.14263559724E+04  0.25542102477E+03  0.22626060476E+04  0.00000000000E+00 0. -1.
<mgrwt>
<rscale>  0 0.49628440E+04</rscale>
<asrwt>0</asrwt>
<pdfrwt beam="1">  1        2 0.53503840E+00 0.49628440E+04</pdfrwt>
<pdfrwt beam="2">  1       -2 0.27238902E+00 0.49628440E+04</pdfrwt>
<totfact> 0.28779514E-02</totfact>
</mgrwt>
</event>
<event>
 6    1  0.1637818E-005  0.1268655E+04  0.7818608E-02  0.9054798E-01
          2   -1    0    0  501    0  0.00000000000E+00  0.00000000000E+00  0.13176653747E+04  0.13176653747E+04  0.00000000000E+00 0. -1.
         -2   -1    0    0    0  501 -0.00000000000E+00 -0.00000000000E+00 -0.30536677066E+03  0.30536677066E+03  0.00000000000E+00 0.  1.
         23    2    1    2    0    0  0.56936160590E+03  0.23327172826E+03  0.69003212052E+03  0.92845023956E+03  0.85364995815E+02 0.  0.
         11    1    3    3    0    0  0.14176627460E+03  0.99035732018E+02  0.19905859663E+03  0.26368556601E+03  0.00000000000E+00 0.  1.
        -11    1    3    3    0    0  0.42759533130E+03  0.13423599624E+03  0.49097352389E+03  0.66476467355E+03  0.00000000000E+00 0. -1.
         22    1    1    2    0    0 -0.56936160590E+03 -0.23327172826E+03  0.32226648355E+03  0.69458190582E+03  0.00000000000E+00 0.  1.
<mgrwt>
<rscale>  0 0.12686548E+04</rscale>
<asrwt>0</asrwt>
<pdfrwt beam="1">  1        2 0.20271775E+00 0.12686548E+04</pdfrwt>
<pdfrwt beam="2">  1       -2 0.46979504E-01 0.12686548E+04</pdfrwt>
<totfact> 0.68081184E+01</totfact>
</mgrwt>
</event>
<event>
 6    1  0.1637818E-005  0.3298390E+04  0.7818608E-02  0.8163305E-01
         -1   -1    0    0    0  501 -0.00000000000E+00  0.00000000000E+00  0.10603133534E+04  0.10603133534E+04  0.00000000000E+00 0.  1.
          1   -1    0    0  501    0  0.00000000000E+00 -0.00000000000E+00 -0.25651330815E+04  0.25651330815E+04  0.00000000000E+00 0. -1.
         23    2    1    2    0    0  0.47130070531E+03  0.12594356568E+04 -0.18000112472E+04  0.22486964353E+04  0.91063931980E+02 0.  0.
         13    1    3    3    0    0  0.14702632601E+03  0.30728553352E+03 -0.49931994771E+03  0.60445144538E+03  0.00000000000E+00 0. -1.
        -13    1    3    3    0    0  0.32427437929E+03  0.95215012327E+03 -0.13006912995E+04  0.16442449899E+04  0.00000000000E+00 0.  1.
         22    1    1    2    0    0 -0.47130070531E+03 -0.12594356568E+04  0.29519151912E+03  0.13767499996E+04  0.00000000000E+00 0.  1.
<mgrwt>
<rscale>  0 0.32983904E+04</rscale>
<asrwt>0</asrwt>
<pdfrwt beam="1">  1        1 0.39463586E+00 0.32983904E+04</pdfrwt>
<pdfrwt beam="2">  1       -1 0.16312513E+00 0.32983904E+04</pdfrwt>
<totfact> 0.28019522E-01</totfact>
</mgrwt>
</event>
<event>
 6    1  0.1637818E-005  0.2107086E+04  0.7818608E-02  0.8558129E-01
          2   -1    0    0  501    0  0.00000000000E+00  0.00000000000E+00  0.16393469990E+04  0.16393469990E+04  0.00000000000E+00 0. -1.
         -2   -1    0    0    0  501 -0.00000000000E+00 -0.00000000000E+00 -0.67706986623E+03  0.67706986623E+03  0.00000000000E+00 0.  1.
         23    2    1    2    0    0  0.87730819413E+03 -0.46987391091E+03  0.85572714886E+03  0.13155152423E+04  0.88657993870E+02 0.  0.
         13    1    3    3    0    0  0.13217000401E+03 -0.96204448797E+02  0.17310575721E+03  0.23809621818E+03  0.00000000000E+00 0. -1.
        -13    1    3    3    0    0  0.74513819011E+03 -0.37366946211E+03  0.68262139165E+03  0.10774190242E+04  0.00000000000E+00 0.  1.
         22    1    1    2    0    0 -0.87730819413E+03  0.46987391091E+03  0.10654998390E+03  0.10009016229E+04  0.00000000000E+00 0.  1.
<mgrwt>
<rscale>  0 0.21070856E+04</rscale>
<asrwt>0</asrwt>
<pdfrwt beam="1">  1        2 0.25220723E+00 0.21070856E+04</pdfrwt>
<pdfrwt beam="2">  1       -2 0.10416460E+00 0.21070856E+04</pdfrwt>
<totfact> 0.73167065E+00</totfact>
</mgrwt>
</event>
<event>
 6    1  0.1637818E-005  0.3844199E+04  0.7818608E-02  0.8036736E-01
          2   -1    0    0  501    0  0.00000000000E+00  0.00000000000E+00  0.18629167215E+04  0.18629167215E+04  0.00000000000E+00 0. -1.
         -2   -1    0    0    0  501 -0.00000000000E+00 -0.00000000000E+00 -0.19831625893E+04  0.19831625893E+04  0.00000000000E+00 0.  1.
         23    2    1    2    0    0 -0.15211517598E+04 -0.26568189284E+03  0.10831418380E+04  0.18883685265E+04  0.90828994328E+02 0.  0.
         13    1    3    3    0    0 -0.52311584098E+03 -0.57835860955E+02  0.33535124223E+03  0.62406379927E+03  0.00000000000E+00 0. -1.
        -13    1    3    3    0    0 -0.99803591878E+03 -0.20784603189E+03  0.74779059575E+03  0.12643047272E+04  0.00000000000E+00 0.  1.
         22    1    1    2    0    0  0.15211517598E+04  0.26568189284E+03 -0.12033877058E+04  0.19577107843E+04  0.00000000000E+00 0.  1.
<mgrwt>
<rscale>  0 0.38441991E+04</rscale>
<asrwt>0</asrwt>
<pdfrwt beam="1">  1        2 0.28660257E+00 0.38441991E+04</pdfrwt>
<pdfrwt beam="2">  1       -2 0.30510194E+00 0.38441991E+04</pdfrwt>
<totfact> 0.18812211E-01</totfact>
</mgrwt>
</event>
<event>
 6    1  0.1637818E-005  0.2165092E+04  0.7818608E-02  0.8533100E-01
         -1   -1    0    0    0  501 -0.00000000000E+00  0.00000000000E+00  0.96953958816E+03  0.96953958816E+03  0.00000000000E+00 0.  1.
          1   -1    0    0  501    0  0.00000000000E+00 -0.00000000000E+00 -0.12087236479E+04  0.12087236479E+04  0.00000000000E+00 0. -1.
         23    2    1    2    0    0 -0.10013111256E+04  0.32567380952E+03  0.12485265617E+03  0.10641671311E+04  0.90421771757E+02 0.  0.
         13    1    3    3    0    0 -0.24725153552E+03  0.10266591596E+03 -0.15729560439E+01  0.26772389940E+03  0.00000000000E+00 0. -1.
        -13    1    3    3    0    0 -0.75405959007E+03  0.22300789356E+03  0.12642561222E+03  0.79644323174E+03  0.00000000000E+00 0.  1.
         22    1    1    2    0    0  0.10013111256E+04 -0.32567380952E+03 -0.36403671589E+03  0.11140961049E+04  0.00000000000E+00 0. -1.
<mgrwt>
<rscale>  0 0.21650916E+04</rscale>
<asrwt>0</asrwt>
<pdfrwt beam="1">  1        1 0.18595748E+00 0.21650916E+04</pdfrwt>
<pdfrwt beam="2">  1       -1 0.14915994E+00 0.21650916E+04</pdfrwt>
<totfact> 0.34112807E+00</totfact>
</mgrwt>
</event>
<event>
 6    1  0.1637818E-005  0.2486359E+04  0.7818608E-02  0.8407861E-01
          2   -1    0    0  501    0  0.00000000000E+00  0.00000000000E+00  0.15492304599E+04  0.15492304599E+04  0.00000000000E+00 0.  1.
         -2   -1    0    0    0  501 -0.00000000000E+00 -0.00000000000E+00 -0.99758915538E+03  0.99758915538E+03  0.00000000000E+00 0. -1.
         23    2    1    2    0    0 -0.75235373250E+02 -0.53106070334E+03  0.14230732731E+04  0.15235505852E+04  0.91558795022E+02 0.  0.
         13    1    3    3    0    0 -0.43842282521E+02 -0.44037495085E+03  0.12441594286E+04  0.13205244893E+04  0.00000000000E+00 0. -1.
        -13    1    3    3    0    0 -0.31393090730E+02 -0.90685752490E+02  0.17891384450E+03  0.20302609587E+03  0.00000000000E+00 0.  1.
         22    1    1    2    0    0  0.75235373250E+02  0.53106070334E+03 -0.87143196860E+03  0.10232690301E+04  0.00000000000E+00 0. -1.
<mgrwt>
<rscale>  0 0.24863592E+04</rscale>
<asrwt>0</asrwt>
<pdfrwt beam="1">  1        2 0.23834315E+00 0.24863592E+04</pdfrwt>
<pdfrwt beam="2">  1       -2 0.15347525E+00 0.24863592E+04</pdfrwt>
<totfact> 0.29976426E+00</totfact>
</mgrwt>
</event>
<event>
 6    1  0.1637818E-005  0.1321274E+04  0.7818608E-02  0.9012862E-01
         -2   -1    0    0    0  501 -0.00000000000E+00  0.00000000000E+00  0.33441090751E+04  0.33441090751E+04  0.00000000000E+00 0.  1.
          2   -1    0    0  501    0  0.00000000000E+00 -0.00000000000E+00 -0.13051056485E+03  0.13051056485E+03  0.00000000000E+00 0. -1.
         23    2    1    2    0    0  0.54161415415E+03 -0.26707019187E+03  0.93090234839E+03  0.11133966207E+04  0.91654096052E+02 0.  0.
         13    1    3    3    0    0  0.25582965640E+03 -0.79937705816E+02  0.44365387095E+03  0.51833156099E+03  0.00000000000E+00 0.  1.
        -13    1    3    3    0    0  0.28578449775E+03 -0.18713248605E+03  0.48724847743E+03  0.59506505968E+03  0.00000000000E+00 0. -1.
         22    1    1    2    0    0 -0.54161415415E+03  0.26707019187E+03  0.22826961619E+04  0.23612230193E+04  0.00000000000E+00 0. -1.
<mgrwt>
<rscale>  0 0.13212745E+04</rscale>
<asrwt>0</asrwt>
<pdfrwt beam="1">  1        2 0.20078551E-01 0.13212745E+04</pdfrwt>
<pdfrwt beam="2">  1       -2 0.51447825E+00 0.13212745E+04</pdfrwt>
<totfact> 0.37513633E-01</totfact>
</mgrwt>
</event>
<event>
 6    1  0.1637818E-005  0.1008684E+04  0.7818608E-02  0.9299072E-01
         -2   -1    0    0    0  501 -0.00000000000E+00  0.00000000000E+00  0.14335845680E+03  0.14335845680E+03  0.00000000000E+00 0.  1.
          2   -1    0    0  501    0  0.00000000000E+00 -0.00000000000E+00 -0.17742978683E+04  0.17742978683E+04  0.00000000000E+00 0. -1.
         23    2    1    2    0    0  0.19052898333E+03  0.23171513807E+03 -0.15831227914E+04  0.16138807042E+04  0.91323359953E+02 0.  0.
         11    1    3    3    0    0  0.15580144491E+03  0.13397833375E+03 -0.11718730050E+04  0.11897523373E+04  0.00000000000E+00 0.  1.
        -11    1    3    3    0    0  0.34727538417E+02  0.97736804328E+02 -0.41124978639E+03  0.42412836695E+03  0.00000000000E+00 0. -1.
         22    1    1    2    0    0 -0.19052898333E+03 -0.23171513807E+03 -0.47816620121E+02  0.30377562091E+03  0.00000000000E+00 0.  1.
<mgrwt>
<rscale>  0 0.10086835E+04</rscale>
<asrwt>0</asrwt>
<pdfrwt beam="1">  1        2 0.27296891E+00 0.10086835E+04</pdfrwt>
<pdfrwt beam="2">  1       -2 0.22055146E-01 0.10086835E+04</pdfrwt>
<totfact> 0.16011662E+02</totfact>
</mgrwt>
</event>
<event>
 6    1  0.1637818E-005  0.4045328E+04  0.7818608E-02  0.7995464E-01
          1   -1    0    0  501    0  0.00000000000E+00  0.00000000000E+00  0.16490514427E+04  0.16490514427E+04  0.00000000000E+00 0. -1.
         -1   -1    0    0    0  501 -0.00000000000E+00 -0.00000000000E+00 -0.24809228322E+04  0.24809228322E+04  0.00000000000E+00 0.  1.
         23    2    1    2    0    0 -0.35143773327E+03 -0.15237629857E+04 -0.17242911562E+04  0.23294812432E+04  0.89110910116E+02 0.  0.
         11    1    3    3    0    0 -0.92290744804E+02 -0.54991527881E+03 -0.65354214836E+03  0.85909355435E+03  0.00000000000E+00 0. -1.
        -11    1    3    3    0    0 -0.25914698846E+03 -0.97384770685E+03 -0.10707490079E+04  0.14703876889E+04  0.00000000000E+00 0.  1.
         22    1    1    2    0    0  0.35143773327E+03  0.15237629857E+04  0.89241976674E+03  0.18004930316E+04  0.00000000000E+00 0. -1.
<mgrwt>
<rscale>  0 0.40453279E+04</rscale>
<asrwt>0</asrwt>
<pdfrwt beam="1">  1        1 0.25370022E+00 0.40453279E+04</pdfrwt>
<pdfrwt beam="2">  1       -1 0.38168044E+00 0.40453279E+04</pdfrwt>
<totfact> 0.38357825E-02</totfact>
</mgrwt>
</event>
<event>
 6    1  0.1637818E-005  0.4105014E+04  0.7818608E-02  0.7983691E-01
          2   -1    0    0  501    0  0.00000000000E+00  0.00000000000E+00  0.30276244400E+04  0.30276244400E+04  0.00000000000E+00 0. -1.
         -2   -1    0    0    0  501 -0.00000000000E+00 -0.00000000000E+00 -0.13914491926E+04  0.13914491926E+04  0.00000000000E+00 0.  1.
         23    2    1    2    0    0 -0.18199154058E+04  0.78548384807E+03  0.13878835407E+04  0.24213935452E+04  0.88594686496E+02 0.  0.
         11    1    3    3    0    0 -0.15566576957E+04  0.68755705294E+03  0.11571102468E+04  0.20578683160E+04  0.00000000000E+00 0.  1.
        -11    1    3    3    0    0 -0.26325771013E+03  0.97926795127E+02  0.23077329384E+03  0.36352522925E+03  0.00000000000E+00 0. -1.
         22    1    1    2    0    0  0.18199154058E+04 -0.78548384807E+03  0.24829170675E+03  0.19976800874E+04  0.00000000000E+00 0. -1.
<mgrwt>
<rscale>  0 0.41050143E+04</rscale>
<asrwt>0</asrwt>
<pdfrwt beam="1">  1        2 0.46578838E+00 0.41050143E+04</pdfrwt>
<pdfrwt beam="2">  1       -2 0.21406911E+00 0.41050143E+04</pdfrwt>
<totfact> 0.14099993E-01</totfact>
</mgrwt>
</event>
<event>
 6    1  0.1637818E-005  0.1764227E+04  0.7818608E-02  0.8725558E-01
         -2   -1    0    0    0  501 -0.00000000000E+00  0.00000000000E+00  0.63709745565E+03  0.63709745565E+03  0.00000000000E+00 0.  1.
          2   -1    0    0  501    0  0.00000000000E+00 -0.00000000000E+00 -0.12213588523E+04  0.12213588523E+04  0.00000000000E+00 0. -1.
         23    2    1    2    0    0  0.13235552850E+03  0.20322382505E+03  0.59782099458E+03  0.65175141915E+03  0.92585429811E+02 0.  0.
         13    1    3    3    0    0  0.61379722866E+02  0.16048168506E+03  0.34006074539E+03  0.38100282436E+03  0.00000000000E+00 0. -1.
        -13    1    3    3    0    0  0.70975805633E+02  0.42742139989E+02  0.25776024920E+03  0.27074859479E+03  0.00000000000E+00 0.  1.
         22    1    1    2    0    0 -0.13235552850E+03 -0.20322382505E+03 -0.11820823912E+04  0.12067048888E+04  0.00000000000E+00 0. -1.
<mgrwt>
<rscale>  0 0.17642274E+04</rscale>
<asrwt>0</asrwt>
<pdfrwt beam="1">  1        2 0.18790136E+00 0.17642274E+04</pdfrwt>
<pdfrwt beam="2">  1       -2 0.98014993E-01 0.17642274E+04</pdfrwt>
<totfact> 0.15084233E+01</totfact>
</mgrwt>
</event>
<event>
 6    1  0.1637818E-005  0.1104112E+04  0.7818608E-02  0.9201193E-01
          1   -1    0    0  501    0  0.00000000000E+00  0.00000000000E+00  0.14847264268E+04  0.14847264268E+04  0.00000000000E+00 0. -1.
         -1   -1    0    0    0  501 -0.00000000000E+00 -0.00000000000E+00 -0.20526744761E+03  0.20526744761E+03  0.00000000000E+00 0.  1.
         23    2    1    2    0    0  0.39650210588E+03 -0.34659536878E+03  0.87733930244E+03  0.10273910491E+04  0.92010035250E+02 0.  0.
         11    1    3    3    0    0  0.20800683064E+02 -0.45219776713E+02  0.11947067055E+03  0.12942464117E+03  0.00000000000E+00 0. -1.
        -11    1    3    3    0    0  0.37570142282E+03 -0.30137559207E+03  0.75786863190E+03  0.89796640796E+03  0.00000000000E+00 0.  1.
         22    1    1    2    0    0 -0.39650210588E+03  0.34659536878E+03  0.40211967674E+03  0.66260282527E+03  0.00000000000E+00 0.  1.
<mgrwt>
<rscale>  0 0.11041123E+04</rscale>
<asrwt>0</asrwt>
<pdfrwt beam="1">  1        1 0.22841944E+00 0.11041123E+04</pdfrwt>
<pdfrwt beam="2">  1       -1 0.31579608E-01 0.11041123E+04</pdfrwt>
<totfact> 0.62226626E+01</totfact>
</mgrwt>
</event>
<event>
 6    1  0.1637818E-005  0.9315531E+03  0.7818608E-02  0.9386976E-01
          2   -1    0    0  501    0  0.00000000000E+00  0.00000000000E+00  0.33191622593E+04  0.33191622593E+04  0.00000000000E+00 0. -1.
         -2   -1    0    0    0  501 -0.00000000000E+00 -0.00000000000E+00 -0.65362217235E+02  0.65362217235E+02  0.00000000000E+00 0.  1.
         23    2    1    2    0    0 -0.26639085862E+03  0.24941441245E+03  0.26682731352E+04  0.26945872349E+04  0.89147091470E+02 0.  0.
         11    1    3    3    0    0 -0.23499769957E+03  0.19500214903E+03  0.19742527031E+04  0.19977295845E+04  0.00000000000E+00 0. -1.
        -11    1    3    3    0    0 -0.31393159052E+02  0.54412263426E+02  0.69402043203E+03  0.69685765040E+03  0.00000000000E+00 0.  1.
         22    1    1    2    0    0  0.26639085862E+03 -0.24941441245E+03  0.58552690688E+03  0.68993724162E+03  0.00000000000E+00 0.  1.
<mgrwt>
<rscale>  0 0.93155312E+03</rscale>
<asrwt>0</asrwt>
<pdfrwt beam="1">  1        2 0.51064022E+00 0.93155312E+03</pdfrwt>
<pdfrwt beam="2">  1       -2 0.10055728E-01 0.93155312E+03</pdfrwt>
<totfact> 0.76788087E+01</totfact>
</mgrwt>
</event>
<event>
 6    1  0.1637818E-005  0.1051850E+04  0.7818608E-02  0.9253436E-01
          2   -1    0    0  501    0  0.00000000000E+00  0.00000000000E+00  0.28419832772E+04  0.28419832772E+04  0.00000000000E+00 0. -1.
         -2   -1    0    0    0  501 -0.00000000000E+00 -0.00000000000E+00 -0.97325380800E+02  0.97325380800E+02  0.00000000000E+00 0.  1.
         23    2    1    2    0    0  0.23543965415E+03 -0.42563709152E+03  0.19114912673E+04  0.19745468240E+04  0.91856033990E+02 0.  0.
         13    1    3    3    0    0  0.17071297063E+03 -0.33459710906E+03  0.13108911964E+04  0.13636472683E+04  0.00000000000E+00 0.  1.
        -13    1    3    3    0    0  0.64726683512E+02 -0.91039982460E+02  0.60060007090E+03  0.61089955568E+03  0.00000000000E+00 0. -1.
         22    1    1    2    0    0 -0.23543965415E+03  0.42563709152E+03  0.83316662920E+03  0.96476183404E+03  0.00000000000E+00 0. -1.
<mgrwt>
<rscale>  0 0.10518500E+04</rscale>
<asrwt>0</asrwt>
<pdfrwt beam="1">  1        2 0.43722813E+00 0.10518500E+04</pdfrwt>
<pdfrwt beam="2">  1       -2 0.14973138E-01 0.10518500E+04</pdfrwt>
<totfact> 0.77808279E+01</totfact>
</mgrwt>
</event>
<event>
 6    1  0.2022242E-005  0.3984761E+04  0.7818608E-02  0.8007628E-01
          2   -1    0    0  501    0  0.00000000000E+00  0.00000000000E+00  0.21251621086E+04  0.21251621086E+04  0.00000000000E+00 0. -1.
         -2   -1    0    0    0  501 -0.00000000000E+00 -0.00000000000E+00 -0.18678955293E+04  0.18678955293E+04  0.00000000000E+00 0.  1.
         23    2    1    2    0    0  0.11972799476E+04 -0.12719892939E+04 -0.82941177368E+03  0.19358007557E+04  0.89244824008E+02 0.  0.
         11    1    3    3    0    0  0.84581989623E+03 -0.92452783959E+03 -0.55452555948E+03  0.13702779350E+04  0.00000000000E+00 0. -1.
        -11    1    3    3    0    0  0.35146005137E+03 -0.34746145433E+03 -0.27488621420E+03  0.56552282068E+03  0.00000000000E+00 0.  1.
         22    1    1    2    0    0 -0.11972799476E+04  0.12719892939E+04  0.10866783529E+04  0.20572568822E+04  0.00000000000E+00 0. -1.
<mgrwt>
<rscale>  0 0.39847614E+04</rscale>
<asrwt>0</asrwt>
<pdfrwt beam="1">  1        2 0.32694802E+00 0.39847614E+04</pdfrwt>
<pdfrwt beam="2">  1       -2 0.28736854E+00 0.39847614E+04</pdfrwt>
<totfact> 0.17060677E-01</totfact>
</mgrwt>
</event>
<event>
 6    1  0.1637818E-005  0.2591499E+04  0.7818608E-02  0.8371095E-01
          2   -1    0    0  501    0  0.00000000000E+00  0.00000000000E+00  0.15479750773E+04  0.15479750773E+04  0.00000000000E+00 0.  1.
         -2   -1    0    0    0  501 -0.00000000000E+00 -0.00000000000E+00 -0.10846213380E+04  0.10846213380E+04  0.00000000000E+00 0. -1.
         23    2    1    2    0    0  0.50103424174E+03  0.87093107295E+03  0.10606734094E+04  0.14636879357E+04  0.88306547693E+02 0.  0.
         11    1    3    3    0    0  0.41873799866E+03  0.74042527412E+03  0.84966889298E+03  0.12022929451E+04  0.00000000000E+00 0. -1.
        -11    1    3    3    0    0  0.82296243077E+02  0.13050579883E+03  0.21100451644E+03  0.26139499060E+03  0.00000000000E+00 0.  1.
         22    1    1    2    0    0 -0.50103424174E+03 -0.87093107295E+03 -0.59731967015E+03  0.11689084796E+04  0.00000000000E+00 0. -1.
<mgrwt>
<rscale>  0 0.25914990E+04</rscale>
<asrwt>0</asrwt>
<pdfrwt beam="1">  1        2 0.23815001E+00 0.25914990E+04</pdfrwt>
<pdfrwt beam="2">  1       -2 0.16686482E+00 0.25914990E+04</pdfrwt>
<totfact> 0.23700113E+00</totfact>
</mgrwt>
</event>
<event>
 6    1  0.2166494E-005  0.2423902E+04  0.7818608E-02  0.8430609E-01
         -2   -1    0    0    0  501 -0.00000000000E+00  0.00000000000E+00  0.78280525906E+03  0.78280525906E+03  0.00000000000E+00 0. -1.
          2   -1    0    0  501    0  0.00000000000E+00 -0.00000000000E+00 -0.18763606021E+04  0.18763606021E+04  0.00000000000E+00 0.  1.
         23    2    1    2    0    0 -0.14286211050E+03  0.38698883456E+03  0.70072428782E+03  0.81807669047E+03  0.89805363211E+02 0.  0.
         13    1    3    3    0    0 -0.43504715713E+02  0.22680126260E+03  0.33903075818E+03  0.41021132115E+03  0.00000000000E+00 0. -1.
        -13    1    3    3    0    0 -0.99357394783E+02  0.16018757195E+03  0.36169352964E+03  0.40786536932E+03  0.00000000000E+00 0.  1.
         22    1    1    2    0    0  0.14286211050E+03 -0.38698883456E+03 -0.17942796309E+04  0.18410891707E+04  0.00000000000E+00 0.  1.
<mgrwt>
<rscale>  0 0.24239018E+04</rscale>
<asrwt>0</asrwt>
<pdfrwt beam="1">  1        2 0.28867086E+00 0.24239018E+04</pdfrwt>
<pdfrwt beam="2">  1       -2 0.12043158E+00 0.24239018E+04</pdfrwt>
<totfact> 0.36967693E+00</totfact>
</mgrwt>
</event>
<event>
 6    1  0.1637818E-005  0.2185091E+04  0.7818608E-02  0.8524659E-01
          2   -1    0    0  501    0  0.00000000000E+00  0.00000000000E+00  0.21861405150E+04  0.21861405150E+04  0.00000000000E+00 0. -1.
         -2   -1    0    0    0  501 -0.00000000000E+00 -0.00000000000E+00 -0.54601039719E+03  0.54601039719E+03  0.00000000000E+00 0.  1.
         23    2    1    2    0    0 -0.17098535231E+03  0.10726570280E+04  0.94145022412E+03  0.14406468726E+04  0.96466557411E+02 0.  0.
         13    1    3    3    0    0 -0.12754417089E+02  0.31626165194E+03  0.30451446951E+03  0.43921881766E+03  0.00000000000E+00 0. -1.
        -13    1    3    3    0    0 -0.15823093522E+03  0.75639537604E+03  0.63693575461E+03  0.10014280550E+04  0.00000000000E+00 0.  1.
         22    1    1    2    0    0  0.17098535231E+03 -0.10726570280E+04  0.69867989368E+03  0.12915040396E+04  0.00000000000E+00 0.  1.
<mgrwt>
<rscale>  0 0.21850908E+04</rscale>
<asrwt>0</asrwt>
<pdfrwt beam="1">  1        2 0.33632931E+00 0.21850908E+04</pdfrwt>
<pdfrwt beam="2">  1       -2 0.84001601E-01 0.21850908E+04</pdfrwt>
<totfact> 0.59546195E+00</totfact>
</mgrwt>
</event>
<event>
 6    1  0.1637818E-005  0.1647599E+04  0.7818608E-02  0.8791828E-01
         -1   -1    0    0    0  501 -0.00000000000E+00  0.00000000000E+00  0.94032379641E+03  0.94032379641E+03  0.00000000000E+00 0.  1.
          1   -1    0    0  501    0  0.00000000000E+00 -0.00000000000E+00 -0.72171473800E+03  0.72171473800E+03  0.00000000000E+00 0. -1.
         23    2    1    2    0    0 -0.35269579020E+03  0.55635750101E+03  0.60435922385E+03  0.89867022259E+03  0.91815620475E+02 0.  0.
         13    1    3    3    0    0 -0.29470348883E+03  0.39008060910E+03  0.45150453088E+03  0.66548431186E+03  0.00000000000E+00 0. -1.
        -13    1    3    3    0    0 -0.57992301376E+02  0.16627689191E+03  0.15285469297E+03  0.23318591073E+03  0.00000000000E+00 0.  1.
         22    1    1    2    0    0  0.35269579020E+03 -0.55635750101E+03 -0.38575016544E+03  0.76336831182E+03  0.00000000000E+00 0. -1.
<mgrwt>
<rscale>  0 0.16475989E+04</rscale>
<asrwt>0</asrwt>
<pdfrwt beam="1">  1        1 0.11103304E+00 0.16475989E+04</pdfrwt>
<pdfrwt beam="2">  1       -1 0.14466520E+00 0.16475989E+04</pdfrwt>
<totfact> 0.95538027E+00</totfact>
</mgrwt>
</event>
<event>
 6    1  0.1637818E-005  0.2488718E+04  0.7818608E-02  0.8407016E-01
          2   -1    0    0  501    0  0.00000000000E+00  0.00000000000E+00  0.19991017060E+04  0.19991017060E+04  0.00000000000E+00 0.  1.
         -2   -1    0    0    0  501 -0.00000000000E+00 -0.00000000000E+00 -0.77456234057E+03  0.77456234057E+03  0.00000000000E+00 0. -1.
         23    2    1    2    0    0 -0.56848625215E+03 -0.70570058525E+03 -0.33466692442E+03  0.97024668244E+03  0.90480603315E+02 0.  0.
         11    1    3    3    0    0 -0.20676887594E+03 -0.20659984693E+03 -0.13803286014E+03  0.32324902983E+03  0.00000000000E+00 0. -1.
        -11    1    3    3    0    0 -0.36171737621E+03 -0.49910073832E+03 -0.19663406429E+03  0.64699765261E+03  0.00000000000E+00 0.  1.
         22    1    1    2    0    0  0.56848625215E+03  0.70570058525E+03  0.15592062898E+04  0.18034173641E+04  0.00000000000E+00 0.  1.
<mgrwt>
<rscale>  0 0.24887177E+04</rscale>
<asrwt>0</asrwt>
<pdfrwt beam="1">  1        2 0.30755411E+00 0.24887177E+04</pdfrwt>
<pdfrwt beam="2">  1       -2 0.11916344E+00 0.24887177E+04</pdfrwt>
<totfact> 0.32263680E+00</totfact>
</mgrwt>
</event>
<event>
 6    1  0.1637818E-005  0.7139454E+04  0.7818608E-02  0.7563222E-01
         -2   -1    0    0    0  501 -0.00000000000E+00  0.00000000000E+00  0.34430131237E+04  0.34430131237E+04  0.00000000000E+00 0.  1.
          2   -1    0    0  501    0  0.00000000000E+00 -0.00000000000E+00 -0.37011046077E+04  0.37011046077E+04  0.00000000000E+00 0. -1.
         23    2    1    2    0    0 -0.11220783952E+04  0.21703641137E+04  0.24744260388E+04  0.34785765268E+04  0.90388717041E+02 0.  0.
         13    1    3    3    0    0 -0.28782756939E+03  0.56624269857E+03  0.58801990705E+03  0.86558818988E+03  0.00000000000E+00 0. -1.
        -13    1    3    3    0    0 -0.83425082580E+03  0.16041214152E+04  0.18864061317E+04  0.26129883369E+04  0.00000000000E+00 0.  1.
         22    1    1    2    0    0  0.11220783952E+04 -0.21703641137E+04 -0.27325175227E+04  0.36655412046E+04  0.00000000000E+00 0. -1.
<mgrwt>
<rscale>  0 0.71394542E+04</rscale>
<asrwt>0</asrwt>
<pdfrwt beam="1">  1        2 0.56940071E+00 0.71394542E+04</pdfrwt>
<pdfrwt beam="2">  1       -2 0.52969433E+00 0.71394542E+04</pdfrwt>
<totfact> 0.40228249E-04</totfact>
</mgrwt>
</event>
<event>
 6    1  0.1637818E-005  0.3519253E+04  0.7818608E-02  0.8109242E-01
          2   -1    0    0  501    0  0.00000000000E+00  0.00000000000E+00  0.20784437455E+04  0.20784437455E+04  0.00000000000E+00 0. -1.
         -2   -1    0    0    0  501 -0.00000000000E+00 -0.00000000000E+00 -0.14897131902E+04  0.14897131902E+04  0.00000000000E+00 0.  1.
         23    2    1    2    0    0 -0.14915072352E+04  0.14428096325E+03 -0.63864903051E+03  0.16311821097E+04  0.86438775553E+02 0.  0.
         13    1    3    3    0    0 -0.65763997174E+03  0.40314601567E+02 -0.24154385103E+03  0.70175425293E+03  0.00000000000E+00 0. -1.
        -13    1    3    3    0    0 -0.83386726346E+03  0.10396636168E+03 -0.39710517948E+03  0.92942785680E+03  0.00000000000E+00 0.  1.
         22    1    1    2    0    0  0.14915072352E+04 -0.14428096325E+03  0.12273795857E+04  0.19369748260E+04  0.00000000000E+00 0. -1.
<mgrwt>
<rscale>  0 0.35192528E+04</rscale>
<asrwt>0</asrwt>
<pdfrwt beam="1">  1        2 0.31976058E+00 0.35192528E+04</pdfrwt>
<pdfrwt beam="2">  1       -2 0.22918664E+00 0.35192528E+04</pdfrwt>
<totfact> 0.42878622E-01</totfact>
</mgrwt>
</event>
<event>
 6    1  0.1637818E-005  0.1625035E+04  0.7818608E-02  0.8805314E-01
          2   -1    0    0  501    0  0.00000000000E+00  0.00000000000E+00  0.21350256784E+04  0.21350256784E+04  0.00000000000E+00 0. -1.
         -2   -1    0    0    0  501 -0.00000000000E+00 -0.00000000000E+00 -0.30921634787E+03  0.30921634787E+03  0.00000000000E+00 0.  1.
         23    2    1    2    0    0  0.69572030458E+03  0.40897633060E+03  0.10170816551E+04  0.13017321427E+04  0.93611414138E+02 0.  0.
         11    1    3    3    0    0  0.60504271293E+03  0.35102310256E+03  0.92756145573E+03  0.11617504711E+04  0.00000000000E+00 0. -1.
        -11    1    3    3    0    0  0.90677591642E+02  0.57953228041E+02  0.89520199395E+02  0.13998167154E+03  0.00000000000E+00 0.  1.
         22    1    1    2    0    0 -0.69572030458E+03 -0.40897633060E+03  0.80872767545E+03  0.11425098836E+04  0.00000000000E+00 0. -1.
<mgrwt>
<rscale>  0 0.16250352E+04</rscale>
<asrwt>0</asrwt>
<pdfrwt beam="1">  1        2 0.32846548E+00 0.16250352E+04</pdfrwt>
<pdfrwt beam="2">  1       -2 0.47571747E-01 0.16250352E+04</pdfrwt>
<totfact> 0.22520915E+01</totfact>
</mgrwt>
</event>
<event>
 6    1  0.1637818E-005  0.5259115E+04  0.7818608E-02  0.7789734E-01
          2   -1    0    0  501    0  0.00000000000E+00  0.00000000000E+00  0.36154401496E+04  0.36154401496E+04  0.00000000000E+00 0.  1.
         -2   -1    0    0    0  501 -0.00000000000E+00 -0.00000000000E+00 -0.19125122302E+04  0.19125122302E+04  0.00000000000E+00 0. -1.
         23    2    1    2    0    0 -0.57590272298E+03 -0.79258245706E+03  0.34157866069E+04  0.35546972567E+04  0.91779873474E+02 0.  0.
         11    1    3    3    0    0 -0.28881251689E+03 -0.34315702422E+03  0.16792823587E+04  0.17381480528E+04  0.00000000000E+00 0.  1.
        -11    1    3    3    0    0 -0.28709020609E+03 -0.44942543285E+03  0.17365042482E+04  0.18165492038E+04  0.00000000000E+00 0. -1.
         22    1    1    2    0    0  0.57590272298E+03  0.79258245706E+03 -0.17128586875E+04  0.19732551231E+04  0.00000000000E+00 0. -1.
<mgrwt>
<rscale>  0 0.52591153E+04</rscale>
<asrwt>0</asrwt>
<pdfrwt beam="1">  1        2 0.55622156E+00 0.52591153E+04</pdfrwt>
<pdfrwt beam="2">  1       -2 0.29423265E+00 0.52591153E+04</pdfrwt>
<totfact> 0.16503897E-02</totfact>
</mgrwt>
</event>
<event>
 6    1  0.1637818E-005  0.1776916E+04  0.7818608E-02  0.8718673E-01
          2   -1    0    0  501    0  0.00000000000E+00  0.00000000000E+00  0.11937386076E+04  0.11937386076E+04  0.00000000000E+00 0. -1.
         -2   -1    0    0    0  501 -0.00000000000E+00 -0.00000000000E+00 -0.66124796688E+03  0.66124796688E+03  0.00000000000E+00 0.  1.
         23    2    1    2    0    0  0.33461419156E+03 -0.81814712103E+03  0.33223409031E+03  0.94865658226E+03  0.90765915664E+02 0.  0.
         13    1    3    3    0    0  0.54276889208E+02 -0.63707685747E+02  0.34044829759E+02  0.90353197833E+02  0.00000000000E+00 0.  1.
        -13    1    3    3    0    0  0.28033730235E+03 -0.75443943529E+03  0.29818926055E+03  0.85830338443E+03  0.00000000000E+00 0. -1.
         22    1    1    2    0    0 -0.33461419156E+03  0.81814712103E+03  0.20025655043E+03  0.90632999224E+03  0.00000000000E+00 0.  1.
<mgrwt>
<rscale>  0 0.17769156E+04</rscale>
<asrwt>0</asrwt>
<pdfrwt beam="1">  1        2 0.18365209E+00 0.17769156E+04</pdfrwt>
<pdfrwt beam="2">  1       -2 0.10173046E+00 0.17769156E+04</pdfrwt>
<totfact> 0.14330657E+01</totfact>
</mgrwt>
</event>
<event>
 6    1  0.1637818E-005  0.1249766E+04  0.7818608E-02  0.9070378E-01
          1   -1    0    0  501    0  0.00000000000E+00  0.00000000000E+00  0.32634711665E+04  0.32634711665E+04  0.00000000000E+00 0. -1.
         -1   -1    0    0    0  501 -0.00000000000E+00 -0.00000000000E+00 -0.11965144484E+03  0.11965144484E+03  0.00000000000E+00 0.  1.
         23    2    1    2    0    0 -0.41679933557E+03  0.27631243463E+03  0.25787379666E+04  0.26285448237E+04  0.96375008835E+02 0.  0.
         13    1    3    3    0    0 -0.10259517300E+03  0.10986304539E+03  0.63473312383E+03  0.65228965709E+03  0.00000000000E+00 0. -1.
        -13    1    3    3    0    0 -0.31420416258E+03  0.16644938924E+03  0.19440048427E+04  0.19762551666E+04  0.00000000000E+00 0.  1.
         22    1    1    2    0    0  0.41679933557E+03 -0.27631243463E+03  0.56508175508E+03  0.75457778763E+03  0.00000000000E+00 0.  1.
<mgrwt>
<rscale>  0 0.12497664E+04</rscale>
<asrwt>0</asrwt>
<pdfrwt beam="1">  1        1 0.50207242E+00 0.12497664E+04</pdfrwt>
<pdfrwt beam="2">  1       -1 0.18407917E-01 0.12497664E+04</pdfrwt>
<totfact> 0.89592561E+00</totfact>
</mgrwt>
</event>
<event>
 6    1  0.1637818E-005  0.6270027E+03  0.7818608E-02  0.9850915E-01
          1   -1    0    0  501    0  0.00000000000E+00  0.00000000000E+00  0.87529652164E+03  0.87529652164E+03  0.00000000000E+00 0. -1.
         -1   -1    0    0    0  501 -0.00000000000E+00 -0.00000000000E+00 -0.11228547880E+03  0.11228547880E+03  0.00000000000E+00 0.  1.
         23    2    1    2    0    0  0.27839020723E+03  0.42697693091E+02  0.58139853723E+03  0.65245918315E+03  0.91403096785E+02 0.  0.
         11    1    3    3    0    0  0.23568970042E+03  0.51485239414E+02  0.54372057526E+03  0.59483815339E+03  0.00000000000E+00 0. -1.
        -11    1    3    3    0    0  0.42700506816E+02 -0.87875463229E+01  0.37677961968E+02  0.57621029761E+02  0.00000000000E+00 0.  1.
         22    1    1    2    0    0 -0.27839020723E+03 -0.42697693091E+02  0.18161250560E+03  0.33512281729E+03  0.00000000000E+00 0. -1.
<mgrwt>
<rscale>  0 0.62700268E+03</rscale>
<asrwt>0</asrwt>
<pdfrwt beam="1">  1        1 0.13466100E+00 0.62700268E+03</pdfrwt>
<pdfrwt beam="2">  1       -1 0.17274690E-01 0.62700268E+03</pdfrwt>
<totfact> 0.50375397E+02</totfact>
</mgrwt>
</event>
<event>
 6    1  0.1637818E-005  0.1869483E+04  0.7818608E-02  0.8670198E-01
          2   -1    0    0  501    0  0.00000000000E+00  0.00000000000E+00  0.11372279317E+04  0.11372279317E+04  0.00000000000E+00 0. -1.
         -2   -1    0    0    0  501 -0.00000000000E+00 -0.00000000000E+00 -0.76830805598E+03  0.76830805598E+03  0.00000000000E+00 0.  1.
         23    2    1    2    0    0 -0.10802335860E+03 -0.42157441075E+03  0.10255727733E+04  0.11177625066E+04  0.90550969474E+02 0.  0.
         13    1    3    3    0    0 -0.37006610022E+02 -0.26839657145E+03  0.70852586546E+03  0.75856121096E+03  0.00000000000E+00 0. -1.
        -13    1    3    3    0    0 -0.71016748580E+02 -0.15317783930E+03  0.31704690780E+03  0.35920129562E+03  0.00000000000E+00 0.  1.
         22    1    1    2    0    0  0.10802335860E+03  0.42157441075E+03 -0.65665289749E+03  0.78777348114E+03  0.00000000000E+00 0.  1.
<mgrwt>
<rscale>  0 0.18694827E+04</rscale>
<asrwt>0</asrwt>
<pdfrwt beam="1">  1        2 0.17495814E+00 0.18694827E+04</pdfrwt>
<pdfrwt beam="2">  1       -2 0.11820124E+00 0.18694827E+04</pdfrwt>
<totfact> 0.10699248E+01</totfact>
</mgrwt>
</event>
<event>
 6    1  0.1637818E-005  0.1061683E+04  0.7818608E-02  0.9243365E-01
          2   -1    0    0  501    0  0.00000000000E+00  0.00000000000E+00  0.21952883841E+04  0.21952883841E+04  0.00000000000E+00 0. -1.
         -2   -1    0    0    0  501 -0.00000000000E+00 -0.00000000000E+00 -0.12836241809E+03  0.12836241809E+03  0.00000000000E+00 0.  1.
         23    2    1    2    0    0  0.44347959311E+03 -0.25960001489E+03  0.12963747764E+04  0.13974675303E+04  0.90893455340E+02 0.  0.
         11    1    3    3    0    0  0.23047412928E+03 -0.17360852949E+03  0.63938593663E+03  0.70147888189E+03  0.00000000000E+00 0.  1.
        -11    1    3    3    0    0  0.21300546383E+03 -0.85991485402E+02  0.65698883978E+03  0.69598864845E+03  0.00000000000E+00 0. -1.
         22    1    1    2    0    0 -0.44347959311E+03  0.25960001489E+03  0.77055118956E+03  0.92618327180E+03  0.00000000000E+00 0. -1.
<mgrwt>
<rscale>  0 0.10616827E+04</rscale>
<asrwt>0</asrwt>
<pdfrwt beam="1">  1        2 0.33773665E+00 0.10616827E+04</pdfrwt>
<pdfrwt beam="2">  1       -2 0.19748066E-01 0.10616827E+04</pdfrwt>
<totfact> 0.11356676E+02</totfact>
</mgrwt>
</event>
<event>
 6    1  0.1637818E-005  0.3610682E+04  0.7818608E-02  0.8088049E-01
          1   -1    0    0  501    0  0.00000000000E+00  0.00000000000E+00  0.16683325695E+04  0.16683325695E+04  0.00000000000E+00 0. -1.
         -1   -1    0    0    0  501 -0.00000000000E+00 -0.00000000000E+00 -0.19536010890E+04  0.19536010890E+04  0.00000000000E+00 0.  1.
         23    2    1    2    0    0 -0.17326736930E+04 -0.41105376531E+03 -0.43238518071E+03  0.18351022068E+04  0.97569670522E+02 0.  0.
         11    1    3    3    0    0 -0.33464003722E+03 -0.11938952998E+03 -0.84945922030E+02  0.36531304938E+03  0.00000000000E+00 0.  1.
        -11    1    3    3    0    0 -0.13980336558E+04 -0.29166423534E+03 -0.34743925868E+03  0.14697891575E+04  0.00000000000E+00 0. -1.
         22    1    1    2    0    0  0.17326736930E+04  0.41105376531E+03  0.14711666123E+03  0.17868314516E+04  0.00000000000E+00 0. -1.
<mgrwt>
<rscale>  0 0.36106821E+04</rscale>
<asrwt>0</asrwt>
<pdfrwt beam="1">  1        1 0.25666655E+00 0.36106821E+04</pdfrwt>
<pdfrwt beam="2">  1       -1 0.30055401E+00 0.36106821E+04</pdfrwt>
<totfact> 0.13261317E-01</totfact>
</mgrwt>
</event>
<event>
 6    1  0.1637818E-005  0.5652740E+04  0.7818608E-02  0.7735015E-01
          1   -1    0    0  501    0  0.00000000000E+00  0.00000000000E+00  0.37539651167E+04  0.37539651167E+04  0.00000000000E+00 0. -1.
         -1   -1    0    0    0  501 -0.00000000000E+00 -0.00000000000E+00 -0.21279815071E+04  0.21279815071E+04  0.00000000000E+00 0.  1.
         23    2    1    2    0    0  0.13052990831E+04 -0.14652144170E+04 -0.13023387638E+04  0.23569316015E+04  0.91549627576E+02 0.  0.
         13    1    3    3    0    0  0.40742448492E+03 -0.51333716226E+03 -0.40855007047E+03  0.77228421786E+03  0.00000000000E+00 0.  1.
        -13    1    3    3    0    0  0.89787459818E+03 -0.95187725472E+03 -0.89378869337E+03  0.15846473836E+04  0.00000000000E+00 0. -1.
         22    1    1    2    0    0 -0.13052990831E+04  0.14652144170E+04  0.29283223735E+04  0.35250150223E+04  0.00000000000E+00 0. -1.
<mgrwt>
<rscale>  0 0.56527403E+04</rscale>
<asrwt>0</asrwt>
<pdfrwt beam="1">  1        1 0.57753310E+00 0.56527403E+04</pdfrwt>
<pdfrwt beam="2">  1       -1 0.32738177E+00 0.56527403E+04</pdfrwt>
<totfact> 0.23340880E-03</totfact>
</mgrwt>
</event>
<event>
 6    1  0.1637818E-005  0.2041837E+04  0.7818608E-02  0.8587306E-01
          2   -1    0    0  501    0  0.00000000000E+00  0.00000000000E+00  0.13992709097E+04  0.13992709097E+04  0.00000000000E+00 0. -1.
         -2   -1    0    0    0  501 -0.00000000000E+00 -0.00000000000E+00 -0.74486988265E+03  0.74486988265E+03  0.00000000000E+00 0.  1.
         23    2    1    2    0    0  0.28392930226E+03 -0.47490055468E+03  0.12265532098E+04  0.13482108295E+04  0.84221605091E+02 0.  0.
         13    1    3    3    0    0  0.12801373724E+03 -0.21864282232E+03  0.66372605398E+03  0.71043963530E+03  0.00000000000E+00 0.  1.
        -13    1    3    3    0    0  0.15591556502E+03 -0.25625773235E+03  0.56282715584E+03  0.63777119420E+03  0.00000000000E+00 0. -1.
         22    1    1    2    0    0 -0.28392930226E+03  0.47490055468E+03 -0.57215218276E+03  0.79592996284E+03  0.00000000000E+00 0.  1.
<mgrwt>
<rscale>  0 0.20418372E+04</rscale>
<asrwt>0</asrwt>
<pdfrwt beam="1">  1        2 0.21527245E+00 0.20418372E+04</pdfrwt>
<pdfrwt beam="2">  1       -2 0.11459537E+00 0.20418372E+04</pdfrwt>
<totfact> 0.79778601E+00</totfact>
</mgrwt>
</event>
<event>
 6    1  0.1637818E-005  0.1749702E+04  0.7818608E-02  0.8733515E-01
          1   -1    0    0  501    0  0.00000000000E+00  0.00000000000E+00  0.63987186635E+03  0.63987186635E+03  0.00000000000E+00 0. -1.
         -1   -1    0    0    0  501 -0.00000000000E+00 -0.00000000000E+00 -0.11961206795E+04  0.11961206795E+04  0.00000000000E+00 0.  1.
         23    2    1    2    0    0  0.67583034690E+03  0.15642212051E+03 -0.83418761765E+03  0.10886877107E+04  0.90318395004E+02 0.  0.
         13    1    3    3    0    0  0.17538265944E+03  0.81502808204E+02 -0.24016563420E+03  0.30835258524E+03  0.00000000000E+00 0.  1.
        -13    1    3    3    0    0  0.50044768746E+03  0.74919312311E+02 -0.59402198345E+03  0.78033512548E+03  0.00000000000E+00 0. -1.
         22    1    1    2    0    0 -0.67583034690E+03 -0.15642212051E+03  0.27793880449E+03  0.74730483513E+03  0.00000000000E+00 0. -1.
<mgrwt>
<rscale>  0 0.17497017E+04</rscale>
<asrwt>0</asrwt>
<pdfrwt beam="1">  1        1 0.98441826E-01 0.17497017E+04</pdfrwt>
<pdfrwt beam="2">  1       -1 0.18401856E+00 0.17497017E+04</pdfrwt>
<totfact> 0.57531609E+00</totfact>
</mgrwt>
</event>
<event>
 6    1  0.1637818E-005  0.1160431E+04  0.7818608E-02  0.9148214E-01
          1   -1    0    0  501    0  0.00000000000E+00  0.00000000000E+00  0.12828692408E+04  0.12828692408E+04  0.00000000000E+00 0. -1.
         -1   -1    0    0    0  501 -0.00000000000E+00 -0.00000000000E+00 -0.26241956204E+03  0.26241956204E+03  0.00000000000E+00 0.  1.
         23    2    1    2    0    0  0.17436670067E+03  0.44013313895E+03  0.74911514378E+02  0.48785637162E+03  0.90946017177E+02 0.  0.
         11    1    3    3    0    0  0.23399675159E+02  0.12192013239E+03  0.52945236008E+02  0.13496392664E+03  0.00000000000E+00 0. -1.
        -11    1    3    3    0    0  0.15096702551E+03  0.31821300657E+03  0.21966278370E+02  0.35289244498E+03  0.00000000000E+00 0.  1.
         22    1    1    2    0    0 -0.17436670067E+03 -0.44013313895E+03  0.94553816438E+03  0.10574324312E+04  0.00000000000E+00 0. -1.
<mgrwt>
<rscale>  0 0.11604309E+04</rscale>
<asrwt>0</asrwt>
<pdfrwt beam="1">  1        1 0.19736449E+00 0.11604309E+04</pdfrwt>
<pdfrwt beam="2">  1       -1 0.40372241E-01 0.11604309E+04</pdfrwt>
<totfact> 0.55272508E+01</totfact>
</mgrwt>
</event>
<event>
 6    1  0.1637818E-005  0.1616857E+04  0.7818608E-02  0.8810258E-01
          1   -1    0    0  501    0  0.00000000000E+00  0.00000000000E+00  0.10047922062E+04  0.10047922062E+04  0.00000000000E+00 0. -1.
         -1   -1    0    0    0  501 -0.00000000000E+00 -0.00000000000E+00 -0.65043966774E+03  0.65043966774E+03  0.00000000000E+00 0.  1.
         23    2    1    2    0    0  0.11188957057E+03 -0.26296254235E+01  0.99478923729E+03  0.10050893080E+04  0.89848202073E+02 0.  0.
         13    1    3    3    0    0  0.36110849188E+02 -0.18177903137E+02  0.11487784273E+03  0.12178402334E+03  0.00000000000E+00 0. -1.
        -13    1    3    3    0    0  0.75778721378E+02  0.15548277713E+02  0.87991139456E+03  0.88330528462E+03  0.00000000000E+00 0.  1.
         22    1    1    2    0    0 -0.11188957057E+03  0.26296254235E+01 -0.64043669882E+03  0.65014256600E+03  0.00000000000E+00 0.  1.
<mgrwt>
<rscale>  0 0.16168571E+04</rscale>
<asrwt>0</asrwt>
<pdfrwt beam="1">  1        1 0.15458342E+00 0.16168571E+04</pdfrwt>
<pdfrwt beam="2">  1       -1 0.10006764E+00 0.16168571E+04</pdfrwt>
<totfact> 0.13682181E+01</totfact>
</mgrwt>
</event>
<event>
 6    1  0.1637818E-005  0.1763584E+04  0.7818608E-02  0.8725908E-01
         -1   -1    0    0    0  501 -0.00000000000E+00  0.00000000000E+00  0.39995621145E+03  0.39995621145E+03  0.00000000000E+00 0.  1.
          1   -1    0    0  501    0  0.00000000000E+00 -0.00000000000E+00 -0.19441058756E+04  0.19441058756E+04  0.00000000000E+00 0. -1.
         23    2    1    2    0    0  0.24329564106E+03  0.65219399509E+03 -0.59690422626E+02  0.70449842073E+03  0.90583122411E+02 0.  0.
         13    1    3    3    0    0  0.12528333867E+03  0.43978644207E+03 -0.62212694028E+02  0.46149588175E+03  0.00000000000E+00 0. -1.
        -13    1    3    3    0    0  0.11801230239E+03  0.21240755302E+03  0.25222714014E+01  0.24300253898E+03  0.00000000000E+00 0.  1.
         22    1    1    2    0    0 -0.24329564106E+03 -0.65219399509E+03 -0.14844592415E+04  0.16395636663E+04  0.00000000000E+00 0. -1.
<mgrwt>
<rscale>  0 0.17635841E+04</rscale>
<asrwt>0</asrwt>
<pdfrwt beam="1">  1        1 0.29909321E+00 0.17635841E+04</pdfrwt>
<pdfrwt beam="2">  1       -1 0.61531725E-01 0.17635841E+04</pdfrwt>
<totfact> 0.82467143E+00</totfact>
</mgrwt>
</event>
<event>
 6    1  0.2059276E-005  0.3340395E+04  0.7818608E-02  0.8152692E-01
         -2   -1    0    0    0  501 -0.00000000000E+00  0.00000000000E+00  0.11060458075E+04  0.11060458075E+04  0.00000000000E+00 0.  1.
          2   -1    0    0  501    0  0.00000000000E+00 -0.00000000000E+00 -0.25221014026E+04  0.25221014026E+04  0.00000000000E+00 0. -1.
         23    2    1    2    0    0  0.13759433125E+04  0.48839353864E+03  0.16957675583E+03  0.14726940790E+04  0.91232267371E+02 0.  0.
         13    1    3    3    0    0  0.49219883854E+03  0.22095226211E+03  0.68726433085E+02  0.54387767135E+03  0.00000000000E+00 0. -1.
        -13    1    3    3    0    0  0.88374447392E+03  0.26744127653E+03  0.10085032275E+03  0.92881640768E+03  0.00000000000E+00 0.  1.
         22    1    1    2    0    0 -0.13759433125E+04 -0.48839353864E+03 -0.15856323509E+04  0.21554531310E+04  0.00000000000E+00 0. -1.
<mgrwt>
<rscale>  0 0.33403950E+04</rscale>
<asrwt>0</asrwt>
<pdfrwt beam="1">  1        2 0.38801560E+00 0.33403950E+04</pdfrwt>
<pdfrwt beam="2">  1       -2 0.17016090E+00 0.33403950E+04</pdfrwt>
<totfact> 0.59796549E-01</totfact>
</mgrwt>
</event>
<event>
 6    1  0.1637818E-005  0.1579959E+04  0.7818608E-02  0.8832955E-01
          2   -1    0    0  501    0  0.00000000000E+00  0.00000000000E+00  0.99453478976E+03  0.99453478976E+03  0.00000000000E+00 0. -1.
         -2   -1    0    0    0  501 -0.00000000000E+00 -0.00000000000E+00 -0.62749722363E+03  0.62749722363E+03  0.00000000000E+00 0.  1.
         23    2    1    2    0    0 -0.26429670523E+03 -0.52158581928E+03 -0.35761389798E+03  0.69089063868E+03  0.86819694255E+02 0.  0.
         11    1    3    3    0    0 -0.45705758865E+02 -0.17166144488E+03 -0.90304792687E+02  0.19927775499E+03  0.00000000000E+00 0. -1.
        -11    1    3    3    0    0 -0.21859094636E+03 -0.34992437440E+03 -0.26730910529E+03  0.49161288368E+03  0.00000000000E+00 0.  1.
         22    1    1    2    0    0  0.26429670523E+03  0.52158581928E+03  0.72465146410E+03  0.93114137471E+03  0.00000000000E+00 0. -1.
<mgrwt>
<rscale>  0 0.15799593E+04</rscale>
<asrwt>0</asrwt>
<pdfrwt beam="1">  1        2 0.15300535E+00 0.15799593E+04</pdfrwt>
<pdfrwt beam="2">  1       -2 0.96538035E-01 0.15799593E+04</pdfrwt>
<totfact> 0.21894652E+01</totfact>
</mgrwt>
</event>
<event>
 6    1  0.1637818E-005  0.2303966E+04  0.7818608E-02  0.8476359E-01
          1   -1    0    0  501    0  0.00000000000E+00  0.00000000000E+00  0.15857445445E+04  0.15857445445E+04  0.00000000000E+00 0. -1.
         -1   -1    0    0    0  501 -0.00000000000E+00 -0.00000000000E+00 -0.83687197243E+03  0.83687197243E+03  0.00000000000E+00 0.  1.
         23    2    1    2    0    0 -0.93143816358E+03  0.63031615790E+03  0.12156622966E+03  0.11348320789E+04  0.90498550802E+02 0.  0.
         11    1    3    3    0    0 -0.86038468643E+03  0.57367101626E+03  0.87527018636E+02  0.10377963300E+04  0.00000000000E+00 0. -1.
        -11    1    3    3    0    0 -0.71053477153E+02  0.56645141641E+02  0.34039211026E+02  0.97035748950E+02  0.00000000000E+00 0.  1.
         22    1    1    2    0    0  0.93143816358E+03 -0.63031615790E+03  0.62730634239E+03  0.12877844380E+04  0.00000000000E+00 0. -1.
<mgrwt>
<rscale>  0 0.23039663E+04</rscale>
<asrwt>0</asrwt>
<pdfrwt beam="1">  1        1 0.24396070E+00 0.23039663E+04</pdfrwt>
<pdfrwt beam="2">  1       -1 0.12874953E+00 0.23039663E+04</pdfrwt>
<totfact> 0.26800054E+00</totfact>
</mgrwt>
</event>
<event>
 6    1  0.1637818E-005  0.2314804E+04  0.7818608E-02  0.8472107E-01
          1   -1    0    0  501    0  0.00000000000E+00  0.00000000000E+00  0.88834675239E+03  0.88834675239E+03  0.00000000000E+00 0. -1.
         -1   -1    0    0    0  501 -0.00000000000E+00 -0.00000000000E+00 -0.15079464175E+04  0.15079464175E+04  0.00000000000E+00 0.  1.
         23    2    1    2    0    0  0.89333058119E+03 -0.38315093051E+03  0.33681093643E+03  0.10326343410E+04  0.89710158011E+02 0.  0.
         13    1    3    3    0    0  0.16102539593E+03 -0.97880801469E+02  0.90406135893E+02  0.20900502108E+03  0.00000000000E+00 0.  1.
        -13    1    3    3    0    0  0.73230518526E+03 -0.28527012904E+03  0.24640480054E+03  0.82362931991E+03  0.00000000000E+00 0. -1.
         22    1    1    2    0    0 -0.89333058119E+03  0.38315093051E+03 -0.95641060151E+03  0.13636588289E+04  0.00000000000E+00 0.  1.
<mgrwt>
<rscale>  0 0.23148039E+04</rscale>
<asrwt>0</asrwt>
<pdfrwt beam="1">  1        1 0.13666873E+00 0.23148039E+04</pdfrwt>
<pdfrwt beam="2">  1       -1 0.23199176E+00 0.23148039E+04</pdfrwt>
<totfact> 0.15376330E+00</totfact>
</mgrwt>
</event>
<event>
 6    1  0.1637818E-005  0.1412029E+04  0.7818608E-02  0.8945157E-01
         -1   -1    0    0    0  501 -0.00000000000E+00  0.00000000000E+00  0.59224623630E+03  0.59224623630E+03  0.00000000000E+00 0.  1.
          1   -1    0    0  501    0  0.00000000000E+00 -0.00000000000E+00 -0.84163775285E+03  0.84163775285E+03  0.00000000000E+00 0. -1.
         23    2    1    2    0    0 -0.55206026633E+03  0.22972526175E+03  0.25051889749E+03  0.65449021472E+03  0.89741236994E+02 0.  0.
         13    1    3    3    0    0 -0.21416123426E+03  0.11161376274E+03  0.59324350834E+02  0.24868060820E+03  0.00000000000E+00 0. -1.
        -13    1    3    3    0    0 -0.33789903207E+03  0.11811149901E+03  0.19119454665E+03  0.40580960652E+03  0.00000000000E+00 0.  1.
         22    1    1    2    0    0  0.55206026633E+03 -0.22972526175E+03 -0.49991041404E+03  0.77939377443E+03  0.00000000000E+00 0. -1.
<mgrwt>
<rscale>  0 0.14120294E+04</rscale>
<asrwt>0</asrwt>
<pdfrwt beam="1">  1        1 0.12948273E+00 0.14120294E+04</pdfrwt>
<pdfrwt beam="2">  1       -1 0.91114805E-01 0.14120294E+04</pdfrwt>
<totfact> 0.23319209E+01</totfact>
</mgrwt>
</event>
<event>
 6    1  0.1637818E-005  0.1155647E+04  0.7818608E-02  0.9152590E-01
          1   -1    0    0  501    0  0.00000000000E+00  0.00000000000E+00  0.77908956069E+03  0.77908956069E+03  0.00000000000E+00 0. -1.
         -1   -1    0    0    0  501 -0.00000000000E+00 -0.00000000000E+00 -0.42855156398E+03  0.42855156398E+03  0.00000000000E+00 0.  1.
         23    2    1    2    0    0 -0.68756173037E+02  0.16113611736E+02  0.77181336546E+03  0.78048776095E+03  0.92077218080E+02 0.  0.
         13    1    3    3    0    0 -0.83673262571E+02  0.32374327403E+02  0.51756296823E+03  0.52528157975E+03  0.00000000000E+00 0.  1.
        -13    1    3    3    0    0  0.14917089534E+02 -0.16260715667E+02  0.25425039723E+03  0.25520618120E+03  0.00000000000E+00 0. -1.
         22    1    1    2    0    0  0.68756173037E+02 -0.16113611736E+02 -0.42127536875E+03  0.42715336371E+03  0.00000000000E+00 0.  1.
<mgrwt>
<rscale>  0 0.11556471E+04</rscale>
<asrwt>0</asrwt>
<pdfrwt beam="1">  1        1 0.11985993E+00 0.11556471E+04</pdfrwt>
<pdfrwt beam="2">  1       -1 0.65931010E-01 0.11556471E+04</pdfrwt>
<totfact> 0.53406746E+01</totfact>
</mgrwt>
</event>
<event>
 6    1  0.1637818E-005  0.2643098E+04  0.7818608E-02  0.8353707E-01
          2   -1    0    0  501    0  0.00000000000E+00  0.00000000000E+00  0.26062495911E+04  0.26062495911E+04  0.00000000000E+00 0. -1.
         -2   -1    0    0    0  501 -0.00000000000E+00 -0.00000000000E+00 -0.67011698788E+03  0.67011698788E+03  0.00000000000E+00 0.  1.
         23    2    1    2    0    0  0.37273789487E+03  0.11355354854E+04  0.27408153880E+03  0.12292251287E+04  0.86598789284E+02 0.  0.
         13    1    3    3    0    0  0.24305562708E+03  0.75092955802E+03  0.22272378773E+03  0.82010799568E+03  0.00000000000E+00 0. -1.
        -13    1    3    3    0    0  0.12968226779E+03  0.38460592734E+03  0.51357751077E+02  0.40911713301E+03  0.00000000000E+00 0.  1.
         22    1    1    2    0    0 -0.37273789487E+03 -0.11355354854E+04  0.16620510644E+04  0.20471414503E+04  0.00000000000E+00 0. -1.
<mgrwt>
<rscale>  0 0.26430983E+04</rscale>
<asrwt>0</asrwt>
<pdfrwt beam="1">  1        2 0.40096147E+00 0.26430983E+04</pdfrwt>
<pdfrwt beam="2">  1       -2 0.10309492E+00 0.26430983E+04</pdfrwt>
<totfact> 0.20423927E+00</totfact>
</mgrwt>
</event>
<event>
 6    1  0.1637818E-005  0.7467872E+03  0.7818608E-02  0.9640404E-01
         -2   -1    0    0    0  501 -0.00000000000E+00  0.00000000000E+00  0.36531690783E+03  0.36531690783E+03  0.00000000000E+00 0. -1.
          2   -1    0    0  501    0  0.00000000000E+00 -0.00000000000E+00 -0.38164882184E+03  0.38164882184E+03  0.00000000000E+00 0.  1.
         23    2    1    2    0    0  0.20852968063E+03 -0.23583606372E+03 -0.19789061749E+03  0.38355571403E+03  0.94079820510E+02 0.  0.
         11    1    3    3    0    0  0.51643588963E+02 -0.12845074556E+03 -0.84092352397E+02  0.16198203001E+03  0.00000000000E+00 0.  1.
        -11    1    3    3    0    0  0.15688609166E+03 -0.10738531816E+03 -0.11379826509E+03  0.22157368402E+03  0.00000000000E+00 0. -1.
         22    1    1    2    0    0 -0.20852968063E+03  0.23583606372E+03  0.18155870348E+03  0.36341001563E+03  0.00000000000E+00 0.  1.
<mgrwt>
<rscale>  0 0.74678717E+03</rscale>
<asrwt>0</asrwt>
<pdfrwt beam="1">  1        2 0.58715203E-01 0.74678717E+03</pdfrwt>
<pdfrwt beam="2">  1       -2 0.56202601E-01 0.74678717E+03</pdfrwt>
<totfact> 0.25137653E+02</totfact>
</mgrwt>
</event>
<event>
 6    1  0.1637818E-005  0.3152207E+04  0.7818608E-02  0.8201554E-01
         -2   -1    0    0    0  501 -0.00000000000E+00  0.00000000000E+00  0.77249712879E+03  0.77249712879E+03  0.00000000000E+00 0.  1.
          2   -1    0    0  501    0  0.00000000000E+00 -0.00000000000E+00 -0.32156785791E+04  0.32156785791E+04  0.00000000000E+00 0. -1.
         23    2    1    2    0    0 -0.75996168955E+03 -0.11972175699E+04 -0.20891344549E+04  0.25265940460E+04  0.91230607142E+02 0.  0.
         11    1    3    3    0    0 -0.67177581688E+03 -0.10119515787E+04 -0.18220637624E+04  0.21898048087E+04  0.00000000000E+00 0. -1.
        -11    1    3    3    0    0 -0.88185872663E+02 -0.18526599122E+03 -0.26707069245E+03  0.33678923737E+03  0.00000000000E+00 0.  1.
         22    1    1    2    0    0  0.75996168955E+03  0.11972175699E+04 -0.35404699540E+03  0.14615816618E+04  0.00000000000E+00 0.  1.
<mgrwt>
<rscale>  0 0.31522071E+04</rscale>
<asrwt>0</asrwt>
<pdfrwt beam="1">  1        2 0.49471978E+00 0.31522071E+04</pdfrwt>
<pdfrwt beam="2">  1       -2 0.11884571E+00 0.31522071E+04</pdfrwt>
<totfact> 0.58182061E-01</totfact>
</mgrwt>
</event>
<event>
 6    1  0.1637818E-005  0.1600746E+04  0.7818608E-02  0.8820090E-01
          2   -1    0    0  501    0  0.00000000000E+00  0.00000000000E+00  0.23870171822E+04  0.23870171822E+04  0.00000000000E+00 0. -1.
         -2   -1    0    0    0  501 -0.00000000000E+00 -0.00000000000E+00 -0.26836725086E+03  0.26836725086E+03  0.00000000000E+00 0.  1.
         23    2    1    2    0    0  0.73733813613E+02 -0.63989151211E+03  0.18436511050E+04  0.19550115488E+04  0.90127334299E+02 0.  0.
         13    1    3    3    0    0  0.85691369597E+02 -0.44788231152E+03  0.13645646898E+04  0.14387419395E+04  0.00000000000E+00 0. -1.
        -13    1    3    3    0    0 -0.11957555984E+02 -0.19200920059E+03  0.47908641517E+03  0.51626960927E+03  0.00000000000E+00 0.  1.
         22    1    1    2    0    0 -0.73733813613E+02  0.63989151211E+03  0.27499882636E+03  0.70037288428E+03  0.00000000000E+00 0.  1.
<mgrwt>
<rscale>  0 0.16007464E+04</rscale>
<asrwt>0</asrwt>
<pdfrwt beam="1">  1        2 0.36723340E+00 0.16007464E+04</pdfrwt>
<pdfrwt beam="2">  1       -2 0.41287271E-01 0.16007464E+04</pdfrwt>
<totfact> 0.21583476E+01</totfact>
</mgrwt>
</event>
<event>
 6    1  0.1637818E-005  0.2704541E+04  0.7818608E-02  0.8333533E-01
          2   -1    0    0  501    0  0.00000000000E+00  0.00000000000E+00  0.25278501455E+04  0.25278501455E+04  0.00000000000E+00 0. -1.
         -2   -1    0    0    0  501 -0.00000000000E+00 -0.00000000000E+00 -0.72339555878E+03  0.72339555878E+03  0.00000000000E+00 0.  1.
         23    2    1    2    0    0  0.71541462043E+03 -0.26194726342E+03  0.22441859038E+04  0.23715877712E+04  0.87314019652E+02 0.  0.
         11    1    3    3    0    0  0.39721017588E+03 -0.15148314867E+03  0.13834099587E+04  0.14472547053E+04  0.00000000000E+00 0. -1.
        -11    1    3    3    0    0  0.31820444455E+03 -0.11046411475E+03  0.86077594507E+03  0.92433306594E+03  0.00000000000E+00 0.  1.
         22    1    1    2    0    0 -0.71541462043E+03  0.26194726342E+03 -0.43973131706E+03  0.87965793303E+03  0.00000000000E+00 0.  1.
<mgrwt>
<rscale>  0 0.27045410E+04</rscale>
<asrwt>0</asrwt>
<pdfrwt beam="1">  1        2 0.38890002E+00 0.27045410E+04</pdfrwt>
<pdfrwt beam="2">  1       -2 0.11129163E+00 0.27045410E+04</pdfrwt>
<totfact> 0.18779577E+00</totfact>
</mgrwt>
</event>
<event>
 6    1  0.1637818E-005  0.1380365E+04  0.7818608E-02  0.8968155E-01
         -1   -1    0    0    0  501 -0.00000000000E+00  0.00000000000E+00  0.46041901781E+03  0.46041901781E+03  0.00000000000E+00 0.  1.
          1   -1    0    0  501    0  0.00000000000E+00 -0.00000000000E+00 -0.10346050072E+04  0.10346050072E+04  0.00000000000E+00 0. -1.
         23    2    1    2    0    0  0.35051297478E+03 -0.48947359475E+02  0.35010268028E+03  0.50529439810E+03  0.86575704026E+02 0.  0.
         11    1    3    3    0    0  0.17465106291E+03 -0.32655090862E+02  0.11659809053E+03  0.21251932489E+03  0.00000000000E+00 0.  1.
        -11    1    3    3    0    0  0.17586191187E+03 -0.16292268613E+02  0.23350458975E+03  0.29277507321E+03  0.00000000000E+00 0. -1.
         22    1    1    2    0    0 -0.35051297478E+03  0.48947359475E+02 -0.92428866972E+03  0.98972962695E+03  0.00000000000E+00 0. -1.
<mgrwt>
<rscale>  0 0.13803649E+04</rscale>
<asrwt>0</asrwt>
<pdfrwt beam="1">  1        1 0.15917000E+00 0.13803649E+04</pdfrwt>
<pdfrwt beam="2">  1       -1 0.70833696E-01 0.13803649E+04</pdfrwt>
<totfact> 0.27968989E+01</totfact>
</mgrwt>
</event>
<event>
 6    1  0.1637818E-005  0.8913468E+03  0.7818608E-02  0.9436464E-01
         -2   -1    0    0    0  501 -0.00000000000E+00  0.00000000000E+00  0.12847638429E+03  0.12847638429E+03  0.00000000000E+00 0.  1.
          2   -1    0    0  501    0  0.00000000000E+00 -0.00000000000E+00 -0.15460021018E+04  0.15460021018E+04  0.00000000000E+00 0. -1.
         23    2    1    2    0    0 -0.23458830508E+03  0.36041989654E+03 -0.89935454083E+03  0.10011022591E+04  0.91831195125E+02 0.  0.
         11    1    3    3    0    0 -0.95187233542E+02  0.91741157642E+02 -0.34555876385E+03  0.36998366005E+03  0.00000000000E+00 0. -1.
        -11    1    3    3    0    0 -0.13940107154E+03  0.26867873890E+03 -0.55379577699E+03  0.63111859907E+03  0.00000000000E+00 0.  1.
         22    1    1    2    0    0  0.23458830508E+03 -0.36041989654E+03 -0.51817117668E+03  0.67337622697E+03  0.00000000000E+00 0. -1.
<mgrwt>
<rscale>  0 0.89134676E+03</rscale>
<asrwt>0</asrwt>
<pdfrwt beam="1">  1        2 0.23784647E+00 0.89134676E+03</pdfrwt>
<pdfrwt beam="2">  1       -2 0.19765598E-01 0.89134676E+03</pdfrwt>
<totfact> 0.26185962E+02</totfact>
</mgrwt>
</event>
<event>
 6    1  0.1637818E-005  0.3478378E+04  0.7818608E-02  0.8118933E-01
         -1   -1    0    0    0  501 -0.00000000000E+00  0.00000000000E+00  0.13049678805E+04  0.13049678805E+04  0.00000000000E+00 0.  1.
          1   -1    0    0  501    0  0.00000000000E+00 -0.00000000000E+00 -0.23178953598E+04  0.23178953598E+04  0.00000000000E+00 0. -1.
         23    2    1    2    0    0 -0.35544975228E+03  0.39160599549E+03  0.12174595696E+04  0.13306315394E+04  0.93127374417E+02 0.  0.
         11    1    3    3    0    0 -0.33596204318E+03  0.33430937572E+03  0.11163324559E+04  0.12127783825E+04  0.00000000000E+00 0. -1.
        -11    1    3    3    0    0 -0.19487709098E+02  0.57296619762E+02  0.10112711379E+03  0.11785315687E+03  0.00000000000E+00 0.  1.
         22    1    1    2    0    0  0.35544975228E+03 -0.39160599549E+03 -0.22303870490E+04  0.22922317008E+04  0.00000000000E+00 0. -1.
<mgrwt>
<rscale>  0 0.34783784E+04</rscale>
<asrwt>0</asrwt>
<pdfrwt beam="1">  1        1 0.35659929E+00 0.34783784E+04</pdfrwt>
<pdfrwt beam="2">  1       -1 0.20076429E+00 0.34783784E+04</pdfrwt>
<totfact> 0.21986821E-01</totfact>
</mgrwt>
</event>
<event>
 6    1  0.1637818E-005  0.3215743E+04  0.7818608E-02  0.8184672E-01
         -2   -1    0    0    0  501 -0.00000000000E+00  0.00000000000E+00  0.81999885315E+03  0.81999885315E+03  0.00000000000E+00 0.  1.
          2   -1    0    0  501    0  0.00000000000E+00 -0.00000000000E+00 -0.31527498266E+04  0.31527498266E+04  0.00000000000E+00 0. -1.
         23    2    1    2    0    0  0.69113520872E+03  0.13832018895E+04 -0.62854303372E+03  0.16716098213E+04  0.91091742336E+02 0.  0.
         11    1    3    3    0    0  0.33495958254E+03  0.74388621852E+03 -0.36522902279E+03  0.89384387179E+03  0.00000000000E+00 0. -1.
        -11    1    3    3    0    0  0.35617562619E+03  0.63931567100E+03 -0.26331401093E+03  0.77776594952E+03  0.00000000000E+00 0.  1.
         22    1    1    2    0    0 -0.69113520872E+03 -0.13832018895E+04 -0.17042079397E+04  0.23011388584E+04  0.00000000000E+00 0. -1.
<mgrwt>
<rscale>  0 0.32157433E+04</rscale>
<asrwt>0</asrwt>
<pdfrwt beam="1">  1        2 0.48503844E+00 0.32157433E+04</pdfrwt>
<pdfrwt beam="2">  1       -2 0.12615367E+00 0.32157433E+04</pdfrwt>
<totfact> 0.54788982E-01</totfact>
</mgrwt>
</event>
<event>
 6    1  0.1637818E-005  0.3827593E+04  0.7818608E-02  0.8040259E-01
          2   -1    0    0  501    0  0.00000000000E+00  0.00000000000E+00  0.22105125301E+04  0.22105125301E+04  0.00000000000E+00 0. -1.
         -2   -1    0    0    0  501 -0.00000000000E+00 -0.00000000000E+00 -0.16569083814E+04  0.16569083814E+04  0.00000000000E+00 0.  1.
         23    2    1    2    0    0  0.99148251203E+03  0.41303694588E+03 -0.13221372164E+04  0.17059300466E+04  0.92268167086E+02 0.  0.
         13    1    3    3    0    0  0.42950686358E+03  0.22116350569E+03 -0.55494534069E+03  0.73576747228E+03  0.00000000000E+00 0. -1.
        -13    1    3    3    0    0  0.56197564846E+03  0.19187344020E+03 -0.76719187573E+03  0.97016257436E+03  0.00000000000E+00 0.  1.
         22    1    1    2    0    0 -0.99148251203E+03 -0.41303694588E+03  0.18757413650E+04  0.21614908649E+04  0.00000000000E+00 0. -1.
<mgrwt>
<rscale>  0 0.38275928E+04</rscale>
<asrwt>0</asrwt>
<pdfrwt beam="1">  1        2 0.34007885E+00 0.38275928E+04</pdfrwt>
<pdfrwt beam="2">  1       -2 0.25490898E+00 0.38275928E+04</pdfrwt>
<totfact> 0.24431675E-01</totfact>
</mgrwt>
</event>
<event>
 6    1  0.1637818E-005  0.3288471E+04  0.7818608E-02  0.8165835E-01
          1   -1    0    0  501    0  0.00000000000E+00  0.00000000000E+00  0.20661257234E+04  0.20661257234E+04  0.00000000000E+00 0. -1.
         -1   -1    0    0    0  501 -0.00000000000E+00 -0.00000000000E+00 -0.13084929422E+04  0.13084929422E+04  0.00000000000E+00 0.  1.
         23    2    1    2    0    0 -0.13400360065E+04 -0.38776957489E+03 -0.51158304300E+03  0.14886254126E+04  0.90700977284E+02 0.  0.
         13    1    3    3    0    0 -0.10897298764E+04 -0.28831267402E+03 -0.38638200805E+03  0.11916066707E+04  0.00000000000E+00 0. -1.
        -13    1    3    3    0    0 -0.25030613009E+03 -0.99456900864E+02 -0.12520103495E+03  0.29701874191E+03  0.00000000000E+00 0.  1.
         22    1    1    2    0    0  0.13400360065E+04  0.38776957489E+03  0.12692158242E+04  0.18859932530E+04  0.00000000000E+00 0. -1.
<mgrwt>
<rscale>  0 0.32884713E+04</rscale>
<asrwt>0</asrwt>
<pdfrwt beam="1">  1        1 0.31786549E+00 0.32884713E+04</pdfrwt>
<pdfrwt beam="2">  1       -1 0.20130661E+00 0.32884713E+04</pdfrwt>
<totfact> 0.32896996E-01</totfact>
</mgrwt>
</event>
<event>
 6    1  0.2549974E-005  0.3423196E+04  0.7818608E-02  0.8132237E-01
          1   -1    0    0  501    0  0.00000000000E+00  0.00000000000E+00  0.16649428882E+04  0.16649428882E+04  0.00000000000E+00 0. -1.
         -1   -1    0    0    0  501 -0.00000000000E+00 -0.00000000000E+00 -0.17595602233E+04  0.17595602233E+04  0.00000000000E+00 0.  1.
         23    2    1    2    0    0  0.14851436666E+04 -0.23588303275E+03 -0.86342163526E+03  0.17356121832E+04  0.74566847458E+02 0.  0.
         11    1    3    3    0    0  0.32269992446E+03 -0.48007863885E+02 -0.22317228425E+03  0.39527947670E+03  0.00000000000E+00 0.  1.
        -11    1    3    3    0    0  0.11624437422E+04 -0.18787516887E+03 -0.64024935102E+03  0.13403327065E+04  0.00000000000E+00 0. -1.
         22    1    1    2    0    0 -0.14851436666E+04  0.23588303275E+03  0.76880430021E+03  0.16888909283E+04  0.00000000000E+00 0. -1.
<mgrwt>
<rscale>  0 0.34231957E+04</rscale>
<asrwt>0</asrwt>
<pdfrwt beam="1">  1        1 0.25614506E+00 0.34231957E+04</pdfrwt>
<pdfrwt beam="2">  1       -1 0.27070157E+00 0.34231957E+04</pdfrwt>
<totfact> 0.21143696E-01</totfact>
</mgrwt>
</event>
<event>
 6    1  0.1637818E-005  0.2594127E+04  0.7818608E-02  0.8370199E-01
         -2   -1    0    0    0  501 -0.00000000000E+00  0.00000000000E+00  0.68741347188E+03  0.68741347188E+03  0.00000000000E+00 0.  1.
          2   -1    0    0  501    0  0.00000000000E+00 -0.00000000000E+00 -0.24473964451E+04  0.24473964451E+04  0.00000000000E+00 0. -1.
         23    2    1    2    0    0  0.57654556640E+03  0.10932831048E+04 -0.13501023193E+04  0.18326290970E+04  0.89891029326E+02 0.  0.
         11    1    3    3    0    0  0.24290090120E+03  0.41752934803E+03 -0.47030808678E+03  0.67418194930E+03  0.00000000000E+00 0. -1.
        -11    1    3    3    0    0  0.33364466520E+03  0.67575375681E+03 -0.87979423248E+03  0.11584471477E+04  0.00000000000E+00 0.  1.
         22    1    1    2    0    0 -0.57654556640E+03 -0.10932831048E+04 -0.40988065394E+03  0.13021808200E+04  0.00000000000E+00 0.  1.
<mgrwt>
<rscale>  0 0.25941267E+04</rscale>
<asrwt>0</asrwt>
<pdfrwt beam="1">  1        2 0.37652253E+00 0.25941267E+04</pdfrwt>
<pdfrwt beam="2">  1       -2 0.10575592E+00 0.25941267E+04</pdfrwt>
<totfact> 0.23868968E+00</totfact>
</mgrwt>
</event>
<event>
 6    1  0.1637818E-005  0.1135709E+04  0.7818608E-02  0.9171070E-01
          2   -1    0    0  501    0  0.00000000000E+00  0.00000000000E+00  0.79833111885E+03  0.79833111885E+03  0.00000000000E+00 0. -1.
         -2   -1    0    0    0  501 -0.00000000000E+00 -0.00000000000E+00 -0.40391572112E+03  0.40391572112E+03  0.00000000000E+00 0.  1.
         23    2    1    2    0    0  0.15031538211E+03 -0.25416853863E+03 -0.31146582817E+03  0.43709021208E+03  0.82707504205E+02 0.  0.
         11    1    3    3    0    0  0.90650658991E+02 -0.85431089252E+02 -0.97799718817E+02  0.15836918257E+03  0.00000000000E+00 0. -1.
        -11    1    3    3    0    0  0.59664723117E+02 -0.16873744937E+03 -0.21366610936E+03  0.27872102951E+03  0.00000000000E+00 0.  1.
         22    1    1    2    0    0 -0.15031538211E+03  0.25416853863E+03  0.70588122590E+03  0.76515662789E+03  0.00000000000E+00 0. -1.
<mgrwt>
<rscale>  0 0.11357086E+04</rscale>
<asrwt>0</asrwt>
<pdfrwt beam="1">  1        2 0.12282017E+00 0.11357086E+04</pdfrwt>
<pdfrwt beam="2">  1       -2 0.62140880E-01 0.11357086E+04</pdfrwt>
<totfact> 0.82302085E+01</totfact>
</mgrwt>
</event>
<event>
 6    1  0.1637818E-005  0.2203222E+04  0.7818608E-02  0.8517088E-01
          2   -1    0    0  501    0  0.00000000000E+00  0.00000000000E+00  0.95291851176E+03  0.95291851176E+03  0.00000000000E+00 0. -1.
         -2   -1    0    0    0  501 -0.00000000000E+00 -0.00000000000E+00 -0.12735054734E+04  0.12735054734E+04  0.00000000000E+00 0.  1.
         23    2    1    2    0    0  0.10416085776E+04 -0.17921297965E+03  0.14875157942E+03  0.10699879138E+04  0.75374944113E+02 0.  0.
         11    1    3    3    0    0  0.36177595215E+03 -0.26951847973E+02  0.42563973837E+02  0.36526693463E+03  0.00000000000E+00 0. -1.
        -11    1    3    3    0    0  0.67983262546E+03 -0.15226113167E+03  0.10618760558E+03  0.70472097914E+03  0.00000000000E+00 0.  1.
         22    1    1    2    0    0 -0.10416085776E+04  0.17921297965E+03 -0.46933854102E+03  0.11564360713E+04  0.00000000000E+00 0.  1.
<mgrwt>
<rscale>  0 0.22032221E+04</rscale>
<asrwt>0</asrwt>
<pdfrwt beam="1">  1        2 0.14660285E+00 0.22032221E+04</pdfrwt>
<pdfrwt beam="2">  1       -2 0.19592392E+00 0.22032221E+04</pdfrwt>
<totfact> 0.34941463E+00</totfact>
</mgrwt>
</event>
<event>
 6    1  0.1637818E-005  0.1197813E+04  0.7818608E-02  0.9114773E-01
          2   -1    0    0  501    0  0.00000000000E+00  0.00000000000E+00  0.46793941036E+03  0.46793941036E+03  0.00000000000E+00 0. -1.
         -2   -1    0    0    0  501 -0.00000000000E+00 -0.00000000000E+00 -0.76652895540E+03  0.76652895540E+03  0.00000000000E+00 0.  1.
         23    2    1    2    0    0 -0.17772705190E+03  0.18124810951E+03  0.40491426796E+03  0.48656770586E+03  0.91404517446E+02 0.  0.
         13    1    3    3    0    0 -0.12823495439E+03  0.68543488113E+02  0.19531017088E+03  0.24349225067E+03  0.00000000000E+00 0.  1.
        -13    1    3    3    0    0 -0.49492097512E+02  0.11270462140E+03  0.20960409708E+03  0.24307545519E+03  0.00000000000E+00 0. -1.
         22    1    1    2    0    0  0.17772705190E+03 -0.18124810951E+03 -0.70350381300E+03  0.74790065991E+03  0.00000000000E+00 0.  1.
<mgrwt>
<rscale>  0 0.11978132E+04</rscale>
<asrwt>0</asrwt>
<pdfrwt beam="1">  1        2 0.71990678E-01 0.11978132E+04</pdfrwt>
<pdfrwt beam="2">  1       -2 0.11792753E+00 0.11978132E+04</pdfrwt>
<totfact> 0.36372187E+01</totfact>
</mgrwt>
</event>
<event>
 6    1  0.1637818E-005  0.6710822E+04  0.7818608E-02  0.7608017E-01
          1   -1    0    0  501    0  0.00000000000E+00  0.00000000000E+00  0.30725012767E+04  0.30725012767E+04  0.00000000000E+00 0. -1.
         -1   -1    0    0    0  501 -0.00000000000E+00 -0.00000000000E+00 -0.36643703968E+04  0.36643703968E+04  0.00000000000E+00 0.  1.
         23    2    1    2    0    0 -0.38548312262E+03  0.19755823126E+04 -0.29902422235E+04  0.36057830042E+04  0.92735141695E+02 0.  0.
         11    1    3    3    0    0 -0.34156209985E+03  0.17121611338E+04 -0.26461315053E+04  0.31702006813E+04  0.00000000000E+00 0. -1.
        -11    1    3    3    0    0 -0.43921022774E+02  0.26342117873E+03 -0.34411071827E+03  0.43558232295E+03  0.00000000000E+00 0.  1.
         22    1    1    2    0    0  0.38548312262E+03 -0.19755823126E+04  0.23983731035E+04  0.31310886693E+04  0.00000000000E+00 0. -1.
<mgrwt>
<rscale>  0 0.67108219E+04</rscale>
<asrwt>0</asrwt>
<pdfrwt beam="1">  1        1 0.47269251E+00 0.67108219E+04</pdfrwt>
<pdfrwt beam="2">  1       -1 0.56374929E+00 0.67108219E+04</pdfrwt>
<totfact> 0.21880587E-04</totfact>
</mgrwt>
</event>
<event>
 6    1  0.1637818E-005  0.1282817E+04  0.7818608E-02  0.9043303E-01
         -1   -1    0    0    0  501 -0.00000000000E+00  0.00000000000E+00  0.97030800029E+03  0.97030800029E+03  0.00000000000E+00 0.  1.
          1   -1    0    0  501    0  0.00000000000E+00 -0.00000000000E+00 -0.42399418436E+03  0.42399418436E+03  0.00000000000E+00 0. -1.
         23    2    1    2    0    0 -0.60633924610E+03  0.19911189539E+03  0.28393813302E+03  0.70427767260E+03  0.89963039550E+02 0.  0.
         11    1    3    3    0    0 -0.35699304747E+03  0.92667509405E+02  0.12198868199E+03  0.38847463466E+03  0.00000000000E+00 0. -1.
        -11    1    3    3    0    0 -0.24934619863E+03  0.10644438599E+03  0.16194945103E+03  0.31580303794E+03  0.00000000000E+00 0.  1.
         22    1    1    2    0    0  0.60633924610E+03 -0.19911189539E+03  0.26237568291E+03  0.69002451205E+03  0.00000000000E+00 0.  1.
<mgrwt>
<rscale>  0 0.12828171E+04</rscale>
<asrwt>0</asrwt>
<pdfrwt beam="1">  1        1 0.65229875E-01 0.12828171E+04</pdfrwt>
<pdfrwt beam="2">  1       -1 0.14927815E+00 0.12828171E+04</pdfrwt>
<totfact> 0.19297992E+01</totfact>
</mgrwt>
</event>
<event>
 6    1  0.1637818E-005  0.2761152E+04  0.7818608E-02  0.8315431E-01
         -1   -1    0    0    0  501 -0.00000000000E+00  0.00000000000E+00  0.14199947359E+04  0.14199947359E+04  0.00000000000E+00 0.  1.
          1   -1    0    0  501    0  0.00000000000E+00 -0.00000000000E+00 -0.13422518634E+04  0.13422518634E+04  0.00000000000E+00 0. -1.
         23    2    1    2    0    0 -0.37242483573E+03  0.77531456486E+02  0.13650843084E+04  0.14198758019E+04  0.88773524887E+02 0.  0.
         11    1    3    3    0    0 -0.26857993228E+03  0.23376177144E+02  0.10386266920E+04  0.10730456799E+04  0.00000000000E+00 0.  1.
        -11    1    3    3    0    0 -0.10384490345E+03  0.54155279342E+02  0.32645761638E+03  0.34683012203E+03  0.00000000000E+00 0. -1.
         22    1    1    2    0    0  0.37242483573E+03 -0.77531456486E+02 -0.12873414359E+04  0.13423707974E+04  0.00000000000E+00 0. -1.
<mgrwt>
<rscale>  0 0.27611524E+04</rscale>
<asrwt>0</asrwt>
<pdfrwt beam="1">  1        1 0.20650029E+00 0.27611524E+04</pdfrwt>
<pdfrwt beam="2">  1       -1 0.21846073E+00 0.27611524E+04</pdfrwt>
<totfact> 0.82618338E-01</totfact>
</mgrwt>
</event>
<event>
 6    1  0.1637818E-005  0.1076928E+04  0.7818608E-02  0.9227976E-01
         -2   -1    0    0    0  501 -0.00000000000E+00  0.00000000000E+00  0.80098552942E+03  0.80098552942E+03  0.00000000000E+00 0. -1.
          2   -1    0    0  501    0  0.00000000000E+00 -0.00000000000E+00 -0.36198351602E+03  0.36198351602E+03  0.00000000000E+00 0.  1.
         23    2    1    2    0    0  0.32159070554E+03  0.15230054968E+03  0.65176676905E+03  0.74837903040E+03  0.93033394969E+02 0.  0.
         13    1    3    3    0    0  0.12513783016E+03  0.96659104651E+02  0.34958762762E+03  0.38368472531E+03  0.00000000000E+00 0. -1.
        -13    1    3    3    0    0  0.19645287538E+03  0.55641445034E+02  0.30217914142E+03  0.36469430509E+03  0.00000000000E+00 0.  1.
         22    1    1    2    0    0 -0.32159070554E+03 -0.15230054968E+03 -0.21276475565E+03  0.41459001504E+03  0.00000000000E+00 0.  1.
<mgrwt>
<rscale>  0 0.10769281E+04</rscale>
<asrwt>0</asrwt>
<pdfrwt beam="1">  1        2 0.55689772E-01 0.10769281E+04</pdfrwt>
<pdfrwt beam="2">  1       -2 0.12322854E+00 0.10769281E+04</pdfrwt>
<totfact> 0.43942381E+01</totfact>
</mgrwt>
</event>
<event>
 6    1  0.1637818E-005  0.1138729E+04  0.7818608E-02  0.9168245E-01
          3   -1    0    0  501    0  0.00000000000E+00  0.00000000000E+00  0.47456012945E+03  0.47456012945E+03  0.00000000000E+00 0. -1.
         -3   -1    0    0    0  501 -0.00000000000E+00 -0.00000000000E+00 -0.68310869637E+03  0.68310869637E+03  0.00000000000E+00 0.  1.
         23    2    1    2    0    0 -0.33305306588E+03 -0.98389480748E+02  0.34915817515E+03  0.50067442344E+03  0.90325037462E+02 0.  0.
         13    1    3    3    0    0 -0.18537121182E+03 -0.91849346400E+02  0.24033766586E+03  0.31711351633E+03  0.00000000000E+00 0.  1.
        -13    1    3    3    0    0 -0.14768185406E+03 -0.65401343482E+01  0.10882050929E+03  0.18356090711E+03  0.00000000000E+00 0. -1.
         22    1    1    2    0    0  0.33305306588E+03  0.98389480748E+02 -0.55770674207E+03  0.65699440239E+03  0.00000000000E+00 0.  1.
<mgrwt>
<rscale>  0 0.11387294E+04</rscale>
<asrwt>0</asrwt>
<pdfrwt beam="1">  1        3 0.73009251E-01 0.11387294E+04</pdfrwt>
<pdfrwt beam="2">  1       -3 0.10509365E+00 0.11387294E+04</pdfrwt>
<totfact> 0.35935712E+00</totfact>
</mgrwt>
</event>
<event>
 6    1  0.1637818E-005  0.9267129E+03  0.7818608E-02  0.9392792E-01
          1   -1    0    0  501    0  0.00000000000E+00  0.00000000000E+00  0.46810407853E+03  0.46810407853E+03  0.00000000000E+00 0. -1.
         -1   -1    0    0    0  501 -0.00000000000E+00 -0.00000000000E+00 -0.45865695723E+03  0.45865695723E+03  0.00000000000E+00 0.  1.
         23    2    1    2    0    0  0.42840369175E+03 -0.27537394287E+02 -0.15735534824E+03  0.46620583273E+03  0.91099624969E+02 0.  0.
         13    1    3    3    0    0  0.21638765925E+03 -0.29637959805E+02 -0.12521996133E+03  0.25175795211E+03  0.00000000000E+00 0.  1.
        -13    1    3    3    0    0  0.21201603250E+03  0.21005655178E+01 -0.32135386911E+02  0.21444788062E+03  0.00000000000E+00 0. -1.
         22    1    1    2    0    0 -0.42840369175E+03  0.27537394287E+02  0.16680246954E+03  0.46055520302E+03  0.00000000000E+00 0.  1.
<mgrwt>
<rscale>  0 0.92671288E+03</rscale>
<asrwt>0</asrwt>
<pdfrwt beam="1">  1        1 0.72016012E-01 0.92671288E+03</pdfrwt>
<pdfrwt beam="2">  1       -1 0.70562608E-01 0.92671288E+03</pdfrwt>
<totfact> 0.99182222E+01</totfact>
</mgrwt>
</event>
<event>
 6    1  0.1637818E-005  0.3610574E+04  0.7818608E-02  0.8088074E-01
         -2   -1    0    0    0  501 -0.00000000000E+00  0.00000000000E+00  0.11008825104E+04  0.11008825104E+04  0.00000000000E+00 0.  1.
          2   -1    0    0  501    0  0.00000000000E+00 -0.00000000000E+00 -0.29604072494E+04  0.29604072494E+04  0.00000000000E+00 0. -1.
         23    2    1    2    0    0 -0.16325033589E+03 -0.75372443857E+03 -0.27649275198E+04  0.28719599498E+04  0.92620527801E+02 0.  0.
         13    1    3    3    0    0 -0.53230934321E+02 -0.18595278332E+03 -0.56066054786E+03  0.59308702559E+03  0.00000000000E+00 0.  1.
        -13    1    3    3    0    0 -0.11001940157E+03 -0.56777165524E+03 -0.22042669719E+04  0.22788729242E+04  0.00000000000E+00 0. -1.
         22    1    1    2    0    0  0.16325033589E+03  0.75372443857E+03  0.90540278084E+03  0.11893298100E+04  0.00000000000E+00 0.  1.
<mgrwt>
<rscale>  0 0.36105737E+04</rscale>
<asrwt>0</asrwt>
<pdfrwt beam="1">  1        2 0.45544727E+00 0.36105737E+04</pdfrwt>
<pdfrwt beam="2">  1       -2 0.16936654E+00 0.36105737E+04</pdfrwt>
<totfact> 0.32305572E-01</totfact>
</mgrwt>
</event>
<event>
 6    1  0.1637818E-005  0.3813201E+04  0.7818608E-02  0.8043328E-01
         -2   -1    0    0    0  501 -0.00000000000E+00  0.00000000000E+00  0.13202018728E+04  0.13202018728E+04  0.00000000000E+00 0.  1.
          2   -1    0    0  501    0  0.00000000000E+00 -0.00000000000E+00 -0.27534619577E+04  0.27534619577E+04  0.00000000000E+00 0. -1.
         23    2    1    2    0    0  0.66378803355E+03  0.12713185854E+04  0.62320648495E+03  0.15664900726E+04  0.92947971162E+02 0.  0.
         11    1    3    3    0    0  0.45745066843E+03  0.81434119588E+03  0.36839250294E+03  0.10040546467E+04  0.00000000000E+00 0. -1.
        -11    1    3    3    0    0  0.20633736512E+03  0.45697738957E+03  0.25481398201E+03  0.56243542585E+03  0.00000000000E+00 0.  1.
         22    1    1    2    0    0 -0.66378803355E+03 -0.12713185854E+04 -0.20564665699E+04  0.25071737579E+04  0.00000000000E+00 0. -1.
<mgrwt>
<rscale>  0 0.38132011E+04</rscale>
<asrwt>0</asrwt>
<pdfrwt beam="1">  1        2 0.42360952E+00 0.38132011E+04</pdfrwt>
<pdfrwt beam="2">  1       -2 0.20310798E+00 0.38132011E+04</pdfrwt>
<totfact> 0.25068443E-01</totfact>
</mgrwt>
</event>
<event>
 6    1  0.1637818E-005  0.9339563E+03  0.7818608E-02  0.9384102E-01
          2   -1    0    0  501    0  0.00000000000E+00  0.00000000000E+00  0.84331702257E+03  0.84331702257E+03  0.00000000000E+00 0. -1.
         -2   -1    0    0    0  501 -0.00000000000E+00 -0.00000000000E+00 -0.25858435057E+03  0.25858435057E+03  0.00000000000E+00 0.  1.
         23    2    1    2    0    0 -0.37104296207E+03  0.99257174387E+02 -0.90532530380E+01  0.39471922464E+03  0.90534184375E+02 0.  0.
         11    1    3    3    0    0 -0.18140600362E+03  0.41293474144E+02 -0.49103789248E+02  0.19241744015E+03  0.00000000000E+00 0. -1.
        -11    1    3    3    0    0 -0.18963695845E+03  0.57963700243E+02  0.40050536209E+02  0.20230178449E+03  0.00000000000E+00 0.  1.
         22    1    1    2    0    0  0.37104296207E+03 -0.99257174387E+02  0.59378592504E+03  0.70718214849E+03  0.00000000000E+00 0. -1.
<mgrwt>
<rscale>  0 0.93395628E+03</rscale>
<asrwt>0</asrwt>
<pdfrwt beam="1">  1        2 0.12974108E+00 0.93395628E+03</pdfrwt>
<pdfrwt beam="2">  1       -2 0.39782208E-01 0.93395628E+03</pdfrwt>
<totfact> 0.19192704E+02</totfact>
</mgrwt>
</event>
<event>
 6    1  0.1637818E-005  0.1522647E+04  0.7818608E-02  0.8869531E-01
          2   -1    0    0  501    0  0.00000000000E+00  0.00000000000E+00  0.61189005368E+03  0.61189005368E+03  0.00000000000E+00 0. -1.
         -2   -1    0    0    0  501 -0.00000000000E+00 -0.00000000000E+00 -0.94725091907E+03  0.94725091907E+03  0.00000000000E+00 0.  1.
         23    2    1    2    0    0 -0.39863064214E+03  0.58533485521E+03 -0.44636536937E+03  0.84231095002E+03  0.93393854021E+02 0.  0.
         13    1    3    3    0    0 -0.80718344346E+02  0.13811291241E+03 -0.14699971625E+03  0.21725456097E+03  0.00000000000E+00 0.  1.
        -13    1    3    3    0    0 -0.31791229779E+03  0.44722194281E+03 -0.29936565312E+03  0.62505638905E+03  0.00000000000E+00 0. -1.
         22    1    1    2    0    0  0.39863064214E+03 -0.58533485521E+03  0.11100450398E+03  0.71683002273E+03  0.00000000000E+00 0. -1.
<mgrwt>
<rscale>  0 0.15226469E+04</rscale>
<asrwt>0</asrwt>
<pdfrwt beam="1">  1        2 0.94136932E-01 0.15226469E+04</pdfrwt>
<pdfrwt beam="2">  1       -2 0.14573091E+00 0.15226469E+04</pdfrwt>
<totfact> 0.15095258E+01</totfact>
</mgrwt>
</event>
<event>
 6    1  0.1637818E-005  0.1701337E+04  0.7818608E-02  0.8760602E-01
          1   -1    0    0  501    0  0.00000000000E+00  0.00000000000E+00  0.16832435814E+04  0.16832435814E+04  0.00000000000E+00 0. -1.
         -1   -1    0    0    0  501 -0.00000000000E+00 -0.00000000000E+00 -0.42990606115E+03  0.42990606115E+03  0.00000000000E+00 0.  1.
         23    2    1    2    0    0  0.63224591149E+03  0.17719896867E+02 -0.73429304777E+02  0.64333363524E+03  0.91855408597E+02 0.  0.
         13    1    3    3    0    0  0.51936050702E+03 -0.15807267280E+01 -0.91596369739E+02  0.52737816593E+03  0.00000000000E+00 0. -1.
        -13    1    3    3    0    0  0.11288540446E+03  0.19300623595E+02  0.18167064962E+02  0.11595546930E+03  0.00000000000E+00 0.  1.
         22    1    1    2    0    0 -0.63224591149E+03 -0.17719896867E+02  0.13267668250E+04  0.14698160073E+04  0.00000000000E+00 0. -1.
<mgrwt>
<rscale>  0 0.17013367E+04</rscale>
<asrwt>0</asrwt>
<pdfrwt beam="1">  1        1 0.25896055E+00 0.17013367E+04</pdfrwt>
<pdfrwt beam="2">  1       -1 0.66139395E-01 0.17013367E+04</pdfrwt>
<totfact> 0.10786397E+01</totfact>
</mgrwt>
</event>
<event>
 6    1  0.1637818E-005  0.6561488E+03  0.7818608E-02  0.9795309E-01
          1   -1    0    0  501    0  0.00000000000E+00  0.00000000000E+00  0.14657996170E+04  0.14657996170E+04  0.00000000000E+00 0. -1.
         -1   -1    0    0    0  501 -0.00000000000E+00 -0.00000000000E+00 -0.73429418531E+02  0.73429418531E+02  0.00000000000E+00 0.  1.
         23    2    1    2    0    0 -0.16955653406E+02  0.89167985576E+02  0.14336906335E+04  0.14395003928E+04  0.91946313181E+02 0.  0.
         11    1    3    3    0    0  0.14352202777E+02  0.93899432431E+02  0.11852188346E+04  0.11890192492E+04  0.00000000000E+00 0. -1.
        -11    1    3    3    0    0 -0.31307856184E+02 -0.47314468548E+01  0.24847179892E+03  0.25048114361E+03  0.00000000000E+00 0.  1.
         22    1    1    2    0    0  0.16955653406E+02 -0.89167985576E+02 -0.41320435003E+02  0.99728642741E+02  0.00000000000E+00 0.  1.
<mgrwt>
<rscale>  0 0.65614880E+03</rscale>
<asrwt>0</asrwt>
<pdfrwt beam="1">  1        1 0.22550761E+00 0.65614880E+03</pdfrwt>
<pdfrwt beam="2">  1       -1 0.11296835E-01 0.65614880E+03</pdfrwt>
<totfact> 0.36739713E+02</totfact>
</mgrwt>
</event>
<event>
 6    1  0.1637818E-005  0.2095386E+04  0.7818608E-02  0.8563279E-01
         -2   -1    0    0    0  501 -0.00000000000E+00  0.00000000000E+00  0.75411880473E+03  0.75411880473E+03  0.00000000000E+00 0.  1.
          2   -1    0    0  501    0  0.00000000000E+00 -0.00000000000E+00 -0.14555539933E+04  0.14555539933E+04  0.00000000000E+00 0. -1.
         23    2    1    2    0    0  0.28662384623E+03  0.94617679813E+03  0.93411733028E+01  0.99204937545E+03  0.81675842587E+02 0.  0.
         11    1    3    3    0    0  0.14801873340E+03  0.56061668001E+03  0.39865667538E+02  0.58119693633E+03  0.00000000000E+00 0.  1.
        -11    1    3    3    0    0  0.13860511283E+03  0.38556011812E+03 -0.30524494235E+02  0.41085243913E+03  0.00000000000E+00 0. -1.
         22    1    1    2    0    0 -0.28662384623E+03 -0.94617679813E+03 -0.71077636183E+03  0.12176234225E+04  0.00000000000E+00 0. -1.
<mgrwt>
<rscale>  0 0.20953860E+04</rscale>
<asrwt>0</asrwt>
<pdfrwt beam="1">  1        2 0.22393138E+00 0.20953860E+04</pdfrwt>
<pdfrwt beam="2">  1       -2 0.11601828E+00 0.20953860E+04</pdfrwt>
<totfact> 0.71576040E+00</totfact>
</mgrwt>
</event>
<event>
 6    1  0.1637818E-005  0.2227423E+04  0.7818608E-02  0.8507100E-01
          2   -1    0    0  501    0  0.00000000000E+00  0.00000000000E+00  0.23112209819E+04  0.23112209819E+04  0.00000000000E+00 0. -1.
         -2   -1    0    0    0  501 -0.00000000000E+00 -0.00000000000E+00 -0.53666590845E+03  0.53666590845E+03  0.00000000000E+00 0.  1.
         23    2    1    2    0    0 -0.72714626184E+03  0.37480328324E+03 -0.73940974361E+02  0.82646243567E+03  0.91398592165E+02 0.  0.
         13    1    3    3    0    0 -0.55561425129E+03  0.32774440570E+03 -0.50419092424E+02  0.64704379804E+03  0.00000000000E+00 0.  1.
        -13    1    3    3    0    0 -0.17153201055E+03  0.47058877541E+02 -0.23521881938E+02  0.17941863763E+03  0.00000000000E+00 0. -1.
         22    1    1    2    0    0  0.72714626184E+03 -0.37480328324E+03  0.18484960478E+04  0.20214244547E+04  0.00000000000E+00 0. -1.
<mgrwt>
<rscale>  0 0.22274232E+04</rscale>
<asrwt>0</asrwt>
<pdfrwt beam="1">  1        2 0.35557245E+00 0.22274232E+04</pdfrwt>
<pdfrwt beam="2">  1       -2 0.82563987E-01 0.22274232E+04</pdfrwt>
<totfact> 0.52440726E+00</totfact>
</mgrwt>
</event>
<event>
 6    1  0.1637818E-005  0.2027338E+04  0.7818608E-02  0.8593945E-01
         -2   -1    0    0    0  501 -0.00000000000E+00  0.00000000000E+00  0.61894577969E+03  0.61894577969E+03  0.00000000000E+00 0.  1.
          2   -1    0    0  501    0  0.00000000000E+00 -0.00000000000E+00 -0.16601210680E+04  0.16601210680E+04  0.00000000000E+00 0. -1.
         23    2    1    2    0    0 -0.12042930284E+03  0.92637243274E+03 -0.85486586958E+02  0.94264999841E+03  0.92800656337E+02 0.  0.
         13    1    3    3    0    0 -0.89487414929E+02  0.86803480757E+03 -0.76035754603E+02  0.87594169930E+03  0.00000000000E+00 0.  1.
        -13    1    3    3    0    0 -0.30941887909E+02  0.58337625173E+02 -0.94508323550E+01  0.66708299112E+02  0.00000000000E+00 0. -1.
         22    1    1    2    0    0  0.12042930284E+03 -0.92637243274E+03 -0.95568870133E+03  0.13364168493E+04  0.00000000000E+00 0. -1.
<mgrwt>
<rscale>  0 0.20273381E+04</rscale>
<asrwt>0</asrwt>
<pdfrwt beam="1">  1        2 0.25540324E+00 0.20273381E+04</pdfrwt>
<pdfrwt beam="2">  1       -2 0.95222428E-01 0.20273381E+04</pdfrwt>
<totfact> 0.88694068E+00</totfact>
</mgrwt>
</event>
<event>
 6    1  0.1637818E-005  0.9520672E+03  0.7818608E-02  0.9362738E-01
          2   -1    0    0  501    0  0.00000000000E+00  0.00000000000E+00  0.16400120191E+04  0.16400120191E+04  0.00000000000E+00 0. -1.
         -2   -1    0    0    0  501 -0.00000000000E+00 -0.00000000000E+00 -0.13817458816E+03  0.13817458816E+03  0.00000000000E+00 0.  1.
         23    2    1    2    0    0 -0.13037368958E+03 -0.22565999133E+03  0.14918326364E+04  0.15173804982E+04  0.94653211292E+02 0.  0.
         11    1    3    3    0    0 -0.57681894859E+02 -0.59658792870E+02  0.70933067754E+03  0.71416831536E+03  0.00000000000E+00 0. -1.
        -11    1    3    3    0    0 -0.72691794721E+02 -0.16600119846E+03  0.78250195891E+03  0.80321218280E+03  0.00000000000E+00 0.  1.
         22    1    1    2    0    0  0.13037368958E+03  0.22565999133E+03  0.10004794473E+02  0.26080610908E+03  0.00000000000E+00 0.  1.
<mgrwt>
<rscale>  0 0.95206719E+03</rscale>
<asrwt>0</asrwt>
<pdfrwt beam="1">  1        2 0.25230953E+00 0.95206719E+03</pdfrwt>
<pdfrwt beam="2">  1       -2 0.21257630E-01 0.95206719E+03</pdfrwt>
<totfact> 0.20350259E+02</totfact>
</mgrwt>
</event>
<event>
 6    1  0.1637818E-005  0.1875146E+04  0.7818608E-02  0.8667328E-01
          1   -1    0    0  501    0  0.00000000000E+00  0.00000000000E+00  0.75639301444E+03  0.75639301444E+03  0.00000000000E+00 0. -1.
         -1   -1    0    0    0  501 -0.00000000000E+00 -0.00000000000E+00 -0.11621511732E+04  0.11621511732E+04  0.00000000000E+00 0.  1.
         23    2    1    2    0    0  0.63407516221E+03 -0.65181663902E+03 -0.42746645500E+03  0.10089357596E+04  0.91145787870E+02 0.  0.
         13    1    3    3    0    0  0.20078781769E+03 -0.26170743161E+03 -0.17746520692E+03  0.37456698621E+03  0.00000000000E+00 0. -1.
        -13    1    3    3    0    0  0.43328734452E+03 -0.39010920740E+03 -0.25000124808E+03  0.63436877340E+03  0.00000000000E+00 0.  1.
         22    1    1    2    0    0 -0.63407516221E+03  0.65181663902E+03  0.21708296225E+02  0.90960842804E+03  0.00000000000E+00 0.  1.
<mgrwt>
<rscale>  0 0.18751459E+04</rscale>
<asrwt>0</asrwt>
<pdfrwt beam="1">  1        1 0.11636816E+00 0.18751459E+04</pdfrwt>
<pdfrwt beam="2">  1       -1 0.17879249E+00 0.18751459E+04</pdfrwt>
<totfact> 0.48109784E+00</totfact>
</mgrwt>
</event>
<event>
 6    1  0.1637818E-005  0.3090632E+04  0.7818608E-02  0.8218314E-01
          1   -1    0    0  501    0  0.00000000000E+00  0.00000000000E+00  0.13200028943E+04  0.13200028943E+04  0.00000000000E+00 0. -1.
         -1   -1    0    0    0  501 -0.00000000000E+00 -0.00000000000E+00 -0.18090884235E+04  0.18090884235E+04  0.00000000000E+00 0.  1.
         23    2    1    2    0    0  0.36856617514E+03  0.14971291386E+04 -0.16173430423E+03  0.15528947857E+04  0.89930790697E+02 0.  0.
         11    1    3    3    0    0  0.15591604586E+03  0.46077207099E+03 -0.57498258033E+02  0.48982319712E+03  0.00000000000E+00 0. -1.
        -11    1    3    3    0    0  0.21265012929E+03  0.10363570677E+04 -0.10423604620E+03  0.10630715886E+04  0.00000000000E+00 0.  1.
         22    1    1    2    0    0 -0.36856617514E+03 -0.14971291386E+04 -0.32735122504E+03  0.15761965321E+04  0.00000000000E+00 0. -1.
<mgrwt>
<rscale>  0 0.30906323E+04</rscale>
<asrwt>0</asrwt>
<pdfrwt beam="1">  1        1 0.20307737E+00 0.30906323E+04</pdfrwt>
<pdfrwt beam="2">  1       -1 0.27832130E+00 0.30906323E+04</pdfrwt>
<totfact> 0.33729722E-01</totfact>
</mgrwt>
</event>
<event>
 6    1  0.1637818E-005  0.2038044E+04  0.7818608E-02  0.8589037E-01
          2   -1    0    0  501    0  0.00000000000E+00  0.00000000000E+00  0.77355603468E+03  0.77355603468E+03  0.00000000000E+00 0. -1.
         -2   -1    0    0    0  501 -0.00000000000E+00 -0.00000000000E+00 -0.13423802414E+04  0.13423802414E+04  0.00000000000E+00 0.  1.
         23    2    1    2    0    0  0.89408997059E+03 -0.18745366328E+02 -0.78768312812E+03  0.11952585410E+04  0.91923910552E+02 0.  0.
         11    1    3    3    0    0  0.28831463072E+03 -0.48891166641E+02 -0.25077704084E+03  0.38523343141E+03  0.00000000000E+00 0. -1.
        -11    1    3    3    0    0  0.60577533987E+03  0.30145800313E+02 -0.53690608728E+03  0.81002510962E+03  0.00000000000E+00 0.  1.
         22    1    1    2    0    0 -0.89408997059E+03  0.18745366328E+02  0.21885892142E+03  0.92067773501E+03  0.00000000000E+00 0. -1.
<mgrwt>
<rscale>  0 0.20380445E+04</rscale>
<asrwt>0</asrwt>
<pdfrwt beam="1">  1        2 0.11900862E+00 0.20380445E+04</pdfrwt>
<pdfrwt beam="2">  1       -2 0.20652004E+00 0.20380445E+04</pdfrwt>
<totfact> 0.40203282E+00</totfact>
</mgrwt>
</event>
<event>
 6    1  0.1637818E-005  0.1529475E+04  0.7818608E-02  0.8865085E-01
          1   -1    0    0  501    0  0.00000000000E+00  0.00000000000E+00  0.10251200232E+04  0.10251200232E+04  0.00000000000E+00 0. -1.
         -1   -1    0    0    0  501 -0.00000000000E+00 -0.00000000000E+00 -0.57049281852E+03  0.57049281852E+03  0.00000000000E+00 0.  1.
         23    2    1    2    0    0  0.29156974857E+03  0.70398507492E+03  0.21910902134E+03  0.79806866198E+03  0.91087441592E+02 0.  0.
         13    1    3    3    0    0  0.69819888661E+02  0.25938257089E+03  0.49902124762E+02  0.27321119484E+03  0.00000000000E+00 0. -1.
        -13    1    3    3    0    0  0.22174985991E+03  0.44460250403E+03  0.16920689658E+03  0.52485746714E+03  0.00000000000E+00 0.  1.
         22    1    1    2    0    0 -0.29156974857E+03 -0.70398507492E+03  0.23551818338E+03  0.79754417977E+03  0.00000000000E+00 0.  1.
<mgrwt>
<rscale>  0 0.15294752E+04</rscale>
<asrwt>0</asrwt>
<pdfrwt beam="1">  1        1 0.15771077E+00 0.15294752E+04</pdfrwt>
<pdfrwt beam="2">  1       -1 0.87768126E-01 0.15294752E+04</pdfrwt>
<totfact> 0.17823941E+01</totfact>
</mgrwt>
</event>
<event>
 6    1  0.1637818E-005  0.5911482E+04  0.7818608E-02  0.7701475E-01
          2   -1    0    0  501    0  0.00000000000E+00  0.00000000000E+00  0.33831360052E+04  0.33831360052E+04  0.00000000000E+00 0.  1.
         -2   -1    0    0    0  501 -0.00000000000E+00 -0.00000000000E+00 -0.25823393619E+04  0.25823393619E+04  0.00000000000E+00 0. -1.
         23    2    1    2    0    0  0.23361015333E+02 -0.16381518390E+04  0.28822730394E+04  0.33165829245E+04  0.90206635624E+02 0.  0.
         13    1    3    3    0    0  0.40140026829E+02 -0.11588731128E+04  0.19699224806E+04  0.22858680393E+04  0.00000000000E+00 0. -1.
        -13    1    3    3    0    0 -0.16779011496E+02 -0.47927872610E+03  0.91235055880E+03  0.10307148852E+04  0.00000000000E+00 0.  1.
         22    1    1    2    0    0 -0.23361015333E+02  0.16381518390E+04 -0.20814763961E+04  0.26488924425E+04  0.00000000000E+00 0. -1.
<mgrwt>
<rscale>  0 0.59114821E+04</rscale>
<asrwt>0</asrwt>
<pdfrwt beam="1">  1        2 0.52048247E+00 0.59114821E+04</pdfrwt>
<pdfrwt beam="2">  1       -2 0.39728298E+00 0.59114821E+04</pdfrwt>
<totfact> 0.51278344E-03</totfact>
</mgrwt>
</event>
<event>
 6    1  0.1637818E-005  0.3466866E+04  0.7818608E-02  0.8121687E-01
         -1   -1    0    0    0  501 -0.00000000000E+00  0.00000000000E+00  0.18169066824E+04  0.18169066824E+04  0.00000000000E+00 0.  1.
          1   -1    0    0  501    0  0.00000000000E+00 -0.00000000000E+00 -0.16537946361E+04  0.16537946361E+04  0.00000000000E+00 0. -1.
         23    2    1    2    0    0 -0.20720034961E+03 -0.13003660696E+04 -0.10450761746E+04  0.16836359372E+04  0.92530311755E+02 0.  0.
         13    1    3    3    0    0 -0.16524819920E+02 -0.30987644379E+03 -0.21815907296E+03  0.37932817085E+03  0.00000000000E+00 0. -1.
        -13    1    3    3    0    0 -0.19067552969E+03 -0.99048962580E+03 -0.82691710167E+03  0.13043077664E+04  0.00000000000E+00 0.  1.
         22    1    1    2    0    0  0.20720034961E+03  0.13003660696E+04  0.12081882209E+04  0.17870653813E+04  0.00000000000E+00 0.  1.
<mgrwt>
<rscale>  0 0.34668663E+04</rscale>
<asrwt>0</asrwt>
<pdfrwt beam="1">  1        1 0.25442994E+00 0.34668663E+04</pdfrwt>
<pdfrwt beam="2">  1       -1 0.27952410E+00 0.34668663E+04</pdfrwt>
<totfact> 0.18795061E-01</totfact>
</mgrwt>
</event>
<event>
 6    1  0.1637818E-005  0.1929902E+04  0.7818608E-02  0.8640114E-01
          1   -1    0    0  501    0  0.00000000000E+00  0.00000000000E+00  0.15513772390E+04  0.15513772390E+04  0.00000000000E+00 0. -1.
         -1   -1    0    0    0  501 -0.00000000000E+00 -0.00000000000E+00 -0.60019591880E+03  0.60019591880E+03  0.00000000000E+00 0.  1.
         23    2    1    2    0    0 -0.93101350096E+03 -0.22981446281E+03  0.57130734167E+03  0.11201154195E+04  0.93089463198E+02 0.  0.
         13    1    3    3    0    0 -0.33122843202E+03 -0.12500689493E+03  0.22855395658E+03  0.42139756647E+03  0.00000000000E+00 0. -1.
        -13    1    3    3    0    0 -0.59978506895E+03 -0.10480756789E+03  0.34275338509E+03  0.69871785308E+03  0.00000000000E+00 0.  1.
         22    1    1    2    0    0  0.93101350096E+03  0.22981446281E+03  0.37987397857E+03  0.10314577383E+04  0.00000000000E+00 0. -1.
<mgrwt>
<rscale>  0 0.19299018E+04</rscale>
<asrwt>0</asrwt>
<pdfrwt beam="1">  1        1 0.23867342E+00 0.19299018E+04</pdfrwt>
<pdfrwt beam="2">  1       -1 0.92337834E-01 0.19299018E+04</pdfrwt>
<totfact> 0.64183913E+00</totfact>
</mgrwt>
</event>
<event>
 6    1  0.1637818E-005  0.3377126E+04  0.7818608E-02  0.8143543E-01
          3   -1    0    0  501    0  0.00000000000E+00  0.00000000000E+00  0.34762820809E+04  0.34762820809E+04  0.00000000000E+00 0. -1.
         -3   -1    0    0    0  501 -0.00000000000E+00 -0.00000000000E+00 -0.82019975841E+03  0.82019975841E+03  0.00000000000E+00 0.  1.
         23    2    1    2    0    0  0.32884278484E+03 -0.11849372512E+04 -0.14102468753E+03  0.12409914544E+04  0.89207404616E+02 0.  0.
         11    1    3    3    0    0  0.11580531417E+03 -0.40773932988E+03 -0.61148866813E+01  0.42390992412E+03  0.00000000000E+00 0.  1.
        -11    1    3    3    0    0  0.21303747067E+03 -0.77719792134E+03 -0.13490980085E+03  0.81708153033E+03  0.00000000000E+00 0. -1.
         22    1    1    2    0    0 -0.32884278484E+03  0.11849372512E+04  0.27971070100E+04  0.30554903848E+04  0.00000000000E+00 0. -1.
<mgrwt>
<rscale>  0 0.33771264E+04</rscale>
<asrwt>0</asrwt>
<pdfrwt beam="1">  1        3 0.53481262E+00 0.33771264E+04</pdfrwt>
<pdfrwt beam="2">  1       -3 0.12618458E+00 0.33771264E+04</pdfrwt>
<totfact> 0.24944902E-03</totfact>
</mgrwt>
</event>
<event>
 6    1  0.1637818E-005  0.1342437E+04  0.7818608E-02  0.8996573E-01
          1   -1    0    0  501    0  0.00000000000E+00  0.00000000000E+00  0.32675115540E+03  0.32675115540E+03  0.00000000000E+00 0. -1.
         -1   -1    0    0    0  501 -0.00000000000E+00 -0.00000000000E+00 -0.13788294607E+04  0.13788294607E+04  0.00000000000E+00 0.  1.
         23    2    1    2    0    0  0.17643588030E+03  0.43372495873E+03 -0.11339658250E+04  0.12302359774E+04  0.91406280273E+02 0.  0.
         13    1    3    3    0    0  0.12614149911E+03  0.23813799781E+03 -0.73967404870E+03  0.78723508694E+03  0.00000000000E+00 0. -1.
        -13    1    3    3    0    0  0.50294381185E+02  0.19558696092E+03 -0.39429177629E+03  0.44300089042E+03  0.00000000000E+00 0.  1.
         22    1    1    2    0    0 -0.17643588030E+03 -0.43372495873E+03  0.81887519704E+02  0.47534463873E+03  0.00000000000E+00 0. -1.
<mgrwt>
<rscale>  0 0.13424368E+04</rscale>
<asrwt>0</asrwt>
<pdfrwt beam="1">  1        1 0.50269408E-01 0.13424368E+04</pdfrwt>
<pdfrwt beam="2">  1       -1 0.21212761E+00 0.13424368E+04</pdfrwt>
<totfact> 0.95495609E+00</totfact>
</mgrwt>
</event>
<event>
 6    1  0.1637818E-005  0.2222037E+04  0.7818608E-02  0.8509311E-01
          1   -1    0    0  501    0  0.00000000000E+00  0.00000000000E+00  0.36418395296E+04  0.36418395296E+04  0.00000000000E+00 0. -1.
         -1   -1    0    0    0  501 -0.00000000000E+00 -0.00000000000E+00 -0.33893921528E+03  0.33893921528E+03  0.00000000000E+00 0.  1.
         23    2    1    2    0    0 -0.79061149715E+03  0.59194635687E+03  0.25584516334E+04  0.27439801084E+04  0.91022226165E+02 0.  0.
         13    1    3    3    0    0 -0.37924376968E+03  0.25974676205E+03  0.10768361514E+04  0.11708417118E+04  0.00000000000E+00 0.  1.
        -13    1    3    3    0    0 -0.41136772747E+03  0.33219959482E+03  0.14816154821E+04  0.15731383966E+04  0.00000000000E+00 0. -1.
         22    1    1    2    0    0  0.79061149715E+03 -0.59194635687E+03  0.74444868092E+03  0.12367986365E+04  0.00000000000E+00 0.  1.
<mgrwt>
<rscale>  0 0.22220371E+04</rscale>
<asrwt>0</asrwt>
<pdfrwt beam="1">  1        1 0.56028298E+00 0.22220371E+04</pdfrwt>
<pdfrwt beam="2">  1       -1 0.52144497E-01 0.22220371E+04</pdfrwt>
<totfact> 0.65070342E-01</totfact>
</mgrwt>
</event>
<event>
 6    1  0.1637818E-005  0.3608921E+04  0.7818608E-02  0.8088451E-01
         -2   -1    0    0    0  501 -0.00000000000E+00  0.00000000000E+00  0.96447425810E+03  0.96447425810E+03  0.00000000000E+00 0.  1.
          2   -1    0    0  501    0  0.00000000000E+00 -0.00000000000E+00 -0.33760130310E+04  0.33760130310E+04  0.00000000000E+00 0. -1.
         23    2    1    2    0    0  0.77194517444E+03  0.11465989150E+04  0.18706172553E+03  0.13971366517E+04  0.80064413475E+02 0.  0.
         11    1    3    3    0    0  0.65364903626E+03  0.92065312086E+03  0.16590843118E+03  0.11412207670E+04  0.00000000000E+00 0. -1.
        -11    1    3    3    0    0  0.11829613818E+03  0.22594579410E+03  0.21153294350E+02  0.25591588470E+03  0.00000000000E+00 0.  1.
         22    1    1    2    0    0 -0.77194517444E+03 -0.11465989150E+04 -0.25986004985E+04  0.29433506374E+04  0.00000000000E+00 0. -1.
<mgrwt>
<rscale>  0 0.36089210E+04</rscale>
<asrwt>0</asrwt>
<pdfrwt beam="1">  1        2 0.51938661E+00 0.36089210E+04</pdfrwt>
<pdfrwt beam="2">  1       -2 0.14838066E+00 0.36089210E+04</pdfrwt>
<totfact> 0.24827279E-01</totfact>
</mgrwt>
</event>
<event>
 6    1  0.1637818E-005  0.3794031E+04  0.7818608E-02  0.8047437E-01
         -1   -1    0    0    0  501 -0.00000000000E+00  0.00000000000E+00  0.23947546351E+04  0.23947546351E+04  0.00000000000E+00 0.  1.
          1   -1    0    0  501    0  0.00000000000E+00 -0.00000000000E+00 -0.15027291736E+04  0.15027291736E+04  0.00000000000E+00 0. -1.
         23    2    1    2    0    0  0.17818681075E+04  0.44225202619E+03 -0.41831654583E+02  0.18376950039E+04  0.68791227250E+02 0.  0.
         11    1    3    3    0    0  0.13814819526E+04  0.36465796966E+03 -0.51790898491E+02  0.14297377792E+04  0.00000000000E+00 0.  1.
        -11    1    3    3    0    0  0.40038615486E+03  0.77594056538E+02  0.99592439080E+01  0.40795722466E+03  0.00000000000E+00 0. -1.
         22    1    1    2    0    0 -0.17818681075E+04 -0.44225202619E+03  0.93385711614E+03  0.20597888048E+04  0.00000000000E+00 0.  1.
<mgrwt>
<rscale>  0 0.37940309E+04</rscale>
<asrwt>0</asrwt>
<pdfrwt beam="1">  1        1 0.23118910E+00 0.37940309E+04</pdfrwt>
<pdfrwt beam="2">  1       -1 0.36842379E+00 0.37940309E+04</pdfrwt>
<totfact> 0.60669171E-02</totfact>
</mgrwt>
</event>
<event>
 6    1  0.1637818E-005  0.9206951E+03  0.7818608E-02  0.9400075E-01
         -1   -1    0    0    0  501 -0.00000000000E+00  0.00000000000E+00  0.36372478910E+03  0.36372478910E+03  0.00000000000E+00 0.  1.
          1   -1    0    0  501    0  0.00000000000E+00 -0.00000000000E+00 -0.58263793558E+03  0.58263793558E+03  0.00000000000E+00 0. -1.
         23    2    1    2    0    0  0.16832103892E+03 -0.40903522965E+03  0.28312329384E+01  0.45157755812E+03  0.90953196100E+02 0.  0.
         11    1    3    3    0    0  0.12590692471E+03 -0.28273570527E+03  0.42875754020E+02  0.31245857807E+03  0.00000000000E+00 0. -1.
        -11    1    3    3    0    0  0.42414114212E+02 -0.12629952438E+03 -0.40044521082E+02  0.13911898006E+03  0.00000000000E+00 0.  1.
         22    1    1    2    0    0 -0.16832103892E+03  0.40903522965E+03 -0.22174437941E+03  0.49478516655E+03  0.00000000000E+00 0. -1.
<mgrwt>
<rscale>  0 0.92069509E+03</rscale>
<asrwt>0</asrwt>
<pdfrwt beam="1">  1        1 0.89636606E-01 0.92069509E+03</pdfrwt>
<pdfrwt beam="2">  1       -1 0.55957659E-01 0.92069509E+03</pdfrwt>
<totfact> 0.11622596E+02</totfact>
</mgrwt>
</event>
<event>
 6    1  0.1637818E-005  0.2441012E+04  0.7818608E-02  0.8424307E-01
         -2   -1    0    0    0  501 -0.00000000000E+00  0.00000000000E+00  0.48868710434E+03  0.48868710434E+03  0.00000000000E+00 0. -1.
          2   -1    0    0  501    0  0.00000000000E+00 -0.00000000000E+00 -0.30482384052E+04  0.30482384052E+04  0.00000000000E+00 0.  1.
         23    2    1    2    0    0 -0.31229343241E+03  0.54766994312E+03 -0.27928970893E+04  0.28646756962E+04  0.92860855853E+02 0.  0.
         11    1    3    3    0    0 -0.68648287501E+02  0.20944195432E+03 -0.96941128730E+03  0.99415127800E+03  0.00000000000E+00 0. -1.
        -11    1    3    3    0    0 -0.24364514491E+03  0.33822798880E+03 -0.18234858020E+04  0.18705244182E+04  0.00000000000E+00 0.  1.
         22    1    1    2    0    0  0.31229343241E+03 -0.54766994312E+03  0.23334578844E+03  0.67224981332E+03  0.00000000000E+00 0. -1.
<mgrwt>
<rscale>  0 0.24410119E+04</rscale>
<asrwt>0</asrwt>
<pdfrwt beam="1">  1        2 0.46895975E+00 0.24410119E+04</pdfrwt>
<pdfrwt beam="2">  1       -2 0.75182632E-01 0.24410119E+04</pdfrwt>
<totfact> 0.23117340E+00</totfact>
</mgrwt>
</event>
<event>
 6    1  0.1637818E-005  0.4445105E+04  0.7818608E-02  0.7920318E-01
         -1   -1    0    0    0  501 -0.00000000000E+00  0.00000000000E+00  0.21080578142E+04  0.21080578142E+04  0.00000000000E+00 0.  1.
          1   -1    0    0  501    0  0.00000000000E+00 -0.00000000000E+00 -0.23432661462E+04  0.23432661462E+04  0.00000000000E+00 0. -1.
         23    2    1    2    0    0 -0.64729460307E+03 -0.20204401381E+04  0.54228380719E+03  0.21917526114E+04  0.92407399228E+02 0.  0.
         11    1    3    3    0    0 -0.11698354266E+03 -0.31771311638E+03  0.11839805415E+03  0.35867098126E+03  0.00000000000E+00 0.  1.
        -11    1    3    3    0    0 -0.53031106041E+03 -0.17027270217E+04  0.42388575304E+03  0.18330816302E+04  0.00000000000E+00 0. -1.
         22    1    1    2    0    0  0.64729460307E+03  0.20204401381E+04 -0.77749213922E+03  0.22595713490E+04  0.00000000000E+00 0.  1.
<mgrwt>
<rscale>  0 0.44451054E+04</rscale>
<asrwt>0</asrwt>
<pdfrwt beam="1">  1        1 0.36050248E+00 0.44451054E+04</pdfrwt>
<pdfrwt beam="2">  1       -1 0.32431659E+00 0.44451054E+04</pdfrwt>
<totfact> 0.30090929E-02</totfact>
</mgrwt>
</event>
<event>
 6    1  0.1637818E-005  0.1438226E+04  0.7818608E-02  0.8926604E-01
          2   -1    0    0  501    0  0.00000000000E+00  0.00000000000E+00  0.11272168475E+04  0.11272168475E+04  0.00000000000E+00 0. -1.
         -2   -1    0    0    0  501 -0.00000000000E+00 -0.00000000000E+00 -0.45876160190E+03  0.45876160190E+03  0.00000000000E+00 0.  1.
         23    2    1    2    0    0 -0.59772135594E+02  0.58579522225E+03  0.78514116577E+03  0.98569155588E+03  0.91719368494E+02 0.  0.
         13    1    3    3    0    0  0.21043979034E+02  0.22669151808E+03  0.31206019745E+03  0.38628158156E+03  0.00000000000E+00 0. -1.
        -13    1    3    3    0    0 -0.80816114627E+02  0.35910370417E+03  0.47308096832E+03  0.59940997432E+03  0.00000000000E+00 0.  1.
         22    1    1    2    0    0  0.59772135594E+02 -0.58579522225E+03 -0.11668592014E+03  0.60028689354E+03  0.00000000000E+00 0.  1.
<mgrwt>
<rscale>  0 0.14382264E+04</rscale>
<asrwt>0</asrwt>
<pdfrwt beam="1">  1        2 0.17341798E+00 0.14382264E+04</pdfrwt>
<pdfrwt beam="2">  1       -2 0.70578708E-01 0.14382264E+04</pdfrwt>
<totfact> 0.37152165E+01</totfact>
</mgrwt>
</event>
<event>
 6    1  0.1637818E-005  0.2603191E+04  0.7818608E-02  0.8367118E-01
         -2   -1    0    0    0  501 -0.00000000000E+00  0.00000000000E+00  0.68168543706E+03  0.68168543706E+03  0.00000000000E+00 0.  1.
          2   -1    0    0  501    0  0.00000000000E+00 -0.00000000000E+00 -0.24852389966E+04  0.24852389966E+04  0.00000000000E+00 0. -1.
         23    2    1    2    0    0  0.39440143650E+03 -0.10124586551E+04 -0.34608659168E+02  0.10909208012E+04  0.91024248973E+02 0.  0.
         11    1    3    3    0    0  0.18116148913E+03 -0.37355726762E+03 -0.42406006350E+02  0.41732815231E+03  0.00000000000E+00 0.  1.
        -11    1    3    3    0    0  0.21323994737E+03 -0.63890138745E+03  0.77973471820E+01  0.67359264891E+03  0.00000000000E+00 0. -1.
         22    1    1    2    0    0 -0.39440143650E+03  0.10124586551E+04 -0.17689449004E+04  0.20760036325E+04  0.00000000000E+00 0. -1.
<mgrwt>
<rscale>  0 0.26031913E+04</rscale>
<asrwt>0</asrwt>
<pdfrwt beam="1">  1        2 0.38234447E+00 0.26031913E+04</pdfrwt>
<pdfrwt beam="2">  1       -2 0.10487468E+00 0.26031913E+04</pdfrwt>
<totfact> 0.23140687E+00</totfact>
</mgrwt>
</event>
<event>
 6    1  0.1637818E-005  0.1633290E+04  0.7818608E-02  0.8800354E-01
         -1   -1    0    0    0  501 -0.00000000000E+00  0.00000000000E+00  0.35655893837E+03  0.35655893837E+03  0.00000000000E+00 0.  1.
          1   -1    0    0  501    0  0.00000000000E+00 -0.00000000000E+00 -0.18704030685E+04  0.18704030685E+04  0.00000000000E+00 0. -1.
         23    2    1    2    0    0  0.10284977750E+03 -0.40613085200E+03  0.19270226833E+03  0.46974234053E+03  0.89461481034E+02 0.  0.
         11    1    3    3    0    0  0.28317223278E+02 -0.14760799579E+03  0.11633284176E+03  0.19006134701E+03  0.00000000000E+00 0.  1.
        -11    1    3    3    0    0  0.74532554227E+02 -0.25852285621E+03  0.76369426572E+02  0.27968099353E+03  0.00000000000E+00 0. -1.
         22    1    1    2    0    0 -0.10284977750E+03  0.40613085200E+03 -0.17065463985E+04  0.17572196664E+04  0.00000000000E+00 0. -1.
<mgrwt>
<rscale>  0 0.16332898E+04</rscale>
<asrwt>0</asrwt>
<pdfrwt beam="1">  1        1 0.28775433E+00 0.16332898E+04</pdfrwt>
<pdfrwt beam="2">  1       -1 0.54855220E-01 0.16332898E+04</pdfrwt>
<totfact> 0.11728422E+01</totfact>
</mgrwt>
</event>
<event>
 6    1  0.1637818E-005  0.1141523E+04  0.7818608E-02  0.9165640E-01
         -2   -1    0    0    0  501 -0.00000000000E+00  0.00000000000E+00  0.36534875914E+03  0.36534875914E+03  0.00000000000E+00 0. -1.
          2   -1    0    0  501    0  0.00000000000E+00 -0.00000000000E+00 -0.89166487911E+03  0.89166487911E+03  0.00000000000E+00 0.  1.
         23    2    1    2    0    0 -0.13285266550E+02  0.22679187179E+03  0.30745727576E+03  0.39284402131E+03  0.90473185194E+02 0.  0.
         13    1    3    3    0    0 -0.32495104636E+01  0.41529474497E+02  0.12843956320E+03  0.13502584184E+03  0.00000000000E+00 0. -1.
        -13    1    3    3    0    0 -0.10035756087E+02  0.18526239730E+03  0.17901771256E+03  0.25781817947E+03  0.00000000000E+00 0.  1.
         22    1    1    2    0    0  0.13285266550E+02 -0.22679187179E+03 -0.83377339573E+03  0.86416961694E+03  0.00000000000E+00 0.  1.
<mgrwt>
<rscale>  0 0.11415229E+04</rscale>
<asrwt>0</asrwt>
<pdfrwt beam="1">  1        2 0.13717921E+00 0.11415229E+04</pdfrwt>
<pdfrwt beam="2">  1       -2 0.56207502E-01 0.11415229E+04</pdfrwt>
<totfact> 0.87428675E+01</totfact>
</mgrwt>
</event>
<event>
 6    1  0.1637818E-005  0.2583905E+04  0.7818608E-02  0.8373689E-01
         -2   -1    0    0    0  501 -0.00000000000E+00  0.00000000000E+00  0.56133134187E+03  0.56133134187E+03  0.00000000000E+00 0.  1.
          2   -1    0    0  501    0  0.00000000000E+00 -0.00000000000E+00 -0.29735397453E+04  0.29735397453E+04  0.00000000000E+00 0. -1.
         23    2    1    2    0    0  0.10144769026E+04 -0.79731233580E+03 -0.12269807613E+04  0.17828337273E+04  0.90243912164E+02 0.  0.
         11    1    3    3    0    0  0.77877177726E+03 -0.56248556674E+03 -0.91939643734E+03  0.13297237694E+04  0.00000000000E+00 0. -1.
        -11    1    3    3    0    0  0.23570512539E+03 -0.23482676906E+03 -0.30758432392E+03  0.45310995787E+03  0.00000000000E+00 0.  1.
         22    1    1    2    0    0 -0.10144769026E+04  0.79731233580E+03 -0.11852276422E+04  0.17520373599E+04  0.00000000000E+00 0.  1.
<mgrwt>
<rscale>  0 0.25839048E+04</rscale>
<asrwt>0</asrwt>
<pdfrwt beam="1">  1        2 0.45746766E+00 0.25839048E+04</pdfrwt>
<pdfrwt beam="2">  1       -2 0.86358667E-01 0.25839048E+04</pdfrwt>
<totfact> 0.18616416E+00</totfact>
</mgrwt>
</event>
<event>
 6    1  0.1637818E-005  0.6372323E+03  0.7818608E-02  0.9831036E-01
          1   -1    0    0  501    0  0.00000000000E+00  0.00000000000E+00  0.29879544745E+04  0.29879544745E+04  0.00000000000E+00 0. -1.
         -1   -1    0    0    0  501 -0.00000000000E+00 -0.00000000000E+00 -0.33975165809E+02  0.33975165809E+02  0.00000000000E+00 0.  1.
         23    2    1    2    0    0  0.10506265262E+03 -0.20520097730E+03  0.25036164883E+04  0.25159926165E+04  0.94750850889E+02 0.  0.
         11    1    3    3    0    0  0.25020412145E+02 -0.14833247958E+03  0.14261052877E+04  0.14340170282E+04  0.00000000000E+00 0. -1.
        -11    1    3    3    0    0  0.80042240471E+02 -0.56868497723E+02  0.10775112006E+04  0.10819755883E+04  0.00000000000E+00 0.  1.
         22    1    1    2    0    0 -0.10506265262E+03  0.20520097730E+03  0.45036282033E+03  0.50593702374E+03  0.00000000000E+00 0.  1.
<mgrwt>
<rscale>  0 0.63723229E+03</rscale>
<asrwt>0</asrwt>
<pdfrwt beam="1">  1        1 0.45968510E+00 0.63723229E+03</pdfrwt>
<pdfrwt beam="2">  1       -1 0.52269509E-02 0.63723229E+03</pdfrwt>
<totfact> 0.11339625E+02</totfact>
</mgrwt>
</event>
<event>
 6    1  0.1637818E-005  0.3550660E+04  0.7818608E-02  0.8101888E-01
          2   -1    0    0  501    0  0.00000000000E+00  0.00000000000E+00  0.14797788809E+04  0.14797788809E+04  0.00000000000E+00 0.  1.
         -2   -1    0    0    0  501 -0.00000000000E+00 -0.00000000000E+00 -0.21299101246E+04  0.21299101246E+04  0.00000000000E+00 0. -1.
         23    2    1    2    0    0  0.77252160919E+03 -0.13725497649E+04 -0.11555606934E+04  0.19555604063E+04  0.90628321391E+02 0.  0.
         11    1    3    3    0    0  0.43206926052E+03 -0.68824389999E+03 -0.56682022192E+03  0.99078185073E+03  0.00000000000E+00 0.  1.
        -11    1    3    3    0    0  0.34045234868E+03 -0.68430586493E+03 -0.58874047151E+03  0.96477855557E+03  0.00000000000E+00 0. -1.
         22    1    1    2    0    0 -0.77252160919E+03  0.13725497649E+04  0.50542944976E+03  0.16541285992E+04  0.00000000000E+00 0.  1.
<mgrwt>
<rscale>  0 0.35506597E+04</rscale>
<asrwt>0</asrwt>
<pdfrwt beam="1">  1        2 0.22765829E+00 0.35506597E+04</pdfrwt>
<pdfrwt beam="2">  1       -2 0.32767848E+00 0.35506597E+04</pdfrwt>
<totfact> 0.22881056E-01</totfact>
</mgrwt>
</event>
<event>
 6    1  0.1637818E-005  0.1822413E+04  0.7818608E-02  0.8694470E-01
          2   -1    0    0  501    0  0.00000000000E+00  0.00000000000E+00  0.18148830081E+04  0.18148830081E+04  0.00000000000E+00 0. -1.
         -2   -1    0    0    0  501 -0.00000000000E+00 -0.00000000000E+00 -0.45749377401E+03  0.45749377401E+03  0.00000000000E+00 0.  1.
         23    2    1    2    0    0 -0.40045880570E+03 -0.88788670941E+02  0.16918272184E+04  0.17431325582E+04  0.89336976979E+02 0.  0.
         11    1    3    3    0    0 -0.18717875168E+03 -0.80577767038E+02  0.73020710101E+03  0.75811019779E+03  0.00000000000E+00 0. -1.
        -11    1    3    3    0    0 -0.21328005402E+03 -0.82109039036E+01  0.96162011736E+03  0.98502236040E+03  0.00000000000E+00 0.  1.
         22    1    1    2    0    0  0.40045880570E+03  0.88788670941E+02 -0.33443798433E+03  0.52924422388E+03  0.00000000000E+00 0.  1.
<mgrwt>
<rscale>  0 0.18224134E+04</rscale>
<asrwt>0</asrwt>
<pdfrwt beam="1">  1        2 0.27921277E+00 0.18224134E+04</pdfrwt>
<pdfrwt beam="2">  1       -2 0.70383658E-01 0.18224134E+04</pdfrwt>
<totfact> 0.14653279E+01</totfact>
</mgrwt>
</event>
<event>
 6    1  0.1637818E-005  0.1079220E+04  0.7818608E-02  0.9225686E-01
          1   -1    0    0  501    0  0.00000000000E+00  0.00000000000E+00  0.70811771402E+03  0.70811771402E+03  0.00000000000E+00 0.  1.
         -1   -1    0    0    0  501 -0.00000000000E+00 -0.00000000000E+00 -0.41120099632E+03  0.41120099632E+03  0.00000000000E+00 0. -1.
         23    2    1    2    0    0 -0.33367519701E+03 -0.40036969804E+03  0.25212228998E+02  0.53156165050E+03  0.10142533997E+03 0.  0.
         13    1    3    3    0    0 -0.28312302477E+03 -0.29271837787E+03 -0.10539452006E+02  0.40737424556E+03  0.00000000000E+00 0. -1.
        -13    1    3    3    0    0 -0.50552172241E+02 -0.10765132016E+03  0.35751681004E+02  0.12418740494E+03  0.00000000000E+00 0.  1.
         22    1    1    2    0    0  0.33367519701E+03  0.40036969804E+03  0.27170448870E+03  0.58775705984E+03  0.00000000000E+00 0.  1.
<mgrwt>
<rscale>  0 0.10792196E+04</rscale>
<asrwt>0</asrwt>
<pdfrwt beam="1">  1        1 0.10894119E+00 0.10792196E+04</pdfrwt>
<pdfrwt beam="2">  1       -1 0.63261692E-01 0.10792196E+04</pdfrwt>
<totfact> 0.67706462E+01</totfact>
</mgrwt>
</event>
<event>
 6    1  0.1637818E-005  0.1655905E+04  0.7818608E-02  0.8786921E-01
          1   -1    0    0  501    0  0.00000000000E+00  0.00000000000E+00  0.28610599095E+04  0.28610599095E+04  0.00000000000E+00 0. -1.
         -1   -1    0    0    0  501 -0.00000000000E+00 -0.00000000000E+00 -0.23959839875E+03  0.23959839875E+03  0.00000000000E+00 0.  1.
         23    2    1    2    0    0 -0.19205356667E+03  0.84058568880E+02  0.28096306262E+04  0.28189527323E+04  0.92302955346E+02 0.  0.
         13    1    3    3    0    0 -0.13969141717E+03  0.19635647708E+02  0.14702866282E+04  0.14770382594E+04  0.00000000000E+00 0.  1.
        -13    1    3    3    0    0 -0.52362149508E+02  0.64422921172E+02  0.13393439981E+04  0.13419144729E+04  0.00000000000E+00 0. -1.
         22    1    1    2    0    0  0.19205356667E+03 -0.84058568880E+02 -0.18816911552E+03  0.28170557593E+03  0.00000000000E+00 0.  1.
<mgrwt>
<rscale>  0 0.16559050E+04</rscale>
<asrwt>0</asrwt>
<pdfrwt beam="1">  1        1 0.44016304E+00 0.16559050E+04</pdfrwt>
<pdfrwt beam="2">  1       -1 0.36861294E-01 0.16559050E+04</pdfrwt>
<totfact> 0.51053569E+00</totfact>
</mgrwt>
</event>
<event>
 6    1  0.1637818E-005  0.1419997E+04  0.7818608E-02  0.8939469E-01
         -1   -1    0    0    0  501 -0.00000000000E+00  0.00000000000E+00  0.23582042080E+03  0.23582042080E+03  0.00000000000E+00 0.  1.
          1   -1    0    0  501    0  0.00000000000E+00 -0.00000000000E+00 -0.21376352819E+04  0.21376352819E+04  0.00000000000E+00 0. -1.
         23    2    1    2    0    0  0.13710505002E+03  0.34625094703E+03 -0.19596462131E+04  0.19965844006E+04  0.86304549959E+02 0.  0.
         11    1    3    3    0    0  0.54158398720E+02  0.21731048570E+03 -0.10002945692E+04  0.10250591225E+04  0.00000000000E+00 0.  1.
        -11    1    3    3    0    0  0.82946651303E+02  0.12894046133E+03 -0.95935164384E+03  0.97152527814E+03  0.00000000000E+00 0. -1.
         22    1    1    2    0    0 -0.13710505002E+03 -0.34625094703E+03  0.57831351962E+02  0.37687130208E+03  0.00000000000E+00 0.  1.
<mgrwt>
<rscale>  0 0.14199973E+04</rscale>
<asrwt>0</asrwt>
<pdfrwt beam="1">  1        1 0.32886698E+00 0.14199973E+04</pdfrwt>
<pdfrwt beam="2">  1       -1 0.36280063E-01 0.14199973E+04</pdfrwt>
<totfact> 0.17036847E+01</totfact>
</mgrwt>
</event>
<event>
 6    1  0.1637818E-005  0.2566447E+04  0.7818608E-02  0.8379689E-01
         -2   -1    0    0    0  501 -0.00000000000E+00  0.00000000000E+00  0.61780691836E+03  0.61780691836E+03  0.00000000000E+00 0.  1.
          2   -1    0    0  501    0  0.00000000000E+00 -0.00000000000E+00 -0.26653351646E+04  0.26653351646E+04  0.00000000000E+00 0. -1.
         23    2    1    2    0    0  0.63309129586E+03 -0.54970669755E+03 -0.22650369787E+04  0.24169480568E+04  0.90902982107E+02 0.  0.
         11    1    3    3    0    0  0.44195102329E+03 -0.41123968107E+03 -0.15231572286E+04  0.16384281264E+04  0.00000000000E+00 0. -1.
        -11    1    3    3    0    0  0.19114027257E+03 -0.13846701647E+03 -0.74187975009E+03  0.77851993041E+03  0.00000000000E+00 0.  1.
         22    1    1    2    0    0 -0.63309129586E+03  0.54970669755E+03  0.21750873248E+03  0.86619402614E+03  0.00000000000E+00 0.  1.
<mgrwt>
<rscale>  0 0.25664470E+04</rscale>
<asrwt>0</asrwt>
<pdfrwt beam="1">  1        2 0.41005157E+00 0.25664470E+04</pdfrwt>
<pdfrwt beam="2">  1       -2 0.95047218E-01 0.25664470E+04</pdfrwt>
<totfact> 0.22989023E+00</totfact>
</mgrwt>
</event>
<event>
 6    1  0.1637818E-005  0.2490216E+04  0.7818608E-02  0.8406480E-01
          2   -1    0    0  501    0  0.00000000000E+00  0.00000000000E+00  0.17233705285E+04  0.17233705285E+04  0.00000000000E+00 0. -1.
         -2   -1    0    0    0  501 -0.00000000000E+00 -0.00000000000E+00 -0.89957055818E+03  0.89957055818E+03  0.00000000000E+00 0.  1.
         23    2    1    2    0    0 -0.21944188307E+03  0.12209824415E+04  0.31938552251E+03  0.12837671631E+04  0.84250545796E+02 0.  0.
         11    1    3    3    0    0 -0.78206555241E+02  0.33695960028E+03  0.12391905162E+03  0.36744247013E+03  0.00000000000E+00 0.  1.
        -11    1    3    3    0    0 -0.14123532783E+03  0.88402284122E+03  0.19546647089E+03  0.91632469292E+03  0.00000000000E+00 0. -1.
         22    1    1    2    0    0  0.21944188307E+03 -0.12209824415E+04  0.50441444778E+03  0.13391739236E+04  0.00000000000E+00 0.  1.
<mgrwt>
<rscale>  0 0.24902156E+04</rscale>
<asrwt>0</asrwt>
<pdfrwt beam="1">  1        2 0.26513393E+00 0.24902156E+04</pdfrwt>
<pdfrwt beam="2">  1       -2 0.13839547E+00 0.24902156E+04</pdfrwt>
<totfact> 0.31443698E+00</totfact>
</mgrwt>
</event>
<event>
 6    1  0.1637818E-005  0.1839066E+04  0.7818608E-02  0.8685796E-01
          1   -1    0    0  501    0  0.00000000000E+00  0.00000000000E+00  0.48804164549E+03  0.48804164549E+03  0.00000000000E+00 0. -1.
         -1   -1    0    0    0  501 -0.00000000000E+00 -0.00000000000E+00 -0.17325185216E+04  0.17325185216E+04  0.00000000000E+00 0.  1.
         23    2    1    2    0    0 -0.53953678566E+03 -0.67036930265E+03 -0.24005263409E+03  0.89792529570E+03  0.90275270784E+02 0.  0.
         11    1    3    3    0    0 -0.29819633960E+03 -0.39322361955E+03 -0.18134214976E+03  0.52576691338E+03  0.00000000000E+00 0. -1.
        -11    1    3    3    0    0 -0.24134044606E+03 -0.27714568310E+03 -0.58710484327E+02  0.37215838232E+03  0.00000000000E+00 0.  1.
         22    1    1    2    0    0  0.53953678566E+03  0.67036930265E+03 -0.10044242420E+04  0.13226348713E+04  0.00000000000E+00 0.  1.
<mgrwt>
<rscale>  0 0.18390663E+04</rscale>
<asrwt>0</asrwt>
<pdfrwt beam="1">  1        1 0.75083329E-01 0.18390663E+04</pdfrwt>
<pdfrwt beam="2">  1       -1 0.26654132E+00 0.18390663E+04</pdfrwt>
<totfact> 0.23458178E+00</totfact>
</mgrwt>
</event>
<event>
 6    1  0.1637818E-005  0.1894838E+04  0.7818608E-02  0.8657430E-01
          1   -1    0    0  501    0  0.00000000000E+00  0.00000000000E+00  0.94279392509E+03  0.94279392509E+03  0.00000000000E+00 0. -1.
         -1   -1    0    0    0  501 -0.00000000000E+00 -0.00000000000E+00 -0.95206702761E+03  0.95206702761E+03  0.00000000000E+00 0.  1.
         23    2    1    2    0    0  0.19103745027E+03 -0.90280800234E+03  0.19955059174E+03  0.94872939114E+03  0.93324286516E+02 0.  0.
         11    1    3    3    0    0  0.14489454063E+03 -0.55641134910E+03  0.86477367004E+02  0.58143473607E+03  0.00000000000E+00 0. -1.
        -11    1    3    3    0    0  0.46142909638E+02 -0.34639665324E+03  0.11307322474E+03  0.36729465507E+03  0.00000000000E+00 0.  1.
         22    1    1    2    0    0 -0.19103745027E+03  0.90280800234E+03 -0.20882369426E+03  0.94613156156E+03  0.00000000000E+00 0. -1.
<mgrwt>
<rscale>  0 0.18948383E+04</rscale>
<asrwt>0</asrwt>
<pdfrwt beam="1">  1        1 0.14504522E+00 0.18948383E+04</pdfrwt>
<pdfrwt beam="2">  1       -1 0.14647185E+00 0.18948383E+04</pdfrwt>
<totfact> 0.58481898E+00</totfact>
</mgrwt>
</event>
<event>
 6    1  0.1637818E-005  0.1635472E+04  0.7818608E-02  0.8799048E-01
          2   -1    0    0  501    0  0.00000000000E+00  0.00000000000E+00  0.12829117523E+04  0.12829117523E+04  0.00000000000E+00 0.  1.
         -2   -1    0    0    0  501 -0.00000000000E+00 -0.00000000000E+00 -0.52122996173E+03  0.52122996173E+03  0.00000000000E+00 0. -1.
         23    2    1    2    0    0 -0.43809635321E+03  0.57359865831E+03  0.79989487329E+03  0.10813664549E+04  0.92616228986E+02 0.  0.
         13    1    3    3    0    0 -0.17153571950E+03  0.16622112900E+03  0.22650717887E+03  0.32917999463E+03  0.00000000000E+00 0. -1.
        -13    1    3    3    0    0 -0.26656063372E+03  0.40737752931E+03  0.57338769442E+03  0.75218646023E+03  0.00000000000E+00 0.  1.
         22    1    1    2    0    0  0.43809635321E+03 -0.57359865831E+03 -0.38213082759E+02  0.72277525913E+03  0.00000000000E+00 0. -1.
<mgrwt>
<rscale>  0 0.16354719E+04</rscale>
<asrwt>0</asrwt>
<pdfrwt beam="1">  1        2 0.19737104E+00 0.16354719E+04</pdfrwt>
<pdfrwt beam="2">  1       -2 0.80189225E-01 0.16354719E+04</pdfrwt>
<totfact> 0.22245536E+01</totfact>
</mgrwt>
</event>
<event>
 6    1  0.1637818E-005  0.3433097E+04  0.7818608E-02  0.8129831E-01
         -1   -1    0    0    0  501 -0.00000000000E+00  0.00000000000E+00  0.22520148726E+04  0.22520148726E+04  0.00000000000E+00 0.  1.
          1   -1    0    0  501    0  0.00000000000E+00 -0.00000000000E+00 -0.13084008155E+04  0.13084008155E+04  0.00000000000E+00 0. -1.
         23    2    1    2    0    0 -0.57999160032E+03  0.67994737305E+03 -0.10462943567E+04  0.13790275563E+04  0.90919929460E+02 0.  0.
         13    1    3    3    0    0 -0.50510447417E+03  0.62259094869E+03 -0.96430558262E+03  0.12540475573E+04  0.00000000000E+00 0. -1.
        -13    1    3    3    0    0 -0.74887126148E+02  0.57356424359E+02 -0.81988774040E+02  0.12497999899E+03  0.00000000000E+00 0.  1.
         22    1    1    2    0    0  0.57999160032E+03 -0.67994737305E+03  0.19899084137E+04  0.21813881318E+04  0.00000000000E+00 0.  1.
<mgrwt>
<rscale>  0 0.34330966E+04</rscale>
<asrwt>0</asrwt>
<pdfrwt beam="1">  1        1 0.20129243E+00 0.34330966E+04</pdfrwt>
<pdfrwt beam="2">  1       -1 0.34646383E+00 0.34330966E+04</pdfrwt>
<totfact> 0.11997769E-01</totfact>
</mgrwt>
</event>
<event>
 6    1  0.1637818E-005  0.3011106E+04  0.7818608E-02  0.8240567E-01
          2   -1    0    0  501    0  0.00000000000E+00  0.00000000000E+00  0.12487450610E+04  0.12487450610E+04  0.00000000000E+00 0. -1.
         -2   -1    0    0    0  501 -0.00000000000E+00 -0.00000000000E+00 -0.18151745710E+04  0.18151745710E+04  0.00000000000E+00 0.  1.
         23    2    1    2    0    0 -0.13557789824E+04 -0.87329250927E+02  0.37308657187E+03  0.14121165217E+04  0.95480016397E+02 0.  0.
         11    1    3    3    0    0 -0.10547135573E+04 -0.36258960408E+02  0.26406216987E+03  0.10878714215E+04  0.00000000000E+00 0. -1.
        -11    1    3    3    0    0 -0.30106542511E+03 -0.51070290519E+02  0.10902440200E+03  0.32424510019E+03  0.00000000000E+00 0.  1.
         22    1    1    2    0    0  0.13557789824E+04  0.87329250927E+02 -0.93951608186E+03  0.16518031103E+04  0.00000000000E+00 0.  1.
<mgrwt>
<rscale>  0 0.30111063E+04</rscale>
<asrwt>0</asrwt>
<pdfrwt beam="1">  1        2 0.19211462E+00 0.30111063E+04</pdfrwt>
<pdfrwt beam="2">  1       -2 0.27925763E+00 0.30111063E+04</pdfrwt>
<totfact> 0.64479750E-01</totfact>
</mgrwt>
</event>
<event>
 6    1  0.1637818E-005  0.3369884E+04  0.7818608E-02  0.8145337E-01
         -1   -1    0    0    0  501 -0.00000000000E+00  0.00000000000E+00  0.71750911831E+03  0.71750911831E+03  0.00000000000E+00 0.  1.
          1   -1    0    0  501    0  0.00000000000E+00 -0.00000000000E+00 -0.39567860994E+04  0.39567860994E+04  0.00000000000E+00 0. -1.
         23    2    1    2    0    0  0.10806952615E+04 -0.12242538043E+04 -0.21894656048E+04  0.27329545595E+04  0.92635654148E+02 0.  0.
         11    1    3    3    0    0  0.69185194016E+03 -0.80542332889E+03 -0.14922381480E+04  0.18314312808E+04  0.00000000000E+00 0. -1.
        -11    1    3    3    0    0  0.38884332129E+03 -0.41883047536E+03 -0.69722745675E+03  0.90152327871E+03  0.00000000000E+00 0.  1.
         22    1    1    2    0    0 -0.10806952615E+04  0.12242538043E+04 -0.10498113763E+04  0.19413406582E+04  0.00000000000E+00 0. -1.
<mgrwt>
<rscale>  0 0.33698843E+04</rscale>
<asrwt>0</asrwt>
<pdfrwt beam="1">  1        1 0.60873633E+00 0.33698843E+04</pdfrwt>
<pdfrwt beam="2">  1       -1 0.11038602E+00 0.33698843E+04</pdfrwt>
<totfact> 0.65213253E-02</totfact>
</mgrwt>
</event>
<event>
 6    1  0.1637818E-005  0.2651779E+04  0.7818608E-02  0.8350823E-01
          2   -1    0    0  501    0  0.00000000000E+00  0.00000000000E+00  0.17893265118E+04  0.17893265118E+04  0.00000000000E+00 0. -1.
         -2   -1    0    0    0  501 -0.00000000000E+00 -0.00000000000E+00 -0.98248287631E+03  0.98248287631E+03  0.00000000000E+00 0.  1.
         23    2    1    2    0    0  0.10628831289E+04  0.99624529660E+02  0.12230639062E+04  0.16259974898E+04  0.91306766598E+02 0.  0.
         13    1    3    3    0    0  0.83057482686E+03  0.10018411142E+03  0.90945851507E+03  0.12357209191E+04  0.00000000000E+00 0. -1.
        -13    1    3    3    0    0  0.23230830205E+03 -0.55958176503E+00  0.31360539109E+03  0.39027657072E+03  0.00000000000E+00 0.  1.
         22    1    1    2    0    0 -0.10628831289E+04 -0.99624529660E+02 -0.41622027067E+03  0.11458118983E+04  0.00000000000E+00 0.  1.
<mgrwt>
<rscale>  0 0.26517788E+04</rscale>
<asrwt>0</asrwt>
<pdfrwt beam="1">  1        2 0.27528100E+00 0.26517788E+04</pdfrwt>
<pdfrwt beam="2">  1       -2 0.15115121E+00 0.26517788E+04</pdfrwt>
<totfact> 0.22623280E+00</totfact>
</mgrwt>
</event>
<event>
 6    1  0.2237582E-005  0.2457003E+04  0.7818608E-02  0.8418465E-01
         -1   -1    0    0    0  501 -0.00000000000E+00  0.00000000000E+00  0.12773858256E+04  0.12773858256E+04  0.00000000000E+00 0.  1.
          1   -1    0    0  501    0  0.00000000000E+00 -0.00000000000E+00 -0.11814883292E+04  0.11814883292E+04  0.00000000000E+00 0. -1.
         23    2    1    2    0    0 -0.10206766096E+04 -0.46822165581E+01 -0.63303412319E+03  0.12046237929E+04  0.92647810746E+02 0.  0.
         13    1    3    3    0    0 -0.26765972322E+03  0.99527385463E+01 -0.12108727376E+03  0.29394372302E+03  0.00000000000E+00 0.  1.
        -13    1    3    3    0    0 -0.75301688636E+03 -0.14634955104E+02 -0.51194684942E+03  0.91068006989E+03  0.00000000000E+00 0. -1.
         22    1    1    2    0    0  0.10206766096E+04  0.46822165581E+01  0.72893161957E+03  0.12542503620E+04  0.00000000000E+00 0. -1.
<mgrwt>
<rscale>  0 0.24570034E+04</rscale>
<asrwt>0</asrwt>
<pdfrwt beam="1">  1        1 0.18176743E+00 0.24570034E+04</pdfrwt>
<pdfrwt beam="2">  1       -1 0.19652090E+00 0.24570034E+04</pdfrwt>
<totfact> 0.15641457E+00</totfact>
</mgrwt>
</event>
<event>
 6    1  0.1637818E-005  0.3030697E+04  0.7818608E-02  0.8235019E-01
         -2   -1    0    0    0  501 -0.00000000000E+00  0.00000000000E+00  0.12315196181E+04  0.12315196181E+04  0.00000000000E+00 0. -1.
          2   -1    0    0  501    0  0.00000000000E+00 -0.00000000000E+00 -0.18645916190E+04  0.18645916190E+04  0.00000000000E+00 0.  1.
         23    2    1    2    0    0 -0.28794713323E+03  0.14855457611E+04 -0.26839184523E+03  0.15395922441E+04  0.92468025110E+02 0.  0.
         13    1    3    3    0    0 -0.61044423480E+02  0.54388436540E+03 -0.10562860950E+03  0.55739934312E+03  0.00000000000E+00 0. -1.
        -13    1    3    3    0    0 -0.22690270975E+03  0.94166139565E+03 -0.16276323572E+03  0.98219290094E+03  0.00000000000E+00 0.  1.
         22    1    1    2    0    0  0.28794713323E+03 -0.14855457611E+04 -0.36468015571E+03  0.15565189930E+04  0.00000000000E+00 0.  1.
<mgrwt>
<rscale>  0 0.30306971E+04</rscale>
<asrwt>0</asrwt>
<pdfrwt beam="1">  1        2 0.28686025E+00 0.30306971E+04</pdfrwt>
<pdfrwt beam="2">  1       -2 0.18946456E+00 0.30306971E+04</pdfrwt>
<totfact> 0.10603892E+00</totfact>
</mgrwt>
</event>
<event>
 6    1  0.1637818E-005  0.2989548E+04  0.7818608E-02  0.8246722E-01
         -2   -1    0    0    0  501 -0.00000000000E+00  0.00000000000E+00  0.12480958601E+04  0.12480958601E+04  0.00000000000E+00 0.  1.
          2   -1    0    0  501    0  0.00000000000E+00 -0.00000000000E+00 -0.17902065891E+04  0.17902065891E+04  0.00000000000E+00 0. -1.
         23    2    1    2    0    0  0.15170503833E+03  0.15569192756E+03 -0.17729041863E+04  0.17884596872E+04  0.90246351826E+02 0.  0.
         13    1    3    3    0    0  0.13570877366E+03  0.85058798098E+02 -0.13402741658E+04  0.13498098791E+04  0.00000000000E+00 0.  1.
        -13    1    3    3    0    0  0.15996264667E+02  0.70633129458E+02 -0.43263002055E+03  0.43864980809E+03  0.00000000000E+00 0. -1.
         22    1    1    2    0    0 -0.15170503833E+03 -0.15569192756E+03  0.12307934573E+04  0.12498427619E+04  0.00000000000E+00 0.  1.
<mgrwt>
<rscale>  0 0.29895481E+04</rscale>
<asrwt>0</asrwt>
<pdfrwt beam="1">  1        2 0.27541640E+00 0.29895481E+04</pdfrwt>
<pdfrwt beam="2">  1       -2 0.19201475E+00 0.29895481E+04</pdfrwt>
<totfact> 0.11249416E+00</totfact>
</mgrwt>
</event>
<event>
 6    1  0.1637818E-005  0.1625919E+04  0.7818608E-02  0.8804782E-01
         -1   -1    0    0    0  501 -0.00000000000E+00  0.00000000000E+00  0.54724230601E+03  0.54724230601E+03  0.00000000000E+00 0.  1.
          1   -1    0    0  501    0  0.00000000000E+00 -0.00000000000E+00 -0.12076968643E+04  0.12076968643E+04  0.00000000000E+00 0. -1.
         23    2    1    2    0    0  0.79618253836E+03  0.12649525888E+03 -0.42013283262E+03  0.91371255594E+03  0.91931240225E+02 0.  0.
         11    1    3    3    0    0  0.18646674568E+03 -0.27509985413E+01 -0.72731514893E+02  0.20016815055E+03  0.00000000000E+00 0. -1.
        -11    1    3    3    0    0  0.60971579269E+03  0.12924625742E+03 -0.34740131773E+03  0.71354440539E+03  0.00000000000E+00 0.  1.
         22    1    1    2    0    0 -0.79618253836E+03 -0.12649525888E+03 -0.24032172569E+03  0.84122661439E+03  0.00000000000E+00 0.  1.
<mgrwt>
<rscale>  0 0.16259186E+04</rscale>
<asrwt>0</asrwt>
<pdfrwt beam="1">  1        1 0.18579952E+00 0.16259186E+04</pdfrwt>
<pdfrwt beam="2">  1       -1 0.84191124E-01 0.16259186E+04</pdfrwt>
<totfact> 0.14118347E+01</totfact>
</mgrwt>
</event>
<event>
 6    1  0.1637818E-005  0.3194029E+04  0.7818608E-02  0.8190396E-01
          1   -1    0    0  501    0  0.00000000000E+00  0.00000000000E+00  0.34382641465E+04  0.34382641465E+04  0.00000000000E+00 0. -1.
         -1   -1    0    0    0  501 -0.00000000000E+00 -0.00000000000E+00 -0.74178586899E+03  0.74178586899E+03  0.00000000000E+00 0.  1.
         23    2    1    2    0    0  0.86953530474E+03  0.34246661777E+03 -0.34329801137E+03  0.99985899655E+03  0.92138254176E+02 0.  0.
         11    1    3    3    0    0  0.36707228406E+03  0.12303198686E+03 -0.98952721949E+02  0.39958800370E+03  0.00000000000E+00 0. -1.
        -11    1    3    3    0    0  0.50246302068E+03  0.21943463091E+03 -0.24434528942E+03  0.60027099285E+03  0.00000000000E+00 0.  1.
         22    1    1    2    0    0 -0.86953530474E+03 -0.34246661777E+03  0.30397762889E+04  0.31801910190E+04  0.00000000000E+00 0. -1.
<mgrwt>
<rscale>  0 0.31940293E+04</rscale>
<asrwt>0</asrwt>
<pdfrwt beam="1">  1        1 0.52896371E+00 0.31940293E+04</pdfrwt>
<pdfrwt beam="2">  1       -1 0.11412090E+00 0.31940293E+04</pdfrwt>
<totfact> 0.16330903E-01</totfact>
</mgrwt>
</event>
<event>
 6    1  0.1637818E-005  0.3222610E+04  0.7818608E-02  0.8182871E-01
          1   -1    0    0  501    0  0.00000000000E+00  0.00000000000E+00  0.27375928386E+04  0.27375928386E+04  0.00000000000E+00 0. -1.
         -1   -1    0    0    0  501 -0.00000000000E+00 -0.00000000000E+00 -0.94838928246E+03  0.94838928246E+03  0.00000000000E+00 0.  1.
         23    2    1    2    0    0 -0.11937629483E+04  0.48514237038E+03 -0.20890077368E+03  0.13084089867E+04  0.88664802267E+02 0.  0.
         13    1    3    3    0    0 -0.65782172651E+03  0.26607939723E+03 -0.15965056015E+03  0.72733484094E+03  0.00000000000E+00 0. -1.
        -13    1    3    3    0    0 -0.53594122176E+03  0.21906297315E+03 -0.49250213529E+02  0.58107414580E+03  0.00000000000E+00 0.  1.
         22    1    1    2    0    0  0.11937629483E+04 -0.48514237038E+03  0.19981043298E+04  0.23775731343E+04  0.00000000000E+00 0. -1.
<mgrwt>
<rscale>  0 0.32226099E+04</rscale>
<asrwt>0</asrwt>
<pdfrwt beam="1">  1        1 0.42116813E+00 0.32226099E+04</pdfrwt>
<pdfrwt beam="2">  1       -1 0.14590604E+00 0.32226099E+04</pdfrwt>
<totfact> 0.28950039E-01</totfact>
</mgrwt>
</event>
<event>
 6    1  0.1637818E-005  0.3679382E+04  0.7818608E-02  0.8072546E-01
          1   -1    0    0  501    0  0.00000000000E+00  0.00000000000E+00  0.15813854433E+04  0.15813854433E+04  0.00000000000E+00 0. -1.
         -1   -1    0    0    0  501 -0.00000000000E+00 -0.00000000000E+00 -0.21401883356E+04  0.21401883356E+04  0.00000000000E+00 0.  1.
         23    2    1    2    0    0  0.10638253446E+04  0.14961305258E+04 -0.17783590179E+03  0.18466693115E+04  0.91820608273E+02 0.  0.
         11    1    3    3    0    0  0.79463890005E+03  0.10816925461E+04 -0.16509424841E+03  0.13523186964E+04  0.00000000000E+00 0.  1.
        -11    1    3    3    0    0  0.26918644458E+03  0.41443797966E+03 -0.12741653388E+02  0.49435061511E+03  0.00000000000E+00 0. -1.
         22    1    1    2    0    0 -0.10638253446E+04 -0.14961305258E+04 -0.38096699043E+03  0.18749044674E+04  0.00000000000E+00 0. -1.
<mgrwt>
<rscale>  0 0.36793818E+04</rscale>
<asrwt>0</asrwt>
<pdfrwt beam="1">  1        1 0.24329007E+00 0.36793818E+04</pdfrwt>
<pdfrwt beam="2">  1       -1 0.32925975E+00 0.36793818E+04</pdfrwt>
<totfact> 0.98301046E-02</totfact>
</mgrwt>
</event>
<event>
 6    1  0.1637818E-005  0.1832619E+04  0.7818608E-02  0.8689143E-01
         -2   -1    0    0    0  501 -0.00000000000E+00  0.00000000000E+00  0.56179533474E+03  0.56179533474E+03  0.00000000000E+00 0.  1.
          2   -1    0    0  501    0  0.00000000000E+00 -0.00000000000E+00 -0.14945357982E+04  0.14945357982E+04  0.00000000000E+00 0. -1.
         23    2    1    2    0    0  0.80103485004E+03  0.42064839413E+03 -0.61280276586E+03  0.10966634650E+04  0.92420902619E+02 0.  0.
         11    1    3    3    0    0  0.31718394374E+03  0.12494564270E+03 -0.19971923181E+03  0.39510104955E+03  0.00000000000E+00 0. -1.
        -11    1    3    3    0    0  0.48385090630E+03  0.29570275143E+03 -0.41308353405E+03  0.70156241549E+03  0.00000000000E+00 0.  1.
         22    1    1    2    0    0 -0.80103485004E+03 -0.42064839413E+03 -0.31993769760E+03  0.95966766790E+03  0.00000000000E+00 0.  1.
<mgrwt>
<rscale>  0 0.18326192E+04</rscale>
<asrwt>0</asrwt>
<pdfrwt beam="1">  1        2 0.22992858E+00 0.18326192E+04</pdfrwt>
<pdfrwt beam="2">  1       -2 0.86430053E-01 0.18326192E+04</pdfrwt>
<totfact> 0.13962795E+01</totfact>
</mgrwt>
</event>
<event>
 6    1  0.1637818E-005  0.1247844E+04  0.7818608E-02  0.9071980E-01
         -1   -1    0    0    0  501 -0.00000000000E+00  0.00000000000E+00  0.29789376748E+03  0.29789376748E+03  0.00000000000E+00 0.  1.
          1   -1    0    0  501    0  0.00000000000E+00 -0.00000000000E+00 -0.13067700557E+04  0.13067700557E+04  0.00000000000E+00 0. -1.
         23    2    1    2    0    0 -0.56078696352E+03 -0.12395923648E+03 -0.20532837181E+03  0.61697097380E+03  0.92981350137E+02 0.  0.
         11    1    3    3    0    0 -0.14361563757E+03 -0.46004248456E+02 -0.95843557740E+02  0.17868360247E+03  0.00000000000E+00 0.  1.
        -11    1    3    3    0    0 -0.41717132596E+03 -0.77954988020E+02 -0.10948481407E+03  0.43828737133E+03  0.00000000000E+00 0. -1.
         22    1    1    2    0    0  0.56078696352E+03  0.12395923648E+03 -0.80354791646E+03  0.98769284943E+03  0.00000000000E+00 0. -1.
<mgrwt>
<rscale>  0 0.12478440E+04</rscale>
<asrwt>0</asrwt>
<pdfrwt beam="1">  1        1 0.20104155E+00 0.12478440E+04</pdfrwt>
<pdfrwt beam="2">  1       -1 0.45829810E-01 0.12478440E+04</pdfrwt>
<totfact> 0.41742498E+01</totfact>
</mgrwt>
</event>
<event>
 6    1  0.1637818E-005  0.2108463E+04  0.7818608E-02  0.8557524E-01
         -3   -1    0    0    0  501 -0.00000000000E+00  0.00000000000E+00  0.48862133603E+03  0.48862133603E+03  0.00000000000E+00 0.  1.
          3   -1    0    0  501    0  0.00000000000E+00 -0.00000000000E+00 -0.22745722085E+04  0.22745722085E+04  0.00000000000E+00 0. -1.
         23    2    1    2    0    0  0.54319123750E+03 -0.44282984477E+03  0.13502616526E+03  0.71836891356E+03  0.81650711856E+02 0.  0.
         13    1    3    3    0    0  0.10839230582E+03 -0.62436004801E+02  0.48745749670E+02  0.13425086505E+03  0.00000000000E+00 0. -1.
        -13    1    3    3    0    0  0.43479893169E+03 -0.38039383997E+03  0.86280415591E+02  0.58411804851E+03  0.00000000000E+00 0.  1.
         22    1    1    2    0    0 -0.54319123750E+03  0.44282984477E+03 -0.19209770377E+04  0.20448246310E+04  0.00000000000E+00 0. -1.
<mgrwt>
<rscale>  0 0.21084634E+04</rscale>
<asrwt>0</asrwt>
<pdfrwt beam="1">  1        3 0.34993418E+00 0.21084634E+04</pdfrwt>
<pdfrwt beam="2">  1       -3 0.75172515E-01 0.21084634E+04</pdfrwt>
<totfact> 0.83023015E-02</totfact>
</mgrwt>
</event>
<event>
 6    1  0.1637818E-005  0.2499171E+04  0.7818608E-02  0.8403281E-01
          2   -1    0    0  501    0  0.00000000000E+00  0.00000000000E+00  0.24927647834E+04  0.24927647834E+04  0.00000000000E+00 0. -1.
         -2   -1    0    0    0  501 -0.00000000000E+00 -0.00000000000E+00 -0.62639829309E+03  0.62639829309E+03  0.00000000000E+00 0.  1.
         23    2    1    2    0    0 -0.75411542152E+03  0.77998153934E+03  0.16488693701E+03  0.11012200790E+04  0.91851454956E+02 0.  0.
         11    1    3    3    0    0 -0.42497738326E+03  0.44485289072E+03  0.47539573799E+02  0.61705743796E+03  0.00000000000E+00 0. -1.
        -11    1    3    3    0    0 -0.32913803826E+03  0.33512864862E+03  0.11734736322E+03  0.48416264107E+03  0.00000000000E+00 0.  1.
         22    1    1    2    0    0  0.75411542152E+03 -0.77998153934E+03  0.17014795533E+04  0.20179429974E+04  0.00000000000E+00 0. -1.
<mgrwt>
<rscale>  0 0.24991707E+04</rscale>
<asrwt>0</asrwt>
<pdfrwt beam="1">  1        2 0.38350227E+00 0.24991707E+04</pdfrwt>
<pdfrwt beam="2">  1       -2 0.96368970E-01 0.24991707E+04</pdfrwt>
<totfact> 0.28251094E+00</totfact>
</mgrwt>
</event>
<event>
 6    1  0.1637818E-005  0.3016806E+04  0.7818608E-02  0.8238948E-01
         -1   -1    0    0    0  501 -0.00000000000E+00  0.00000000000E+00  0.19022862308E+04  0.19022862308E+04  0.00000000000E+00 0.  1.
          1   -1    0    0  501    0  0.00000000000E+00 -0.00000000000E+00 -0.11960765801E+04  0.11960765801E+04  0.00000000000E+00 0. -1.
         23    2    1    2    0    0 -0.85899172528E+03  0.10745947003E+04  0.98526501848E+03  0.16946205083E+04  0.91492931024E+02 0.  0.
         11    1    3    3    0    0 -0.50379912450E+03  0.55833637163E+03  0.54688096052E+03  0.92985582039E+03  0.00000000000E+00 0.  1.
        -11    1    3    3    0    0 -0.35519260078E+03  0.51625832867E+03  0.43838405796E+03  0.76476468788E+03  0.00000000000E+00 0. -1.
         22    1    1    2    0    0  0.85899172528E+03 -0.10745947003E+04 -0.27905536775E+03  0.14037423027E+04  0.00000000000E+00 0.  1.
<mgrwt>
<rscale>  0 0.30168063E+04</rscale>
<asrwt>0</asrwt>
<pdfrwt beam="1">  1        1 0.18401178E+00 0.30168063E+04</pdfrwt>
<pdfrwt beam="2">  1       -1 0.29265942E+00 0.30168063E+04</pdfrwt>
<totfact> 0.33681414E-01</totfact>
</mgrwt>
</event>
<event>
 6    1  0.1637818E-005  0.2137423E+04  0.7818608E-02  0.8544935E-01
         -2   -1    0    0    0  501 -0.00000000000E+00  0.00000000000E+00  0.10704102222E+04  0.10704102222E+04  0.00000000000E+00 0. -1.
          2   -1    0    0  501    0  0.00000000000E+00 -0.00000000000E+00 -0.10670156318E+04  0.10670156318E+04  0.00000000000E+00 0.  1.
         23    2    1    2    0    0  0.94656195218E+03 -0.41740433676E+03 -0.25875874803E+03  0.10702190875E+04  0.90591919318E+02 0.  0.
         11    1    3    3    0    0  0.28563904802E+03 -0.15964766669E+03 -0.11140438940E+03  0.34567033603E+03  0.00000000000E+00 0. -1.
        -11    1    3    3    0    0  0.66092290416E+03 -0.25775667007E+03 -0.14735435863E+03  0.72454875144E+03  0.00000000000E+00 0.  1.
         22    1    1    2    0    0 -0.94656195218E+03  0.41740433676E+03  0.26215333850E+03  0.10672067665E+04  0.00000000000E+00 0.  1.
<mgrwt>
<rscale>  0 0.21374232E+04</rscale>
<asrwt>0</asrwt>
<pdfrwt beam="1">  1        2 0.16415625E+00 0.21374232E+04</pdfrwt>
<pdfrwt beam="2">  1       -2 0.16467850E+00 0.21374232E+04</pdfrwt>
<totfact> 0.48838569E+00</totfact>
</mgrwt>
</event>
<event>
 6    1  0.1637818E-005  0.2578889E+04  0.7818608E-02  0.8375408E-01
          1   -1    0    0  501    0  0.00000000000E+00  0.00000000000E+00  0.11243050874E+04  0.11243050874E+04  0.00000000000E+00 0. -1.
         -1   -1    0    0    0  501 -0.00000000000E+00 -0.00000000000E+00 -0.14788402952E+04  0.14788402952E+04  0.00000000000E+00 0.  1.
         23    2    1    2    0    0  0.58326082806E+02 -0.10334361917E+04  0.59572687514E+03  0.11980153812E+04  0.94646973722E+02 0.  0.
         13    1    3    3    0    0  0.82902447049E+02 -0.68334488681E+03  0.38705515860E+03  0.78971181190E+03  0.00000000000E+00 0.  1.
        -13    1    3    3    0    0 -0.24576364242E+02 -0.35009130491E+03  0.20867171654E+03  0.40830356934E+03  0.00000000000E+00 0. -1.
         22    1    1    2    0    0 -0.58326082806E+02  0.10334361917E+04 -0.95026208293E+03  0.14051300013E+04  0.00000000000E+00 0. -1.
<mgrwt>
<rscale>  0 0.25788894E+04</rscale>
<asrwt>0</asrwt>
<pdfrwt beam="1">  1        1 0.17297001E+00 0.25788894E+04</pdfrwt>
<pdfrwt beam="2">  1       -1 0.22751389E+00 0.25788894E+04</pdfrwt>
<totfact> 0.10517202E+00</totfact>
</mgrwt>
</event>
<event>
 6    1  0.1637818E-005  0.9278642E+03  0.7818608E-02  0.9391405E-01
          1   -1    0    0  501    0  0.00000000000E+00  0.00000000000E+00  0.39254031153E+03  0.39254031153E+03  0.00000000000E+00 0. -1.
         -1   -1    0    0    0  501 -0.00000000000E+00 -0.00000000000E+00 -0.54830803244E+03  0.54830803244E+03  0.00000000000E+00 0.  1.
         23    2    1    2    0    0  0.24534352709E+03 -0.32623321034E+03  0.13484865749E+03  0.43977007343E+03  0.92693059323E+02 0.  0.
         11    1    3    3    0    0  0.82385469177E+01 -0.65989508844E+02  0.19695716523E+02  0.69357120630E+02  0.00000000000E+00 0.  1.
        -11    1    3    3    0    0  0.23710498017E+03 -0.26024370150E+03  0.11515294096E+03  0.37041295280E+03  0.00000000000E+00 0. -1.
         22    1    1    2    0    0 -0.24534352709E+03  0.32623321034E+03 -0.29061637839E+03  0.50107827053E+03  0.00000000000E+00 0. -1.
<mgrwt>
<rscale>  0 0.92786423E+03</rscale>
<asrwt>0</asrwt>
<pdfrwt beam="1">  1        1 0.60390817E-01 0.92786423E+03</pdfrwt>
<pdfrwt beam="2">  1       -1 0.84355082E-01 0.92786423E+03</pdfrwt>
<totfact> 0.86245929E+01</totfact>
</mgrwt>
</event>
<event>
 6    1  0.1637818E-005  0.8981180E+03  0.7818608E-02  0.9427937E-01
         -1   -1    0    0    0  501 -0.00000000000E+00  0.00000000000E+00  0.19117346798E+03  0.19117346798E+03  0.00000000000E+00 0.  1.
          1   -1    0    0  501    0  0.00000000000E+00 -0.00000000000E+00 -0.10548219708E+04  0.10548219708E+04  0.00000000000E+00 0. -1.
         23    2    1    2    0    0  0.26759485540E+03 -0.34398907546E+03 -0.31370747308E+03  0.54430417700E+03  0.88989705928E+02 0.  0.
         13    1    3    3    0    0  0.61794500325E+02 -0.29391924517E+02 -0.39705792673E+02  0.79113813389E+02  0.00000000000E+00 0. -1.
        -13    1    3    3    0    0  0.20580035507E+03 -0.31459715094E+03 -0.27400168041E+03  0.46519036361E+03  0.00000000000E+00 0.  1.
         22    1    1    2    0    0 -0.26759485540E+03  0.34398907546E+03 -0.54994102977E+03  0.70169126180E+03  0.00000000000E+00 0. -1.
<mgrwt>
<rscale>  0 0.89811798E+03</rscale>
<asrwt>0</asrwt>
<pdfrwt beam="1">  1        1 0.16228030E+00 0.89811798E+03</pdfrwt>
<pdfrwt beam="2">  1       -1 0.29411304E-01 0.89811798E+03</pdfrwt>
<totfact> 0.14589114E+02</totfact>
</mgrwt>
</event>
<event>
 6    1  0.1637818E-005  0.3867425E+04  0.7818608E-02  0.8031838E-01
          2   -1    0    0  501    0  0.00000000000E+00  0.00000000000E+00  0.12176440770E+04  0.12176440770E+04  0.00000000000E+00 0. -1.
         -2   -1    0    0    0  501 -0.00000000000E+00 -0.00000000000E+00 -0.30708845107E+04  0.30708845107E+04  0.00000000000E+00 0.  1.
         23    2    1    2    0    0  0.18378019594E+04 -0.30248499767E+03 -0.35378202073E+03  0.18974224110E+04  0.77697308807E+02 0.  0.
         11    1    3    3    0    0  0.11082211057E+04 -0.20173306332E+03 -0.18042769888E+03  0.11407911301E+04  0.00000000000E+00 0.  1.
        -11    1    3    3    0    0  0.72958085371E+03 -0.10075193435E+03 -0.17335432186E+03  0.75663128093E+03  0.00000000000E+00 0. -1.
         22    1    1    2    0    0 -0.18378019594E+04  0.30248499767E+03 -0.14994584130E+04  0.23911061767E+04  0.00000000000E+00 0.  1.
<mgrwt>
<rscale>  0 0.38674252E+04</rscale>
<asrwt>0</asrwt>
<pdfrwt beam="1">  1        2 0.18732986E+00 0.38674252E+04</pdfrwt>
<pdfrwt beam="2">  1       -2 0.47244377E+00 0.38674252E+04</pdfrwt>
<totfact> 0.36436966E-02</totfact>
</mgrwt>
</event>
<event>
 6    1  0.1637818E-005  0.2097929E+04  0.7818608E-02  0.8562156E-01
         -1   -1    0    0    0  501 -0.00000000000E+00  0.00000000000E+00  0.11986255427E+04  0.11986255427E+04  0.00000000000E+00 0.  1.
          1   -1    0    0  501    0  0.00000000000E+00 -0.00000000000E+00 -0.91798978606E+03  0.91798978606E+03  0.00000000000E+00 0. -1.
         23    2    1    2    0    0  0.58838819993E+03 -0.47973881429E+03 -0.58684988232E+03  0.96384417301E+03  0.90844932240E+02 0.  0.
         11    1    3    3    0    0  0.38737836314E+03 -0.29468426013E+03 -0.42580315313E+03  0.64669091119E+03  0.00000000000E+00 0. -1.
        -11    1    3    3    0    0  0.20100983678E+03 -0.18505455416E+03 -0.16104672919E+03  0.31715326182E+03  0.00000000000E+00 0.  1.
         22    1    1    2    0    0 -0.58838819993E+03  0.47973881429E+03  0.86748563900E+03  0.11527711558E+04  0.00000000000E+00 0.  1.
<mgrwt>
<rscale>  0 0.20979285E+04</rscale>
<asrwt>0</asrwt>
<pdfrwt beam="1">  1        1 0.14122920E+00 0.20979285E+04</pdfrwt>
<pdfrwt beam="2">  1       -1 0.18440393E+00 0.20979285E+04</pdfrwt>
<totfact> 0.31317118E+00</totfact>
</mgrwt>
</event>
<event>
 6    1  0.1637818E-005  0.4147161E+04  0.7818608E-02  0.7975500E-01
          1   -1    0    0  501    0  0.00000000000E+00  0.00000000000E+00  0.24333427503E+04  0.24333427503E+04  0.00000000000E+00 0. -1.
         -1   -1    0    0    0  501 -0.00000000000E+00 -0.00000000000E+00 -0.17670077225E+04  0.17670077225E+04  0.00000000000E+00 0.  1.
         23    2    1    2    0    0  0.18141256919E+04 -0.84124963241E+03 -0.21843805716E+03  0.20136688815E+04  0.91619917580E+02 0.  0.
         11    1    3    3    0    0  0.83875177465E+03 -0.36231139300E+03 -0.60843237458E+02  0.91568334293E+03  0.00000000000E+00 0. -1.
        -11    1    3    3    0    0  0.97537391728E+03 -0.47893823941E+03 -0.15759481970E+03  0.10979855386E+04  0.00000000000E+00 0.  1.
         22    1    1    2    0    0 -0.18141256919E+04  0.84124963241E+03  0.88477308493E+03  0.21866815914E+04  0.00000000000E+00 0. -1.
<mgrwt>
<rscale>  0 0.41471607E+04</rscale>
<asrwt>0</asrwt>
<pdfrwt beam="1">  1        1 0.37436042E+00 0.41471607E+04</pdfrwt>
<pdfrwt beam="2">  1       -1 0.27184734E+00 0.41471607E+04</pdfrwt>
<totfact> 0.58566425E-02</totfact>
</mgrwt>
</event>
<event>
 6    1  0.1637818E-005  0.1842540E+04  0.7818608E-02  0.8683998E-01
         -1   -1    0    0    0  501 -0.00000000000E+00  0.00000000000E+00  0.11816649097E+04  0.11816649097E+04  0.00000000000E+00 0.  1.
          1   -1    0    0  501    0  0.00000000000E+00 -0.00000000000E+00 -0.71825680555E+03  0.71825680555E+03  0.00000000000E+00 0. -1.
         23    2    1    2    0    0  0.54207127739E+03  0.40422295958E+03 -0.40951661520E+03  0.79573195054E+03  0.90818545262E+02 0.  0.
         11    1    3    3    0    0  0.32235735477E+03  0.28581616789E+03 -0.28728447197E+03  0.51781996276E+03  0.00000000000E+00 0.  1.
        -11    1    3    3    0    0  0.21971392262E+03  0.11840679169E+03 -0.12223214323E+03  0.27791198778E+03  0.00000000000E+00 0. -1.
         22    1    1    2    0    0 -0.54207127739E+03 -0.40422295958E+03  0.87292471934E+03  0.11041897647E+04  0.00000000000E+00 0.  1.
<mgrwt>
<rscale>  0 0.18425405E+04</rscale>
<asrwt>0</asrwt>
<pdfrwt beam="1">  1        1 0.11050105E+00 0.18425405E+04</pdfrwt>
<pdfrwt beam="2">  1       -1 0.18179460E+00 0.18425405E+04</pdfrwt>
<totfact> 0.49744889E+00</totfact>
</mgrwt>
</event>
<event>
 6    1  0.1637818E-005  0.4207356E+04  0.7818608E-02  0.7963974E-01
         -1   -1    0    0    0  501 -0.00000000000E+00  0.00000000000E+00  0.15527421970E+04  0.15527421970E+04  0.00000000000E+00 0.  1.
          1   -1    0    0  501    0  0.00000000000E+00 -0.00000000000E+00 -0.28500938859E+04  0.28500938859E+04  0.00000000000E+00 0. -1.
         23    2    1    2    0    0 -0.31626727808E+03  0.20541666893E+04 -0.98279698943E+03  0.23007964929E+04  0.90270708401E+02 0.  0.
         13    1    3    3    0    0 -0.33101586974E+02  0.46074173974E+03 -0.22136990585E+03  0.51223363909E+03  0.00000000000E+00 0. -1.
        -13    1    3    3    0    0 -0.28316569111E+03  0.15934249496E+04 -0.76142708358E+03  0.17885628538E+04  0.00000000000E+00 0.  1.
         22    1    1    2    0    0  0.31626727808E+03 -0.20541666893E+04 -0.31455469951E+03  0.21020395899E+04  0.00000000000E+00 0. -1.
<mgrwt>
<rscale>  0 0.42073560E+04</rscale>
<asrwt>0</asrwt>
<pdfrwt beam="1">  1        1 0.43847598E+00 0.42073560E+04</pdfrwt>
<pdfrwt beam="2">  1       -1 0.23888342E+00 0.42073560E+04</pdfrwt>
<totfact> 0.48682129E-02</totfact>
</mgrwt>
</event>
<event>
 6    1  0.1637818E-005  0.1032110E+04  0.7818608E-02  0.9274012E-01
         -2   -1    0    0    0  501 -0.00000000000E+00  0.00000000000E+00  0.40051601892E+03  0.40051601892E+03  0.00000000000E+00 0.  1.
          2   -1    0    0  501    0  0.00000000000E+00 -0.00000000000E+00 -0.66492435712E+03  0.66492435712E+03  0.00000000000E+00 0. -1.
         23    2    1    2    0    0  0.27294270090E+03 -0.30075134481E+03  0.18824295770E+03  0.45729377772E+03  0.93451049419E+02 0.  0.
         13    1    3    3    0    0  0.17150331389E+03 -0.13847448694E+03  0.13565767591E+03  0.25882730776E+03  0.00000000000E+00 0. -1.
        -13    1    3    3    0    0  0.10143938701E+03 -0.16227685787E+03  0.52585281786E+02  0.19846646996E+03  0.00000000000E+00 0.  1.
         22    1    1    2    0    0 -0.27294270090E+03  0.30075134481E+03 -0.45265129589E+03  0.60814659832E+03  0.00000000000E+00 0. -1.
<mgrwt>
<rscale>  0 0.10321102E+04</rscale>
<asrwt>0</asrwt>
<pdfrwt beam="1">  1        2 0.10229605E+00 0.10321102E+04</pdfrwt>
<pdfrwt beam="2">  1       -2 0.61617850E-01 0.10321102E+04</pdfrwt>
<totfact> 0.10669767E+02</totfact>
</mgrwt>
</event>
<event>
 6    1  0.1637818E-005  0.8890957E+03  0.7818608E-02  0.9439316E-01
         -4   -1    0    0    0  501 -0.00000000000E+00  0.00000000000E+00  0.84262134778E+03  0.84262134778E+03  0.00000000000E+00 0.  1.
          4   -1    0    0  501    0  0.00000000000E+00 -0.00000000000E+00 -0.23453334873E+03  0.23453334873E+03  0.00000000000E+00 0. -1.
         23    2    1    2    0    0  0.15114333619E+03 -0.38021336203E+03  0.50255352082E+03  0.65460998310E+03  0.92453663773E+02 0.  0.
         13    1    3    3    0    0  0.13050977582E+03 -0.31732241321E+03  0.35934442093E+03  0.49684477290E+03  0.00000000000E+00 0.  1.
        -13    1    3    3    0    0  0.20633560376E+02 -0.62890948821E+02  0.14320909989E+03  0.15776521019E+03  0.00000000000E+00 0. -1.
         22    1    1    2    0    0 -0.15114333619E+03  0.38021336203E+03  0.10553447823E+03  0.42254471341E+03  0.00000000000E+00 0. -1.
<mgrwt>
<rscale>  0 0.88909573E+03</rscale>
<asrwt>0</asrwt>
<pdfrwt beam="1">  1        4 0.36082054E-01 0.88909573E+03</pdfrwt>
<pdfrwt beam="2">  1       -4 0.12963405E+00 0.88909573E+03</pdfrwt>
<totfact> 0.64977362E+00</totfact>
</mgrwt>
</event>
<event>
 6    1  0.1637818E-005  0.2190122E+04  0.7818608E-02  0.8522551E-01
         -1   -1    0    0    0  501 -0.00000000000E+00  0.00000000000E+00  0.60109923994E+03  0.60109923994E+03  0.00000000000E+00 0.  1.
          1   -1    0    0  501    0  0.00000000000E+00 -0.00000000000E+00 -0.19949419443E+04  0.19949419443E+04  0.00000000000E+00 0. -1.
         23    2    1    2    0    0 -0.65121982689E+03  0.78346056785E+03 -0.22814747067E+03  0.10478993619E+04  0.90244556248E+02 0.  0.
         11    1    3    3    0    0 -0.19387954868E+03  0.28275865180E+03 -0.10598775893E+03  0.35885253183E+03  0.00000000000E+00 0. -1.
        -11    1    3    3    0    0 -0.45734027822E+03  0.50070191605E+03 -0.12215971175E+03  0.68904683004E+03  0.00000000000E+00 0.  1.
         22    1    1    2    0    0  0.65121982689E+03 -0.78346056785E+03 -0.11656952337E+04  0.15481418223E+04  0.00000000000E+00 0. -1.
<mgrwt>
<rscale>  0 0.21901215E+04</rscale>
<asrwt>0</asrwt>
<pdfrwt beam="1">  1        1 0.30691414E+00 0.21901215E+04</pdfrwt>
<pdfrwt beam="2">  1       -1 0.92476808E-01 0.21901215E+04</pdfrwt>
<totfact> 0.31166296E+00</totfact>
</mgrwt>
</event>
<event>
 6    1  0.1637818E-005  0.3732493E+04  0.7818608E-02  0.8060799E-01
          2   -1    0    0  501    0  0.00000000000E+00  0.00000000000E+00  0.24595711070E+04  0.24595711070E+04  0.00000000000E+00 0. -1.
         -2   -1    0    0    0  501 -0.00000000000E+00 -0.00000000000E+00 -0.14160504573E+04  0.14160504573E+04  0.00000000000E+00 0.  1.
         23    2    1    2    0    0 -0.84954063904E+03  0.47655877391E+03  0.21736696157E+04  0.23836214812E+04  0.89354379281E+02 0.  0.
         11    1    3    3    0    0 -0.59965060889E+03  0.38191883338E+03  0.15850014489E+04  0.17371449108E+04  0.00000000000E+00 0.  1.
        -11    1    3    3    0    0 -0.24989003015E+03  0.94639940534E+02  0.58866816677E+03  0.64647657041E+03  0.00000000000E+00 0. -1.
         22    1    1    2    0    0  0.84954063904E+03 -0.47655877391E+03 -0.11301489661E+04  0.14920000831E+04  0.00000000000E+00 0.  1.
<mgrwt>
<rscale>  0 0.37324934E+04</rscale>
<asrwt>0</asrwt>
<pdfrwt beam="1">  1        2 0.37839555E+00 0.37324934E+04</pdfrwt>
<pdfrwt beam="2">  1       -2 0.21785392E+00 0.37324934E+04</pdfrwt>
<totfact> 0.30207590E-01</totfact>
</mgrwt>
</event>
<event>
 6    1  0.1637818E-005  0.7836144E+03  0.7818608E-02  0.9584042E-01
          2   -1    0    0  501    0  0.00000000000E+00  0.00000000000E+00  0.21449603844E+04  0.21449603844E+04  0.00000000000E+00 0. -1.
         -2   -1    0    0    0  501 -0.00000000000E+00 -0.00000000000E+00 -0.71569105566E+02  0.71569105566E+02  0.00000000000E+00 0.  1.
         23    2    1    2    0    0 -0.16796557705E+03  0.17775108025E+03  0.18972862918E+04  0.19151645151E+04  0.91389087498E+02 0.  0.
         11    1    3    3    0    0 -0.64442302104E+02  0.30067922322E+02  0.80009871141E+03  0.80325266153E+03  0.00000000000E+00 0. -1.
        -11    1    3    3    0    0 -0.10352327495E+03  0.14768315793E+03  0.10971875804E+04  0.11119118536E+04  0.00000000000E+00 0.  1.
         22    1    1    2    0    0  0.16796557705E+03 -0.17775108025E+03  0.17610498703E+03  0.30136497484E+03  0.00000000000E+00 0.  1.
<mgrwt>
<rscale>  0 0.78361444E+03</rscale>
<asrwt>0</asrwt>
<pdfrwt beam="1">  1        2 0.32999386E+00 0.78361444E+03</pdfrwt>
<pdfrwt beam="2">  1       -2 0.11010633E-01 0.78361444E+03</pdfrwt>
<totfact> 0.33320241E+02</totfact>
</mgrwt>
</event>
<event>
 6    1  0.1637818E-005  0.5418544E+03  0.7818608E-02  0.1003397E+00
         -1   -1    0    0    0  501 -0.00000000000E+00  0.00000000000E+00  0.31290351536E+03  0.31290351536E+03  0.00000000000E+00 0.  1.
          1   -1    0    0  501    0  0.00000000000E+00 -0.00000000000E+00 -0.23458203192E+03  0.23458203192E+03  0.00000000000E+00 0. -1.
         23    2    1    2    0    0  0.11717931968E+03  0.21115521016E+03 -0.65534807290E+02  0.26639455112E+03  0.91398742674E+02 0.  0.
         11    1    3    3    0    0  0.29301463014E+01  0.80541287092E+02 -0.43171118525E+02  0.91428825643E+02  0.00000000000E+00 0.  1.
        -11    1    3    3    0    0  0.11424917338E+03  0.13061392307E+03 -0.22363688765E+02  0.17496572548E+03  0.00000000000E+00 0. -1.
         22    1    1    2    0    0 -0.11717931968E+03 -0.21115521016E+03  0.14385629072E+03  0.28109099616E+03  0.00000000000E+00 0.  1.
<mgrwt>
<rscale>  0 0.54185438E+03</rscale>
<asrwt>0</asrwt>
<pdfrwt beam="1">  1        1 0.36089543E-01 0.54185438E+03</pdfrwt>
<pdfrwt beam="2">  1       -1 0.48139002E-01 0.54185438E+03</pdfrwt>
<totfact> 0.52682418E+02</totfact>
</mgrwt>
</event>
<event>
 6    1  0.1637818E-005  0.2598002E+04  0.7818608E-02  0.8368880E-01
          2   -1    0    0  501    0  0.00000000000E+00  0.00000000000E+00  0.38919655623E+04  0.38919655623E+04  0.00000000000E+00 0. -1.
         -2   -1    0    0    0  501 -0.00000000000E+00 -0.00000000000E+00 -0.43356082340E+03  0.43356082340E+03  0.00000000000E+00 0.  1.
         23    2    1    2    0    0  0.76698744842E+02  0.75695033827E+03 -0.18282067972E+02  0.76656478643E+03  0.91819527921E+02 0.  0.
         13    1    3    3    0    0  0.19535253807E+02  0.29716675003E+03  0.36405190552E+02  0.30002506790E+03  0.00000000000E+00 0. -1.
        -13    1    3    3    0    0  0.57163491035E+02  0.45978358824E+03 -0.54687258524E+02  0.46653971853E+03  0.00000000000E+00 0.  1.
         22    1    1    2    0    0 -0.76698744842E+02 -0.75695033827E+03  0.34766868068E+04  0.35589615992E+04  0.00000000000E+00 0. -1.
<mgrwt>
<rscale>  0 0.25980022E+04</rscale>
<asrwt>0</asrwt>
<pdfrwt beam="1">  1        2 0.59876391E+00 0.25980022E+04</pdfrwt>
<pdfrwt beam="2">  1       -2 0.66701668E-01 0.25980022E+04</pdfrwt>
<totfact> 0.76337071E-01</totfact>
</mgrwt>
</event>
<event>
 6    1  0.1637818E-005  0.3168288E+04  0.7818608E-02  0.8197243E-01
         -1   -1    0    0    0  501 -0.00000000000E+00  0.00000000000E+00  0.87599491863E+03  0.87599491863E+03  0.00000000000E+00 0.  1.
          1   -1    0    0  501    0  0.00000000000E+00 -0.00000000000E+00 -0.28647569693E+04  0.28647569693E+04  0.00000000000E+00 0. -1.
         23    2    1    2    0    0 -0.11017759781E+04 -0.99850791728E+03 -0.35484034998E+03  0.15315374369E+04  0.93631616630E+02 0.  0.
         13    1    3    3    0    0 -0.72360797086E+03 -0.59656295234E+03 -0.23456124941E+03  0.96670307299E+03  0.00000000000E+00 0. -1.
        -13    1    3    3    0    0 -0.37816800727E+03 -0.40194496494E+03 -0.12027910057E+03  0.56483436386E+03  0.00000000000E+00 0.  1.
         22    1    1    2    0    0  0.11017759781E+04  0.99850791728E+03 -0.16339217006E+04  0.22092144510E+04  0.00000000000E+00 0. -1.
<mgrwt>
<rscale>  0 0.31682882E+04</rscale>
<asrwt>0</asrwt>
<pdfrwt beam="1">  1        1 0.44073183E+00 0.31682882E+04</pdfrwt>
<pdfrwt beam="2">  1       -1 0.13476845E+00 0.31682882E+04</pdfrwt>
<totfact> 0.29051927E-01</totfact>
</mgrwt>
</event>
<event>
 6    1  0.1637818E-005  0.1803760E+04  0.7818608E-02  0.8704303E-01
          2   -1    0    0  501    0  0.00000000000E+00  0.00000000000E+00  0.16843168709E+04  0.16843168709E+04  0.00000000000E+00 0. -1.
         -2   -1    0    0    0  501 -0.00000000000E+00 -0.00000000000E+00 -0.48291818996E+03  0.48291818996E+03  0.00000000000E+00 0.  1.
         23    2    1    2    0    0  0.83913978361E+02  0.37567428944E+03 -0.37463072278E+03  0.54487831559E+03  0.91495753088E+02 0.  0.
         13    1    3    3    0    0  0.17585307565E+02  0.13920351708E+03 -0.80757326380E+02  0.16189072850E+03  0.00000000000E+00 0. -1.
        -13    1    3    3    0    0  0.66328670797E+02  0.23647077236E+03 -0.29387339640E+03  0.38298758709E+03  0.00000000000E+00 0.  1.
         22    1    1    2    0    0 -0.83913978361E+02 -0.37567428944E+03  0.15760294037E+04  0.16223567452E+04  0.00000000000E+00 0. -1.
<mgrwt>
<rscale>  0 0.18037597E+04</rscale>
<asrwt>0</asrwt>
<pdfrwt beam="1">  1        2 0.25912567E+00 0.18037597E+04</pdfrwt>
<pdfrwt beam="2">  1       -2 0.74295107E-01 0.18037597E+04</pdfrwt>
<totfact> 0.15397346E+01</totfact>
</mgrwt>
</event>
<event>
 6    1  0.1637818E-005  0.3840489E+04  0.7818608E-02  0.8037521E-01
         -2   -1    0    0    0  501 -0.00000000000E+00  0.00000000000E+00  0.11820071151E+04  0.11820071151E+04  0.00000000000E+00 0.  1.
          2   -1    0    0  501    0  0.00000000000E+00 -0.00000000000E+00 -0.31195578448E+04  0.31195578448E+04  0.00000000000E+00 0. -1.
         23    2    1    2    0    0  0.11778223143E+04  0.48130118005E+03 -0.25785760670E+04  0.28768440353E+04  0.90889165320E+02 0.  0.
         11    1    3    3    0    0  0.70623559480E+03  0.32198488990E+03 -0.14985925788E+04  0.16876678292E+04  0.00000000000E+00 0. -1.
        -11    1    3    3    0    0  0.47158671951E+03  0.15931629015E+03 -0.10799834882E+04  0.11891762061E+04  0.00000000000E+00 0.  1.
         22    1    1    2    0    0 -0.11778223143E+04 -0.48130118005E+03  0.64102533722E+03  0.14247209246E+04  0.00000000000E+00 0.  1.
<mgrwt>
<rscale>  0 0.38404893E+04</rscale>
<asrwt>0</asrwt>
<pdfrwt beam="1">  1        2 0.47993198E+00 0.38404893E+04</pdfrwt>
<pdfrwt beam="2">  1       -2 0.18184725E+00 0.38404893E+04</pdfrwt>
<totfact> 0.20556132E-01</totfact>
</mgrwt>
</event>
<event>
 6    1  0.1637818E-005  0.2727108E+04  0.7818608E-02  0.8326263E-01
         -1   -1    0    0    0  501 -0.00000000000E+00  0.00000000000E+00  0.12720139174E+04  0.12720139174E+04  0.00000000000E+00 0.  1.
          1   -1    0    0  501    0  0.00000000000E+00 -0.00000000000E+00 -0.14616817732E+04  0.14616817732E+04  0.00000000000E+00 0. -1.
         23    2    1    2    0    0  0.11609748432E+04  0.21710464572E+02  0.61878008677E+03  0.13188027594E+04  0.89543238835E+02 0.  0.
         13    1    3    3    0    0  0.33696993862E+03 -0.22012255747E+02  0.14705402517E+03  0.36831802189E+03  0.00000000000E+00 0. -1.
        -13    1    3    3    0    0  0.82400490462E+03  0.43722720319E+02  0.47172606160E+03  0.95048473754E+03  0.00000000000E+00 0.  1.
         22    1    1    2    0    0 -0.11609748432E+04 -0.21710464572E+02 -0.80844794259E+03  0.14148929312E+04  0.00000000000E+00 0. -1.
<mgrwt>
<rscale>  0 0.27271080E+04</rscale>
<asrwt>0</asrwt>
<pdfrwt beam="1">  1        1 0.22487412E+00 0.27271080E+04</pdfrwt>
<pdfrwt beam="2">  1       -1 0.19569445E+00 0.27271080E+04</pdfrwt>
<totfact> 0.97688904E-01</totfact>
</mgrwt>
</event>
<event>
 6    1  0.1640741E-005  0.3609951E+04  0.7818608E-02  0.8088216E-01
          2   -1    0    0  501    0  0.00000000000E+00  0.00000000000E+00  0.24569943706E+04  0.24569943706E+04  0.00000000000E+00 0. -1.
         -2   -1    0    0    0  501 -0.00000000000E+00 -0.00000000000E+00 -0.13259842657E+04  0.13259842657E+04  0.00000000000E+00 0.  1.
         23    2    1    2    0    0 -0.12465897110E+04 -0.67559656781E+02  0.19302313899E+04  0.23006477430E+04  0.92933329104E+02 0.  0.
         11    1    3    3    0    0 -0.46009039682E+03 -0.45742669814E+01  0.63867434037E+03  0.78715246948E+03  0.00000000000E+00 0. -1.
        -11    1    3    3    0    0 -0.78649931422E+03 -0.62985389799E+02  0.12915570496E+04  0.15134952735E+04  0.00000000000E+00 0.  1.
         22    1    1    2    0    0  0.12465897110E+04  0.67559656781E+02 -0.79922128504E+03  0.14823308933E+04  0.00000000000E+00 0.  1.
<mgrwt>
<rscale>  0 0.36099506E+04</rscale>
<asrwt>0</asrwt>
<pdfrwt beam="1">  1        2 0.37799913E+00 0.36099506E+04</pdfrwt>
<pdfrwt beam="2">  1       -2 0.20399758E+00 0.36099506E+04</pdfrwt>
<totfact> 0.37592039E-01</totfact>
</mgrwt>
</event>
<event>
 6    1  0.1637818E-005  0.1659930E+04  0.7818608E-02  0.8784554E-01
         -2   -1    0    0    0  501 -0.00000000000E+00  0.00000000000E+00  0.38730005991E+03  0.38730005991E+03  0.00000000000E+00 0.  1.
          2   -1    0    0  501    0  0.00000000000E+00 -0.00000000000E+00 -0.17785738418E+04  0.17785738418E+04  0.00000000000E+00 0. -1.
         23    2    1    2    0    0 -0.28796791763E+03 -0.76514430353E+03 -0.86432933914E+03  0.11932271146E+04  0.91402481399E+02 0.  0.
         13    1    3    3    0    0 -0.20964038235E+03 -0.65307654864E+03 -0.72243855598E+03  0.99618047334E+03  0.00000000000E+00 0.  1.
        -13    1    3    3    0    0 -0.78327535284E+02 -0.11206775489E+03 -0.14189078316E+03  0.19704664122E+03  0.00000000000E+00 0. -1.
         22    1    1    2    0    0  0.28796791763E+03  0.76514430353E+03 -0.52694444272E+03  0.97264678713E+03  0.00000000000E+00 0.  1.
<mgrwt>
<rscale>  0 0.16599298E+04</rscale>
<asrwt>0</asrwt>
<pdfrwt beam="1">  1        2 0.27362675E+00 0.16599298E+04</pdfrwt>
<pdfrwt beam="2">  1       -2 0.59584624E-01 0.16599298E+04</pdfrwt>
<totfact> 0.22246880E+01</totfact>
</mgrwt>
</event>
<event>
 6    1  0.1637818E-005  0.2158657E+04  0.7818608E-02  0.8535836E-01
         -2   -1    0    0    0  501 -0.00000000000E+00  0.00000000000E+00  0.10678324701E+04  0.10678324701E+04  0.00000000000E+00 0.  1.
          2   -1    0    0  501    0  0.00000000000E+00 -0.00000000000E+00 -0.10909481571E+04  0.10909481571E+04  0.00000000000E+00 0. -1.
         23    2    1    2    0    0 -0.77206247943E+03 -0.73984824917E+03  0.12014230895E+03  0.10799021552E+04  0.91096577612E+02 0.  0.
         11    1    3    3    0    0 -0.31761134265E+03 -0.24915283494E+03  0.64292742708E+02  0.40876357091E+03  0.00000000000E+00 0. -1.
        -11    1    3    3    0    0 -0.45445113678E+03 -0.49069541423E+03  0.55849566245E+02  0.67113858428E+03  0.00000000000E+00 0.  1.
         22    1    1    2    0    0  0.77206247943E+03  0.73984824917E+03 -0.14325799589E+03  0.10788784720E+04  0.00000000000E+00 0. -1.
<mgrwt>
<rscale>  0 0.21586569E+04</rscale>
<asrwt>0</asrwt>
<pdfrwt beam="1">  1        2 0.16783818E+00 0.21586569E+04</pdfrwt>
<pdfrwt beam="2">  1       -2 0.16428192E+00 0.21586569E+04</pdfrwt>
<totfact> 0.47423995E+00</totfact>
</mgrwt>
</event>
<event>
 6    1  0.1637818E-005  0.8031765E+03  0.7818608E-02  0.9555431E-01
          1   -1    0    0  501    0  0.00000000000E+00  0.00000000000E+00  0.10812117527E+04  0.10812117527E+04  0.00000000000E+00 0. -1.
         -1   -1    0    0    0  501 -0.00000000000E+00 -0.00000000000E+00 -0.14915959313E+03  0.14915959313E+03  0.00000000000E+00 0.  1.
         23    2    1    2    0    0 -0.36803112963E+03 -0.61220483337E+02  0.26581766810E+03  0.46678555655E+03  0.89637398275E+02 0.  0.
         13    1    3    3    0    0 -0.16311319530E+03 -0.72441595804E+02  0.12474270341E+03  0.21774857368E+03  0.00000000000E+00 0.  1.
        -13    1    3    3    0    0 -0.20491793433E+03  0.11221112467E+02  0.14107496469E+03  0.24903698287E+03  0.00000000000E+00 0. -1.
         22    1    1    2    0    0  0.36803112963E+03  0.61220483337E+02  0.66623449145E+03  0.76358578926E+03  0.00000000000E+00 0. -1.
<mgrwt>
<rscale>  0 0.80317646E+03</rscale>
<asrwt>0</asrwt>
<pdfrwt beam="1">  1        1 0.16634026E+00 0.80317646E+03</pdfrwt>
<pdfrwt beam="2">  1       -1 0.22947630E-01 0.80317646E+03</pdfrwt>
<totfact> 0.21458287E+02</totfact>
</mgrwt>
</event>
<event>
 6    1  0.1637818E-005  0.5413126E+04  0.7818608E-02  0.7767757E-01
         -2   -1    0    0    0  501 -0.00000000000E+00  0.00000000000E+00  0.40101125492E+04  0.40101125492E+04  0.00000000000E+00 0.  1.
          2   -1    0    0  501    0  0.00000000000E+00 -0.00000000000E+00 -0.18267526515E+04  0.18267526515E+04  0.00000000000E+00 0. -1.
         23    2    1    2    0    0  0.18405156990E+04  0.75506057368E+03 -0.88615492764E+03  0.21790604259E+04  0.73615729411E+02 0.  0.
         13    1    3    3    0    0  0.43813692683E+03  0.14621356023E+03 -0.20745047567E+03  0.50633790269E+03  0.00000000000E+00 0.  1.
        -13    1    3    3    0    0  0.14023787722E+04  0.60884701345E+03 -0.67870445197E+03  0.16727225232E+04  0.00000000000E+00 0. -1.
         22    1    1    2    0    0 -0.18405156990E+04 -0.75506057368E+03  0.30695148253E+04  0.36578047749E+04  0.00000000000E+00 0.  1.
<mgrwt>
<rscale>  0 0.54131262E+04</rscale>
<asrwt>0</asrwt>
<pdfrwt beam="1">  1        2 0.28103887E+00 0.54131262E+04</pdfrwt>
<pdfrwt beam="2">  1       -2 0.61694039E+00 0.54131262E+04</pdfrwt>
<totfact> 0.26118760E-03</totfact>
</mgrwt>
</event>
<event>
 6    1  0.1637818E-005  0.2016120E+04  0.7818608E-02  0.8599121E-01
          1   -1    0    0  501    0  0.00000000000E+00  0.00000000000E+00  0.12914976735E+04  0.12914976735E+04  0.00000000000E+00 0. -1.
         -1   -1    0    0    0  501 -0.00000000000E+00 -0.00000000000E+00 -0.78682691576E+03  0.78682691576E+03  0.00000000000E+00 0.  1.
         23    2    1    2    0    0 -0.80140071874E+03 -0.60375041053E+03  0.17657577162E+03  0.10226712417E+04  0.88993231638E+02 0.  0.
         11    1    3    3    0    0 -0.81181384749E+02 -0.97777936532E+02  0.19199405286E+02  0.12852843758E+03  0.00000000000E+00 0.  1.
        -11    1    3    3    0    0 -0.72021933400E+03 -0.50597247400E+03  0.15737636633E+03  0.89414280413E+03  0.00000000000E+00 0. -1.
         22    1    1    2    0    0  0.80140071874E+03  0.60375041053E+03  0.32809498607E+03  0.10556533475E+04  0.00000000000E+00 0.  1.
<mgrwt>
<rscale>  0 0.20161202E+04</rscale>
<asrwt>0</asrwt>
<pdfrwt beam="1">  1        1 0.19869195E+00 0.20161202E+04</pdfrwt>
<pdfrwt beam="2">  1       -1 0.12105029E+00 0.20161202E+04</pdfrwt>
<totfact> 0.51497285E+00</totfact>
</mgrwt>
</event>
<event>
 6    1  0.1637818E-005  0.2317771E+04  0.7818608E-02  0.8470947E-01
          2   -1    0    0  501    0  0.00000000000E+00  0.00000000000E+00  0.39567705616E+04  0.39567705616E+04  0.00000000000E+00 0.  1.
         -2   -1    0    0    0  501 -0.00000000000E+00 -0.00000000000E+00 -0.33942223396E+03  0.33942223396E+03  0.00000000000E+00 0. -1.
         23    2    1    2    0    0  0.67344389437E+03  0.39323847598E+02  0.35540744021E+04  0.36186408540E+04  0.89686848899E+02 0.  0.
         13    1    3    3    0    0  0.29487400477E+03  0.22974812658E+02  0.17964418636E+04  0.18206267849E+04  0.00000000000E+00 0.  1.
        -13    1    3    3    0    0  0.37856988960E+03  0.16349034939E+02  0.17576325385E+04  0.17980140691E+04  0.00000000000E+00 0. -1.
         22    1    1    2    0    0 -0.67344389437E+03 -0.39323847598E+02  0.63273925566E+02  0.67755194156E+03  0.00000000000E+00 0. -1.
<mgrwt>
<rscale>  0 0.23177713E+04</rscale>
<asrwt>0</asrwt>
<pdfrwt beam="1">  1        2 0.60873390E+00 0.23177713E+04</pdfrwt>
<pdfrwt beam="2">  1       -2 0.52218808E-01 0.23177713E+04</pdfrwt>
<totfact> 0.11677260E+00</totfact>
</mgrwt>
</event>
<event>
 6    1  0.1637818E-005  0.1007581E+04  0.7818608E-02  0.9300269E-01
         -1   -1    0    0    0  501 -0.00000000000E+00  0.00000000000E+00  0.53434822040E+03  0.53434822040E+03  0.00000000000E+00 0.  1.
          1   -1    0    0  501    0  0.00000000000E+00 -0.00000000000E+00 -0.47497997049E+03  0.47497997049E+03  0.00000000000E+00 0. -1.
         23    2    1    2    0    0 -0.41567831153E+03 -0.87436345847E+02 -0.23353293103E+03  0.49335854542E+03  0.91822934010E+02 0.  0.
         13    1    3    3    0    0 -0.19080057787E+03 -0.11491628489E+02 -0.14542435232E+03  0.24017735174E+03  0.00000000000E+00 0. -1.
        -13    1    3    3    0    0 -0.22487773365E+03 -0.75944717359E+02 -0.88108578712E+02  0.25318119367E+03  0.00000000000E+00 0.  1.
         22    1    1    2    0    0  0.41567831153E+03  0.87436345847E+02  0.29290118094E+03  0.51596964547E+03  0.00000000000E+00 0.  1.
<mgrwt>
<rscale>  0 0.10075807E+04</rscale>
<asrwt>0</asrwt>
<pdfrwt beam="1">  1        1 0.73073841E-01 0.10075807E+04</pdfrwt>
<pdfrwt beam="2">  1       -1 0.82207419E-01 0.10075807E+04</pdfrwt>
<totfact> 0.70195776E+01</totfact>
</mgrwt>
</event>
<event>
 6    1  0.1637818E-005  0.3693748E+04  0.7818608E-02  0.8069349E-01
          2   -1    0    0  501    0  0.00000000000E+00  0.00000000000E+00  0.46710444026E+04  0.46710444026E+04  0.00000000000E+00 0. -1.
         -2   -1    0    0    0  501 -0.00000000000E+00 -0.00000000000E+00 -0.73023139604E+03  0.73023139604E+03  0.00000000000E+00 0.  1.
         23    2    1    2    0    0  0.50540485033E+03  0.17404690576E+04  0.14608658246E+04  0.23296630905E+04  0.92382652531E+02 0.  0.
         13    1    3    3    0    0  0.12969294034E+03  0.45890193689E+03  0.33321991105E+03  0.58176176875E+03  0.00000000000E+00 0. -1.
        -13    1    3    3    0    0  0.37571190998E+03  0.12815671208E+04  0.11276459135E+04  0.17479013218E+04  0.00000000000E+00 0.  1.
         22    1    1    2    0    0 -0.50540485033E+03 -0.17404690576E+04  0.24799471819E+04  0.30716127081E+04  0.00000000000E+00 0. -1.
<mgrwt>
<rscale>  0 0.36937478E+04</rscale>
<asrwt>0</asrwt>
<pdfrwt beam="1">  1        2 0.71862219E+00 0.36937478E+04</pdfrwt>
<pdfrwt beam="2">  1       -2 0.11234330E+00 0.36937478E+04</pdfrwt>
<totfact> 0.41315038E-02</totfact>
</mgrwt>
</event>
<event>
 6    1  0.1637818E-005  0.2053495E+04  0.7818608E-02  0.8582011E-01
         -2   -1    0    0    0  501 -0.00000000000E+00  0.00000000000E+00  0.12588350335E+04  0.12588350335E+04  0.00000000000E+00 0.  1.
          2   -1    0    0  501    0  0.00000000000E+00 -0.00000000000E+00 -0.83744908110E+03  0.83744908110E+03  0.00000000000E+00 0. -1.
         23    2    1    2    0    0 -0.70612078362E+03 -0.67911782422E+03 -0.95437929469E+02  0.98862238597E+03  0.91968708988E+02 0.  0.
         13    1    3    3    0    0 -0.39945316909E+03 -0.44034530924E+03 -0.38045939220E+02  0.59574685828E+03  0.00000000000E+00 0. -1.
        -13    1    3    3    0    0 -0.30666761453E+03 -0.23877251498E+03 -0.57391990249E+02  0.39287552769E+03  0.00000000000E+00 0.  1.
         22    1    1    2    0    0  0.70612078362E+03  0.67911782422E+03  0.51682388192E+03  0.11076617287E+04  0.00000000000E+00 0. -1.
<mgrwt>
<rscale>  0 0.20534948E+04</rscale>
<asrwt>0</asrwt>
<pdfrwt beam="1">  1        2 0.12883832E+00 0.20534948E+04</pdfrwt>
<pdfrwt beam="2">  1       -2 0.19366693E+00 0.20534948E+04</pdfrwt>
<totfact> 0.43868049E+00</totfact>
</mgrwt>
</event>
<event>
 6    1  0.1637818E-005  0.1023535E+04  0.7818608E-02  0.9283102E-01
         -4   -1    0    0    0  501 -0.00000000000E+00  0.00000000000E+00  0.19627395465E+04  0.19627395465E+04  0.00000000000E+00 0.  1.
          4   -1    0    0  501    0  0.00000000000E+00 -0.00000000000E+00 -0.13343894993E+03  0.13343894993E+03  0.00000000000E+00 0. -1.
         23    2    1    2    0    0 -0.20101343488E+02  0.44913537275E+03  0.43876996263E+03  0.63477434597E+03  0.91064499826E+02 0.  0.
         11    1    3    3    0    0 -0.13446299156E+02  0.49827970315E+02  0.18009764524E+02  0.54662429556E+02  0.00000000000E+00 0.  1.
        -11    1    3    3    0    0 -0.66550443318E+01  0.39930740243E+03  0.42076019811E+03  0.58011191641E+03  0.00000000000E+00 0. -1.
         22    1    1    2    0    0  0.20101343488E+02 -0.44913537275E+03  0.13905306339E+04  0.14614041504E+04  0.00000000000E+00 0.  1.
<mgrwt>
<rscale>  0 0.10235349E+04</rscale>
<asrwt>0</asrwt>
<pdfrwt beam="1">  1        4 0.20529071E-01 0.10235349E+04</pdfrwt>
<pdfrwt beam="2">  1       -4 0.30195991E+00 0.10235349E+04</pdfrwt>
<totfact> 0.13389880E+00</totfact>
</mgrwt>
</event>
<event>
 6    1  0.1637818E-005  0.1389131E+04  0.7818608E-02  0.8961724E-01
          2   -1    0    0  501    0  0.00000000000E+00  0.00000000000E+00  0.13955783490E+04  0.13955783490E+04  0.00000000000E+00 0. -1.
         -2   -1    0    0    0  501 -0.00000000000E+00 -0.00000000000E+00 -0.34567820138E+03  0.34567820138E+03  0.00000000000E+00 0.  1.
         23    2    1    2    0    0 -0.41010023178E+03 -0.47243894759E+03  0.89670555628E+03  0.10971685579E+04  0.91198851044E+02 0.  0.
         13    1    3    3    0    0 -0.18467287091E+03 -0.14595076753E+03  0.34240585210E+03  0.41550868023E+03  0.00000000000E+00 0. -1.
        -13    1    3    3    0    0 -0.22542736087E+03 -0.32648818006E+03  0.55429970418E+03  0.68165987765E+03  0.00000000000E+00 0.  1.
         22    1    1    2    0    0  0.41010023178E+03  0.47243894759E+03  0.15319459139E+03  0.64408799255E+03  0.00000000000E+00 0.  1.
<mgrwt>
<rscale>  0 0.13891307E+04</rscale>
<asrwt>0</asrwt>
<pdfrwt beam="1">  1        2 0.21470436E+00 0.13891307E+04</pdfrwt>
<pdfrwt beam="2">  1       -2 0.53181262E-01 0.13891307E+04</pdfrwt>
<totfact> 0.47254595E+01</totfact>
</mgrwt>
</event>
<event>
 6    1  0.1637818E-005  0.2617445E+04  0.7818608E-02  0.8362300E-01
          1   -1    0    0  501    0  0.00000000000E+00  0.00000000000E+00  0.16065410273E+04  0.16065410273E+04  0.00000000000E+00 0. -1.
         -1   -1    0    0    0  501 -0.00000000000E+00 -0.00000000000E+00 -0.10661132805E+04  0.10661132805E+04  0.00000000000E+00 0.  1.
         23    2    1    2    0    0 -0.67999548851E+03 -0.98232308748E+03 -0.27100426280E+03  0.12284332655E+04  0.90843078110E+02 0.  0.
         11    1    3    3    0    0 -0.28003807687E+03 -0.34704003756E+03 -0.71048356184E+02  0.45155949894E+03  0.00000000000E+00 0.  1.
        -11    1    3    3    0    0 -0.39995741164E+03 -0.63528304992E+03 -0.19995590662E+03  0.77687376660E+03  0.00000000000E+00 0. -1.
         22    1    1    2    0    0  0.67999548851E+03  0.98232308748E+03  0.81143200958E+03  0.14442210422E+04  0.00000000000E+00 0.  1.
<mgrwt>
<rscale>  0 0.26174451E+04</rscale>
<asrwt>0</asrwt>
<pdfrwt beam="1">  1        1 0.24716016E+00 0.26174451E+04</pdfrwt>
<pdfrwt beam="2">  1       -1 0.16401743E+00 0.26174451E+04</pdfrwt>
<totfact> 0.13237815E+00</totfact>
</mgrwt>
</event>
<event>
 6    1  0.1637818E-005  0.3335337E+04  0.7818608E-02  0.8153962E-01
          1   -1    0    0  501    0  0.00000000000E+00  0.00000000000E+00  0.29018444373E+04  0.29018444373E+04  0.00000000000E+00 0. -1.
         -1   -1    0    0    0  501 -0.00000000000E+00 -0.00000000000E+00 -0.95839684294E+03  0.95839684294E+03  0.00000000000E+00 0.  1.
         23    2    1    2    0    0  0.62810579385E+03 -0.12943939537E+04  0.19455874959E+04  0.24214997555E+04  0.91530138157E+02 0.  0.
         13    1    3    3    0    0  0.24853440414E+03 -0.41737411353E+03  0.67691665519E+03  0.83317864757E+03  0.00000000000E+00 0. -1.
        -13    1    3    3    0    0  0.37957138971E+03 -0.87701984020E+03  0.12686708407E+04  0.15883211080E+04  0.00000000000E+00 0.  1.
         22    1    1    2    0    0 -0.62810579385E+03  0.12943939537E+04 -0.21399015342E+01  0.14387415247E+04  0.00000000000E+00 0.  1.
<mgrwt>
<rscale>  0 0.33353372E+04</rscale>
<asrwt>0</asrwt>
<pdfrwt beam="1">  1        1 0.44643760E+00 0.33353372E+04</pdfrwt>
<pdfrwt beam="2">  1       -1 0.14744567E+00 0.33353372E+04</pdfrwt>
<totfact> 0.21272755E-01</totfact>
</mgrwt>
</event>
<event>
 6    1  0.1637818E-005  0.6226967E+03  0.7818608E-02  0.9859405E-01
          1   -1    0    0  501    0  0.00000000000E+00  0.00000000000E+00  0.10172947996E+04  0.10172947996E+04  0.00000000000E+00 0. -1.
         -1   -1    0    0    0  501 -0.00000000000E+00 -0.00000000000E+00 -0.95289790635E+02  0.95289790635E+02  0.00000000000E+00 0.  1.
         23    2    1    2    0    0  0.27283800546E+02  0.21156617754E+03  0.85954893649E+03  0.89031130295E+03  0.91242472016E+02 0.  0.
         11    1    3    3    0    0  0.51530359866E+02  0.62590917675E+02  0.29819035325E+03  0.30901535194E+03  0.00000000000E+00 0. -1.
        -11    1    3    3    0    0 -0.24246559320E+02  0.14897525986E+03  0.56135858324E+03  0.58129595102E+03  0.00000000000E+00 0.  1.
         22    1    1    2    0    0 -0.27283800546E+02 -0.21156617754E+03  0.62456072475E+02  0.22227328728E+03  0.00000000000E+00 0.  1.
<mgrwt>
<rscale>  0 0.62269674E+03</rscale>
<asrwt>0</asrwt>
<pdfrwt beam="1">  1        1 0.15650689E+00 0.62269674E+03</pdfrwt>
<pdfrwt beam="2">  1       -1 0.14659968E-01 0.62269674E+03</pdfrwt>
<totfact> 0.50817297E+02</totfact>
</mgrwt>
</event>
<event>
 6    1  0.1637818E-005  0.3565151E+04  0.7818608E-02  0.8098521E-01
          1   -1    0    0  501    0  0.00000000000E+00  0.00000000000E+00  0.18319445894E+04  0.18319445894E+04  0.00000000000E+00 0. -1.
         -1   -1    0    0    0  501 -0.00000000000E+00 -0.00000000000E+00 -0.17345367552E+04  0.17345367552E+04  0.00000000000E+00 0.  1.
         23    2    1    2    0    0  0.87349912128E+03 -0.15254927735E+04 -0.24009713730E+03  0.17764985171E+04  0.90395956012E+02 0.  0.
         11    1    3    3    0    0  0.23623544428E+03 -0.48095392056E+03 -0.97377666443E+02  0.54461570742E+03  0.00000000000E+00 0. -1.
        -11    1    3    3    0    0  0.63726367700E+03 -0.10445388530E+04 -0.14271947086E+03  0.12318828097E+04  0.00000000000E+00 0.  1.
         22    1    1    2    0    0 -0.87349912128E+03  0.15254927735E+04  0.33750497155E+03  0.17899828275E+04  0.00000000000E+00 0. -1.
<mgrwt>
<rscale>  0 0.35651509E+04</rscale>
<asrwt>0</asrwt>
<pdfrwt beam="1">  1        1 0.28183763E+00 0.35651509E+04</pdfrwt>
<pdfrwt beam="2">  1       -1 0.26685181E+00 0.35651509E+04</pdfrwt>
<totfact> 0.17030290E-01</totfact>
</mgrwt>
</event>
<event>
 6    1  0.1637818E-005  0.1974959E+04  0.7818608E-02  0.8618418E-01
          2   -1    0    0  501    0  0.00000000000E+00  0.00000000000E+00  0.86270278776E+03  0.86270278776E+03  0.00000000000E+00 0.  1.
         -2   -1    0    0    0  501 -0.00000000000E+00 -0.00000000000E+00 -0.11303033954E+04  0.11303033954E+04  0.00000000000E+00 0. -1.
         23    2    1    2    0    0 -0.14965817430E+03  0.38770481557E+03  0.76751753587E+03  0.87757704414E+03  0.91354843251E+02 0.  0.
         11    1    3    3    0    0 -0.14569266049E+03  0.27173024766E+03  0.52803494610E+03  0.61146102338E+03  0.00000000000E+00 0.  1.
        -11    1    3    3    0    0 -0.39655138145E+01  0.11597456790E+03  0.23948258977E+03  0.26611602076E+03  0.00000000000E+00 0. -1.
         22    1    1    2    0    0  0.14965817430E+03 -0.38770481557E+03 -0.10351181436E+04  0.11154291391E+04  0.00000000000E+00 0. -1.
<mgrwt>
<rscale>  0 0.19749591E+04</rscale>
<asrwt>0</asrwt>
<pdfrwt beam="1">  1        2 0.13272351E+00 0.19749591E+04</pdfrwt>
<pdfrwt beam="2">  1       -2 0.17389283E+00 0.19749591E+04</pdfrwt>
<totfact> 0.57890048E+00</totfact>
</mgrwt>
</event>
<event>
 6    1  0.1637818E-005  0.3048504E+04  0.7818608E-02  0.8230014E-01
          2   -1    0    0  501    0  0.00000000000E+00  0.00000000000E+00  0.27321016519E+04  0.27321016519E+04  0.00000000000E+00 0. -1.
         -2   -1    0    0    0  501 -0.00000000000E+00 -0.00000000000E+00 -0.85038695852E+03  0.85038695852E+03  0.00000000000E+00 0.  1.
         23    2    1    2    0    0 -0.37037615811E+03 -0.94280081036E+03 -0.39429036846E+03  0.10912537945E+04  0.96530217184E+02 0.  0.
         11    1    3    3    0    0 -0.19956069933E+03 -0.63352133889E+03 -0.25928802801E+03  0.71302457252E+03  0.00000000000E+00 0. -1.
        -11    1    3    3    0    0 -0.17081545877E+03 -0.30927947147E+03 -0.13500234045E+03  0.37822922197E+03  0.00000000000E+00 0.  1.
         22    1    1    2    0    0  0.37037615811E+03  0.94280081036E+03  0.22760050618E+04  0.24912348159E+04  0.00000000000E+00 0. -1.
<mgrwt>
<rscale>  0 0.30485036E+04</rscale>
<asrwt>0</asrwt>
<pdfrwt beam="1">  1        2 0.42032333E+00 0.30485036E+04</pdfrwt>
<pdfrwt beam="2">  1       -2 0.13082876E+00 0.30485036E+04</pdfrwt>
<totfact> 0.92540591E-01</totfact>
</mgrwt>
</event>
<event>
 6    1  0.1637818E-005  0.5463423E+04  0.7818608E-02  0.7760742E-01
          2   -1    0    0  501    0  0.00000000000E+00  0.00000000000E+00  0.37991211491E+04  0.37991211491E+04  0.00000000000E+00 0. -1.
         -2   -1    0    0    0  501 -0.00000000000E+00 -0.00000000000E+00 -0.19642036221E+04  0.19642036221E+04  0.00000000000E+00 0.  1.
         23    2    1    2    0    0 -0.30934145185E+03  0.24966125297E+04 -0.20333145851E+03  0.25255438669E+04  0.90894907555E+02 0.  0.
         11    1    3    3    0    0 -0.27047159853E+03  0.23300932950E+04 -0.20348759441E+03  0.23545481201E+04  0.00000000000E+00 0.  1.
        -11    1    3    3    0    0 -0.38869853313E+02  0.16651923478E+03  0.15613589488E+00  0.17099574681E+03  0.00000000000E+00 0. -1.
         22    1    1    2    0    0  0.30934145185E+03 -0.24966125297E+04  0.20382489854E+04  0.32377809043E+04  0.00000000000E+00 0. -1.
<mgrwt>
<rscale>  0 0.54634229E+04</rscale>
<asrwt>0</asrwt>
<pdfrwt beam="1">  1        2 0.58448018E+00 0.54634229E+04</pdfrwt>
<pdfrwt beam="2">  1       -2 0.30218517E+00 0.54634229E+04</pdfrwt>
<totfact> 0.10600362E-02</totfact>
</mgrwt>
</event>
<event>
 6    1  0.1637818E-005  0.2784984E+04  0.7818608E-02  0.8307945E-01
          2   -1    0    0  501    0  0.00000000000E+00  0.00000000000E+00  0.13335842795E+04  0.13335842795E+04  0.00000000000E+00 0. -1.
         -2   -1    0    0    0  501 -0.00000000000E+00 -0.00000000000E+00 -0.14540022835E+04  0.14540022835E+04  0.00000000000E+00 0.  1.
         23    2    1    2    0    0 -0.11096599375E+04  0.45837360519E+03 -0.76260686813E+03  0.14260219938E+04  0.10255706957E+03 0.  0.
         13    1    3    3    0    0 -0.20619683842E+03  0.73079115844E+02 -0.18557063646E+03  0.28686957745E+03  0.00000000000E+00 0.  1.
        -13    1    3    3    0    0 -0.90346309910E+03  0.38529448934E+03 -0.57703623167E+03  0.11391524163E+04  0.00000000000E+00 0. -1.
         22    1    1    2    0    0  0.11096599375E+04 -0.45837360519E+03  0.64218886410E+03  0.13615645692E+04  0.00000000000E+00 0. -1.
<mgrwt>
<rscale>  0 0.27849844E+04</rscale>
<asrwt>0</asrwt>
<pdfrwt beam="1">  1        2 0.20516681E+00 0.27849844E+04</pdfrwt>
<pdfrwt beam="2">  1       -2 0.22369266E+00 0.27849844E+04</pdfrwt>
<totfact> 0.12896739E+00</totfact>
</mgrwt>
</event>
<event>
 6    1  0.1637818E-005  0.1126149E+04  0.7818608E-02  0.9180073E-01
          2   -1    0    0  501    0  0.00000000000E+00  0.00000000000E+00  0.73057423456E+03  0.73057423456E+03  0.00000000000E+00 0. -1.
         -2   -1    0    0    0  501 -0.00000000000E+00 -0.00000000000E+00 -0.43397798070E+03  0.43397798070E+03  0.00000000000E+00 0.  1.
         23    2    1    2    0    0  0.50199607820E+03  0.63552833436E+02  0.39574195536E+03  0.64892745315E+03  0.91957158800E+02 0.  0.
         13    1    3    3    0    0  0.39836482030E+03  0.13244374343E+02  0.29475350579E+03  0.49573135131E+03  0.00000000000E+00 0. -1.
        -13    1    3    3    0    0  0.10363125790E+03  0.50308459092E+02  0.10098844957E+03  0.15319610184E+03  0.00000000000E+00 0.  1.
         22    1    1    2    0    0 -0.50199607820E+03 -0.63552833436E+02 -0.99145701502E+02  0.51562476210E+03  0.00000000000E+00 0.  1.
<mgrwt>
<rscale>  0 0.11261494E+04</rscale>
<asrwt>0</asrwt>
<pdfrwt beam="1">  1        2 0.11239604E+00 0.11261494E+04</pdfrwt>
<pdfrwt beam="2">  1       -2 0.66765843E-01 0.11261494E+04</pdfrwt>
<totfact> 0.79280189E+01</totfact>
</mgrwt>
</event>
<event>
 6    1  0.1637818E-005  0.1203021E+04  0.7818608E-02  0.9110216E-01
         -1   -1    0    0    0  501 -0.00000000000E+00  0.00000000000E+00  0.96521797233E+03  0.96521797233E+03  0.00000000000E+00 0.  1.
          1   -1    0    0  501    0  0.00000000000E+00 -0.00000000000E+00 -0.37485326142E+03  0.37485326142E+03  0.00000000000E+00 0. -1.
         23    2    1    2    0    0  0.52365284277E+03 -0.42110066555E+02  0.61519395974E+03  0.81414153403E+03  0.91527437920E+02 0.  0.
         11    1    3    3    0    0  0.18941534291E+03  0.28386831137E+02  0.22984963805E+03  0.29919030804E+03  0.00000000000E+00 0.  1.
        -11    1    3    3    0    0  0.33423749985E+03 -0.70496897692E+02  0.38534432170E+03  0.51495122600E+03  0.00000000000E+00 0. -1.
         22    1    1    2    0    0 -0.52365284277E+03  0.42110066555E+02 -0.24829248838E+02  0.52592969971E+03  0.00000000000E+00 0. -1.
<mgrwt>
<rscale>  0 0.12030214E+04</rscale>
<asrwt>0</asrwt>
<pdfrwt beam="1">  1        1 0.57669733E-01 0.12030214E+04</pdfrwt>
<pdfrwt beam="2">  1       -1 0.14849507E+00 0.12030214E+04</pdfrwt>
<totfact> 0.23205540E+01</totfact>
</mgrwt>
</event>
<event>
 6    1  0.1637818E-005  0.2139643E+04  0.7818608E-02  0.8543979E-01
          1   -1    0    0  501    0  0.00000000000E+00  0.00000000000E+00  0.56190310285E+03  0.56190310285E+03  0.00000000000E+00 0. -1.
         -1   -1    0    0    0  501 -0.00000000000E+00 -0.00000000000E+00 -0.20368598834E+04  0.20368598834E+04  0.00000000000E+00 0.  1.
         23    2    1    2    0    0 -0.57382334962E+03  0.61909636772E+03 -0.15332803999E+04  0.17526216306E+04  0.90444714098E+02 0.  0.
         11    1    3    3    0    0 -0.15972871999E+03  0.12891560618E+03 -0.32166093885E+03  0.38157339672E+03  0.00000000000E+00 0.  1.
        -11    1    3    3    0    0 -0.41409462963E+03  0.49018076155E+03 -0.12116194610E+04  0.13710482339E+04  0.00000000000E+00 0. -1.
         22    1    1    2    0    0  0.57382334962E+03 -0.61909636772E+03  0.58323619371E+02  0.84614135561E+03  0.00000000000E+00 0. -1.
<mgrwt>
<rscale>  0 0.21396429E+04</rscale>
<asrwt>0</asrwt>
<pdfrwt beam="1">  1        1 0.86446630E-01 0.21396429E+04</pdfrwt>
<pdfrwt beam="2">  1       -1 0.31336306E+00 0.21396429E+04</pdfrwt>
<totfact> 0.93313303E-01</totfact>
</mgrwt>
</event>
<event>
 6    1  0.1637818E-005  0.1770634E+04  0.7818608E-02  0.8722074E-01
         -2   -1    0    0    0  501 -0.00000000000E+00  0.00000000000E+00  0.74491416591E+03  0.74491416591E+03  0.00000000000E+00 0.  1.
          2   -1    0    0  501    0  0.00000000000E+00 -0.00000000000E+00 -0.10521837089E+04  0.10521837089E+04  0.00000000000E+00 0. -1.
         23    2    1    2    0    0 -0.84738804916E+03 -0.17427155682E+03 -0.33351401572E+03  0.93157730676E+03  0.90374766430E+02 0.  0.
         13    1    3    3    0    0 -0.45232135631E+03 -0.62517771346E+02 -0.13934561825E+03  0.47740997312E+03  0.00000000000E+00 0.  1.
        -13    1    3    3    0    0 -0.39506669285E+03 -0.11175378548E+03 -0.19416839747E+03  0.45416733364E+03  0.00000000000E+00 0. -1.
         22    1    1    2    0    0  0.84738804916E+03  0.17427155682E+03  0.26244472719E+02  0.86552056806E+03  0.00000000000E+00 0.  1.
<mgrwt>
<rscale>  0 0.17706344E+04</rscale>
<asrwt>0</asrwt>
<pdfrwt beam="1">  1        2 0.16187442E+00 0.17706344E+04</pdfrwt>
<pdfrwt beam="2">  1       -2 0.11460218E+00 0.17706344E+04</pdfrwt>
<totfact> 0.13132192E+01</totfact>
</mgrwt>
</event>
<event>
 6    1  0.1637818E-005  0.7875974E+04  0.7818608E-02  0.7493277E-01
          2   -1    0    0  501    0  0.00000000000E+00  0.00000000000E+00  0.40558283538E+04  0.40558283538E+04  0.00000000000E+00 0.  1.
         -2   -1    0    0    0  501 -0.00000000000E+00 -0.00000000000E+00 -0.38235699792E+04  0.38235699792E+04  0.00000000000E+00 0. -1.
         23    2    1    2    0    0  0.10811032537E+04 -0.11289950108E+04 -0.34993343823E+04  0.38336353045E+04  0.89468148360E+02 0.  0.
         13    1    3    3    0    0  0.62233863117E+03 -0.71314708245E+03 -0.21169874596E+04  0.23189480454E+04  0.00000000000E+00 0.  1.
        -13    1    3    3    0    0  0.45876462258E+03 -0.41584792833E+03 -0.13823469226E+04  0.15146872591E+04  0.00000000000E+00 0. -1.
         22    1    1    2    0    0 -0.10811032537E+04  0.11289950108E+04  0.37315927569E+04  0.40457630285E+04  0.00000000000E+00 0.  1.
<mgrwt>
<rscale>  0 0.78759745E+04</rscale>
<asrwt>0</asrwt>
<pdfrwt beam="1">  1        2 0.62397359E+00 0.78759745E+04</pdfrwt>
<pdfrwt beam="2">  1       -2 0.58824153E+00 0.78759745E+04</pdfrwt>
<totfact> 0.10481043E-04</totfact>
</mgrwt>
</event>
<event>
 6    1  0.1637818E-005  0.3661421E+04  0.7818608E-02  0.8076566E-01
          1   -1    0    0  501    0  0.00000000000E+00  0.00000000000E+00  0.28702820447E+04  0.28702820447E+04  0.00000000000E+00 0.  1.
         -1   -1    0    0    0  501 -0.00000000000E+00 -0.00000000000E+00 -0.11676554242E+04  0.11676554242E+04  0.00000000000E+00 0. -1.
         23    2    1    2    0    0 -0.65100503029E+03 -0.20214134365E+03  0.27242842531E+04  0.28097465267E+04  0.91006486489E+02 0.  0.
         13    1    3    3    0    0 -0.21337693164E+03 -0.83536605625E+02  0.10835310246E+04  0.11074960770E+04  0.00000000000E+00 0. -1.
        -13    1    3    3    0    0 -0.43762809865E+03 -0.11860473803E+03  0.16407532285E+04  0.17022504497E+04  0.00000000000E+00 0.  1.
         22    1    1    2    0    0  0.65100503029E+03  0.20214134365E+03 -0.10216576326E+04  0.12281909422E+04  0.00000000000E+00 0. -1.
<mgrwt>
<rscale>  0 0.36614207E+04</rscale>
<asrwt>0</asrwt>
<pdfrwt beam="1">  1        1 0.44158185E+00 0.36614207E+04</pdfrwt>
<pdfrwt beam="2">  1       -1 0.17963930E+00 0.36614207E+04</pdfrwt>
<totfact> 0.12500564E-01</totfact>
</mgrwt>
</event>
<event>
 6    1  0.1637818E-005  0.1297491E+04  0.7818608E-02  0.9031557E-01
          2   -1    0    0  501    0  0.00000000000E+00  0.00000000000E+00  0.34035250236E+03  0.34035250236E+03  0.00000000000E+00 0. -1.
         -2   -1    0    0    0  501 -0.00000000000E+00 -0.00000000000E+00 -0.12365739027E+04  0.12365739027E+04  0.00000000000E+00 0.  1.
         23    2    1    2    0    0  0.39148437720E+03  0.41346613591E+03 -0.81982259572E+03  0.10024257171E+04  0.92379471579E+02 0.  0.
         13    1    3    3    0    0  0.16437849263E+03  0.11045718393E+03 -0.27149841753E+03  0.33605426502E+03  0.00000000000E+00 0. -1.
        -13    1    3    3    0    0  0.22710588456E+03  0.30300895198E+03 -0.54832417819E+03  0.66637145210E+03  0.00000000000E+00 0.  1.
         22    1    1    2    0    0 -0.39148437720E+03 -0.41346613591E+03 -0.76398804666E+02  0.57450068798E+03  0.00000000000E+00 0. -1.
<mgrwt>
<rscale>  0 0.12974915E+04</rscale>
<asrwt>0</asrwt>
<pdfrwt beam="1">  1        2 0.52361923E-01 0.12974915E+04</pdfrwt>
<pdfrwt beam="2">  1       -2 0.19024214E+00 0.12974915E+04</pdfrwt>
<totfact> 0.14419360E+01</totfact>
</mgrwt>
</event>
<event>
 6    1  0.1637818E-005  0.6866737E+03  0.7818608E-02  0.9740297E-01
         -2   -1    0    0    0  501 -0.00000000000E+00  0.00000000000E+00  0.59086605403E+02  0.59086605403E+02  0.00000000000E+00 0.  1.
          2   -1    0    0  501    0  0.00000000000E+00 -0.00000000000E+00 -0.19950408611E+04  0.19950408611E+04  0.00000000000E+00 0. -1.
         23    2    1    2    0    0 -0.21296709381E+02  0.24052242523E+03 -0.16892039681E+04  0.17088879970E+04  0.92647469452E+02 0.  0.
         11    1    3    3    0    0  0.11149974881E+02  0.23256815141E+02 -0.42174751123E+03  0.42253540043E+03  0.00000000000E+00 0. -1.
        -11    1    3    3    0    0 -0.32446684262E+02  0.21726561009E+03 -0.12674564569E+04  0.12863525966E+04  0.00000000000E+00 0.  1.
         22    1    1    2    0    0  0.21296709381E+02 -0.24052242523E+03 -0.24675028761E+03  0.34523946951E+03  0.00000000000E+00 0.  1.
<mgrwt>
<rscale>  0 0.68667370E+03</rscale>
<asrwt>0</asrwt>
<pdfrwt beam="1">  1        2 0.30692939E+00 0.68667370E+03</pdfrwt>
<pdfrwt beam="2">  1       -2 0.90902462E-02 0.68667370E+03</pdfrwt>
<totfact> 0.55379671E+02</totfact>
</mgrwt>
</event>
<event>
 6    1  0.1637818E-005  0.2151451E+04  0.7818608E-02  0.8538912E-01
          1   -1    0    0  501    0  0.00000000000E+00  0.00000000000E+00  0.63952770692E+03  0.63952770692E+03  0.00000000000E+00 0. -1.
         -1   -1    0    0    0  501 -0.00000000000E+00 -0.00000000000E+00 -0.18094369513E+04  0.18094369513E+04  0.00000000000E+00 0.  1.
         23    2    1    2    0    0  0.90659275836E+03  0.48280268352E+03 -0.94247025311E+03  0.13969488050E+04  0.90592080581E+02 0.  0.
         11    1    3    3    0    0  0.37519162441E+03  0.15035028901E+03 -0.35993755891E+03  0.54122916657E+03  0.00000000000E+00 0.  1.
        -11    1    3    3    0    0  0.53140113395E+03  0.33245239451E+03 -0.58253269420E+03  0.85571963843E+03  0.00000000000E+00 0. -1.
         22    1    1    2    0    0 -0.90659275836E+03 -0.48280268352E+03 -0.22743899129E+03  0.10520158532E+04  0.00000000000E+00 0.  1.
<mgrwt>
<rscale>  0 0.21514507E+04</rscale>
<asrwt>0</asrwt>
<pdfrwt beam="1">  1        1 0.98388880E-01 0.21514507E+04</pdfrwt>
<pdfrwt beam="2">  1       -1 0.27837491E+00 0.21514507E+04</pdfrwt>
<totfact> 0.13027193E+00</totfact>
</mgrwt>
</event>
<event>
 6    1  0.1637818E-005  0.2060957E+04  0.7818608E-02  0.8578640E-01
          1   -1    0    0  501    0  0.00000000000E+00  0.00000000000E+00  0.19499228994E+04  0.19499228994E+04  0.00000000000E+00 0. -1.
         -1   -1    0    0    0  501 -0.00000000000E+00 -0.00000000000E+00 -0.54457851718E+03  0.54457851718E+03  0.00000000000E+00 0.  1.
         23    2    1    2    0    0 -0.27204413477E+03 -0.48077284914E+02  0.19031645405E+04  0.19251646563E+04  0.88905843372E+02 0.  0.
         13    1    3    3    0    0 -0.51025057177E+02 -0.33248358968E+02  0.25451510630E+03  0.26170011305E+03  0.00000000000E+00 0. -1.
        -13    1    3    3    0    0 -0.22101907759E+03 -0.14828925946E+02  0.16486494342E+04  0.16634645433E+04  0.00000000000E+00 0.  1.
         22    1    1    2    0    0  0.27204413477E+03  0.48077284914E+02 -0.49782015831E+03  0.56933676028E+03  0.00000000000E+00 0.  1.
<mgrwt>
<rscale>  0 0.20609572E+04</rscale>
<asrwt>0</asrwt>
<pdfrwt beam="1">  1        1 0.29998813E+00 0.20609572E+04</pdfrwt>
<pdfrwt beam="2">  1       -1 0.83781312E-01 0.20609572E+04</pdfrwt>
<totfact> 0.42003135E+00</totfact>
</mgrwt>
</event>
<event>
 6    1  0.1637818E-005  0.6557682E+04  0.7818608E-02  0.7624856E-01
         -2   -1    0    0    0  501 -0.00000000000E+00  0.00000000000E+00  0.31885197601E+04  0.31885197601E+04  0.00000000000E+00 0.  1.
          2   -1    0    0  501    0  0.00000000000E+00 -0.00000000000E+00 -0.33717203869E+04  0.33717203869E+04  0.00000000000E+00 0. -1.
         23    2    1    2    0    0 -0.22133659759E+04  0.12920781924E+04  0.19532304284E+04  0.32236561675E+04  0.91624127807E+02 0.  0.
         11    1    3    3    0    0 -0.16345392890E+04  0.98895949924E+03  0.14221160249E+04  0.23816325424E+04  0.00000000000E+00 0. -1.
        -11    1    3    3    0    0 -0.57882668689E+03  0.30311869320E+03  0.53111440348E+03  0.84202362509E+03  0.00000000000E+00 0.  1.
         22    1    1    2    0    0  0.22133659759E+04 -0.12920781924E+04 -0.21364310552E+04  0.33365839795E+04  0.00000000000E+00 0. -1.
<mgrwt>
<rscale>  0 0.65576816E+04</rscale>
<asrwt>0</asrwt>
<pdfrwt beam="1">  1        2 0.51872621E+00 0.65576816E+04</pdfrwt>
<pdfrwt beam="2">  1       -2 0.49054150E+00 0.65576816E+04</pdfrwt>
<totfact> 0.12278311E-03</totfact>
</mgrwt>
</event>
<event>
 6    1  0.1637818E-005  0.1969962E+04  0.7818608E-02  0.8620795E-01
         -1   -1    0    0    0  501 -0.00000000000E+00  0.00000000000E+00  0.26551228815E+03  0.26551228815E+03  0.00000000000E+00 0.  1.
          1   -1    0    0  501    0  0.00000000000E+00 -0.00000000000E+00 -0.36540207014E+04  0.36540207014E+04  0.00000000000E+00 0. -1.
         23    2    1    2    0    0  0.32202738884E+02 -0.24965089409E+03 -0.35882213197E+04  0.35982109854E+04  0.91801258869E+02 0.  0.
         13    1    3    3    0    0 -0.13268174561E+02 -0.15696208998E+03 -0.25527786311E+04  0.25576340398E+04  0.00000000000E+00 0. -1.
        -13    1    3    3    0    0  0.45470913445E+02 -0.92688804109E+02 -0.10354426885E+04  0.10405769455E+04  0.00000000000E+00 0.  1.
         22    1    1    2    0    0 -0.32202738884E+02  0.24965089409E+03  0.19971290647E+03  0.32132200411E+03  0.00000000000E+00 0.  1.
<mgrwt>
<rscale>  0 0.19699618E+04</rscale>
<asrwt>0</asrwt>
<pdfrwt beam="1">  1        1 0.56215697E+00 0.19699618E+04</pdfrwt>
<pdfrwt beam="2">  1       -1 0.40848048E-01 0.19699618E+04</pdfrwt>
<totfact> 0.10313183E+00</totfact>
</mgrwt>
</event>
<event>
 6    1  0.1637818E-005  0.2915659E+04  0.7818608E-02  0.8268234E-01
          2   -1    0    0  501    0  0.00000000000E+00  0.00000000000E+00  0.22049867257E+04  0.22049867257E+04  0.00000000000E+00 0.  1.
         -2   -1    0    0    0  501 -0.00000000000E+00 -0.00000000000E+00 -0.96384560872E+03  0.96384560872E+03  0.00000000000E+00 0. -1.
         23    2    1    2    0    0  0.14462822052E+04 -0.53425363375E+02  0.79780448557E+03  0.16551831495E+04  0.92481212158E+02 0.  0.
         13    1    3    3    0    0  0.42103365393E+03 -0.54948262582E+02  0.25066543889E+03  0.49307383986E+03  0.00000000000E+00 0.  1.
        -13    1    3    3    0    0  0.10252485512E+04  0.15228992075E+01  0.54713904668E+03  0.11621093096E+04  0.00000000000E+00 0. -1.
         22    1    1    2    0    0 -0.14462822052E+04  0.53425363375E+02  0.44333663142E+03  0.15136491850E+04  0.00000000000E+00 0. -1.
<mgrwt>
<rscale>  0 0.29156589E+04</rscale>
<asrwt>0</asrwt>
<pdfrwt beam="1">  1        2 0.33922873E+00 0.29156589E+04</pdfrwt>
<pdfrwt beam="2">  1       -2 0.14828394E+00 0.29156589E+04</pdfrwt>
<totfact> 0.13659689E+00</totfact>
</mgrwt>
</event>
<event>
 6    1  0.1637818E-005  0.3183416E+04  0.7818608E-02  0.8193211E-01
          1   -1    0    0  501    0  0.00000000000E+00  0.00000000000E+00  0.20140220137E+04  0.20140220137E+04  0.00000000000E+00 0. -1.
         -1   -1    0    0    0  501 -0.00000000000E+00 -0.00000000000E+00 -0.12579474358E+04  0.12579474358E+04  0.00000000000E+00 0.  1.
         23    2    1    2    0    0 -0.72209494081E+03  0.16829382991E+03  0.18246451607E+04  0.19713592054E+04  0.84753982901E+02 0.  0.
         11    1    3    3    0    0 -0.36986685673E+03  0.51863684736E+02  0.98413928526E+03  0.10526259859E+04  0.00000000000E+00 0. -1.
        -11    1    3    3    0    0 -0.35222808408E+03  0.11643014517E+03  0.84050587542E+03  0.91873321946E+03  0.00000000000E+00 0.  1.
         22    1    1    2    0    0  0.72209494081E+03 -0.16829382991E+03 -0.10685705828E+04  0.13006102441E+04  0.00000000000E+00 0.  1.
<mgrwt>
<rscale>  0 0.31834157E+04</rscale>
<asrwt>0</asrwt>
<pdfrwt beam="1">  1        1 0.30984954E+00 0.31834157E+04</pdfrwt>
<pdfrwt beam="2">  1       -1 0.19353038E+00 0.31834157E+04</pdfrwt>
<totfact> 0.40772042E-01</totfact>
</mgrwt>
</event>
<event>
 6    1  0.1637818E-005  0.1368586E+04  0.7818608E-02  0.8976877E-01
         -2   -1    0    0    0  501 -0.00000000000E+00  0.00000000000E+00  0.32424376586E+03  0.32424376586E+03  0.00000000000E+00 0.  1.
          2   -1    0    0  501    0  0.00000000000E+00 -0.00000000000E+00 -0.14441498262E+04  0.14441498262E+04  0.00000000000E+00 0. -1.
         23    2    1    2    0    0  0.16699723751E+03  0.63051721147E+03 -0.81775015996E+03  0.10495485327E+04  0.86004459198E+02 0.  0.
         11    1    3    3    0    0  0.14193235276E+03  0.49423966036E+03 -0.69418406169E+03  0.86389186021E+03  0.00000000000E+00 0.  1.
        -11    1    3    3    0    0  0.25064884753E+02  0.13627755111E+03 -0.12356609827E+03  0.18565667245E+03  0.00000000000E+00 0. -1.
         22    1    1    2    0    0 -0.16699723751E+03 -0.63051721147E+03 -0.30215590041E+03  0.71884505942E+03  0.00000000000E+00 0.  1.
<mgrwt>
<rscale>  0 0.13685855E+04</rscale>
<asrwt>0</asrwt>
<pdfrwt beam="1">  1        2 0.22217690E+00 0.13685855E+04</pdfrwt>
<pdfrwt beam="2">  1       -2 0.49883655E-01 0.13685855E+04</pdfrwt>
<totfact> 0.50633095E+01</totfact>
</mgrwt>
</event>
<event>
 6    1  0.1637818E-005  0.1921091E+04  0.7818608E-02  0.8644429E-01
          1   -1    0    0  501    0  0.00000000000E+00  0.00000000000E+00  0.13168518350E+04  0.13168518350E+04  0.00000000000E+00 0. -1.
         -1   -1    0    0    0  501 -0.00000000000E+00 -0.00000000000E+00 -0.70064645020E+03  0.70064645020E+03  0.00000000000E+00 0.  1.
         23    2    1    2    0    0 -0.10648211192E+03 -0.75824145008E+03  0.91396839975E+03  0.11959562292E+04  0.93298068959E+02 0.  0.
         13    1    3    3    0    0 -0.86797390040E+02 -0.69691907492E+03  0.86944482395E+03  0.11176601835E+04  0.00000000000E+00 0. -1.
        -13    1    3    3    0    0 -0.19684721881E+02 -0.61322375167E+02  0.44523575800E+02  0.78296045709E+02  0.00000000000E+00 0.  1.
         22    1    1    2    0    0  0.10648211192E+03  0.75824145008E+03 -0.29776301490E+03  0.82154205603E+03  0.00000000000E+00 0.  1.
<mgrwt>
<rscale>  0 0.19210909E+04</rscale>
<asrwt>0</asrwt>
<pdfrwt beam="1">  1        1 0.20259259E+00 0.19210909E+04</pdfrwt>
<pdfrwt beam="2">  1       -1 0.10779176E+00 0.19210909E+04</pdfrwt>
<totfact> 0.65788686E+00</totfact>
</mgrwt>
</event>
<event>
 6    1  0.2801230E-005  0.5810636E+04  0.7818608E-02  0.7714334E-01
          2   -1    0    0  501    0  0.00000000000E+00  0.00000000000E+00  0.33271190372E+04  0.33271190372E+04  0.00000000000E+00 0. -1.
         -2   -1    0    0    0  501 -0.00000000000E+00 -0.00000000000E+00 -0.25369914790E+04  0.25369914790E+04  0.00000000000E+00 0.  1.
         23    2    1    2    0    0 -0.16304431830E+04  0.35174946465E+02  0.28208447707E+04  0.32596154313E+04  0.91352559400E+02 0.  0.
         13    1    3    3    0    0 -0.60901992967E+03  0.30306144959E+02  0.97413790624E+03  0.11492468828E+04  0.00000000000E+00 0.  1.
        -13    1    3    3    0    0 -0.10214232533E+04  0.48688015056E+01  0.18467068644E+04  0.21103685486E+04  0.00000000000E+00 0. -1.
         22    1    1    2    0    0  0.16304431830E+04 -0.35174946465E+02 -0.20307172125E+04  0.26044950849E+04  0.00000000000E+00 0.  1.
<mgrwt>
<rscale>  0 0.58106360E+04</rscale>
<asrwt>0</asrwt>
<pdfrwt beam="1">  1        2 0.51186447E+00 0.58106360E+04</pdfrwt>
<pdfrwt beam="2">  1       -2 0.39030638E+00 0.58106360E+04</pdfrwt>
<totfact> 0.62608978E-03</totfact>
</mgrwt>
</event>
<event>
 6    1  0.1637818E-005  0.2854353E+04  0.7818608E-02  0.8286590E-01
         -1   -1    0    0    0  501 -0.00000000000E+00  0.00000000000E+00  0.25487793243E+04  0.25487793243E+04  0.00000000000E+00 0.  1.
          1   -1    0    0  501    0  0.00000000000E+00 -0.00000000000E+00 -0.79914026586E+03  0.79914026586E+03  0.00000000000E+00 0. -1.
         23    2    1    2    0    0 -0.70604016902E+03 -0.89938438898E+03 -0.12315041252E+03  0.11536713358E+04  0.91687117180E+02 0.  0.
         13    1    3    3    0    0 -0.21238242280E+03 -0.22486238295E+03 -0.38311943214E+01  0.30932840611E+03  0.00000000000E+00 0.  1.
        -13    1    3    3    0    0 -0.49365774622E+03 -0.67452200603E+03 -0.11931921819E+03  0.84434292965E+03  0.00000000000E+00 0. -1.
         22    1    1    2    0    0  0.70604016902E+03  0.89938438898E+03  0.18727894709E+04  0.21942482544E+04  0.00000000000E+00 0.  1.
<mgrwt>
<rscale>  0 0.28543526E+04</rscale>
<asrwt>0</asrwt>
<pdfrwt beam="1">  1        1 0.12294466E+00 0.28543526E+04</pdfrwt>
<pdfrwt beam="2">  1       -1 0.39211989E+00 0.28543526E+04</pdfrwt>
<totfact> 0.15445262E-01</totfact>
</mgrwt>
</event>
<event>
 6    1  0.1637818E-005  0.1989465E+04  0.7818608E-02  0.8611562E-01
          2   -1    0    0  501    0  0.00000000000E+00  0.00000000000E+00  0.15222068286E+04  0.15222068286E+04  0.00000000000E+00 0. -1.
         -2   -1    0    0    0  501 -0.00000000000E+00 -0.00000000000E+00 -0.65003831060E+03  0.65003831060E+03  0.00000000000E+00 0.  1.
         23    2    1    2    0    0  0.10630070054E+03  0.41065085941E+03  0.14169283045E+04  0.14818125268E+04  0.90269469406E+02 0.  0.
         13    1    3    3    0    0  0.21226697222E+02  0.50810023993E+02  0.30739492843E+03  0.31228812536E+03  0.00000000000E+00 0.  1.
        -13    1    3    3    0    0  0.85074003317E+02  0.35984083541E+03  0.11095333761E+04  0.11695244014E+04  0.00000000000E+00 0. -1.
         22    1    1    2    0    0 -0.10630070054E+03 -0.41065085941E+03 -0.54475978652E+03  0.69043261241E+03  0.00000000000E+00 0.  1.
<mgrwt>
<rscale>  0 0.19894650E+04</rscale>
<asrwt>0</asrwt>
<pdfrwt beam="1">  1        2 0.23418566E+00 0.19894650E+04</pdfrwt>
<pdfrwt beam="2">  1       -2 0.10000589E+00 0.19894650E+04</pdfrwt>
<totfact> 0.94720039E+00</totfact>
</mgrwt>
</event>
<event>
 6    1  0.1637818E-005  0.1780117E+04  0.7818608E-02  0.8716945E-01
         -2   -1    0    0    0  501 -0.00000000000E+00  0.00000000000E+00  0.58408482621E+03  0.58408482621E+03  0.00000000000E+00 0.  1.
          2   -1    0    0  501    0  0.00000000000E+00 -0.00000000000E+00 -0.13563172800E+04  0.13563172800E+04  0.00000000000E+00 0. -1.
         23    2    1    2    0    0  0.42758734169E+03  0.70558949365E+03 -0.74419390084E+03  0.11148879459E+04  0.91995117160E+02 0.  0.
         13    1    3    3    0    0  0.73207363620E+02  0.74409055441E+02 -0.69932779534E+02  0.12564481395E+03  0.00000000000E+00 0. -1.
        -13    1    3    3    0    0  0.35437997807E+03  0.63118043821E+03 -0.67426112131E+03  0.98924313197E+03  0.00000000000E+00 0.  1.
         22    1    1    2    0    0 -0.42758734169E+03 -0.70558949365E+03 -0.28038552915E+02  0.82551416025E+03  0.00000000000E+00 0.  1.
<mgrwt>
<rscale>  0 0.17801172E+04</rscale>
<asrwt>0</asrwt>
<pdfrwt beam="1">  1        2 0.20866420E+00 0.17801172E+04</pdfrwt>
<pdfrwt beam="2">  1       -2 0.89859205E-01 0.17801172E+04</pdfrwt>
<totfact> 0.15378517E+01</totfact>
</mgrwt>
</event>
<event>
 6    1  0.1637818E-005  0.2947631E+04  0.7818608E-02  0.8258845E-01
         -1   -1    0    0    0  501 -0.00000000000E+00  0.00000000000E+00  0.74233381174E+03  0.74233381174E+03  0.00000000000E+00 0.  1.
          1   -1    0    0  501    0  0.00000000000E+00 -0.00000000000E+00 -0.29260861572E+04  0.29260861572E+04  0.00000000000E+00 0. -1.
         23    2    1    2    0    0 -0.78801468437E+03  0.10226290722E+04 -0.19740569147E+04  0.23604790163E+04  0.90681430531E+02 0.  0.
         11    1    3    3    0    0 -0.27427651120E+03  0.42822169163E+03 -0.76877423481E+03  0.92174575989E+03  0.00000000000E+00 0. -1.
        -11    1    3    3    0    0 -0.51373817317E+03  0.59440738053E+03 -0.12052826799E+04  0.14387332564E+04  0.00000000000E+00 0.  1.
         22    1    1    2    0    0  0.78801468437E+03 -0.10226290722E+04 -0.20969543080E+03  0.13079409527E+04  0.00000000000E+00 0.  1.
<mgrwt>
<rscale>  0 0.29476314E+04</rscale>
<asrwt>0</asrwt>
<pdfrwt beam="1">  1        1 0.45016710E+00 0.29476314E+04</pdfrwt>
<pdfrwt beam="2">  1       -1 0.11420520E+00 0.29476314E+04</pdfrwt>
<totfact> 0.40333129E-01</totfact>
</mgrwt>
</event>
<event>
 6    1  0.1637818E-005  0.1005100E+04  0.7818608E-02  0.9302968E-01
         -1   -1    0    0    0  501 -0.00000000000E+00  0.00000000000E+00  0.24933525011E+03  0.24933525011E+03  0.00000000000E+00 0.  1.
          1   -1    0    0  501    0  0.00000000000E+00 -0.00000000000E+00 -0.10129200107E+04  0.10129200107E+04  0.00000000000E+00 0. -1.
         23    2    1    2    0    0  0.48753650454E+03 -0.10034287657E+03 -0.41849766248E+03  0.65657742448E+03  0.90515659924E+02 0.  0.
         13    1    3    3    0    0  0.11979604143E+03 -0.94440156774E+01 -0.15032450180E+03  0.19245190780E+03  0.00000000000E+00 0. -1.
        -13    1    3    3    0    0  0.36774046311E+03 -0.90898860889E+02 -0.26817316068E+03  0.46412551667E+03  0.00000000000E+00 0.  1.
         22    1    1    2    0    0 -0.48753650454E+03  0.10034287657E+03 -0.34508709810E+03  0.60567783633E+03  0.00000000000E+00 0. -1.
<mgrwt>
<rscale>  0 0.10051003E+04</rscale>
<asrwt>0</asrwt>
<pdfrwt beam="1">  1        1 0.15583385E+00 0.10051003E+04</pdfrwt>
<pdfrwt beam="2">  1       -1 0.38359270E-01 0.10051003E+04</pdfrwt>
<totfact> 0.97331353E+01</totfact>
</mgrwt>
</event>
<event>
 6    1  0.1637818E-005  0.5548022E+04  0.7818608E-02  0.7749116E-01
         -2   -1    0    0    0  501 -0.00000000000E+00  0.00000000000E+00  0.29143033409E+04  0.29143033409E+04  0.00000000000E+00 0.  1.
          2   -1    0    0  501    0  0.00000000000E+00 -0.00000000000E+00 -0.26404724664E+04  0.26404724664E+04  0.00000000000E+00 0. -1.
         23    2    1    2    0    0  0.66055372438E+03  0.26021108593E+04 -0.55935976253E+03  0.27438117762E+04  0.91145885737E+02 0.  0.
         11    1    3    3    0    0  0.95568360844E+02  0.45204380668E+03 -0.66828020840E+02  0.46684354887E+03  0.00000000000E+00 0.  1.
        -11    1    3    3    0    0  0.56498536354E+03  0.21500670526E+04 -0.49253174169E+03  0.22769682273E+04  0.00000000000E+00 0. -1.
         22    1    1    2    0    0 -0.66055372438E+03 -0.26021108593E+04  0.83319063705E+03  0.28109640312E+04  0.00000000000E+00 0. -1.
<mgrwt>
<rscale>  0 0.55480223E+04</rscale>
<asrwt>0</asrwt>
<pdfrwt beam="1">  1        2 0.40622653E+00 0.55480223E+04</pdfrwt>
<pdfrwt beam="2">  1       -2 0.44835436E+00 0.55480223E+04</pdfrwt>
<totfact> 0.71747513E-03</totfact>
</mgrwt>
</event>
<event>
 6    1  0.1637818E-005  0.2252914E+04  0.7818608E-02  0.8496721E-01
          1   -1    0    0  501    0  0.00000000000E+00  0.00000000000E+00  0.74314359220E+03  0.74314359220E+03  0.00000000000E+00 0. -1.
         -1   -1    0    0    0  501 -0.00000000000E+00 -0.00000000000E+00 -0.17074834060E+04  0.17074834060E+04  0.00000000000E+00 0.  1.
         23    2    1    2    0    0 -0.72151908616E+03  0.80408811658E+03 -0.14496522313E+03  0.10947058313E+04  0.10108635083E+03 0.  0.
         13    1    3    3    0    0 -0.39914338318E+02  0.57464954819E+02 -0.33656383450E+02  0.77641017398E+02  0.00000000000E+00 0.  1.
        -13    1    3    3    0    0 -0.68160474784E+03  0.74662316176E+03 -0.11130883968E+03  0.10170648139E+04  0.00000000000E+00 0. -1.
         22    1    1    2    0    0  0.72151908616E+03 -0.80408811658E+03 -0.81937459065E+03  0.13559211669E+04  0.00000000000E+00 0.  1.
<mgrwt>
<rscale>  0 0.22529140E+04</rscale>
<asrwt>0</asrwt>
<pdfrwt beam="1">  1        1 0.11432978E+00 0.22529140E+04</pdfrwt>
<pdfrwt beam="2">  1       -1 0.26268975E+00 0.22529140E+04</pdfrwt>
<totfact> 0.12996351E+00</totfact>
</mgrwt>
</event>
<event>
 6    1  0.1637818E-005  0.7025338E+03  0.7818608E-02  0.9712909E-01
          1   -1    0    0  501    0  0.00000000000E+00  0.00000000000E+00  0.83223684541E+02  0.83223684541E+02  0.00000000000E+00 0. -1.
         -1   -1    0    0    0  501 -0.00000000000E+00 -0.00000000000E+00 -0.14826121407E+04  0.14826121407E+04  0.00000000000E+00 0.  1.
         23    2    1    2    0    0 -0.25492879018E+03 -0.16499538088E+03 -0.34313308698E+03  0.46679644073E+03  0.89142795144E+02 0.  0.
         13    1    3    3    0    0 -0.16779997723E+03 -0.61697911004E+02 -0.16569950241E+03  0.24376174778E+03  0.00000000000E+00 0. -1.
        -13    1    3    3    0    0 -0.87128812952E+02 -0.10329746988E+03 -0.17743358456E+03  0.22303469295E+03  0.00000000000E+00 0.  1.
         22    1    1    2    0    0  0.25492879018E+03  0.16499538088E+03 -0.10562553692E+04  0.10990393845E+04  0.00000000000E+00 0.  1.
<mgrwt>
<rscale>  0 0.70253383E+03</rscale>
<asrwt>0</asrwt>
<pdfrwt beam="1">  1        1 0.12803644E-01 0.70253383E+03</pdfrwt>
<pdfrwt beam="2">  1       -1 0.22809416E+00 0.70253383E+03</pdfrwt>
<totfact> 0.47901033E+01</totfact>
</mgrwt>
</event>
<event>
 6    1  0.1637818E-005  0.2418980E+04  0.7818608E-02  0.8432432E-01
          1   -1    0    0  501    0  0.00000000000E+00  0.00000000000E+00  0.18404405971E+04  0.18404405971E+04  0.00000000000E+00 0. -1.
         -1   -1    0    0    0  501 -0.00000000000E+00 -0.00000000000E+00 -0.79484570558E+03  0.79484570558E+03  0.00000000000E+00 0.  1.
         23    2    1    2    0    0 -0.51355011476E+03  0.86135269584E+03 -0.20970423851E+03  0.10286008659E+04  0.91551551814E+02 0.  0.
         13    1    3    3    0    0 -0.29186913233E+03  0.53763179457E+03 -0.89560499499E+02  0.61826905148E+03  0.00000000000E+00 0.  1.
        -13    1    3    3    0    0 -0.22168098243E+03  0.32372090127E+03 -0.12014373901E+03  0.41033181440E+03  0.00000000000E+00 0. -1.
         22    1    1    2    0    0  0.51355011476E+03 -0.86135269584E+03  0.12552991301E+04  0.16066854368E+04  0.00000000000E+00 0. -1.
<mgrwt>
<rscale>  0 0.24189802E+04</rscale>
<asrwt>0</asrwt>
<pdfrwt beam="1">  1        1 0.28314471E+00 0.24189802E+04</pdfrwt>
<pdfrwt beam="2">  1       -1 0.12228396E+00 0.24189802E+04</pdfrwt>
<totfact> 0.20217247E+00</totfact>
</mgrwt>
</event>
<event>
 6    1  0.1692359E-005  0.4380745E+04  0.7818608E-02  0.7931854E-01
         -1   -1    0    0    0  501 -0.00000000000E+00  0.00000000000E+00  0.19846714232E+04  0.19846714232E+04  0.00000000000E+00 0.  1.
          1   -1    0    0  501    0  0.00000000000E+00 -0.00000000000E+00 -0.24173934443E+04  0.24173934443E+04  0.00000000000E+00 0. -1.
         23    2    1    2    0    0  0.19100604817E+04  0.75011254436E+03  0.55055673441E+03  0.21265787691E+04  0.90689969698E+02 0.  0.
         11    1    3    3    0    0  0.10356386148E+04  0.41636833900E+03  0.34524215775E+03  0.11683758307E+04  0.00000000000E+00 0.  1.
        -11    1    3    3    0    0  0.87442186689E+03  0.33374420536E+03  0.20531457666E+03  0.95820293847E+03  0.00000000000E+00 0. -1.
         22    1    1    2    0    0 -0.19100604817E+04 -0.75011254436E+03 -0.98327875545E+03  0.22754860984E+04  0.00000000000E+00 0. -1.
<mgrwt>
<rscale>  0 0.43807450E+04</rscale>
<asrwt>0</asrwt>
<pdfrwt beam="1">  1        1 0.37190669E+00 0.43807450E+04</pdfrwt>
<pdfrwt beam="2">  1       -1 0.30533406E+00 0.43807450E+04</pdfrwt>
<totfact> 0.35758209E-02</totfact>
</mgrwt>
</event>
<event>
 6    1  0.1637818E-005  0.2495151E+04  0.7818608E-02  0.8404715E-01
         -1   -1    0    0    0  501 -0.00000000000E+00  0.00000000000E+00  0.14103871221E+04  0.14103871221E+04  0.00000000000E+00 0.  1.
          1   -1    0    0  501    0  0.00000000000E+00 -0.00000000000E+00 -0.11035586276E+04  0.11035586276E+04  0.00000000000E+00 0. -1.
         23    2    1    2    0    0  0.33683301637E+03 -0.97936878513E+03 -0.54381366477E+03  0.11737174925E+04  0.96227605009E+02 0.  0.
         11    1    3    3    0    0  0.74797239371E+02 -0.16629258604E+03 -0.59942124109E+02  0.19193985890E+03  0.00000000000E+00 0.  1.
        -11    1    3    3    0    0  0.26203577700E+03 -0.81307619909E+03 -0.48387154066E+03  0.98177763359E+03  0.00000000000E+00 0. -1.
         22    1    1    2    0    0 -0.33683301637E+03  0.97936878513E+03  0.85064215933E+03  0.13402282572E+04  0.00000000000E+00 0.  1.
<mgrwt>
<rscale>  0 0.24951512E+04</rscale>
<asrwt>0</asrwt>
<pdfrwt beam="1">  1        1 0.16977825E+00 0.24951512E+04</pdfrwt>
<pdfrwt beam="2">  1       -1 0.21698264E+00 0.24951512E+04</pdfrwt>
<totfact> 0.12913496E+00</totfact>
</mgrwt>
</event>
<event>
 6    1  0.1637818E-005  0.2996127E+04  0.7818608E-02  0.8244838E-01
         -2   -1    0    0    0  501 -0.00000000000E+00  0.00000000000E+00  0.63455297494E+03  0.63455297494E+03  0.00000000000E+00 0.  1.
          2   -1    0    0  501    0  0.00000000000E+00 -0.00000000000E+00 -0.35366549207E+04  0.35366549207E+04  0.00000000000E+00 0. -1.
         23    2    1    2    0    0  0.64786170383E+03 -0.12526789026E+04 -0.75500309367E+03  0.16023632719E+04  0.92785577202E+02 0.  0.
         13    1    3    3    0    0  0.57998964914E+03 -0.11559514323E+04 -0.71393280846E+03  0.14772649600E+04  0.00000000000E+00 0. -1.
        -13    1    3    3    0    0  0.67872054693E+02 -0.96727470297E+02 -0.41070285206E+02  0.12509831192E+03  0.00000000000E+00 0.  1.
         22    1    1    2    0    0 -0.64786170383E+03  0.12526789026E+04 -0.21470988521E+04  0.25688446237E+04  0.00000000000E+00 0. -1.
<mgrwt>
<rscale>  0 0.29961274E+04</rscale>
<asrwt>0</asrwt>
<pdfrwt beam="1">  1        2 0.54410077E+00 0.29961274E+04</pdfrwt>
<pdfrwt beam="2">  1       -2 0.97623533E-01 0.29961274E+04</pdfrwt>
<totfact> 0.57307395E-01</totfact>
</mgrwt>
</event>
<event>
 6    1  0.1637818E-005  0.1333083E+04  0.7818608E-02  0.9003734E-01
          2   -1    0    0  501    0  0.00000000000E+00  0.00000000000E+00  0.22818741256E+04  0.22818741256E+04  0.00000000000E+00 0. -1.
         -2   -1    0    0    0  501 -0.00000000000E+00 -0.00000000000E+00 -0.19469856604E+03  0.19469856604E+03  0.00000000000E+00 0.  1.
         23    2    1    2    0    0 -0.65273770663E+03  0.11733470087E+03  0.10178058661E+04  0.12182462289E+04  0.91439309642E+02 0.  0.
         11    1    3    3    0    0 -0.21227476621E+03  0.72038540873E+02  0.39327474995E+03  0.45267555345E+03  0.00000000000E+00 0. -1.
        -11    1    3    3    0    0 -0.44046294041E+03  0.45296159999E+02  0.62453111617E+03  0.76557067541E+03  0.00000000000E+00 0.  1.
         22    1    1    2    0    0  0.65273770663E+03 -0.11733470087E+03  0.10693696935E+04  0.12583264628E+04  0.00000000000E+00 0. -1.
<mgrwt>
<rscale>  0 0.13330831E+04</rscale>
<asrwt>0</asrwt>
<pdfrwt beam="1">  1        2 0.35105754E+00 0.13330831E+04</pdfrwt>
<pdfrwt beam="2">  1       -2 0.29953627E-01 0.13330831E+04</pdfrwt>
<totfact> 0.46804180E+01</totfact>
</mgrwt>
</event>
<event>
 6    1  0.1637818E-005  0.4009652E+04  0.7818608E-02  0.8002602E-01
          2   -1    0    0  501    0  0.00000000000E+00  0.00000000000E+00  0.21372941682E+04  0.21372941682E+04  0.00000000000E+00 0. -1.
         -2   -1    0    0    0  501 -0.00000000000E+00 -0.00000000000E+00 -0.18805681401E+04  0.18805681401E+04  0.00000000000E+00 0.  1.
         23    2    1    2    0    0  0.12659883480E+04 -0.72090555951E+03  0.15070054854E+04  0.20980628281E+04  0.91491938520E+02 0.  0.
         13    1    3    3    0    0  0.63406434830E+03 -0.31261867759E+03  0.75572422695E+03  0.10348367710E+04  0.00000000000E+00 0.  1.
        -13    1    3    3    0    0  0.63192399968E+03 -0.40828688193E+03  0.75128125842E+03  0.10632260571E+04  0.00000000000E+00 0. -1.
         22    1    1    2    0    0 -0.12659883480E+04  0.72090555951E+03 -0.12502794572E+04  0.19197994802E+04  0.00000000000E+00 0.  1.
<mgrwt>
<rscale>  0 0.40096520E+04</rscale>
<asrwt>0</asrwt>
<pdfrwt beam="1">  1        2 0.32881449E+00 0.40096520E+04</pdfrwt>
<pdfrwt beam="2">  1       -2 0.28931817E+00 0.40096520E+04</pdfrwt>
<totfact> 0.16308572E-01</totfact>
</mgrwt>
</event>
<event>
 6    1  0.1637818E-005  0.8794892E+03  0.7818608E-02  0.9451590E-01
         -3   -1    0    0    0  501 -0.00000000000E+00  0.00000000000E+00  0.15106958579E+04  0.15106958579E+04  0.00000000000E+00 0.  1.
          3   -1    0    0  501    0  0.00000000000E+00 -0.00000000000E+00 -0.12800412687E+03  0.12800412687E+03  0.00000000000E+00 0. -1.
         23    2    1    2    0    0 -0.14297051481E+03  0.33938780639E+03  0.26699828327E+03  0.46379721407E+03  0.90526909136E+02 0.  0.
         11    1    3    3    0    0 -0.67339567884E+02  0.69133379835E+02  0.90287777105E+02  0.13215870877E+03  0.00000000000E+00 0. -1.
        -11    1    3    3    0    0 -0.75630946931E+02  0.27025442656E+03  0.17671050617E+03  0.33163850530E+03  0.00000000000E+00 0.  1.
         22    1    1    2    0    0  0.14297051481E+03 -0.33938780639E+03  0.11156934478E+04  0.11749027707E+04  0.00000000000E+00 0.  1.
<mgrwt>
<rscale>  0 0.87948918E+03</rscale>
<asrwt>0</asrwt>
<pdfrwt beam="1">  1        3 0.19692944E-01 0.87948918E+03</pdfrwt>
<pdfrwt beam="2">  1       -3 0.23241473E+00 0.87948918E+03</pdfrwt>
<totfact> 0.58087752E+00</totfact>
</mgrwt>
</event>
<event>
 6    1  0.1637818E-005  0.1859900E+04  0.7818608E-02  0.8675078E-01
         -1   -1    0    0    0  501 -0.00000000000E+00  0.00000000000E+00  0.70903477429E+03  0.70903477429E+03  0.00000000000E+00 0.  1.
          1   -1    0    0  501    0  0.00000000000E+00 -0.00000000000E+00 -0.12196964520E+04  0.12196964520E+04  0.00000000000E+00 0. -1.
         23    2    1    2    0    0  0.26129690548E+03  0.88965913076E+03 -0.28757111790E+03  0.97503376922E+03  0.90687714246E+02 0.  0.
         11    1    3    3    0    0  0.67103002030E+02  0.33030601894E+03 -0.70170480250E+02  0.34428008267E+03  0.00000000000E+00 0.  1.
        -11    1    3    3    0    0  0.19419390345E+03  0.55935311182E+03 -0.21740063765E+03  0.63075368655E+03  0.00000000000E+00 0. -1.
         22    1    1    2    0    0 -0.26129690548E+03 -0.88965913076E+03 -0.22309055982E+03  0.95369745708E+03  0.00000000000E+00 0.  1.
<mgrwt>
<rscale>  0 0.18599002E+04</rscale>
<asrwt>0</asrwt>
<pdfrwt beam="1">  1        1 0.18764561E+00 0.18599002E+04</pdfrwt>
<pdfrwt beam="2">  1       -1 0.10908227E+00 0.18599002E+04</pdfrwt>
<totfact> 0.75554991E+00</totfact>
</mgrwt>
</event>
<event>
 6    1  0.1637818E-005  0.4745945E+04  0.7818608E-02  0.7868939E-01
          1   -1    0    0  501    0  0.00000000000E+00  0.00000000000E+00  0.29670597828E+04  0.29670597828E+04  0.00000000000E+00 0. -1.
         -1   -1    0    0    0  501 -0.00000000000E+00 -0.00000000000E+00 -0.18978375461E+04  0.18978375461E+04  0.00000000000E+00 0.  1.
         23    2    1    2    0    0  0.55282695028E+03  0.14225056807E+04  0.23963214713E+04  0.28424403017E+04  0.89276124105E+02 0.  0.
         13    1    3    3    0    0  0.33276614689E+03  0.83917215148E+03  0.13358955316E+04  0.16123151304E+04  0.00000000000E+00 0.  1.
        -13    1    3    3    0    0  0.22006080339E+03  0.58333352917E+03  0.10604259397E+04  0.12301251713E+04  0.00000000000E+00 0. -1.
         22    1    1    2    0    0 -0.55282695028E+03 -0.14225056807E+04 -0.13270992346E+04  0.20224570272E+04  0.00000000000E+00 0.  1.
<mgrwt>
<rscale>  0 0.47459446E+04</rscale>
<asrwt>0</asrwt>
<pdfrwt beam="1">  1        1 0.45647073E+00 0.47459446E+04</pdfrwt>
<pdfrwt beam="2">  1       -1 0.29197501E+00 0.47459446E+04</pdfrwt>
<totfact> 0.17321315E-02</totfact>
</mgrwt>
</event>
<event>
 6    1  0.1637818E-005  0.2873724E+04  0.7818608E-02  0.8280738E-01
          2   -1    0    0  501    0  0.00000000000E+00  0.00000000000E+00  0.20635317997E+04  0.20635317997E+04  0.00000000000E+00 0. -1.
         -2   -1    0    0    0  501 -0.00000000000E+00 -0.00000000000E+00 -0.10005045462E+04  0.10005045462E+04  0.00000000000E+00 0.  1.
         23    2    1    2    0    0  0.26753692261E+03  0.74849265920E+03 -0.74231323518E+03  0.10914564245E+04  0.91820050637E+02 0.  0.
         11    1    3    3    0    0  0.14696325512E+03  0.28134486811E+03 -0.30879010455E+03  0.44283683432E+03  0.00000000000E+00 0.  1.
        -11    1    3    3    0    0  0.12057366749E+03  0.46714779109E+03 -0.43352313063E+03  0.64861959021E+03  0.00000000000E+00 0. -1.
         22    1    1    2    0    0 -0.26753692261E+03 -0.74849265920E+03  0.18053404888E+04  0.19725799214E+04  0.00000000000E+00 0. -1.
<mgrwt>
<rscale>  0 0.28737244E+04</rscale>
<asrwt>0</asrwt>
<pdfrwt beam="1">  1        2 0.31746643E+00 0.28737244E+04</pdfrwt>
<pdfrwt beam="2">  1       -2 0.15392378E+00 0.28737244E+04</pdfrwt>
<totfact> 0.14898074E+00</totfact>
</mgrwt>
</event>
<event>
 6    1  0.1637818E-005  0.5055262E+04  0.7818608E-02  0.7820039E-01
          1   -1    0    0  501    0  0.00000000000E+00  0.00000000000E+00  0.32804391542E+04  0.32804391542E+04  0.00000000000E+00 0. -1.
         -1   -1    0    0    0  501 -0.00000000000E+00 -0.00000000000E+00 -0.19475804753E+04  0.19475804753E+04  0.00000000000E+00 0.  1.
         23    2    1    2    0    0 -0.13430197407E+03  0.24552491905E+04  0.64950826035E+02  0.24614557081E+04  0.90884461892E+02 0.  0.
         11    1    3    3    0    0 -0.64485231066E+02  0.50937473607E+03  0.18635512972E+02  0.51377840468E+03  0.00000000000E+00 0.  1.
        -11    1    3    3    0    0 -0.69816743001E+02  0.19458744544E+04  0.46315313063E+02  0.19476773034E+04  0.00000000000E+00 0. -1.
         22    1    1    2    0    0  0.13430197407E+03 -0.24552491905E+04  0.12679078529E+04  0.27665639214E+04  0.00000000000E+00 0.  1.
<mgrwt>
<rscale>  0 0.50552623E+04</rscale>
<asrwt>0</asrwt>
<pdfrwt beam="1">  1        1 0.50468295E+00 0.50552623E+04</pdfrwt>
<pdfrwt beam="2">  1       -1 0.29962777E+00 0.50552623E+04</pdfrwt>
<totfact> 0.88176652E-03</totfact>
</mgrwt>
</event>
<event>
 6    1  0.1637818E-005  0.3169136E+04  0.7818608E-02  0.8197016E-01
          2   -1    0    0  501    0  0.00000000000E+00  0.00000000000E+00  0.18178057148E+04  0.18178057148E+04  0.00000000000E+00 0. -1.
         -2   -1    0    0    0  501 -0.00000000000E+00 -0.00000000000E+00 -0.13812560211E+04  0.13812560211E+04  0.00000000000E+00 0.  1.
         23    2    1    2    0    0  0.67454784652E+03 -0.45557725544E+03  0.15892303121E+04  0.17879493941E+04  0.92437103880E+02 0.  0.
         13    1    3    3    0    0  0.22339015054E+03 -0.10287924836E+03  0.44626925844E+03  0.50955230362E+03  0.00000000000E+00 0.  1.
        -13    1    3    3    0    0  0.45115769598E+03 -0.35269800709E+03  0.11429610536E+04  0.12783970905E+04  0.00000000000E+00 0. -1.
         22    1    1    2    0    0 -0.67454784652E+03  0.45557725544E+03 -0.11526806184E+04  0.14111123417E+04  0.00000000000E+00 0.  1.
<mgrwt>
<rscale>  0 0.31691356E+04</rscale>
<asrwt>0</asrwt>
<pdfrwt beam="1">  1        2 0.27966242E+00 0.31691356E+04</pdfrwt>
<pdfrwt beam="2">  1       -2 0.21250093E+00 0.31691356E+04</pdfrwt>
<totfact> 0.78578485E-01</totfact>
</mgrwt>
</event>
<event>
 6    1  0.1637818E-005  0.1053649E+04  0.7818608E-02  0.9251584E-01
          2   -1    0    0  501    0  0.00000000000E+00  0.00000000000E+00  0.11296110575E+04  0.11296110575E+04  0.00000000000E+00 0. -1.
         -2   -1    0    0    0  501 -0.00000000000E+00 -0.00000000000E+00 -0.24569891300E+03  0.24569891300E+03  0.00000000000E+00 0.  1.
         23    2    1    2    0    0  0.50785367437E+03 -0.16151391982E+02  0.60744373791E+03  0.79685426618E+03  0.88388940357E+02 0.  0.
         11    1    3    3    0    0  0.13371079809E+03 -0.85485019305E+01  0.22436792325E+03  0.26132856598E+03  0.00000000000E+00 0. -1.
        -11    1    3    3    0    0  0.37414287628E+03 -0.76028900512E+01  0.38307581466E+03  0.53552570021E+03  0.00000000000E+00 0.  1.
         22    1    1    2    0    0 -0.50785367437E+03  0.16151391982E+02  0.27646840663E+03  0.57845570435E+03  0.00000000000E+00 0.  1.
<mgrwt>
<rscale>  0 0.10536493E+04</rscale>
<asrwt>0</asrwt>
<pdfrwt beam="1">  1        2 0.17378631E+00 0.10536493E+04</pdfrwt>
<pdfrwt beam="2">  1       -2 0.37799833E-01 0.10536493E+04</pdfrwt>
<totfact> 0.13722097E+02</totfact>
</mgrwt>
</event>
<event>
 6    1  0.1637818E-005  0.2170433E+04  0.7818608E-02  0.8530836E-01
         -2   -1    0    0    0  501 -0.00000000000E+00  0.00000000000E+00  0.61475031705E+03  0.61475031705E+03  0.00000000000E+00 0.  1.
          2   -1    0    0  501    0  0.00000000000E+00 -0.00000000000E+00 -0.19157291334E+04  0.19157291334E+04  0.00000000000E+00 0. -1.
         23    2    1    2    0    0  0.45960738175E+03  0.40298767849E+03  0.39121063595E+03  0.73127319300E+03  0.89870499857E+02 0.  0.
         11    1    3    3    0    0  0.23157158386E+03  0.18635752542E+03  0.24123559511E+03  0.38281736909E+03  0.00000000000E+00 0. -1.
        -11    1    3    3    0    0  0.22803579789E+03  0.21663015307E+03  0.14997504084E+03  0.34845582390E+03  0.00000000000E+00 0.  1.
         22    1    1    2    0    0 -0.45960738175E+03 -0.40298767849E+03 -0.16921894523E+04  0.17992062574E+04  0.00000000000E+00 0. -1.
<mgrwt>
<rscale>  0 0.21704332E+04</rscale>
<asrwt>0</asrwt>
<pdfrwt beam="1">  1        2 0.29472756E+00 0.21704332E+04</pdfrwt>
<pdfrwt beam="2">  1       -2 0.94576973E-01 0.21704332E+04</pdfrwt>
<totfact> 0.64217099E+00</totfact>
</mgrwt>
</event>
<event>
 6    1  0.1637818E-005  0.2590420E+04  0.7818608E-02  0.8371462E-01
         -2   -1    0    0    0  501 -0.00000000000E+00  0.00000000000E+00  0.35656964634E+03  0.35656964634E+03  0.00000000000E+00 0. -1.
          2   -1    0    0  501    0  0.00000000000E+00 -0.00000000000E+00 -0.47047451833E+04  0.47047451833E+04  0.00000000000E+00 0.  1.
         23    2    1    2    0    0 -0.60303075410E+03 -0.10686874485E+04 -0.13771015622E+04  0.18468133883E+04  0.92585234128E+02 0.  0.
         11    1    3    3    0    0 -0.28414631937E+03 -0.42113319416E+03 -0.60037816042E+03  0.78647710301E+03  0.00000000000E+00 0.  1.
        -11    1    3    3    0    0 -0.31888443473E+03 -0.64755425434E+03 -0.77672340177E+03  0.10603362853E+04  0.00000000000E+00 0. -1.
         22    1    1    2    0    0  0.60303075410E+03  0.10686874485E+04 -0.29710739747E+04  0.32145014413E+04  0.00000000000E+00 0.  1.
<mgrwt>
<rscale>  0 0.25904203E+04</rscale>
<asrwt>0</asrwt>
<pdfrwt beam="1">  1        2 0.72380696E+00 0.25904203E+04</pdfrwt>
<pdfrwt beam="2">  1       -2 0.54856868E-01 0.25904203E+04</pdfrwt>
<totfact> 0.21103032E-01</totfact>
</mgrwt>
</event>
<event>
 6    1  0.1637818E-005  0.1179253E+04  0.7818608E-02  0.9131213E-01
          2   -1    0    0  501    0  0.00000000000E+00  0.00000000000E+00  0.84293554989E+03  0.84293554989E+03  0.00000000000E+00 0. -1.
         -2   -1    0    0    0  501 -0.00000000000E+00 -0.00000000000E+00 -0.41243857482E+03  0.41243857482E+03  0.00000000000E+00 0.  1.
         23    2    1    2    0    0 -0.27806677121E+03 -0.47803154462E+03  0.42280392460E+03  0.70229685170E+03  0.92856999462E+02 0.  0.
         11    1    3    3    0    0 -0.15692581079E+03 -0.29569066046E+03  0.20001997519E+03  0.38995726336E+03  0.00000000000E+00 0.  1.
        -11    1    3    3    0    0 -0.12114096043E+03 -0.18234088416E+03  0.22278394941E+03  0.31233958834E+03  0.00000000000E+00 0. -1.
         22    1    1    2    0    0  0.27806677121E+03  0.47803154462E+03  0.76930504700E+01  0.55307727302E+03  0.00000000000E+00 0. -1.
<mgrwt>
<rscale>  0 0.11792525E+04</rscale>
<asrwt>0</asrwt>
<pdfrwt beam="1">  1        2 0.12968239E+00 0.11792525E+04</pdfrwt>
<pdfrwt beam="2">  1       -2 0.63452088E-01 0.11792525E+04</pdfrwt>
<totfact> 0.72949968E+01</totfact>
</mgrwt>
</event>
<event>
 6    1  0.1637818E-005  0.2911042E+04  0.7818608E-02  0.8269600E-01
          2   -1    0    0  501    0  0.00000000000E+00  0.00000000000E+00  0.26861040622E+04  0.26861040622E+04  0.00000000000E+00 0. -1.
         -2   -1    0    0    0  501 -0.00000000000E+00 -0.00000000000E+00 -0.78870402023E+03  0.78870402023E+03  0.00000000000E+00 0.  1.
         23    2    1    2    0    0  0.62514553505E+03  0.11812460704E+04  0.26564580865E+03  0.13655970695E+04  0.90213312419E+02 0.  0.
         11    1    3    3    0    0  0.46183628738E+03  0.79421040006E+03  0.20275734745E+03  0.94083657340E+03  0.00000000000E+00 0. -1.
        -11    1    3    3    0    0  0.16330924767E+03  0.38703567038E+03  0.62888461198E+02  0.42476049614E+03  0.00000000000E+00 0.  1.
         22    1    1    2    0    0 -0.62514553505E+03 -0.11812460704E+04  0.16317542334E+04  0.21092110129E+04  0.00000000000E+00 0. -1.
<mgrwt>
<rscale>  0 0.29110418E+04</rscale>
<asrwt>0</asrwt>
<pdfrwt beam="1">  1        2 0.41324677E+00 0.29110418E+04</pdfrwt>
<pdfrwt beam="2">  1       -2 0.12133908E+00 0.29110418E+04</pdfrwt>
<totfact> 0.12050711E+00</totfact>
</mgrwt>
</event>
<event>
 6    1  0.1637818E-005  0.1842244E+04  0.7818608E-02  0.8684152E-01
         -1   -1    0    0    0  501 -0.00000000000E+00  0.00000000000E+00  0.10992518709E+04  0.10992518709E+04  0.00000000000E+00 0. -1.
          1   -1    0    0  501    0  0.00000000000E+00 -0.00000000000E+00 -0.77185757506E+03  0.77185757506E+03  0.00000000000E+00 0.  1.
         23    2    1    2    0    0  0.40480766130E+03  0.49094716352E+03 -0.50913205671E+03  0.82007438539E+03  0.91696163408E+02 0.  0.
         13    1    3    3    0    0  0.13370837006E+03  0.10426663884E+03 -0.11389277603E+03  0.20425725111E+03  0.00000000000E+00 0.  1.
        -13    1    3    3    0    0  0.27109929124E+03  0.38668052468E+03 -0.39523928068E+03  0.61581713428E+03  0.00000000000E+00 0. -1.
         22    1    1    2    0    0 -0.40480766130E+03 -0.49094716352E+03  0.83652635251E+03  0.10510350605E+04  0.00000000000E+00 0. -1.
<mgrwt>
<rscale>  0 0.18422442E+04</rscale>
<asrwt>0</asrwt>
<pdfrwt beam="1">  1        1 0.11874732E+00 0.18422442E+04</pdfrwt>
<pdfrwt beam="2">  1       -1 0.16911567E+00 0.18422442E+04</pdfrwt>
<totfact> 0.54977629E+00</totfact>
</mgrwt>
</event>
<event>
 6    1  0.1637818E-005  0.4838434E+04  0.7818608E-02  0.7853925E-01
          2   -1    0    0  501    0  0.00000000000E+00  0.00000000000E+00  0.21066509207E+04  0.21066509207E+04  0.00000000000E+00 0. -1.
         -2   -1    0    0    0  501 -0.00000000000E+00 -0.00000000000E+00 -0.27781586664E+04  0.27781586664E+04  0.00000000000E+00 0.  1.
         23    2    1    2    0    0  0.18674810158E+04  0.15271299947E+04 -0.50802047957E+03  0.24668891064E+04  0.88575903230E+02 0.  0.
         13    1    3    3    0    0  0.10367447665E+04  0.88716677329E+03 -0.31953320424E+03  0.14014300065E+04  0.00000000000E+00 0.  1.
        -13    1    3    3    0    0  0.83073624921E+03  0.63996322140E+03 -0.18848727533E+03  0.10654590999E+04  0.00000000000E+00 0. -1.
         22    1    1    2    0    0 -0.18674810158E+04 -0.15271299947E+04 -0.16348726616E+03  0.24179204807E+04  0.00000000000E+00 0. -1.
<mgrwt>
<rscale>  0 0.48384338E+04</rscale>
<asrwt>0</asrwt>
<pdfrwt beam="1">  1        2 0.32410014E+00 0.48384338E+04</pdfrwt>
<pdfrwt beam="2">  1       -2 0.42740903E+00 0.48384338E+04</pdfrwt>
<totfact> 0.21069178E-02</totfact>
</mgrwt>
</event>
<event>
 6    1  0.1637818E-005  0.1366804E+04  0.7818608E-02  0.8978205E-01
         -2   -1    0    0    0  501 -0.00000000000E+00  0.00000000000E+00  0.22293586129E+03  0.22293586129E+03  0.00000000000E+00 0.  1.
          2   -1    0    0  501    0  0.00000000000E+00 -0.00000000000E+00 -0.20949433767E+04  0.20949433767E+04  0.00000000000E+00 0. -1.
         23    2    1    2    0    0 -0.46716689571E+03  0.34550615638E+03 -0.15403850198E+04  0.16488554028E+04  0.91207002695E+02 0.  0.
         13    1    3    3    0    0 -0.19649351787E+03  0.99600591668E+02 -0.64911265466E+03  0.68547590684E+03  0.00000000000E+00 0. -1.
        -13    1    3    3    0    0 -0.27067337784E+03  0.24590556471E+03 -0.89127236518E+03  0.96337949592E+03  0.00000000000E+00 0.  1.
         22    1    1    2    0    0  0.46716689571E+03 -0.34550615638E+03 -0.33162249557E+03  0.66902383523E+03  0.00000000000E+00 0.  1.
<mgrwt>
<rscale>  0 0.13668036E+04</rscale>
<asrwt>0</asrwt>
<pdfrwt beam="1">  1        2 0.32229896E+00 0.13668036E+04</pdfrwt>
<pdfrwt beam="2">  1       -2 0.34297827E-01 0.13668036E+04</pdfrwt>
<totfact> 0.46002068E+01</totfact>
</mgrwt>
</event>
<event>
 6    1  0.1637818E-005  0.4320164E+04  0.7818608E-02  0.7942900E-01
          2   -1    0    0  501    0  0.00000000000E+00  0.00000000000E+00  0.43708225709E+04  0.43708225709E+04  0.00000000000E+00 0. -1.
         -2   -1    0    0    0  501 -0.00000000000E+00 -0.00000000000E+00 -0.10675229395E+04  0.10675229395E+04  0.00000000000E+00 0.  1.
         23    2    1    2    0    0  0.49056926561E+03  0.11571375493E+04 -0.55768709806E+03  0.13779460180E+04  0.89971199840E+02 0.  0.
         13    1    3    3    0    0  0.26618573463E+03  0.51496966507E+03 -0.24752320438E+03  0.63033034036E+03  0.00000000000E+00 0. -1.
        -13    1    3    3    0    0  0.22438353097E+03  0.64216788421E+03 -0.31016389368E+03  0.74761567762E+03  0.00000000000E+00 0.  1.
         22    1    1    2    0    0 -0.49056926561E+03 -0.11571375493E+04  0.38609867295E+04  0.40603994923E+04  0.00000000000E+00 0. -1.
<mgrwt>
<rscale>  0 0.43201636E+04</rscale>
<asrwt>0</asrwt>
<pdfrwt beam="1">  1        2 0.67243423E+00 0.43201636E+04</pdfrwt>
<pdfrwt beam="2">  1       -2 0.16423430E+00 0.43201636E+04</pdfrwt>
<totfact> 0.29257315E-02</totfact>
</mgrwt>
</event>
<event>
 6    1  0.1637818E-005  0.2590594E+04  0.7818608E-02  0.8371403E-01
         -1   -1    0    0    0  501 -0.00000000000E+00  0.00000000000E+00  0.87924678720E+03  0.87924678720E+03  0.00000000000E+00 0.  1.
          1   -1    0    0  501    0  0.00000000000E+00 -0.00000000000E+00 -0.19082180905E+04  0.19082180905E+04  0.00000000000E+00 0. -1.
         23    2    1    2    0    0 -0.12245796843E+04 -0.41214796070E+03 -0.58339551543E+03  0.14207172318E+04  0.92875081034E+02 0.  0.
         13    1    3    3    0    0 -0.60619013353E+03 -0.24182431589E+03 -0.26182611463E+03  0.70320579637E+03  0.00000000000E+00 0. -1.
        -13    1    3    3    0    0 -0.61838955080E+03 -0.17032364481E+03 -0.32156940080E+03  0.71751143548E+03  0.00000000000E+00 0.  1.
         22    1    1    2    0    0  0.12245796843E+04  0.41214796070E+03 -0.44557578791E+03  0.13667476459E+04  0.00000000000E+00 0. -1.
<mgrwt>
<rscale>  0 0.25905942E+04</rscale>
<asrwt>0</asrwt>
<pdfrwt beam="1">  1        1 0.29357201E+00 0.25905942E+04</pdfrwt>
<pdfrwt beam="2">  1       -1 0.13526874E+00 0.25905942E+04</pdfrwt>
<totfact> 0.13893573E+00</totfact>
</mgrwt>
</event>
<event>
 6    1  0.1637818E-005  0.4539101E+04  0.7818608E-02  0.7903827E-01
         -1   -1    0    0    0  501 -0.00000000000E+00  0.00000000000E+00  0.18920316367E+04  0.18920316367E+04  0.00000000000E+00 0.  1.
          1   -1    0    0  501    0  0.00000000000E+00 -0.00000000000E+00 -0.27223964700E+04  0.27223964700E+04  0.00000000000E+00 0. -1.
         23    2    1    2    0    0  0.22627437926E+04  0.10246822459E+03 -0.28584478311E+03  0.22848334439E+04  0.90815298487E+02 0.  0.
         11    1    3    3    0    0  0.83784843172E+03  0.62090352047E+02 -0.14296821994E+03  0.85222363161E+03  0.00000000000E+00 0. -1.
        -11    1    3    3    0    0  0.14248953609E+04  0.40377872544E+02 -0.14287656317E+03  0.14326098123E+04  0.00000000000E+00 0.  1.
         22    1    1    2    0    0 -0.22627437926E+04 -0.10246822459E+03 -0.54452005023E+03  0.23295946628E+04  0.00000000000E+00 0. -1.
<mgrwt>
<rscale>  0 0.45391013E+04</rscale>
<asrwt>0</asrwt>
<pdfrwt beam="1">  1        1 0.41883023E+00 0.45391013E+04</pdfrwt>
<pdfrwt beam="2">  1       -1 0.29108179E+00 0.45391013E+04</pdfrwt>
<totfact> 0.26740422E-02</totfact>
</mgrwt>
</event>
<event>
 6    1  0.1637818E-005  0.1545529E+04  0.7818608E-02  0.8854728E-01
          2   -1    0    0  501    0  0.00000000000E+00  0.00000000000E+00  0.23096121272E+04  0.23096121272E+04  0.00000000000E+00 0. -1.
         -2   -1    0    0    0  501 -0.00000000000E+00 -0.00000000000E+00 -0.25855647891E+03  0.25855647891E+03  0.00000000000E+00 0.  1.
         23    2    1    2    0    0 -0.61572657467E+03 -0.44861278627E+03  0.12207416429E+04  0.14413172431E+04  0.82538414200E+02 0.  0.
         13    1    3    3    0    0 -0.16087243320E+03 -0.10947031137E+03  0.24832155355E+03  0.31547944908E+03  0.00000000000E+00 0.  1.
        -13    1    3    3    0    0 -0.45485414147E+03 -0.33914247490E+03  0.97242008937E+03  0.11258377940E+04  0.00000000000E+00 0. -1.
         22    1    1    2    0    0  0.61572657467E+03  0.44861278627E+03  0.83031400542E+03  0.11268513630E+04  0.00000000000E+00 0.  1.
<mgrwt>
<rscale>  0 0.15455293E+04</rscale>
<asrwt>0</asrwt>
<pdfrwt beam="1">  1        2 0.35532493E+00 0.15455293E+04</pdfrwt>
<pdfrwt beam="2">  1       -2 0.39777921E-01 0.15455293E+04</pdfrwt>
<totfact> 0.25811487E+01</totfact>
</mgrwt>
</event>
<event>
 6    1  0.1637818E-005  0.2415977E+04  0.7818608E-02  0.8433546E-01
          2   -1    0    0  501    0  0.00000000000E+00  0.00000000000E+00  0.31583768477E+04  0.31583768477E+04  0.00000000000E+00 0.  1.
         -2   -1    0    0    0  501 -0.00000000000E+00 -0.00000000000E+00 -0.46202106619E+03  0.46202106619E+03  0.00000000000E+00 0. -1.
         23    2    1    2    0    0 -0.41499610750E+03 -0.35992102556E+03  0.29594649572E+04  0.30113073196E+04  0.88170438751E+02 0.  0.
         11    1    3    3    0    0 -0.29362410002E+03 -0.23581166332E+03  0.18053371322E+04  0.18441974985E+04  0.00000000000E+00 0.  1.
        -11    1    3    3    0    0 -0.12137200748E+03 -0.12410936225E+03  0.11541278250E+04  0.11671098211E+04  0.00000000000E+00 0. -1.
         22    1    1    2    0    0  0.41499610750E+03  0.35992102556E+03 -0.26310917560E+03  0.60909059438E+03  0.00000000000E+00 0. -1.
<mgrwt>
<rscale>  0 0.24159773E+04</rscale>
<asrwt>0</asrwt>
<pdfrwt beam="1">  1        2 0.48590412E+00 0.24159773E+04</pdfrwt>
<pdfrwt beam="2">  1       -2 0.71080166E-01 0.24159773E+04</pdfrwt>
<totfact> 0.22297401E+00</totfact>
</mgrwt>
</event>
<event>
 6    1  0.1637818E-005  0.2043941E+04  0.7818608E-02  0.8586348E-01
         -1   -1    0    0    0  501 -0.00000000000E+00  0.00000000000E+00  0.95219351946E+03  0.95219351946E+03  0.00000000000E+00 0.  1.
          1   -1    0    0  501    0  0.00000000000E+00 -0.00000000000E+00 -0.10968611609E+04  0.10968611609E+04  0.00000000000E+00 0. -1.
         23    2    1    2    0    0 -0.59896054300E+03 -0.35817479486E+03 -0.81807805871E+03  0.10792482534E+04  0.92098678113E+02 0.  0.
         11    1    3    3    0    0 -0.96724524402E+02 -0.25805522554E+02 -0.14317657101E+03  0.17470285946E+03  0.00000000000E+00 0. -1.
        -11    1    3    3    0    0 -0.50223601860E+03 -0.33236927231E+03 -0.67490148769E+03  0.90454539391E+03  0.00000000000E+00 0.  1.
         22    1    1    2    0    0  0.59896054300E+03  0.35817479486E+03  0.67341041727E+03  0.96980642699E+03  0.00000000000E+00 0.  1.
<mgrwt>
<rscale>  0 0.20439414E+04</rscale>
<asrwt>0</asrwt>
<pdfrwt beam="1">  1        1 0.16874787E+00 0.20439414E+04</pdfrwt>
<pdfrwt beam="2">  1       -1 0.14649131E+00 0.20439414E+04</pdfrwt>
<totfact> 0.43805896E+00</totfact>
</mgrwt>
</event>
<event>
 6    1  0.1637818E-005  0.1979538E+04  0.7818608E-02  0.8616248E-01
          2   -1    0    0  501    0  0.00000000000E+00  0.00000000000E+00  0.27642729789E+04  0.27642729789E+04  0.00000000000E+00 0. -1.
         -2   -1    0    0    0  501 -0.00000000000E+00 -0.00000000000E+00 -0.35439422439E+03  0.35439422439E+03  0.00000000000E+00 0.  1.
         23    2    1    2    0    0  0.60575294459E+03 -0.72504997733E+03  0.75435956260E+03  0.12125250537E+04  0.92328526167E+02 0.  0.
         13    1    3    3    0    0  0.22721182853E+03 -0.22155958270E+03  0.29059716521E+03  0.43030288883E+03  0.00000000000E+00 0. -1.
        -13    1    3    3    0    0  0.37854111606E+03 -0.50349039462E+03  0.46376239739E+03  0.78222216490E+03  0.00000000000E+00 0.  1.
         22    1    1    2    0    0 -0.60575294459E+03  0.72504997733E+03  0.16555191919E+04  0.19061421496E+04  0.00000000000E+00 0. -1.
<mgrwt>
<rscale>  0 0.19795377E+04</rscale>
<asrwt>0</asrwt>
<pdfrwt beam="1">  1        2 0.42527275E+00 0.19795377E+04</pdfrwt>
<pdfrwt beam="2">  1       -2 0.54522190E-01 0.19795377E+04</pdfrwt>
<totfact> 0.71702595E+00</totfact>
</mgrwt>
</event>
<event>
 6    1  0.1637818E-005  0.3124269E+04  0.7818608E-02  0.8209109E-01
         -2   -1    0    0    0  501 -0.00000000000E+00  0.00000000000E+00  0.60073824290E+03  0.60073824290E+03  0.00000000000E+00 0.  1.
          2   -1    0    0  501    0  0.00000000000E+00 -0.00000000000E+00 -0.40621088415E+04  0.40621088415E+04  0.00000000000E+00 0. -1.
         23    2    1    2    0    0 -0.54867732920E+03 -0.57969408597E+03  0.26965664126E+03  0.84739739799E+03  0.90970330680E+02 0.  0.
         11    1    3    3    0    0 -0.20728755044E+03 -0.25030295486E+03  0.68560647383E+02  0.33214493846E+03  0.00000000000E+00 0.  1.
        -11    1    3    3    0    0 -0.34138977876E+03 -0.32939113111E+03  0.20109599388E+03  0.51525245953E+03  0.00000000000E+00 0. -1.
         22    1    1    2    0    0  0.54867732920E+03  0.57969408597E+03 -0.37310272399E+04  0.38154496865E+04  0.00000000000E+00 0. -1.
<mgrwt>
<rscale>  0 0.31242690E+04</rscale>
<asrwt>0</asrwt>
<pdfrwt beam="1">  1        2 0.62493983E+00 0.31242690E+04</pdfrwt>
<pdfrwt beam="2">  1       -2 0.92421267E-01 0.31242690E+04</pdfrwt>
<totfact> 0.25591031E-01</totfact>
</mgrwt>
</event>
<event>
 6    1  0.1637818E-005  0.1313466E+04  0.7818608E-02  0.9018954E-01
          1   -1    0    0  501    0  0.00000000000E+00  0.00000000000E+00  0.24624575859E+04  0.24624575859E+04  0.00000000000E+00 0. -1.
         -1   -1    0    0    0  501 -0.00000000000E+00 -0.00000000000E+00 -0.17514943579E+03  0.17514943579E+03  0.00000000000E+00 0.  1.
         23    2    1    2    0    0 -0.17621647095E+03  0.41624806734E+03  0.19952563885E+03  0.50145381731E+03  0.85619811586E+02 0.  0.
         13    1    3    3    0    0 -0.55683465744E+02  0.19369636282E+03  0.12681924727E+03  0.23812192424E+03  0.00000000000E+00 0. -1.
        -13    1    3    3    0    0 -0.12053300521E+03  0.22255170453E+03  0.72706391580E+02  0.26333189307E+03  0.00000000000E+00 0.  1.
         22    1    1    2    0    0  0.17621647095E+03 -0.41624806734E+03  0.20877825113E+04  0.21361532044E+04  0.00000000000E+00 0. -1.
<mgrwt>
<rscale>  0 0.13134657E+04</rscale>
<asrwt>0</asrwt>
<pdfrwt beam="1">  1        1 0.37883960E+00 0.13134657E+04</pdfrwt>
<pdfrwt beam="2">  1       -1 0.26946069E-01 0.13134657E+04</pdfrwt>
<totfact> 0.17449180E+01</totfact>
</mgrwt>
</event>
<event>
 6    1  0.1637818E-005  0.2238913E+04  0.7818608E-02  0.8502404E-01
          1   -1    0    0  501    0  0.00000000000E+00  0.00000000000E+00  0.86897230677E+03  0.86897230677E+03  0.00000000000E+00 0. -1.
         -1   -1    0    0    0  501 -0.00000000000E+00 -0.00000000000E+00 -0.14421438046E+04  0.14421438046E+04  0.00000000000E+00 0.  1.
         23    2    1    2    0    0  0.34480796979E+03 -0.28175211948E+03 -0.13451808233E+04  0.14198949315E+04  0.91177718135E+02 0.  0.
         13    1    3    3    0    0  0.28043509674E+03 -0.25903903216E+03 -0.12040235486E+04  0.12630984796E+04  0.00000000000E+00 0. -1.
        -13    1    3    3    0    0  0.64372873055E+02 -0.22713087320E+02 -0.14115727474E+03  0.15679645192E+03  0.00000000000E+00 0.  1.
         22    1    1    2    0    0 -0.34480796979E+03  0.28175211948E+03  0.77200932546E+03  0.89122117988E+03  0.00000000000E+00 0. -1.
<mgrwt>
<rscale>  0 0.22389132E+04</rscale>
<asrwt>0</asrwt>
<pdfrwt beam="1">  1        1 0.13368805E+00 0.22389132E+04</pdfrwt>
<pdfrwt beam="2">  1       -1 0.22186828E+00 0.22389132E+04</pdfrwt>
<totfact> 0.18755723E+00</totfact>
</mgrwt>
</event>
<event>
 6    1  0.1637818E-005  0.6361278E+03  0.7818608E-02  0.9833163E-01
          2   -1    0    0  501    0  0.00000000000E+00  0.00000000000E+00  0.30640555817E+04  0.30640555817E+04  0.00000000000E+00 0. -1.
         -2   -1    0    0    0  501 -0.00000000000E+00 -0.00000000000E+00 -0.33016584729E+02  0.33016584729E+02  0.00000000000E+00 0.  1.
         23    2    1    2    0    0  0.55624495285E+02  0.40547726331E+01  0.30388911069E+04  0.30407500457E+04  0.90504999888E+02 0.  0.
         11    1    3    3    0    0  0.78271106008E+02  0.14949308621E+02  0.20703399167E+04  0.20718728770E+04  0.00000000000E+00 0. -1.
        -11    1    3    3    0    0 -0.22646610723E+02 -0.10894535988E+02  0.96855119024E+03  0.96887716869E+03  0.00000000000E+00 0.  1.
         22    1    1    2    0    0 -0.55624495285E+02 -0.40547726331E+01 -0.78521099242E+01  0.56322120761E+02  0.00000000000E+00 0.  1.
<mgrwt>
<rscale>  0 0.63612782E+03</rscale>
<asrwt>0</asrwt>
<pdfrwt beam="1">  1        2 0.47139294E+00 0.63612782E+03</pdfrwt>
<pdfrwt beam="2">  1       -2 0.50794770E-02 0.63612782E+03</pdfrwt>
<totfact> 0.34243806E+02</totfact>
</mgrwt>
</event>
<event>
 6    1  0.1637818E-005  0.1551054E+04  0.7818608E-02  0.8851195E-01
          1   -1    0    0  501    0  0.00000000000E+00  0.00000000000E+00  0.61924057360E+03  0.61924057360E+03  0.00000000000E+00 0. -1.
         -1   -1    0    0    0  501 -0.00000000000E+00 -0.00000000000E+00 -0.97125706355E+03  0.97125706355E+03  0.00000000000E+00 0.  1.
         23    2    1    2    0    0 -0.35338661921E+03 -0.61081685423E+03  0.14625675258E+03  0.72663679405E+03  0.92901349557E+02 0.  0.
         13    1    3    3    0    0 -0.23873896856E+03 -0.37632629090E+03  0.50105978605E+02  0.44847338987E+03  0.00000000000E+00 0. -1.
        -13    1    3    3    0    0 -0.11464765065E+03 -0.23449056332E+03  0.96150773971E+02  0.27816340418E+03  0.00000000000E+00 0.  1.
         22    1    1    2    0    0  0.35338661921E+03  0.61081685423E+03 -0.49827324252E+03  0.86386084310E+03  0.00000000000E+00 0.  1.
<mgrwt>
<rscale>  0 0.15510536E+04</rscale>
<asrwt>0</asrwt>
<pdfrwt beam="1">  1        1 0.95267781E-01 0.15510536E+04</pdfrwt>
<pdfrwt beam="2">  1       -1 0.14942416E+00 0.15510536E+04</pdfrwt>
<totfact> 0.11110317E+01</totfact>
</mgrwt>
</event>
<event>
 6    1  0.1637818E-005  0.3258046E+04  0.7818608E-02  0.8173653E-01
         -2   -1    0    0    0  501 -0.00000000000E+00  0.00000000000E+00  0.15294384998E+04  0.15294384998E+04  0.00000000000E+00 0.  1.
          2   -1    0    0  501    0  0.00000000000E+00 -0.00000000000E+00 -0.17350914683E+04  0.17350914683E+04  0.00000000000E+00 0. -1.
         23    2    1    2    0    0  0.86405901443E+03  0.80988152709E+03 -0.12228913663E+04  0.17033509181E+04  0.58608771919E+02 0.  0.
         11    1    3    3    0    0  0.41182070017E+03  0.36696803231E+03 -0.53254949847E+03  0.76672732712E+03  0.00000000000E+00 0.  1.
        -11    1    3    3    0    0  0.45223831426E+03  0.44291349478E+03 -0.69034186784E+03  0.93662359101E+03  0.00000000000E+00 0. -1.
         22    1    1    2    0    0 -0.86405901443E+03 -0.80988152709E+03  0.10172383978E+04  0.15611790501E+04  0.00000000000E+00 0.  1.
<mgrwt>
<rscale>  0 0.32580459E+04</rscale>
<asrwt>0</asrwt>
<pdfrwt beam="1">  1        2 0.26693715E+00 0.32580459E+04</pdfrwt>
<pdfrwt beam="2">  1       -2 0.23529823E+00 0.32580459E+04</pdfrwt>
<totfact> 0.62257236E-01</totfact>
</mgrwt>
</event>
<event>
 6    1  0.1637818E-005  0.2064724E+04  0.7818608E-02  0.8576944E-01
          2   -1    0    0  501    0  0.00000000000E+00  0.00000000000E+00  0.15194669179E+04  0.15194669179E+04  0.00000000000E+00 0. -1.
         -2   -1    0    0    0  501 -0.00000000000E+00 -0.00000000000E+00 -0.70141117922E+03  0.70141117922E+03  0.00000000000E+00 0.  1.
         23    2    1    2    0    0  0.10069636656E+04 -0.18518627669E+03  0.28592712784E+03  0.10670017435E+04  0.92025090446E+02 0.  0.
         11    1    3    3    0    0  0.39763353049E+03 -0.10912381567E+03  0.85929545405E+02  0.42119392029E+03  0.00000000000E+00 0.  1.
        -11    1    3    3    0    0  0.60933013514E+03 -0.76062461011E+02  0.19999758244E+03  0.64580782323E+03  0.00000000000E+00 0. -1.
         22    1    1    2    0    0 -0.10069636656E+04  0.18518627669E+03  0.53212861089E+03  0.11538763536E+04  0.00000000000E+00 0.  1.
<mgrwt>
<rscale>  0 0.20647238E+04</rscale>
<asrwt>0</asrwt>
<pdfrwt beam="1">  1        2 0.23376414E+00 0.20647238E+04</pdfrwt>
<pdfrwt beam="2">  1       -2 0.10790941E+00 0.20647238E+04</pdfrwt>
<totfact> 0.78734326E+00</totfact>
</mgrwt>
</event>
<event>
 6    1  0.1637818E-005  0.3423236E+04  0.7818608E-02  0.8132227E-01
          2   -1    0    0  501    0  0.00000000000E+00  0.00000000000E+00  0.11644543617E+04  0.11644543617E+04  0.00000000000E+00 0. -1.
         -2   -1    0    0    0  501 -0.00000000000E+00 -0.00000000000E+00 -0.25158878867E+04  0.25158878867E+04  0.00000000000E+00 0.  1.
         23    2    1    2    0    0 -0.30969615557E+03 -0.66798776430E+03  0.98354508600E+03  0.12320276289E+04  0.91715757605E+02 0.  0.
         13    1    3    3    0    0 -0.14090795855E+03 -0.24549056830E+03  0.44024498872E+03  0.52338926432E+03  0.00000000000E+00 0. -1.
        -13    1    3    3    0    0 -0.16878819701E+03 -0.42249719601E+03  0.54330009728E+03  0.70863836460E+03  0.00000000000E+00 0.  1.
         22    1    1    2    0    0  0.30969615557E+03  0.66798776430E+03 -0.23349786110E+04  0.24483146195E+04  0.00000000000E+00 0.  1.
<mgrwt>
<rscale>  0 0.34232363E+04</rscale>
<asrwt>0</asrwt>
<pdfrwt beam="1">  1        2 0.17914682E+00 0.34232363E+04</pdfrwt>
<pdfrwt beam="2">  1       -2 0.38705968E+00 0.34232363E+04</pdfrwt>
<totfact> 0.14816191E-01</totfact>
</mgrwt>
</event>
<event>
 6    1  0.1637818E-005  0.3727492E+04  0.7818608E-02  0.8061896E-01
         -2   -1    0    0    0  501 -0.00000000000E+00  0.00000000000E+00  0.11326731760E+04  0.11326731760E+04  0.00000000000E+00 0.  1.
          2   -1    0    0  501    0  0.00000000000E+00 -0.00000000000E+00 -0.30666827826E+04  0.30666827826E+04  0.00000000000E+00 0. -1.
         23    2    1    2    0    0  0.14660033948E+04 -0.35720571913E+03  0.26294006788E+03  0.15341449441E+04  0.87757340287E+02 0.  0.
         11    1    3    3    0    0  0.52598448594E+03 -0.14639560730E+03  0.56370252486E+02  0.54887973059E+03  0.00000000000E+00 0.  1.
        -11    1    3    3    0    0  0.94001890891E+03 -0.21081011184E+03  0.20656981539E+03  0.98526521353E+03  0.00000000000E+00 0. -1.
         22    1    1    2    0    0 -0.14660033948E+04  0.35720571913E+03 -0.21969496745E+04  0.26652110145E+04  0.00000000000E+00 0. -1.
<mgrwt>
<rscale>  0 0.37274921E+04</rscale>
<asrwt>0</asrwt>
<pdfrwt beam="1">  1        2 0.47179734E+00 0.37274921E+04</pdfrwt>
<pdfrwt beam="2">  1       -2 0.17425742E+00 0.37274921E+04</pdfrwt>
<totfact> 0.25327109E-01</totfact>
</mgrwt>
</event>
<event>
 6    1  0.1637818E-005  0.3007382E+04  0.7818608E-02  0.8241626E-01
          1   -1    0    0  501    0  0.00000000000E+00  0.00000000000E+00  0.23272223137E+04  0.23272223137E+04  0.00000000000E+00 0. -1.
         -1   -1    0    0    0  501 -0.00000000000E+00 -0.00000000000E+00 -0.97158141676E+03  0.97158141676E+03  0.00000000000E+00 0.  1.
         23    2    1    2    0    0 -0.79579294245E+03  0.31217059783E+02  0.20757339381E+04  0.22251208630E+04  0.90722439940E+02 0.  0.
         13    1    3    3    0    0 -0.44865300257E+03  0.15515220914E+02  0.12931300885E+04  0.13688373404E+04  0.00000000000E+00 0.  1.
        -13    1    3    3    0    0 -0.34713993987E+03  0.15701838869E+02  0.78260384960E+03  0.85628352256E+03  0.00000000000E+00 0. -1.
         22    1    1    2    0    0  0.79579294245E+03 -0.31217059783E+02 -0.72009304113E+03  0.10736828675E+04  0.00000000000E+00 0.  1.
<mgrwt>
<rscale>  0 0.30073816E+04</rscale>
<asrwt>0</asrwt>
<pdfrwt beam="1">  1        1 0.35803420E+00 0.30073816E+04</pdfrwt>
<pdfrwt beam="2">  1       -1 0.14947407E+00 0.30073816E+04</pdfrwt>
<totfact> 0.53395364E-01</totfact>
</mgrwt>
</event>
<event>
 6    1  0.1637818E-005  0.1175581E+04  0.7818608E-02  0.9134503E-01
         -2   -1    0    0    0  501 -0.00000000000E+00  0.00000000000E+00  0.20644036962E+03  0.20644036962E+03  0.00000000000E+00 0.  1.
          2   -1    0    0  501    0  0.00000000000E+00 -0.00000000000E+00 -0.16735946221E+04  0.16735946221E+04  0.00000000000E+00 0. -1.
         23    2    1    2    0    0 -0.12271880443E+03  0.51705333847E+03 -0.11268348446E+04  0.12489871654E+04  0.88363523913E+02 0.  0.
         11    1    3    3    0    0 -0.10017614984E+03  0.23725029014E+03 -0.56529181934E+03  0.62119063272E+03  0.00000000000E+00 0.  1.
        -11    1    3    3    0    0 -0.22542654586E+02  0.27980304833E+03 -0.56154302529E+03  0.62779653263E+03  0.00000000000E+00 0. -1.
         22    1    1    2    0    0  0.12271880443E+03 -0.51705333847E+03 -0.34031940782E+03  0.63104782633E+03  0.00000000000E+00 0.  1.
<mgrwt>
<rscale>  0 0.11755807E+04</rscale>
<asrwt>0</asrwt>
<pdfrwt beam="1">  1        2 0.25747609E+00 0.11755807E+04</pdfrwt>
<pdfrwt beam="2">  1       -2 0.31760057E-01 0.11755807E+04</pdfrwt>
<totfact> 0.92357166E+01</totfact>
</mgrwt>
</event>
<event>
 6    1  0.1637818E-005  0.1274729E+04  0.7818608E-02  0.9049848E-01
          3   -1    0    0  501    0  0.00000000000E+00  0.00000000000E+00  0.23839825087E+03  0.23839825087E+03  0.00000000000E+00 0. -1.
         -3   -1    0    0    0  501 -0.00000000000E+00 -0.00000000000E+00 -0.17040133555E+04  0.17040133555E+04  0.00000000000E+00 0.  1.
         23    2    1    2    0    0 -0.40396709596E+03 -0.39510229109E+03 -0.29821284933E+03  0.64544465971E+03  0.91502296137E+02 0.  0.
         13    1    3    3    0    0 -0.23880175269E+03 -0.28733075491E+03 -0.17202012661E+03  0.41131030107E+03  0.00000000000E+00 0. -1.
        -13    1    3    3    0    0 -0.16516534328E+03 -0.10777153617E+03 -0.12619272272E+03  0.23413435864E+03  0.00000000000E+00 0.  1.
         22    1    1    2    0    0  0.40396709596E+03  0.39510229109E+03 -0.11674022553E+04  0.12969669467E+04  0.00000000000E+00 0.  1.
<mgrwt>
<rscale>  0 0.12747295E+04</rscale>
<asrwt>0</asrwt>
<pdfrwt beam="1">  1        3 0.36676653E-01 0.12747295E+04</pdfrwt>
<pdfrwt beam="2">  1       -3 0.26215590E+00 0.12747295E+04</pdfrwt>
<totfact> 0.11855419E+00</totfact>
</mgrwt>
</event>
<event>
 6    1  0.1637818E-005  0.1575956E+04  0.7818608E-02  0.8835457E-01
          1   -1    0    0  501    0  0.00000000000E+00  0.00000000000E+00  0.23795273090E+04  0.23795273090E+04  0.00000000000E+00 0. -1.
         -1   -1    0    0    0  501 -0.00000000000E+00 -0.00000000000E+00 -0.26093795073E+03  0.26093795073E+03  0.00000000000E+00 0.  1.
         23    2    1    2    0    0  0.63333393771E+03  0.32200675215E+03  0.16234763072E+04  0.17744761383E+04  0.91049548597E+02 0.  0.
         13    1    3    3    0    0  0.30981938066E+03  0.20048855004E+03  0.77739765322E+03  0.86054100341E+03  0.00000000000E+00 0. -1.
        -13    1    3    3    0    0  0.32351455705E+03  0.12151820211E+03  0.84607865402E+03  0.91393513492E+03  0.00000000000E+00 0.  1.
         22    1    1    2    0    0 -0.63333393771E+03 -0.32200675215E+03  0.49511305105E+03  0.86598912141E+03  0.00000000000E+00 0.  1.
<mgrwt>
<rscale>  0 0.15759556E+04</rscale>
<asrwt>0</asrwt>
<pdfrwt beam="1">  1        1 0.36608111E+00 0.15759556E+04</pdfrwt>
<pdfrwt beam="2">  1       -1 0.40144302E-01 0.15759556E+04</pdfrwt>
<totfact> 0.95627777E+00</totfact>
</mgrwt>
</event>
<event>
 6    1  0.1637818E-005  0.9537990E+03  0.7818608E-02  0.9360721E-01
         -2   -1    0    0    0  501 -0.00000000000E+00  0.00000000000E+00  0.10291532960E+03  0.10291532960E+03  0.00000000000E+00 0.  1.
          2   -1    0    0  501    0  0.00000000000E+00 -0.00000000000E+00 -0.22099052494E+04  0.22099052494E+04  0.00000000000E+00 0. -1.
         23    2    1    2    0    0  0.31782118902E+03 -0.61324256323E+02 -0.21647207759E+03  0.39479328922E+03  0.65043125908E+02 0.  0.
         11    1    3    3    0    0  0.17830649567E+03 -0.54397223973E+02 -0.92863866821E+02  0.20826896585E+03  0.00000000000E+00 0.  1.
        -11    1    3    3    0    0  0.13951469335E+03 -0.69270323501E+01 -0.12360821077E+03  0.18652432337E+03  0.00000000000E+00 0. -1.
         22    1    1    2    0    0 -0.31782118902E+03  0.61324256323E+02 -0.18905178422E+04  0.19180272898E+04  0.00000000000E+00 0. -1.
<mgrwt>
<rscale>  0 0.95379899E+03</rscale>
<asrwt>0</asrwt>
<pdfrwt beam="1">  1        2 0.33998541E+00 0.95379899E+03</pdfrwt>
<pdfrwt beam="2">  1       -2 0.15833128E-01 0.95379899E+03</pdfrwt>
<totfact> 0.16478429E+02</totfact>
</mgrwt>
</event>
<event>
 6    1  0.1637818E-005  0.5433793E+04  0.7818608E-02  0.7764866E-01
          1   -1    0    0  501    0  0.00000000000E+00  0.00000000000E+00  0.43669334114E+04  0.43669334114E+04  0.00000000000E+00 0. -1.
         -1   -1    0    0    0  501 -0.00000000000E+00 -0.00000000000E+00 -0.16903227032E+04  0.16903227032E+04  0.00000000000E+00 0.  1.
         23    2    1    2    0    0  0.38192432780E+03  0.14619365336E+04  0.38547031664E+04  0.41412638234E+04  0.90581087673E+02 0.  0.
         13    1    3    3    0    0  0.15350534292E+03  0.69097521922E+03  0.17040311151E+04  0.18451917746E+04  0.00000000000E+00 0. -1.
        -13    1    3    3    0    0  0.22841898488E+03  0.77096131434E+03  0.21506720513E+04  0.22960720488E+04  0.00000000000E+00 0.  1.
         22    1    1    2    0    0 -0.38192432780E+03 -0.14619365336E+04 -0.11780924581E+04  0.19159922913E+04  0.00000000000E+00 0.  1.
<mgrwt>
<rscale>  0 0.54337930E+04</rscale>
<asrwt>0</asrwt>
<pdfrwt beam="1">  1        1 0.67183590E+00 0.54337930E+04</pdfrwt>
<pdfrwt beam="2">  1       -1 0.26004965E+00 0.54337930E+04</pdfrwt>
<totfact> 0.18208355E-03</totfact>
</mgrwt>
</event>
<event>
 6    1  0.1637818E-005  0.3451488E+04  0.7818608E-02  0.8125384E-01
          2   -1    0    0  501    0  0.00000000000E+00  0.00000000000E+00  0.28486856298E+04  0.28486856298E+04  0.00000000000E+00 0. -1.
         -2   -1    0    0    0  501 -0.00000000000E+00 -0.00000000000E+00 -0.10454621102E+04  0.10454621102E+04  0.00000000000E+00 0.  1.
         23    2    1    2    0    0  0.83865204751E+03  0.11879541803E+04 -0.14414239682E+03  0.14637555076E+04  0.85033900672E+02 0.  0.
         11    1    3    3    0    0  0.30145745888E+03  0.36719279611E+03 -0.67120786608E+02  0.47980449042E+03  0.00000000000E+00 0. -1.
        -11    1    3    3    0    0  0.53719458863E+03  0.82076138418E+03 -0.77021610207E+02  0.98395101720E+03  0.00000000000E+00 0.  1.
         22    1    1    2    0    0 -0.83865204751E+03 -0.11879541803E+04  0.19473659164E+04  0.24303922325E+04  0.00000000000E+00 0. -1.
<mgrwt>
<rscale>  0 0.34514883E+04</rscale>
<asrwt>0</asrwt>
<pdfrwt beam="1">  1        2 0.43825933E+00 0.34514883E+04</pdfrwt>
<pdfrwt beam="2">  1       -2 0.16084033E+00 0.34514883E+04</pdfrwt>
<totfact> 0.44227074E-01</totfact>
</mgrwt>
</event>
<event>
 6    1  0.1637818E-005  0.2011418E+04  0.7818608E-02  0.8601301E-01
         -1   -1    0    0    0  501 -0.00000000000E+00  0.00000000000E+00  0.78043175560E+03  0.78043175560E+03  0.00000000000E+00 0.  1.
          1   -1    0    0  501    0  0.00000000000E+00 -0.00000000000E+00 -0.12960135085E+04  0.12960135085E+04  0.00000000000E+00 0. -1.
         23    2    1    2    0    0 -0.11995907490E+03  0.40715794502E+03  0.68055569476E+03  0.80722795979E+03  0.91066753298E+02 0.  0.
         11    1    3    3    0    0 -0.94153380853E+02  0.26874065299E+03  0.52613970574E+03  0.59825528636E+03  0.00000000000E+00 0. -1.
        -11    1    3    3    0    0 -0.25805694052E+02  0.13841729203E+03  0.15441598902E+03  0.20897267344E+03  0.00000000000E+00 0.  1.
         22    1    1    2    0    0  0.11995907490E+03 -0.40715794502E+03 -0.11961374476E+04  0.12692173043E+04  0.00000000000E+00 0. -1.
<mgrwt>
<rscale>  0 0.20114175E+04</rscale>
<asrwt>0</asrwt>
<pdfrwt beam="1">  1        1 0.19938669E+00 0.20114175E+04</pdfrwt>
<pdfrwt beam="2">  1       -1 0.12006642E+00 0.20114175E+04</pdfrwt>
<totfact> 0.52171933E+00</totfact>
</mgrwt>
</event>
<event>
 6    1  0.1637818E-005  0.4399320E+04  0.7818608E-02  0.7928504E-01
          1   -1    0    0  501    0  0.00000000000E+00  0.00000000000E+00  0.15781080238E+04  0.15781080238E+04  0.00000000000E+00 0. -1.
         -1   -1    0    0    0  501 -0.00000000000E+00 -0.00000000000E+00 -0.30660155596E+04  0.30660155596E+04  0.00000000000E+00 0.  1.
         23    2    1    2    0    0 -0.83827183842E+03  0.14694506028E+04 -0.22265997178E+04  0.27981412192E+04  0.99313795372E+02 0.  0.
         11    1    3    3    0    0 -0.76790313002E+03  0.13029779472E+04 -0.19510518735E+04  0.24686089527E+04  0.00000000000E+00 0. -1.
        -11    1    3    3    0    0 -0.70368708401E+02  0.16647265561E+03 -0.27554784427E+03  0.32953226651E+03  0.00000000000E+00 0.  1.
         22    1    1    2    0    0  0.83827183842E+03 -0.14694506028E+04  0.73869218197E+03  0.18459823642E+04  0.00000000000E+00 0. -1.
<mgrwt>
<rscale>  0 0.43993198E+04</rscale>
<asrwt>0</asrwt>
<pdfrwt beam="1">  1        1 0.24278585E+00 0.43993198E+04</pdfrwt>
<pdfrwt beam="2">  1       -1 0.47169471E+00 0.43993198E+04</pdfrwt>
<totfact> 0.10073767E-02</totfact>
</mgrwt>
</event>
<event>
 6    1  0.1637818E-005  0.9322951E+03  0.7818608E-02  0.9386088E-01
         -2   -1    0    0    0  501 -0.00000000000E+00  0.00000000000E+00  0.22654100184E+03  0.22654100184E+03  0.00000000000E+00 0.  1.
          2   -1    0    0  501    0  0.00000000000E+00 -0.00000000000E+00 -0.95917964005E+03  0.95917964005E+03  0.00000000000E+00 0. -1.
         23    2    1    2    0    0  0.71513656621E+01 -0.39560894451E+03 -0.67306551652E+03  0.78558749425E+03  0.87022655616E+02 0.  0.
         11    1    3    3    0    0 -0.13942295556E+02 -0.14443768671E+03 -0.32420090427E+03  0.35519411492E+03  0.00000000000E+00 0. -1.
        -11    1    3    3    0    0  0.21093661219E+02 -0.25117125781E+03 -0.34886461225E+03  0.43039337933E+03  0.00000000000E+00 0.  1.
         22    1    1    2    0    0 -0.71513656621E+01  0.39560894451E+03 -0.59573121690E+02  0.40013314764E+03  0.00000000000E+00 0.  1.
<mgrwt>
<rscale>  0 0.93229505E+03</rscale>
<asrwt>0</asrwt>
<pdfrwt beam="1">  1        2 0.14756610E+00 0.93229505E+03</pdfrwt>
<pdfrwt beam="2">  1       -2 0.34852462E-01 0.93229505E+03</pdfrwt>
<totfact> 0.20683485E+02</totfact>
</mgrwt>
</event>
<event>
 6    1  0.1637818E-005  0.8025211E+03  0.7818608E-02  0.9556375E-01
         -1   -1    0    0    0  501 -0.00000000000E+00  0.00000000000E+00  0.19086904677E+03  0.19086904677E+03  0.00000000000E+00 0.  1.
          1   -1    0    0  501    0  0.00000000000E+00 -0.00000000000E+00 -0.84356271884E+03  0.84356271884E+03  0.00000000000E+00 0. -1.
         23    2    1    2    0    0 -0.21108764254E+03 -0.13731430989E+03  0.63895113306E+02  0.27488407135E+03  0.89807876307E+02 0.  0.
         13    1    3    3    0    0 -0.20541576261E+03 -0.14881138284E+03  0.55790994632E+02  0.25971734304E+03  0.00000000000E+00 0. -1.
        -13    1    3    3    0    0 -0.56718799233E+01  0.11497072950E+02  0.81041186744E+01  0.15166728315E+02  0.00000000000E+00 0.  1.
         22    1    1    2    0    0  0.21108764254E+03  0.13731430989E+03 -0.71658878537E+03  0.75954769426E+03  0.00000000000E+00 0. -1.
<mgrwt>
<rscale>  0 0.80252106E+03</rscale>
<asrwt>0</asrwt>
<pdfrwt beam="1">  1        1 0.12977888E+00 0.80252106E+03</pdfrwt>
<pdfrwt beam="2">  1       -1 0.29364469E-01 0.80252106E+03</pdfrwt>
<totfact> 0.21692576E+02</totfact>
</mgrwt>
</event>
<event>
 6    1  0.1637818E-005  0.2921966E+04  0.7818608E-02  0.8266372E-01
          2   -1    0    0  501    0  0.00000000000E+00  0.00000000000E+00  0.35869927708E+04  0.35869927708E+04  0.00000000000E+00 0. -1.
         -2   -1    0    0    0  501 -0.00000000000E+00 -0.00000000000E+00 -0.59505860971E+03  0.59505860971E+03  0.00000000000E+00 0.  1.
         23    2    1    2    0    0 -0.10678728656E+04 -0.77434628197E+03  0.23914528044E+04  0.27327265442E+04  0.93718879292E+02 0.  0.
         11    1    3    3    0    0 -0.51774567548E+03 -0.43209542300E+03  0.11999722626E+04  0.13764811913E+04  0.00000000000E+00 0. -1.
        -11    1    3    3    0    0 -0.55012719009E+03 -0.34225085898E+03  0.11914805418E+04  0.13562453529E+04  0.00000000000E+00 0.  1.
         22    1    1    2    0    0  0.10678728656E+04  0.77434628197E+03  0.60048135671E+03  0.14493248363E+04  0.00000000000E+00 0.  1.
<mgrwt>
<rscale>  0 0.29219657E+04</rscale>
<asrwt>0</asrwt>
<pdfrwt beam="1">  1        2 0.55184503E+00 0.29219657E+04</pdfrwt>
<pdfrwt beam="2">  1       -2 0.91547480E-01 0.29219657E+04</pdfrwt>
<totfact> 0.61706601E-01</totfact>
</mgrwt>
</event>
<event>
 6    1  0.1637818E-005  0.1639245E+04  0.7818608E-02  0.8796795E-01
          2   -1    0    0  501    0  0.00000000000E+00  0.00000000000E+00  0.16371266221E+04  0.16371266221E+04  0.00000000000E+00 0.  1.
         -2   -1    0    0    0  501 -0.00000000000E+00 -0.00000000000E+00 -0.41034155340E+03  0.41034155340E+03  0.00000000000E+00 0. -1.
         23    2    1    2    0    0  0.28890074481E+03 -0.51424678603E+03 -0.92007633547E+02  0.60277873178E+03  0.83446974547E+02 0.  0.
         11    1    3    3    0    0  0.11653854832E+03 -0.29230038437E+03 -0.45812107324E+02  0.31799291993E+03  0.00000000000E+00 0.  1.
        -11    1    3    3    0    0  0.17236219649E+03 -0.22194640166E+03 -0.46195526222E+02  0.28478581185E+03  0.00000000000E+00 0. -1.
         22    1    1    2    0    0 -0.28890074481E+03  0.51424678603E+03  0.13187927022E+04  0.14446894437E+04  0.00000000000E+00 0. -1.
<mgrwt>
<rscale>  0 0.16392450E+04</rscale>
<asrwt>0</asrwt>
<pdfrwt beam="1">  1        2 0.25186563E+00 0.16392450E+04</pdfrwt>
<pdfrwt beam="2">  1       -2 0.63129470E-01 0.16392450E+04</pdfrwt>
<totfact> 0.23621815E+01</totfact>
</mgrwt>
</event>
<event>
 6    1  0.1637818E-005  0.2660779E+04  0.7818608E-02  0.8347844E-01
         -2   -1    0    0    0  501 -0.00000000000E+00  0.00000000000E+00  0.51805637218E+03  0.51805637218E+03  0.00000000000E+00 0.  1.
          2   -1    0    0  501    0  0.00000000000E+00 -0.00000000000E+00 -0.34164922759E+04  0.34164922759E+04  0.00000000000E+00 0. -1.
         23    2    1    2    0    0  0.31213001995E+03  0.12592662204E+04 -0.18755397723E+04  0.22824308984E+04  0.93084934330E+02 0.  0.
         11    1    3    3    0    0  0.25563084906E+03  0.11054989583E+04 -0.15921764206E+04  0.19551216924E+04  0.00000000000E+00 0. -1.
        -11    1    3    3    0    0  0.56499170897E+02  0.15376726217E+03 -0.28336335167E+03  0.32730920594E+03  0.00000000000E+00 0.  1.
         22    1    1    2    0    0 -0.31213001995E+03 -0.12592662204E+04 -0.10228961315E+04  0.16521177498E+04  0.00000000000E+00 0.  1.
<mgrwt>
<rscale>  0 0.26607785E+04</rscale>
<asrwt>0</asrwt>
<pdfrwt beam="1">  1        2 0.52561417E+00 0.26607785E+04</pdfrwt>
<pdfrwt beam="2">  1       -2 0.79700985E-01 0.26607785E+04</pdfrwt>
<totfact> 0.11399696E+00</totfact>
</mgrwt>
</event>
<event>
 6    1  0.1637818E-005  0.1074578E+04  0.7818608E-02  0.9230330E-01
         -1   -1    0    0    0  501 -0.00000000000E+00  0.00000000000E+00  0.31459428166E+03  0.31459428166E+03  0.00000000000E+00 0.  1.
          1   -1    0    0  501    0  0.00000000000E+00 -0.00000000000E+00 -0.91762465646E+03  0.91762465646E+03  0.00000000000E+00 0. -1.
         23    2    1    2    0    0 -0.39448950906E+03 -0.25913860667E+03 -0.58874469204E+03  0.76001255214E+03  0.90686144386E+02 0.  0.
         13    1    3    3    0    0 -0.29537479457E+03 -0.23440729293E+03 -0.43863371303E+03  0.57843978291E+03  0.00000000000E+00 0.  1.
        -13    1    3    3    0    0 -0.99114714496E+02 -0.24731313742E+02 -0.15011097900E+03  0.18157276923E+03  0.00000000000E+00 0. -1.
         22    1    1    2    0    0  0.39448950906E+03  0.25913860667E+03 -0.14285682765E+02  0.47220638598E+03  0.00000000000E+00 0.  1.
<mgrwt>
<rscale>  0 0.10745780E+04</rscale>
<asrwt>0</asrwt>
<pdfrwt beam="1">  1        1 0.14117302E+00 0.10745780E+04</pdfrwt>
<pdfrwt beam="2">  1       -1 0.48399121E-01 0.10745780E+04</pdfrwt>
<totfact> 0.74989602E+01</totfact>
</mgrwt>
</event>
<event>
 6    1  0.1637818E-005  0.3459964E+04  0.7818608E-02  0.8123344E-01
         -1   -1    0    0    0  501 -0.00000000000E+00  0.00000000000E+00  0.11260073617E+04  0.11260073617E+04  0.00000000000E+00 0.  1.
          1   -1    0    0  501    0  0.00000000000E+00 -0.00000000000E+00 -0.26579200045E+04  0.26579200045E+04  0.00000000000E+00 0. -1.
         23    2    1    2    0    0 -0.10416677752E+04 -0.13334668060E+04 -0.37911215695E+03  0.17364522292E+04  0.91295345168E+02 0.  0.
         11    1    3    3    0    0 -0.36732281681E+03 -0.40446926678E+03 -0.10844574814E+03  0.55702955021E+03  0.00000000000E+00 0. -1.
        -11    1    3    3    0    0 -0.67434495838E+03 -0.92899753926E+03 -0.27066640881E+03  0.11794226790E+04  0.00000000000E+00 0.  1.
         22    1    1    2    0    0  0.10416677752E+04  0.13334668060E+04 -0.11528004859E+04  0.20474751371E+04  0.00000000000E+00 0. -1.
<mgrwt>
<rscale>  0 0.34599639E+04</rscale>
<asrwt>0</asrwt>
<pdfrwt beam="1">  1        1 0.40891076E+00 0.34599639E+04</pdfrwt>
<pdfrwt beam="2">  1       -1 0.17323190E+00 0.34599639E+04</pdfrwt>
<totfact> 0.20034606E-01</totfact>
</mgrwt>
</event>
<event>
 6    1  0.1637818E-005  0.3012196E+04  0.7818608E-02  0.8240257E-01
          1   -1    0    0  501    0  0.00000000000E+00  0.00000000000E+00  0.17703490175E+04  0.17703490175E+04  0.00000000000E+00 0. -1.
         -1   -1    0    0    0  501 -0.00000000000E+00 -0.00000000000E+00 -0.12812907479E+04  0.12812907479E+04  0.00000000000E+00 0.  1.
         23    2    1    2    0    0 -0.78059198139E+03 -0.12714694224E+03  0.15416026403E+04  0.17350761177E+04  0.91979602334E+02 0.  0.
         11    1    3    3    0    0 -0.45187522790E+03 -0.87397620481E+02  0.98939269498E+03  0.10912045961E+04  0.00000000000E+00 0. -1.
        -11    1    3    3    0    0 -0.32871675349E+03 -0.39749321763E+02  0.55220994534E+03  0.64387152161E+03  0.00000000000E+00 0.  1.
         22    1    1    2    0    0  0.78059198139E+03  0.12714694224E+03 -0.10525443707E+04  0.13165636478E+04  0.00000000000E+00 0.  1.
<mgrwt>
<rscale>  0 0.30121964E+04</rscale>
<asrwt>0</asrwt>
<pdfrwt beam="1">  1        1 0.27236139E+00 0.30121964E+04</pdfrwt>
<pdfrwt beam="2">  1       -1 0.19712165E+00 0.30121964E+04</pdfrwt>
<totfact> 0.57174746E-01</totfact>
</mgrwt>
</event>
<event>
 6    1  0.1637818E-005  0.2876979E+04  0.7818608E-02  0.8279760E-01
          1   -1    0    0  501    0  0.00000000000E+00  0.00000000000E+00  0.13610734279E+04  0.13610734279E+04  0.00000000000E+00 0.  1.
         -1   -1    0    0    0  501 -0.00000000000E+00 -0.00000000000E+00 -0.15203094145E+04  0.15203094145E+04  0.00000000000E+00 0. -1.
         23    2    1    2    0    0  0.12827752679E+04 -0.61581469864E+03  0.12113108055E+03  0.14310912085E+04  0.92785653767E+02 0.  0.
         11    1    3    3    0    0  0.36111600727E+03 -0.13328858513E+03  0.12891169593E+02  0.38514516729E+03  0.00000000000E+00 0. -1.
        -11    1    3    3    0    0  0.92165926059E+03 -0.48252611351E+03  0.10823991096E+03  0.10459460412E+04  0.00000000000E+00 0.  1.
         22    1    1    2    0    0 -0.12827752679E+04  0.61581469864E+03 -0.28036706717E+03  0.14502916339E+04  0.00000000000E+00 0. -1.
<mgrwt>
<rscale>  0 0.28769795E+04</rscale>
<asrwt>0</asrwt>
<pdfrwt beam="1">  1        1 0.20939591E+00 0.28769795E+04</pdfrwt>
<pdfrwt beam="2">  1       -1 0.23389376E+00 0.28769795E+04</pdfrwt>
<totfact> 0.62610679E-01</totfact>
</mgrwt>
</event>
<event>
 6    1  0.1637818E-005  0.3675286E+04  0.7818608E-02  0.8073461E-01
          1   -1    0    0  501    0  0.00000000000E+00  0.00000000000E+00  0.26161284499E+04  0.26161284499E+04  0.00000000000E+00 0. -1.
         -1   -1    0    0    0  501 -0.00000000000E+00 -0.00000000000E+00 -0.12908124015E+04  0.12908124015E+04  0.00000000000E+00 0.  1.
         23    2    1    2    0    0  0.43985890171E+03  0.22893340868E+03  0.25428360821E+04  0.25923149002E+04  0.90525367247E+02 0.  0.
         11    1    3    3    0    0  0.14205337405E+03  0.58909179216E+02  0.10058386566E+04  0.10175268329E+04  0.00000000000E+00 0. -1.
        -11    1    3    3    0    0  0.29780552766E+03  0.17002422947E+03  0.15369974255E+04  0.15747880673E+04  0.00000000000E+00 0.  1.
         22    1    1    2    0    0 -0.43985890171E+03 -0.22893340868E+03 -0.12175200338E+04  0.13146259512E+04  0.00000000000E+00 0.  1.
<mgrwt>
<rscale>  0 0.36752856E+04</rscale>
<asrwt>0</asrwt>
<pdfrwt beam="1">  1        1 0.40248130E+00 0.36752856E+04</pdfrwt>
<pdfrwt beam="2">  1       -1 0.19858652E+00 0.36752856E+04</pdfrwt>
<totfact> 0.13910317E-01</totfact>
</mgrwt>
</event>
<event>
 6    1  0.1637818E-005  0.1937647E+04  0.7818608E-02  0.8636341E-01
          2   -1    0    0  501    0  0.00000000000E+00  0.00000000000E+00  0.17681274775E+04  0.17681274775E+04  0.00000000000E+00 0. -1.
         -2   -1    0    0    0  501 -0.00000000000E+00 -0.00000000000E+00 -0.53085493106E+03  0.53085493106E+03  0.00000000000E+00 0.  1.
         23    2    1    2    0    0 -0.78835244872E+03  0.29914402611E+03  0.59578031390E+02  0.85055184323E+03  0.94351282108E+02 0.  0.
         13    1    3    3    0    0 -0.41480132157E+03  0.17406183068E+03  0.76270411507E+02  0.45626180308E+03  0.00000000000E+00 0. -1.
        -13    1    3    3    0    0 -0.37355112715E+03  0.12508219543E+03 -0.16692380117E+02  0.39429004015E+03  0.00000000000E+00 0.  1.
         22    1    1    2    0    0  0.78835244872E+03 -0.29914402611E+03  0.11776945151E+04  0.14484305653E+04  0.00000000000E+00 0.  1.
<mgrwt>
<rscale>  0 0.19376472E+04</rscale>
<asrwt>0</asrwt>
<pdfrwt beam="1">  1        2 0.27201961E+00 0.19376472E+04</pdfrwt>
<pdfrwt beam="2">  1       -2 0.81669990E-01 0.19376472E+04</pdfrwt>
<totfact> 0.11071466E+01</totfact>
</mgrwt>
</event>
<event>
 6    1  0.1637818E-005  0.9408440E+03  0.7818608E-02  0.9375917E-01
         -2   -1    0    0    0  501 -0.00000000000E+00  0.00000000000E+00  0.10184853897E+04  0.10184853897E+04  0.00000000000E+00 0.  1.
          2   -1    0    0  501    0  0.00000000000E+00 -0.00000000000E+00 -0.21728032814E+03  0.21728032814E+03  0.00000000000E+00 0. -1.
         23    2    1    2    0    0 -0.34399877123E+03 -0.82890296987E+02  0.80297173745E+03  0.88191677111E+03  0.88360760991E+02 0.  0.
         13    1    3    3    0    0 -0.22338879362E+03 -0.57405475711E+02  0.41443958482E+03  0.47429749232E+03  0.00000000000E+00 0. -1.
        -13    1    3    3    0    0 -0.12060997761E+03 -0.25484821277E+02  0.38853215263E+03  0.40761927879E+03  0.00000000000E+00 0.  1.
         22    1    1    2    0    0  0.34399877123E+03  0.82890296987E+02 -0.17666759236E+01  0.35384894670E+03  0.00000000000E+00 0. -1.
<mgrwt>
<rscale>  0 0.94084396E+03</rscale>
<asrwt>0</asrwt>
<pdfrwt beam="1">  1        2 0.33427743E-01 0.94084396E+03</pdfrwt>
<pdfrwt beam="2">  1       -2 0.15669006E+00 0.94084396E+03</pdfrwt>
<totfact> 0.42037489E+01</totfact>
</mgrwt>
</event>
<event>
 6    1  0.1678517E-005  0.3324930E+04  0.7818608E-02  0.8156581E-01
         -2   -1    0    0    0  501 -0.00000000000E+00  0.00000000000E+00  0.14703503194E+04  0.14703503194E+04  0.00000000000E+00 0.  1.
          2   -1    0    0  501    0  0.00000000000E+00 -0.00000000000E+00 -0.18796807248E+04  0.18796807248E+04  0.00000000000E+00 0. -1.
         23    2    1    2    0    0  0.46139195078E+03 -0.73347334767E+03 -0.16328714679E+04  0.18507250662E+04  0.89712629559E+02 0.  0.
         13    1    3    3    0    0  0.86899111076E+02 -0.15574581683E+03 -0.41533459064E+03  0.45200778439E+03  0.00000000000E+00 0. -1.
        -13    1    3    3    0    0  0.37449283970E+03 -0.57772753084E+03 -0.12175368772E+04  0.13987172818E+04  0.00000000000E+00 0.  1.
         22    1    1    2    0    0 -0.46139195078E+03  0.73347334767E+03  0.12235410625E+04  0.14993059780E+04  0.00000000000E+00 0.  1.
<mgrwt>
<rscale>  0 0.33249296E+04</rscale>
<asrwt>0</asrwt>
<pdfrwt beam="1">  1        2 0.28918165E+00 0.33249296E+04</pdfrwt>
<pdfrwt beam="2">  1       -2 0.22620774E+00 0.33249296E+04</pdfrwt>
<totfact> 0.58668831E-01</totfact>
</mgrwt>
</event>
<event>
 6    1  0.1637818E-005  0.2130586E+04  0.7818608E-02  0.8547888E-01
          1   -1    0    0  501    0  0.00000000000E+00  0.00000000000E+00  0.29602461299E+04  0.29602461299E+04  0.00000000000E+00 0. -1.
         -1   -1    0    0    0  501 -0.00000000000E+00 -0.00000000000E+00 -0.38336327727E+03  0.38336327727E+03  0.00000000000E+00 0.  1.
         23    2    1    2    0    0  0.47674303709E+03 -0.94323965761E+03  0.11071745989E+04  0.15333532579E+04  0.91387339529E+02 0.  0.
         13    1    3    3    0    0  0.30507153026E+03 -0.64580620759E+03  0.69110713312E+03  0.99386285059E+03  0.00000000000E+00 0. -1.
        -13    1    3    3    0    0  0.17167150684E+03 -0.29743345001E+03  0.41606746580E+03  0.53949040727E+03  0.00000000000E+00 0.  1.
         22    1    1    2    0    0 -0.47674303709E+03  0.94323965761E+03  0.14697082538E+04  0.18102561494E+04  0.00000000000E+00 0.  1.
<mgrwt>
<rscale>  0 0.21305865E+04</rscale>
<asrwt>0</asrwt>
<pdfrwt beam="1">  1        1 0.45542247E+00 0.21305865E+04</pdfrwt>
<pdfrwt beam="2">  1       -1 0.58978968E-01 0.21305865E+04</pdfrwt>
<totfact> 0.17096669E+00</totfact>
</mgrwt>
</event>
<event>
 6    1  0.1637818E-005  0.1372261E+04  0.7818608E-02  0.8974146E-01
         -1   -1    0    0    0  501 -0.00000000000E+00  0.00000000000E+00  0.16114528705E+03  0.16114528705E+03  0.00000000000E+00 0. -1.
          1   -1    0    0  501    0  0.00000000000E+00 -0.00000000000E+00 -0.29214321630E+04  0.29214321630E+04  0.00000000000E+00 0.  1.
         23    2    1    2    0    0  0.59508510965E+03 -0.33495141033E+03 -0.13481366860E+04  0.15139835275E+04  0.91404935840E+02 0.  0.
         13    1    3    3    0    0  0.55528249045E+03 -0.31303823578E+03 -0.12995184424E+04  0.14474390361E+04  0.00000000000E+00 0.  1.
        -13    1    3    3    0    0  0.39802619197E+02 -0.21913174549E+02 -0.48618243655E+02  0.66544491356E+02  0.00000000000E+00 0. -1.
         22    1    1    2    0    0 -0.59508510965E+03  0.33495141033E+03 -0.14121501899E+04  0.15685939225E+04  0.00000000000E+00 0. -1.
<mgrwt>
<rscale>  0 0.13722609E+04</rscale>
<asrwt>0</asrwt>
<pdfrwt beam="1">  1        1 0.44945111E+00 0.13722609E+04</pdfrwt>
<pdfrwt beam="2">  1       -1 0.24791582E-01 0.13722609E+04</pdfrwt>
<totfact> 0.95385538E+00</totfact>
</mgrwt>
</event>
<event>
 6    1  0.1637818E-005  0.3527035E+04  0.7818608E-02  0.8107413E-01
          2   -1    0    0  501    0  0.00000000000E+00  0.00000000000E+00  0.22271933013E+04  0.22271933013E+04  0.00000000000E+00 0.  1.
         -2   -1    0    0    0  501 -0.00000000000E+00 -0.00000000000E+00 -0.13963739391E+04  0.13963739391E+04  0.00000000000E+00 0. -1.
         23    2    1    2    0    0  0.17567761444E+04 -0.29612691028E+02  0.27564413287E+03  0.17809172822E+04  0.92451852950E+02 0.  0.
         11    1    3    3    0    0  0.98825811166E+03  0.98257292295E+01  0.19285119602E+03  0.10069469817E+04  0.00000000000E+00 0.  1.
        -11    1    3    3    0    0  0.76851803276E+03 -0.39438420257E+02  0.82792936853E+02  0.77397030051E+03  0.00000000000E+00 0. -1.
         22    1    1    2    0    0 -0.17567761444E+04  0.29612691028E+02  0.55517522935E+03  0.18426499582E+04  0.00000000000E+00 0. -1.
<mgrwt>
<rscale>  0 0.35270354E+04</rscale>
<asrwt>0</asrwt>
<pdfrwt beam="1">  1        2 0.34264512E+00 0.35270354E+04</pdfrwt>
<pdfrwt beam="2">  1       -2 0.21482676E+00 0.35270354E+04</pdfrwt>
<totfact> 0.43578073E-01</totfact>
</mgrwt>
</event>
<event>
 6    1  0.1637818E-005  0.1609795E+04  0.7818608E-02  0.8814553E-01
         -1   -1    0    0    0  501 -0.00000000000E+00  0.00000000000E+00  0.81047591309E+03  0.81047591309E+03  0.00000000000E+00 0.  1.
          1   -1    0    0  501    0  0.00000000000E+00 -0.00000000000E+00 -0.79935741670E+03  0.79935741670E+03  0.00000000000E+00 0. -1.
         23    2    1    2    0    0 -0.13790266651E+03 -0.76203101816E+03 -0.20415356764E+03  0.80606067560E+03  0.91360360639E+02 0.  0.
         13    1    3    3    0    0 -0.28637914976E+02 -0.37190609563E+03 -0.12393905244E+03  0.39305872699E+03  0.00000000000E+00 0. -1.
        -13    1    3    3    0    0 -0.10926475154E+03 -0.39012492253E+03 -0.80214515198E+02  0.41300194861E+03  0.00000000000E+00 0.  1.
         22    1    1    2    0    0  0.13790266651E+03  0.76203101816E+03  0.21527206402E+03  0.80377265419E+03  0.00000000000E+00 0.  1.
<mgrwt>
<rscale>  0 0.16097949E+04</rscale>
<asrwt>0</asrwt>
<pdfrwt beam="1">  1        1 0.12297806E+00 0.16097949E+04</pdfrwt>
<pdfrwt beam="2">  1       -1 0.12468860E+00 0.16097949E+04</pdfrwt>
<totfact> 0.11955111E+01</totfact>
</mgrwt>
</event>
<event>
 6    1  0.1637818E-005  0.4065613E+04  0.7818608E-02  0.7991440E-01
         -2   -1    0    0    0  501 -0.00000000000E+00  0.00000000000E+00  0.15360439560E+04  0.15360439560E+04  0.00000000000E+00 0.  1.
          2   -1    0    0  501    0  0.00000000000E+00 -0.00000000000E+00 -0.26902242770E+04  0.26902242770E+04  0.00000000000E+00 0. -1.
         23    2    1    2    0    0 -0.70027697136E+03  0.63388004257E+02  0.14040711799E+04  0.15731461819E+04  0.94695066142E+02 0.  0.
         11    1    3    3    0    0 -0.49990163865E+03  0.93674435902E+01  0.93726741310E+03  0.10622897914E+04  0.00000000000E+00 0.  1.
        -11    1    3    3    0    0 -0.20037533271E+03  0.54020560667E+02  0.46680376682E+03  0.51085639044E+03  0.00000000000E+00 0. -1.
         22    1    1    2    0    0  0.70027697136E+03 -0.63388004257E+02 -0.25582515009E+04  0.26531220510E+04  0.00000000000E+00 0. -1.
<mgrwt>
<rscale>  0 0.40656132E+04</rscale>
<asrwt>0</asrwt>
<pdfrwt beam="1">  1        2 0.41388065E+00 0.40656132E+04</pdfrwt>
<pdfrwt beam="2">  1       -2 0.23631446E+00 0.40656132E+04</pdfrwt>
<totfact> 0.16488347E-01</totfact>
</mgrwt>
</event>
<event>
 6    1  0.1637818E-005  0.1423960E+04  0.7818608E-02  0.8936655E-01
          2   -1    0    0  501    0  0.00000000000E+00  0.00000000000E+00  0.86940275277E+03  0.86940275277E+03  0.00000000000E+00 0. -1.
         -2   -1    0    0    0  501 -0.00000000000E+00 -0.00000000000E+00 -0.58306182725E+03  0.58306182725E+03  0.00000000000E+00 0.  1.
         23    2    1    2    0    0  0.30463502613E+03  0.28558649698E+03 -0.44040512401E+03  0.61429874504E+03  0.95100623021E+02 0.  0.
         11    1    3    3    0    0  0.96768315676E+02  0.15163354167E+03 -0.20726043810E+03  0.27443346567E+03  0.00000000000E+00 0.  1.
        -11    1    3    3    0    0  0.20786671046E+03  0.13395295531E+03 -0.23314468591E+03  0.33986527937E+03  0.00000000000E+00 0. -1.
         22    1    1    2    0    0 -0.30463502613E+03 -0.28558649698E+03  0.72674604953E+03  0.83816583497E+03  0.00000000000E+00 0. -1.
<mgrwt>
<rscale>  0 0.14239601E+04</rscale>
<asrwt>0</asrwt>
<pdfrwt beam="1">  1        2 0.13375427E+00 0.14239601E+04</pdfrwt>
<pdfrwt beam="2">  1       -2 0.89701820E-01 0.14239601E+04</pdfrwt>
<totfact> 0.31846841E+01</totfact>
</mgrwt>
</event>
<event>
 6    1  0.1637818E-005  0.6084724E+04  0.7818608E-02  0.7679985E-01
          1   -1    0    0  501    0  0.00000000000E+00  0.00000000000E+00  0.26239908195E+04  0.26239908195E+04  0.00000000000E+00 0. -1.
         -1   -1    0    0    0  501 -0.00000000000E+00 -0.00000000000E+00 -0.35274383036E+04  0.35274383036E+04  0.00000000000E+00 0.  1.
         23    2    1    2    0    0  0.20976462043E+04  0.14934091626E+04 -0.20887028079E+04  0.33167826358E+04  0.89314656682E+02 0.  0.
         11    1    3    3    0    0  0.11407978663E+04  0.78031327622E+03 -0.11674304248E+04  0.18091993747E+04  0.00000000000E+00 0.  1.
        -11    1    3    3    0    0  0.95684833802E+03  0.71309588634E+03 -0.92127238312E+03  0.15075832610E+04  0.00000000000E+00 0. -1.
         22    1    1    2    0    0 -0.20976462043E+04 -0.14934091626E+04  0.11852553238E+04  0.28346464873E+04  0.00000000000E+00 0. -1.
<mgrwt>
<rscale>  0 0.60847237E+04</rscale>
<asrwt>0</asrwt>
<pdfrwt beam="1">  1        1 0.40369090E+00 0.60847237E+04</pdfrwt>
<pdfrwt beam="2">  1       -1 0.54268281E+00 0.60847237E+04</pdfrwt>
<totfact> 0.61667232E-04</totfact>
</mgrwt>
</event>
<event>
 6    1  0.1637818E-005  0.2880933E+04  0.7818608E-02  0.8278573E-01
          1   -1    0    0  501    0  0.00000000000E+00  0.00000000000E+00  0.15769674942E+04  0.15769674942E+04  0.00000000000E+00 0. -1.
         -1   -1    0    0    0  501 -0.00000000000E+00 -0.00000000000E+00 -0.13157805490E+04  0.13157805490E+04  0.00000000000E+00 0.  1.
         23    2    1    2    0    0 -0.90541605943E+02  0.10081670880E+04  0.11577558708E+04  0.15405518674E+04  0.91119372993E+02 0.  0.
         11    1    3    3    0    0 -0.10284295955E+03  0.87039322817E+03  0.96945234541E+03  0.13069043178E+04  0.00000000000E+00 0.  1.
        -11    1    3    3    0    0  0.12301353608E+02  0.13777385979E+03  0.18830352537E+03  0.23364754955E+03  0.00000000000E+00 0. -1.
         22    1    1    2    0    0  0.90541605943E+02 -0.10081670880E+04 -0.89656892553E+03  0.13521961758E+04  0.00000000000E+00 0.  1.
<mgrwt>
<rscale>  0 0.28809326E+04</rscale>
<asrwt>0</asrwt>
<pdfrwt beam="1">  1        1 0.24261038E+00 0.28809326E+04</pdfrwt>
<pdfrwt beam="2">  1       -1 0.20242778E+00 0.28809326E+04</pdfrwt>
<totfact> 0.72062836E-01</totfact>
</mgrwt>
</event>
<event>
 6    1  0.1637818E-005  0.7068871E+03  0.7818608E-02  0.9705526E-01
         -4   -1    0    0    0  501 -0.00000000000E+00  0.00000000000E+00  0.23152907935E+03  0.23152907935E+03  0.00000000000E+00 0. -1.
          4   -1    0    0  501    0  0.00000000000E+00 -0.00000000000E+00 -0.53955356858E+03  0.53955356858E+03  0.00000000000E+00 0.  1.
         23    2    1    2    0    0 -0.68433425532E+01  0.30505274773E+03 -0.33748711353E+03  0.46453402787E+03  0.93756605153E+02 0.  0.
         13    1    3    3    0    0  0.22695862330E+02  0.20915418333E+02 -0.53255099407E+02  0.61552112098E+02  0.00000000000E+00 0.  1.
        -13    1    3    3    0    0 -0.29539204883E+02  0.28413732939E+03 -0.28423201413E+03  0.40298191577E+03  0.00000000000E+00 0. -1.
         22    1    1    2    0    0  0.68433425532E+01 -0.30505274773E+03  0.29462624312E+02  0.30654862007E+03  0.00000000000E+00 0. -1.
<mgrwt>
<rscale>  0 0.70688709E+03</rscale>
<asrwt>0</asrwt>
<pdfrwt beam="1">  1        4 0.83008240E-01 0.70688709E+03</pdfrwt>
<pdfrwt beam="2">  1       -4 0.35619859E-01 0.70688709E+03</pdfrwt>
<totfact> 0.19461580E+01</totfact>
</mgrwt>
</event>
<event>
 6    1  0.1637818E-005  0.1647290E+04  0.7818608E-02  0.8792011E-01
          1   -1    0    0  501    0  0.00000000000E+00  0.00000000000E+00  0.26076529345E+04  0.26076529345E+04  0.00000000000E+00 0. -1.
         -1   -1    0    0    0  501 -0.00000000000E+00 -0.00000000000E+00 -0.26015389723E+03  0.26015389723E+03  0.00000000000E+00 0.  1.
         23    2    1    2    0    0 -0.15636477329E+03  0.53026085747E+03  0.11950411153E+03  0.57224853178E+03  0.86951884179E+02 0.  0.
         13    1    3    3    0    0 -0.21553552508E+02  0.21057882745E+03  0.61988011233E+02  0.22056861003E+03  0.00000000000E+00 0. -1.
        -13    1    3    3    0    0 -0.13481122078E+03  0.31968203002E+03  0.57516100295E+02  0.35167992175E+03  0.00000000000E+00 0.  1.
         22    1    1    2    0    0  0.15636477329E+03 -0.53026085747E+03  0.22279949257E+04  0.22955582999E+04  0.00000000000E+00 0. -1.
<mgrwt>
<rscale>  0 0.16472900E+04</rscale>
<asrwt>0</asrwt>
<pdfrwt beam="1">  1        1 0.40117736E+00 0.16472900E+04</pdfrwt>
<pdfrwt beam="2">  1       -1 0.40023678E-01 0.16472900E+04</pdfrwt>
<totfact> 0.66427276E+00</totfact>
</mgrwt>
</event>
<event>
 6    1  0.1637818E-005  0.1148587E+04  0.7818608E-02  0.9159088E-01
          2   -1    0    0  501    0  0.00000000000E+00  0.00000000000E+00  0.30629738399E+04  0.30629738399E+04  0.00000000000E+00 0. -1.
         -2   -1    0    0    0  501 -0.00000000000E+00 -0.00000000000E+00 -0.10767739218E+03  0.10767739218E+03  0.00000000000E+00 0.  1.
         23    2    1    2    0    0  0.19786573178E+03  0.37485294923E+03  0.43127238548E+03  0.61128352733E+03  0.89476806788E+02 0.  0.
         11    1    3    3    0    0  0.10990673731E+03  0.15336610925E+03  0.14003377301E+03  0.23496832118E+03  0.00000000000E+00 0. -1.
        -11    1    3    3    0    0  0.87958994466E+02  0.22148683998E+03  0.29123861247E+03  0.37631520616E+03  0.00000000000E+00 0.  1.
         22    1    1    2    0    0 -0.19786573178E+03 -0.37485294923E+03  0.25240240622E+04  0.25593677048E+04  0.00000000000E+00 0. -1.
<mgrwt>
<rscale>  0 0.11485870E+04</rscale>
<asrwt>0</asrwt>
<pdfrwt beam="1">  1        2 0.47122668E+00 0.11485870E+04</pdfrwt>
<pdfrwt beam="2">  1       -2 0.16565755E-01 0.11485870E+04</pdfrwt>
<totfact> 0.47476924E+01</totfact>
</mgrwt>
</event>
<event>
 6    1  0.1637818E-005  0.1778146E+04  0.7818608E-02  0.8718008E-01
         -4   -1    0    0    0  501 -0.00000000000E+00  0.00000000000E+00  0.92292606587E+03  0.92292606587E+03  0.00000000000E+00 0.  1.
          4   -1    0    0  501    0  0.00000000000E+00 -0.00000000000E+00 -0.85646153277E+03  0.85646153277E+03  0.00000000000E+00 0. -1.
         23    2    1    2    0    0 -0.47250676178E+03  0.21993191871E+02 -0.71717482276E+03  0.86405324416E+03  0.92205975569E+02 0.  0.
         13    1    3    3    0    0 -0.35064018235E+03 -0.17741774467E+02 -0.56366307554E+03  0.66406277622E+03  0.00000000000E+00 0. -1.
        -13    1    3    3    0    0 -0.12186657943E+03  0.39734966338E+02 -0.15351174722E+03  0.19999046794E+03  0.00000000000E+00 0.  1.
         22    1    1    2    0    0  0.47250676178E+03 -0.21993191871E+02  0.78363935587E+03  0.91533435447E+03  0.00000000000E+00 0.  1.
<mgrwt>
<rscale>  0 0.17781459E+04</rscale>
<asrwt>0</asrwt>
<pdfrwt beam="1">  1        4 0.13176331E+00 0.17781459E+04</pdfrwt>
<pdfrwt beam="2">  1       -4 0.14198863E+00 0.17781459E+04</pdfrwt>
<totfact> 0.27241304E-01</totfact>
</mgrwt>
</event>
<event>
 6    1  0.1637818E-005  0.1530083E+04  0.7818608E-02  0.8864691E-01
          2   -1    0    0  501    0  0.00000000000E+00  0.00000000000E+00  0.62985209029E+03  0.62985209029E+03  0.00000000000E+00 0. -1.
         -2   -1    0    0    0  501 -0.00000000000E+00 -0.00000000000E+00 -0.92924706130E+03  0.92924706130E+03  0.00000000000E+00 0.  1.
         23    2    1    2    0    0 -0.24424216334E+03  0.10937232084E+03  0.57738834384E+03  0.64238462671E+03  0.87545246087E+02 0.  0.
         13    1    3    3    0    0 -0.48654596752E+02 -0.71835240037E+01  0.15394192265E+03  0.16160751329E+03  0.00000000000E+00 0.  1.
        -13    1    3    3    0    0 -0.19558756659E+03  0.11655584484E+03  0.42344642119E+03  0.48077711342E+03  0.00000000000E+00 0. -1.
         22    1    1    2    0    0  0.24424216334E+03 -0.10937232084E+03 -0.87678331485E+03  0.91671452487E+03  0.00000000000E+00 0.  1.
<mgrwt>
<rscale>  0 0.15300826E+04</rscale>
<asrwt>0</asrwt>
<pdfrwt beam="1">  1        2 0.96900322E-01 0.15300826E+04</pdfrwt>
<pdfrwt beam="2">  1       -2 0.14296109E+00 0.15300826E+04</pdfrwt>
<totfact> 0.15315283E+01</totfact>
</mgrwt>
</event>
<event>
 6    1  0.1637818E-005  0.6311374E+04  0.7818608E-02  0.7652950E-01
          1   -1    0    0  501    0  0.00000000000E+00  0.00000000000E+00  0.19404680062E+04  0.19404680062E+04  0.00000000000E+00 0. -1.
         -1   -1    0    0    0  501 -0.00000000000E+00 -0.00000000000E+00 -0.51319374412E+04  0.51319374412E+04  0.00000000000E+00 0.  1.
         23    2    1    2    0    0  0.18610875979E+04 -0.25471836497E+04 -0.16537807524E+04  0.35629499231E+04  0.88486073174E+02 0.  0.
         13    1    3    3    0    0  0.69869386280E+03 -0.89830119407E+03 -0.56804173754E+03  0.12719235688E+04  0.00000000000E+00 0.  1.
        -13    1    3    3    0    0  0.11623937351E+04 -0.16488824556E+04 -0.10857390148E+04  0.22910263543E+04  0.00000000000E+00 0. -1.
         22    1    1    2    0    0 -0.18610875979E+04  0.25471836497E+04 -0.15376886826E+04  0.35094555243E+04  0.00000000000E+00 0.  1.
<mgrwt>
<rscale>  0 0.63113740E+04</rscale>
<asrwt>0</asrwt>
<pdfrwt beam="1">  1        1 0.29853354E+00 0.63113740E+04</pdfrwt>
<pdfrwt beam="2">  1       -1 0.78952883E+00 0.63113740E+04</pdfrwt>
<totfact> 0.17375906E-04</totfact>
</mgrwt>
</event>
<event>
 6    1  0.1637818E-005  0.2649714E+04  0.7818608E-02  0.8351508E-01
          2   -1    0    0  501    0  0.00000000000E+00  0.00000000000E+00  0.22848273143E+04  0.22848273143E+04  0.00000000000E+00 0. -1.
         -2   -1    0    0    0  501 -0.00000000000E+00 -0.00000000000E+00 -0.76821826681E+03  0.76821826681E+03  0.00000000000E+00 0.  1.
         23    2    1    2    0    0  0.53516865897E+03  0.11067597872E+04  0.13236121489E+04  0.18086298456E+04  0.88713456280E+02 0.  0.
         11    1    3    3    0    0  0.34275602953E+03  0.71350010153E+03  0.78897770764E+03  0.11176090165E+04  0.00000000000E+00 0.  1.
        -11    1    3    3    0    0  0.19241262944E+03  0.39325968568E+03  0.53463444128E+03  0.69102082903E+03  0.00000000000E+00 0. -1.
         22    1    1    2    0    0 -0.53516865897E+03 -0.11067597872E+04  0.19299689860E+03  0.12444157356E+04  0.00000000000E+00 0.  1.
<mgrwt>
<rscale>  0 0.26497140E+04</rscale>
<asrwt>0</asrwt>
<pdfrwt beam="1">  1        2 0.35151189E+00 0.26497140E+04</pdfrwt>
<pdfrwt beam="2">  1       -2 0.11818743E+00 0.26497140E+04</pdfrwt>
<totfact> 0.22461363E+00</totfact>
</mgrwt>
</event>
<event>
 6    1  0.1637818E-005  0.8639087E+03  0.7818608E-02  0.9471857E-01
         -2   -1    0    0    0  501 -0.00000000000E+00  0.00000000000E+00  0.12756993577E+03  0.12756993577E+03  0.00000000000E+00 0.  1.
          2   -1    0    0  501    0  0.00000000000E+00 -0.00000000000E+00 -0.14626059432E+04  0.14626059432E+04  0.00000000000E+00 0. -1.
         23    2    1    2    0    0  0.16434309321E+03 -0.39016529999E+03 -0.57311607207E+03  0.71853397916E+03  0.92689986226E+02 0.  0.
         13    1    3    3    0    0  0.12712631786E+03 -0.20176174950E+03 -0.35813653492E+03  0.43026815115E+03  0.00000000000E+00 0.  1.
        -13    1    3    3    0    0  0.37216775356E+02 -0.18840355049E+03 -0.21497953715E+03  0.28826582801E+03  0.00000000000E+00 0. -1.
         22    1    1    2    0    0 -0.16434309321E+03  0.39016529999E+03 -0.76191993540E+03  0.87164189985E+03  0.00000000000E+00 0. -1.
<mgrwt>
<rscale>  0 0.86390867E+03</rscale>
<asrwt>0</asrwt>
<pdfrwt beam="1">  1        2 0.22501630E+00 0.86390867E+03</pdfrwt>
<pdfrwt beam="2">  1       -2 0.19626144E-01 0.86390867E+03</pdfrwt>
<totfact> 0.29568160E+02</totfact>
</mgrwt>
</event>
<event>
 6    1  0.1637818E-005  0.3176846E+04  0.7818608E-02  0.8194959E-01
         -1   -1    0    0    0  501 -0.00000000000E+00  0.00000000000E+00  0.10483465600E+04  0.10483465600E+04  0.00000000000E+00 0.  1.
          1   -1    0    0  501    0  0.00000000000E+00 -0.00000000000E+00 -0.24067297699E+04  0.24067297699E+04  0.00000000000E+00 0. -1.
         23    2    1    2    0    0 -0.14385206884E+04 -0.57064260037E+03 -0.10623546676E+04  0.18794470442E+04  0.93536109877E+02 0.  0.
         11    1    3    3    0    0 -0.64893433027E+03 -0.29057074751E+03 -0.44539151305E+03  0.83899983564E+03  0.00000000000E+00 0.  1.
        -11    1    3    3    0    0 -0.78958635810E+03 -0.28007185286E+03 -0.61696315459E+03  0.10404472085E+04  0.00000000000E+00 0. -1.
         22    1    1    2    0    0  0.14385206884E+04  0.57064260037E+03 -0.29602854224E+03  0.15756292857E+04  0.00000000000E+00 0.  1.
<mgrwt>
<rscale>  0 0.31768455E+04</rscale>
<asrwt>0</asrwt>
<pdfrwt beam="1">  1        1 0.37026611E+00 0.31768455E+04</pdfrwt>
<pdfrwt beam="2">  1       -1 0.16128409E+00 0.31768455E+04</pdfrwt>
<totfact> 0.37645792E-01</totfact>
</mgrwt>
</event>
<event>
 6    1  0.1637818E-005  0.3070289E+04  0.7818608E-02  0.8223940E-01
         -2   -1    0    0    0  501 -0.00000000000E+00  0.00000000000E+00  0.62189156143E+03  0.62189156143E+03  0.00000000000E+00 0.  1.
          2   -1    0    0  501    0  0.00000000000E+00 -0.00000000000E+00 -0.37895160221E+04  0.37895160221E+04  0.00000000000E+00 0. -1.
         23    2    1    2    0    0  0.12016161551E+04  0.63343794712E+02 -0.29517487288E+04  0.31889117135E+04  0.91888724647E+02 0.  0.
         11    1    3    3    0    0  0.95818284152E+03  0.87339508588E+02 -0.23460598033E+04  0.25356930312E+04  0.00000000000E+00 0. -1.
        -11    1    3    3    0    0  0.24343331361E+03 -0.23995713876E+02 -0.60568892551E+03  0.65321868233E+03  0.00000000000E+00 0.  1.
         22    1    1    2    0    0 -0.12016161551E+04 -0.63343794712E+02 -0.21587573181E+03  0.12224958700E+04  0.00000000000E+00 0.  1.
<mgrwt>
<rscale>  0 0.30702886E+04</rscale>
<asrwt>0</asrwt>
<pdfrwt beam="1">  1        2 0.58300247E+00 0.30702886E+04</pdfrwt>
<pdfrwt beam="2">  1       -2 0.95675625E-01 0.30702886E+04</pdfrwt>
<totfact> 0.38985365E-01</totfact>
</mgrwt>
</event>
<event>
 6    1  0.1637818E-005  0.3611673E+04  0.7818608E-02  0.8087823E-01
          1   -1    0    0  501    0  0.00000000000E+00  0.00000000000E+00  0.25567328272E+04  0.25567328272E+04  0.00000000000E+00 0. -1.
         -1   -1    0    0    0  501 -0.00000000000E+00 -0.00000000000E+00 -0.12754738494E+04  0.12754738494E+04  0.00000000000E+00 0.  1.
         23    2    1    2    0    0  0.85399581119E+03 -0.10633803977E+04  0.18949839171E+04  0.23366315308E+04  0.93787785032E+02 0.  0.
         11    1    3    3    0    0  0.21634878298E+03 -0.21698532748E+03  0.46210828918E+03  0.55446686030E+03  0.00000000000E+00 0.  1.
        -11    1    3    3    0    0  0.63764702821E+03 -0.84639507020E+03  0.14328756280E+04  0.17821646705E+04  0.00000000000E+00 0. -1.
         22    1    1    2    0    0 -0.85399581119E+03  0.10633803977E+04 -0.61372493927E+03  0.14955751458E+04  0.00000000000E+00 0.  1.
<mgrwt>
<rscale>  0 0.36116732E+04</rscale>
<asrwt>0</asrwt>
<pdfrwt beam="1">  1        1 0.39334351E+00 0.36116732E+04</pdfrwt>
<pdfrwt beam="2">  1       -1 0.19622675E+00 0.36116732E+04</pdfrwt>
<totfact> 0.15979219E-01</totfact>
</mgrwt>
</event>
<event>
 6    1  0.1637818E-005  0.1863863E+04  0.7818608E-02  0.8673056E-01
          2   -1    0    0  501    0  0.00000000000E+00  0.00000000000E+00  0.10781348318E+04  0.10781348318E+04  0.00000000000E+00 0. -1.
         -2   -1    0    0    0  501 -0.00000000000E+00 -0.00000000000E+00 -0.80555475069E+03  0.80555475069E+03  0.00000000000E+00 0.  1.
         23    2    1    2    0    0  0.15816519110E+03  0.86650256077E+03 -0.16395921921E+03  0.90062830455E+03  0.91683160363E+02 0.  0.
         11    1    3    3    0    0  0.37176049346E+02  0.36542870966E+03 -0.33097502505E+02  0.36880298963E+03  0.00000000000E+00 0. -1.
        -11    1    3    3    0    0  0.12098914176E+03  0.50107385111E+03 -0.13086171670E+03  0.53182531492E+03  0.00000000000E+00 0.  1.
         22    1    1    2    0    0 -0.15816519110E+03 -0.86650256077E+03  0.43653930033E+03  0.98306127796E+03  0.00000000000E+00 0. -1.
<mgrwt>
<rscale>  0 0.18638633E+04</rscale>
<asrwt>0</asrwt>
<pdfrwt beam="1">  1        2 0.16586690E+00 0.18638633E+04</pdfrwt>
<pdfrwt beam="2">  1       -2 0.12393150E+00 0.18638633E+04</pdfrwt>
<totfact> 0.10344451E+01</totfact>
</mgrwt>
</event>
<event>
 6    1  0.1637818E-005  0.4730572E+04  0.7818608E-02  0.7871469E-01
         -2   -1    0    0    0  501 -0.00000000000E+00  0.00000000000E+00  0.37943042246E+04  0.37943042246E+04  0.00000000000E+00 0.  1.
          2   -1    0    0  501    0  0.00000000000E+00 -0.00000000000E+00 -0.14744673758E+04  0.14744673758E+04  0.00000000000E+00 0. -1.
         23    2    1    2    0    0 -0.31938101990E+03 -0.21378166160E+04  0.93157526890E+02  0.21654886738E+04  0.91644704480E+02 0.  0.
         13    1    3    3    0    0 -0.92770444038E+02 -0.87204511940E+03  0.63263220378E+02  0.87924472168E+03  0.00000000000E+00 0.  1.
        -13    1    3    3    0    0 -0.22661057586E+03 -0.12657714966E+04  0.29894306512E+02  0.12862439521E+04  0.00000000000E+00 0. -1.
         22    1    1    2    0    0  0.31938101990E+03  0.21378166160E+04  0.22266793219E+04  0.31032829266E+04  0.00000000000E+00 0.  1.
<mgrwt>
<rscale>  0 0.47305720E+04</rscale>
<asrwt>0</asrwt>
<pdfrwt beam="1">  1        2 0.22684114E+00 0.47305720E+04</pdfrwt>
<pdfrwt beam="2">  1       -2 0.58373911E+00 0.47305720E+04</pdfrwt>
<totfact> 0.58231860E-03</totfact>
</mgrwt>
</event>
<event>
 6    1  0.1637818E-005  0.2591140E+04  0.7818608E-02  0.8371217E-01
         -2   -1    0    0    0  501 -0.00000000000E+00  0.00000000000E+00  0.97146936355E+03  0.97146936355E+03  0.00000000000E+00 0.  1.
          2   -1    0    0  501    0  0.00000000000E+00 -0.00000000000E+00 -0.17277970594E+04  0.17277970594E+04  0.00000000000E+00 0. -1.
         23    2    1    2    0    0  0.10076798722E+04  0.48241959682E+03  0.30145581872E+03  0.11607433142E+04  0.91115523529E+02 0.  0.
         13    1    3    3    0    0  0.20969390873E+03  0.63109249513E+02  0.45455853318E+02  0.22365273827E+03  0.00000000000E+00 0.  1.
        -13    1    3    3    0    0  0.79798596350E+03  0.41931034731E+03  0.25599996541E+03  0.93709057598E+03  0.00000000000E+00 0. -1.
         22    1    1    2    0    0 -0.10076798722E+04 -0.48241959682E+03 -0.10577835145E+04  0.15385231087E+04  0.00000000000E+00 0. -1.
<mgrwt>
<rscale>  0 0.25911402E+04</rscale>
<asrwt>0</asrwt>
<pdfrwt beam="1">  1        2 0.26581493E+00 0.25911402E+04</pdfrwt>
<pdfrwt beam="2">  1       -2 0.14945683E+00 0.25911402E+04</pdfrwt>
<totfact> 0.25346867E+00</totfact>
</mgrwt>
</event>
<event>
 6    1  0.1637818E-005  0.2548579E+04  0.7818608E-02  0.8385881E-01
          1   -1    0    0  501    0  0.00000000000E+00  0.00000000000E+00  0.10721483172E+04  0.10721483172E+04  0.00000000000E+00 0. -1.
         -1   -1    0    0    0  501 -0.00000000000E+00 -0.00000000000E+00 -0.15145418186E+04  0.15145418186E+04  0.00000000000E+00 0.  1.
         23    2    1    2    0    0  0.51637824425E+03  0.80620304066E+03 -0.10721887579E+04  0.14407181034E+04  0.97314372101E+02 0.  0.
         11    1    3    3    0    0  0.12947399073E+03  0.28404149289E+03 -0.33148249966E+03  0.45532815808E+03  0.00000000000E+00 0.  1.
        -11    1    3    3    0    0  0.38690425352E+03  0.52216154777E+03 -0.74070625820E+03  0.98538994530E+03  0.00000000000E+00 0. -1.
         22    1    1    2    0    0 -0.51637824425E+03 -0.80620304066E+03  0.62979525652E+03  0.11459720324E+04  0.00000000000E+00 0. -1.
<mgrwt>
<rscale>  0 0.25485788E+04</rscale>
<asrwt>0</asrwt>
<pdfrwt beam="1">  1        1 0.16494590E+00 0.25485788E+04</pdfrwt>
<pdfrwt beam="2">  1       -1 0.23300643E+00 0.25485788E+04</pdfrwt>
<totfact> 0.10615958E+00</totfact>
</mgrwt>
</event>
<event>
 6    1  0.1637818E-005  0.8260628E+03  0.7818608E-02  0.9523040E-01
          2   -1    0    0  501    0  0.00000000000E+00  0.00000000000E+00  0.22982268713E+03  0.22982268713E+03  0.00000000000E+00 0. -1.
         -2   -1    0    0    0  501 -0.00000000000E+00 -0.00000000000E+00 -0.74228943585E+03  0.74228943585E+03  0.00000000000E+00 0.  1.
         23    2    1    2    0    0 -0.18688579385E+03 -0.36030542656E+03 -0.20848520765E+03  0.46501146467E+03  0.89572764360E+02 0.  0.
         13    1    3    3    0    0 -0.60006567059E+02 -0.16994154976E+03 -0.51095455333E+02  0.18732769144E+03  0.00000000000E+00 0.  1.
        -13    1    3    3    0    0 -0.12687922679E+03 -0.19036387680E+03 -0.15738975231E+03  0.27768377323E+03  0.00000000000E+00 0. -1.
         22    1    1    2    0    0  0.18688579385E+03  0.36030542656E+03 -0.30398154107E+03  0.50710065831E+03  0.00000000000E+00 0.  1.
<mgrwt>
<rscale>  0 0.82606284E+03</rscale>
<asrwt>0</asrwt>
<pdfrwt beam="1">  1        2 0.35357336E-01 0.82606284E+03</pdfrwt>
<pdfrwt beam="2">  1       -2 0.11419838E+00 0.82606284E+03</pdfrwt>
<totfact> 0.89247167E+01</totfact>
</mgrwt>
</event>
<event>
 6    1  0.2732081E-005  0.2792413E+04  0.7818608E-02  0.8305628E-01
         -2   -1    0    0    0  501 -0.00000000000E+00  0.00000000000E+00  0.95756621944E+03  0.95756621944E+03  0.00000000000E+00 0.  1.
          2   -1    0    0  501    0  0.00000000000E+00 -0.00000000000E+00 -0.20357790864E+04  0.20357790864E+04  0.00000000000E+00 0. -1.
         23    2    1    2    0    0  0.13752350507E+04  0.18959640662E+02 -0.78828072674E+03  0.15877523496E+04  0.89107276302E+02 0.  0.
         11    1    3    3    0    0  0.88256704435E+03  0.45304092169E+02 -0.47460493801E+03  0.10031086161E+04  0.00000000000E+00 0.  1.
        -11    1    3    3    0    0  0.49266800639E+03 -0.26344451507E+02 -0.31367578873E+03  0.58464373346E+03  0.00000000000E+00 0. -1.
         22    1    1    2    0    0 -0.13752350507E+04 -0.18959640662E+02 -0.28993214022E+03  0.14055929563E+04  0.00000000000E+00 0.  1.
<mgrwt>
<rscale>  0 0.27924135E+04</rscale>
<asrwt>0</asrwt>
<pdfrwt beam="1">  1        2 0.31319678E+00 0.27924135E+04</pdfrwt>
<pdfrwt beam="2">  1       -2 0.14731788E+00 0.27924135E+04</pdfrwt>
<totfact> 0.17463134E+00</totfact>
</mgrwt>
</event>
<event>
 6    1  0.1637818E-005  0.1856877E+04  0.7818608E-02  0.8676624E-01
         -1   -1    0    0    0  501 -0.00000000000E+00  0.00000000000E+00  0.16544398081E+04  0.16544398081E+04  0.00000000000E+00 0.  1.
          1   -1    0    0  501    0  0.00000000000E+00 -0.00000000000E+00 -0.52102108476E+03  0.52102108476E+03  0.00000000000E+00 0. -1.
         23    2    1    2    0    0 -0.55518310469E+03 -0.73525395230E+03  0.67945040535E+03  0.11483708833E+04  0.90973502238E+02 0.  0.
         11    1    3    3    0    0 -0.26912960162E+03 -0.40213547417E+03  0.31129972430E+03  0.57537048968E+03  0.00000000000E+00 0. -1.
        -11    1    3    3    0    0 -0.28605350307E+03 -0.33311847813E+03  0.36815068105E+03  0.57300039359E+03  0.00000000000E+00 0.  1.
         22    1    1    2    0    0  0.55518310469E+03  0.73525395230E+03  0.45396831804E+03  0.10270900096E+04  0.00000000000E+00 0.  1.
<mgrwt>
<rscale>  0 0.18568770E+04</rscale>
<asrwt>0</asrwt>
<pdfrwt beam="1">  1        1 0.80157091E-01 0.18568770E+04</pdfrwt>
<pdfrwt beam="2">  1       -1 0.25452920E+00 0.18568770E+04</pdfrwt>
<totfact> 0.25602865E+00</totfact>
</mgrwt>
</event>
<event>
 6    1  0.1637818E-005  0.9765420E+03  0.7818608E-02  0.9334654E-01
          1   -1    0    0  501    0  0.00000000000E+00  0.00000000000E+00  0.25470548581E+04  0.25470548581E+04  0.00000000000E+00 0. -1.
         -1   -1    0    0    0  501 -0.00000000000E+00 -0.00000000000E+00 -0.93601667282E+02  0.93601667282E+02  0.00000000000E+00 0.  1.
         23    2    1    2    0    0  0.19122704542E+03 -0.17133551899E+03  0.23445403033E+04  0.23617557186E+04  0.12287065412E+03 0.  0.
         13    1    3    3    0    0  0.11717337797E+03 -0.85164478754E+02  0.17806776396E+04  0.17865596674E+04  0.00000000000E+00 0. -1.
        -13    1    3    3    0    0  0.74053667450E+02 -0.86171040232E+02  0.56386266366E+03  0.57519605120E+03  0.00000000000E+00 0.  1.
         22    1    1    2    0    0 -0.19122704542E+03  0.17133551899E+03  0.10891288757E+03  0.27890080682E+03  0.00000000000E+00 0.  1.
<mgrwt>
<rscale>  0 0.97654202E+03</rscale>
<asrwt>0</asrwt>
<pdfrwt beam="1">  1        1 0.39185454E+00 0.97654202E+03</pdfrwt>
<pdfrwt beam="2">  1       -1 0.14400258E-01 0.97654202E+03</pdfrwt>
<totfact> 0.45009328E+01</totfact>
</mgrwt>
</event>
<event>
 6    1  0.1637818E-005  0.3187683E+04  0.7818608E-02  0.8192078E-01
         -2   -1    0    0    0  501 -0.00000000000E+00  0.00000000000E+00  0.13410930598E+04  0.13410930598E+04  0.00000000000E+00 0.  1.
          2   -1    0    0  501    0  0.00000000000E+00 -0.00000000000E+00 -0.18942242777E+04  0.18942242777E+04  0.00000000000E+00 0. -1.
         23    2    1    2    0    0  0.67761832913E+03  0.98107891962E+03  0.79483474061E+03  0.14356799652E+04  0.87933219700E+02 0.  0.
         11    1    3    3    0    0  0.13293668450E+03  0.13603328291E+03  0.12536203198E+03  0.22780003338E+03  0.00000000000E+00 0.  1.
        -11    1    3    3    0    0  0.54468164463E+03  0.84504563671E+03  0.66947270862E+03  0.12078799318E+04  0.00000000000E+00 0. -1.
         22    1    1    2    0    0 -0.67761832913E+03 -0.98107891962E+03 -0.13479659585E+04  0.17996373723E+04  0.00000000000E+00 0. -1.
<mgrwt>
<rscale>  0 0.31876832E+04</rscale>
<asrwt>0</asrwt>
<pdfrwt beam="1">  1        2 0.29141912E+00 0.31876832E+04</pdfrwt>
<pdfrwt beam="2">  1       -2 0.20632201E+00 0.31876832E+04</pdfrwt>
<totfact> 0.77994358E-01</totfact>
</mgrwt>
</event>
<event>
 6    1  0.1656060E-005  0.2197039E+04  0.7818608E-02  0.8519662E-01
         -1   -1    0    0    0  501 -0.00000000000E+00  0.00000000000E+00  0.57318429016E+03  0.57318429016E+03  0.00000000000E+00 0.  1.
          1   -1    0    0  501    0  0.00000000000E+00 -0.00000000000E+00 -0.21053349856E+04  0.21053349856E+04  0.00000000000E+00 0. -1.
         23    2    1    2    0    0  0.62540427743E+03  0.44481422274E+03 -0.17224005199E+04  0.18878327395E+04  0.90877380391E+02 0.  0.
         11    1    3    3    0    0  0.32674723106E+03  0.27277427688E+03 -0.87548854462E+03  0.97347303552E+03  0.00000000000E+00 0.  1.
        -11    1    3    3    0    0  0.29865704637E+03  0.17203994586E+03 -0.84691197528E+03  0.91435970394E+03  0.00000000000E+00 0. -1.
         22    1    1    2    0    0 -0.62540427743E+03 -0.44481422274E+03  0.19024982445E+03  0.79068653630E+03  0.00000000000E+00 0.  1.
<mgrwt>
<rscale>  0 0.21970389E+04</rscale>
<asrwt>0</asrwt>
<pdfrwt beam="1">  1        1 0.32389769E+00 0.21970389E+04</pdfrwt>
<pdfrwt beam="2">  1       -1 0.88182198E-01 0.21970389E+04</pdfrwt>
<totfact> 0.29115253E+00</totfact>
</mgrwt>
</event>
<event>
 6    1  0.1637818E-005  0.8867916E+03  0.7818608E-02  0.9442245E-01
          2   -1    0    0  501    0  0.00000000000E+00  0.00000000000E+00  0.93463293965E+03  0.93463293965E+03  0.00000000000E+00 0. -1.
         -2   -1    0    0    0  501 -0.00000000000E+00 -0.00000000000E+00 -0.21034979841E+03  0.21034979841E+03  0.00000000000E+00 0.  1.
         23    2    1    2    0    0 -0.18225090341E+02 -0.35789644632E+03  0.39246573060E+02  0.37187400059E+03  0.91257649599E+02 0.  0.
         11    1    3    3    0    0 -0.36245884050E+02 -0.11983868320E+03  0.45066694124E+02  0.13306419887E+03  0.00000000000E+00 0.  1.
        -11    1    3    3    0    0  0.18020793708E+02 -0.23805776312E+03 -0.58201210646E+01  0.23880980172E+03  0.00000000000E+00 0. -1.
         22    1    1    2    0    0  0.18225090341E+02  0.35789644632E+03  0.68503656819E+03  0.77310873747E+03  0.00000000000E+00 0. -1.
<mgrwt>
<rscale>  0 0.88679163E+03</rscale>
<asrwt>0</asrwt>
<pdfrwt beam="1">  1        2 0.14378968E+00 0.88679163E+03</pdfrwt>
<pdfrwt beam="2">  1       -2 0.32361508E-01 0.88679163E+03</pdfrwt>
<totfact> 0.24762816E+02</totfact>
</mgrwt>
</event>
<event>
 6    1  0.1637818E-005  0.2465711E+04  0.7818608E-02  0.8415304E-01
         -2   -1    0    0    0  501 -0.00000000000E+00  0.00000000000E+00  0.74394740857E+03  0.74394740857E+03  0.00000000000E+00 0.  1.
          2   -1    0    0  501    0  0.00000000000E+00 -0.00000000000E+00 -0.20430639414E+04  0.20430639414E+04  0.00000000000E+00 0. -1.
         23    2    1    2    0    0  0.84476450988E+02 -0.89825089071E+03 -0.15972642869E+04  0.18368097836E+04  0.92876505959E+02 0.  0.
         13    1    3    3    0    0 -0.10236754111E+02 -0.16135540894E+03 -0.23745297831E+03  0.28727038838E+03  0.00000000000E+00 0.  1.
        -13    1    3    3    0    0  0.94713205099E+02 -0.73689548176E+03 -0.13598113086E+04  0.15495393952E+04  0.00000000000E+00 0. -1.
         22    1    1    2    0    0 -0.84476450988E+02  0.89825089071E+03  0.29814775412E+03  0.95020156636E+03  0.00000000000E+00 0.  1.
<mgrwt>
<rscale>  0 0.24657105E+04</rscale>
<asrwt>0</asrwt>
<pdfrwt beam="1">  1        2 0.31431752E+00 0.24657105E+04</pdfrwt>
<pdfrwt beam="2">  1       -2 0.11445345E+00 0.24657105E+04</pdfrwt>
<totfact> 0.33730776E+00</totfact>
</mgrwt>
</event>
<event>
 6    1  0.1637818E-005  0.8498966E+03  0.7818608E-02  0.9490476E-01
          1   -1    0    0  501    0  0.00000000000E+00  0.00000000000E+00  0.70670499383E+03  0.70670499383E+03  0.00000000000E+00 0. -1.
         -1   -1    0    0    0  501 -0.00000000000E+00 -0.00000000000E+00 -0.25552536328E+03  0.25552536328E+03  0.00000000000E+00 0.  1.
         23    2    1    2    0    0 -0.31682634952E+03 -0.16986774100E+03  0.47422216292E+03  0.60200134179E+03  0.91021813439E+02 0.  0.
         11    1    3    3    0    0 -0.29922941160E+03 -0.18057200831E+03  0.43816182586E+03  0.56047326127E+03  0.00000000000E+00 0. -1.
        -11    1    3    3    0    0 -0.17596937924E+02  0.10704267308E+02  0.36060337061E+02  0.41528080522E+02  0.00000000000E+00 0.  1.
         22    1    1    2    0    0  0.31682634952E+03  0.16986774100E+03 -0.23042532373E+02  0.36022901533E+03  0.00000000000E+00 0.  1.
<mgrwt>
<rscale>  0 0.84989658E+03</rscale>
<asrwt>0</asrwt>
<pdfrwt beam="1">  1        1 0.10872384E+00 0.84989658E+03</pdfrwt>
<pdfrwt beam="2">  1       -1 0.39311595E-01 0.84989658E+03</pdfrwt>
<totfact> 0.17031370E+02</totfact>
</mgrwt>
</event>
<event>
 6    1  0.1637818E-005  0.1724461E+04  0.7818608E-02  0.8747535E-01
          1   -1    0    0  501    0  0.00000000000E+00  0.00000000000E+00  0.79124409400E+03  0.79124409400E+03  0.00000000000E+00 0. -1.
         -1   -1    0    0    0  501 -0.00000000000E+00 -0.00000000000E+00 -0.93958580882E+03  0.93958580882E+03  0.00000000000E+00 0.  1.
         23    2    1    2    0    0 -0.16503550867E+03 -0.84335846191E+03 -0.10219145206E+03  0.87023704836E+03  0.91538041675E+02 0.  0.
         13    1    3    3    0    0 -0.10557733919E+02 -0.11400279987E+03 -0.43206122391E+02  0.12237186415E+03  0.00000000000E+00 0.  1.
        -13    1    3    3    0    0 -0.15447777476E+03 -0.72935566203E+03 -0.58985329671E+02  0.74786518421E+03  0.00000000000E+00 0. -1.
         22    1    1    2    0    0  0.16503550867E+03  0.84335846191E+03 -0.46150262765E+02  0.86059285446E+03  0.00000000000E+00 0. -1.
<mgrwt>
<rscale>  0 0.17244613E+04</rscale>
<asrwt>0</asrwt>
<pdfrwt beam="1">  1        1 0.12172986E+00 0.17244613E+04</pdfrwt>
<pdfrwt beam="2">  1       -1 0.14455166E+00 0.17244613E+04</pdfrwt>
<totfact> 0.82337354E+00</totfact>
</mgrwt>
</event>
<event>
 6    1  0.1637818E-005  0.2184053E+04  0.7818608E-02  0.8525095E-01
         -2   -1    0    0    0  501 -0.00000000000E+00  0.00000000000E+00  0.18427573083E+04  0.18427573083E+04  0.00000000000E+00 0. -1.
          2   -1    0    0  501    0  0.00000000000E+00 -0.00000000000E+00 -0.64714014775E+03  0.64714014775E+03  0.00000000000E+00 0.  1.
         23    2    1    2    0    0 -0.81656358205E+03  0.46777841012E+03  0.12262760547E+04  0.15483388056E+04  0.89483909220E+02 0.  0.
         13    1    3    3    0    0 -0.42278412295E+03  0.26238428133E+03  0.71498712067E+03  0.87109041347E+03  0.00000000000E+00 0.  1.
        -13    1    3    3    0    0 -0.39377945909E+03  0.20539412879E+03  0.51128893401E+03  0.67724839209E+03  0.00000000000E+00 0. -1.
         22    1    1    2    0    0  0.81656358205E+03 -0.46777841012E+03 -0.30658894154E+02  0.94155865048E+03  0.00000000000E+00 0.  1.
<mgrwt>
<rscale>  0 0.21840533E+04</rscale>
<asrwt>0</asrwt>
<pdfrwt beam="1">  1        2 0.99560023E-01 0.21840533E+04</pdfrwt>
<pdfrwt beam="2">  1       -2 0.28350112E+00 0.21840533E+04</pdfrwt>
<totfact> 0.16593265E+00</totfact>
</mgrwt>
</event>
<event>
 6    1  0.1786910E-005  0.4181260E+04  0.7818608E-02  0.7968946E-01
          1   -1    0    0  501    0  0.00000000000E+00  0.00000000000E+00  0.23440632397E+04  0.23440632397E+04  0.00000000000E+00 0. -1.
         -1   -1    0    0    0  501 -0.00000000000E+00 -0.00000000000E+00 -0.18645976503E+04  0.18645976503E+04  0.00000000000E+00 0.  1.
         23    2    1    2    0    0 -0.98939634407E+03  0.14925711805E+04  0.13238290923E+04  0.22288569655E+04  0.92768813177E+02 0.  0.
         11    1    3    3    0    0 -0.61465037727E+03  0.98950434036E+03  0.82565536322E+03  0.14278027541E+04  0.00000000000E+00 0.  1.
        -11    1    3    3    0    0 -0.37474596680E+03  0.50306684010E+03  0.49817372905E+03  0.80105421137E+03  0.00000000000E+00 0. -1.
         22    1    1    2    0    0  0.98939634407E+03 -0.14925711805E+04 -0.84436350290E+03  0.19798039245E+04  0.00000000000E+00 0.  1.
<mgrwt>
<rscale>  0 0.41812605E+04</rscale>
<asrwt>0</asrwt>
<pdfrwt beam="1">  1        1 0.36062512E+00 0.41812605E+04</pdfrwt>
<pdfrwt beam="2">  1       -1 0.28686118E+00 0.41812605E+04</pdfrwt>
<totfact> 0.53790686E-02</totfact>
</mgrwt>
</event>
<event>
 6    1  0.1637818E-005  0.1109799E+04  0.7818608E-02  0.9195694E-01
         -2   -1    0    0    0  501 -0.00000000000E+00  0.00000000000E+00  0.45630234002E+03  0.45630234002E+03  0.00000000000E+00 0.  1.
          2   -1    0    0  501    0  0.00000000000E+00 -0.00000000000E+00 -0.67480098725E+03  0.67480098725E+03  0.00000000000E+00 0. -1.
         23    2    1    2    0    0 -0.53406842219E+03 -0.67398395543E+02 -0.23032353038E+03  0.59266906836E+03  0.91848095475E+02 0.  0.
         11    1    3    3    0    0 -0.17412766762E+03  0.12004918594E+02 -0.45716318682E+02  0.18042877956E+03  0.00000000000E+00 0. -1.
        -11    1    3    3    0    0 -0.35994075457E+03 -0.79403314137E+02 -0.18460721169E+03  0.41224028880E+03  0.00000000000E+00 0.  1.
         22    1    1    2    0    0  0.53406842219E+03  0.67398395543E+02  0.11824883146E+02  0.53843425891E+03  0.00000000000E+00 0.  1.
<mgrwt>
<rscale>  0 0.11097987E+04</rscale>
<asrwt>0</asrwt>
<pdfrwt beam="1">  1        2 0.10381554E+00 0.11097987E+04</pdfrwt>
<pdfrwt beam="2">  1       -2 0.70200360E-01 0.11097987E+04</pdfrwt>
<totfact> 0.78708747E+01</totfact>
</mgrwt>
</event>
<event>
 6    1  0.1637818E-005  0.2896365E+04  0.7818608E-02  0.8273960E-01
          1   -1    0    0  501    0  0.00000000000E+00  0.00000000000E+00  0.15340057079E+04  0.15340057079E+04  0.00000000000E+00 0. -1.
         -1   -1    0    0    0  501 -0.00000000000E+00 -0.00000000000E+00 -0.13671612318E+04  0.13671612318E+04  0.00000000000E+00 0.  1.
         23    2    1    2    0    0 -0.10584909781E+04 -0.29383081507E+03  0.10265341340E+04  0.15062454342E+04  0.90902592106E+02 0.  0.
         13    1    3    3    0    0 -0.47822217937E+03 -0.93581781108E+02  0.42053776926E+03  0.64366607645E+03  0.00000000000E+00 0. -1.
        -13    1    3    3    0    0 -0.58026879869E+03 -0.20024903397E+03  0.60599636470E+03  0.86257935772E+03  0.00000000000E+00 0.  1.
         22    1    1    2    0    0  0.10584909781E+04  0.29383081507E+03 -0.85968965788E+03  0.13949215055E+04  0.00000000000E+00 0.  1.
<mgrwt>
<rscale>  0 0.28963654E+04</rscale>
<asrwt>0</asrwt>
<pdfrwt beam="1">  1        1 0.23600088E+00 0.28963654E+04</pdfrwt>
<pdfrwt beam="2">  1       -1 0.21033250E+00 0.28963654E+04</pdfrwt>
<totfact> 0.68046576E-01</totfact>
</mgrwt>
</event>
<event>
 6    1  0.1637818E-005  0.1780477E+04  0.7818608E-02  0.8716751E-01
         -1   -1    0    0    0  501 -0.00000000000E+00  0.00000000000E+00  0.65774212165E+03  0.65774212165E+03  0.00000000000E+00 0.  1.
          1   -1    0    0  501    0  0.00000000000E+00 -0.00000000000E+00 -0.12049172773E+04  0.12049172773E+04  0.00000000000E+00 0. -1.
         23    2    1    2    0    0 -0.39371058781E+03 -0.69437562479E+03 -0.68090035168E+03  0.10533090649E+04  0.93108334747E+02 0.  0.
         13    1    3    3    0    0 -0.17310271602E+03 -0.21692708605E+03 -0.22527555167E+03  0.35745067511E+03  0.00000000000E+00 0. -1.
        -13    1    3    3    0    0 -0.22060787179E+03 -0.47744853874E+03 -0.45562480001E+03  0.69585838978E+03  0.00000000000E+00 0.  1.
         22    1    1    2    0    0  0.39371058781E+03  0.69437562479E+03  0.13372519600E+03  0.80935033409E+03  0.00000000000E+00 0.  1.
<mgrwt>
<rscale>  0 0.17804773E+04</rscale>
<asrwt>0</asrwt>
<pdfrwt beam="1">  1        1 0.18537189E+00 0.17804773E+04</pdfrwt>
<pdfrwt beam="2">  1       -1 0.10119110E+00 0.17804773E+04</pdfrwt>
<totfact> 0.92914926E+00</totfact>
</mgrwt>
</event>
<event>
 6    1  0.1637818E-005  0.3090203E+04  0.7818608E-02  0.8218432E-01
          2   -1    0    0  501    0  0.00000000000E+00  0.00000000000E+00  0.18836889423E+04  0.18836889423E+04  0.00000000000E+00 0. -1.
         -2   -1    0    0    0  501 -0.00000000000E+00 -0.00000000000E+00 -0.12673741822E+04  0.12673741822E+04  0.00000000000E+00 0.  1.
         23    2    1    2    0    0 -0.45806489949E+03 -0.14480833512E+04  0.27547463171E+02  0.15221322561E+04  0.96741398198E+02 0.  0.
         11    1    3    3    0    0 -0.30163254525E+03 -0.10932084663E+04  0.19605479941E+02  0.11342271898E+04  0.00000000000E+00 0. -1.
        -11    1    3    3    0    0 -0.15643235423E+03 -0.35487488490E+03  0.79419832303E+01  0.38790506633E+03  0.00000000000E+00 0.  1.
         22    1    1    2    0    0  0.45806489949E+03  0.14480833512E+04  0.58876729684E+03  0.16289308684E+04  0.00000000000E+00 0. -1.
<mgrwt>
<rscale>  0 0.30902031E+04</rscale>
<asrwt>0</asrwt>
<pdfrwt beam="1">  1        2 0.28979830E+00 0.30902031E+04</pdfrwt>
<pdfrwt beam="2">  1       -2 0.19498064E+00 0.30902031E+04</pdfrwt>
<totfact> 0.94589151E-01</totfact>
</mgrwt>
</event>
<event>
 6    1  0.1637818E-005  0.2863703E+04  0.7818608E-02  0.8283759E-01
         -2   -1    0    0    0  501 -0.00000000000E+00  0.00000000000E+00  0.83833716145E+03  0.83833716145E+03  0.00000000000E+00 0.  1.
          2   -1    0    0  501    0  0.00000000000E+00 -0.00000000000E+00 -0.24455545186E+04  0.24455545186E+04  0.00000000000E+00 0. -1.
         23    2    1    2    0    0 -0.11720419022E+04 -0.65613293028E+03 -0.13682357938E+04  0.19195952202E+04  0.92649766876E+02 0.  0.
         13    1    3    3    0    0 -0.61338724823E+03 -0.38709766598E+03 -0.77468745960E+03  0.10612394543E+04  0.00000000000E+00 0. -1.
        -13    1    3    3    0    0 -0.55865465398E+03 -0.26903526430E+03 -0.59354833423E+03  0.85835576593E+03  0.00000000000E+00 0.  1.
         22    1    1    2    0    0  0.11720419022E+04  0.65613293028E+03 -0.23898156335E+03  0.13642964598E+04  0.00000000000E+00 0.  1.
<mgrwt>
<rscale>  0 0.28637034E+04</rscale>
<asrwt>0</asrwt>
<pdfrwt beam="1">  1        2 0.37623916E+00 0.28637034E+04</pdfrwt>
<pdfrwt beam="2">  1       -2 0.12897495E+00 0.28637034E+04</pdfrwt>
<totfact> 0.14353171E+00</totfact>
</mgrwt>
</event>
<event>
 6    1  0.1637818E-005  0.2619021E+04  0.7818608E-02  0.8361769E-01
         -2   -1    0    0    0  501 -0.00000000000E+00  0.00000000000E+00  0.66542096219E+03  0.66542096219E+03  0.00000000000E+00 0.  1.
          2   -1    0    0  501    0  0.00000000000E+00 -0.00000000000E+00 -0.25770410578E+04  0.25770410578E+04  0.00000000000E+00 0. -1.
         23    2    1    2    0    0 -0.99535673267E+03 -0.71441074326E+03 -0.39049705509E+03  0.12892766628E+04  0.92890407086E+02 0.  0.
         13    1    3    3    0    0 -0.14358134854E+03 -0.65163137574E+02 -0.46655227054E+02  0.16443402434E+03  0.00000000000E+00 0. -1.
        -13    1    3    3    0    0 -0.85177538413E+03 -0.64924760568E+03 -0.34384182804E+03  0.11248426384E+04  0.00000000000E+00 0.  1.
         22    1    1    2    0    0  0.99535673267E+03  0.71441074326E+03 -0.15211230406E+04  0.19531853573E+04  0.00000000000E+00 0. -1.
<mgrwt>
<rscale>  0 0.26190205E+04</rscale>
<asrwt>0</asrwt>
<pdfrwt beam="1">  1        2 0.39646785E+00 0.26190205E+04</pdfrwt>
<pdfrwt beam="2">  1       -2 0.10237246E+00 0.26190205E+04</pdfrwt>
<totfact> 0.21650230E+00</totfact>
</mgrwt>
</event>
<event>
 6    1  0.1637818E-005  0.6770323E+03  0.7818608E-02  0.9757337E-01
         -1   -1    0    0    0  501 -0.00000000000E+00  0.00000000000E+00  0.26895879005E+02  0.26895879005E+02  0.00000000000E+00 0.  1.
          1   -1    0    0  501    0  0.00000000000E+00 -0.00000000000E+00 -0.42606222508E+04  0.42606222508E+04  0.00000000000E+00 0. -1.
         23    2    1    2    0    0  0.20411603098E+03 -0.17689877176E+03 -0.33807598853E+04  0.33928068039E+04  0.92973529771E+02 0.  0.
         11    1    3    3    0    0  0.96862742389E+02 -0.92017906692E+02 -0.22199222643E+04  0.22239389707E+04  0.00000000000E+00 0. -1.
        -11    1    3    3    0    0  0.10725328859E+03 -0.84880865066E+02 -0.11608376209E+04  0.11688678331E+04  0.00000000000E+00 0.  1.
         22    1    1    2    0    0 -0.20411603098E+03  0.17689877176E+03 -0.85296648653E+03  0.89471132590E+03  0.00000000000E+00 0.  1.
<mgrwt>
<rscale>  0 0.67703229E+03</rscale>
<asrwt>0</asrwt>
<pdfrwt beam="1">  1        1 0.65548005E+00 0.67703229E+03</pdfrwt>
<pdfrwt beam="2">  1       -1 0.41378294E-02 0.67703229E+03</pdfrwt>
<totfact> 0.15474871E+01</totfact>
</mgrwt>
</event>
<event>
 6    1  0.1637818E-005  0.7715761E+03  0.7818608E-02  0.9602096E-01
         -2   -1    0    0    0  501 -0.00000000000E+00  0.00000000000E+00  0.13445902220E+03  0.13445902220E+03  0.00000000000E+00 0.  1.
          2   -1    0    0  501    0  0.00000000000E+00 -0.00000000000E+00 -0.11068978800E+04  0.11068978800E+04  0.00000000000E+00 0. -1.
         23    2    1    2    0    0 -0.57056074170E+02 -0.27082046687E+03 -0.69932827798E+02  0.29736736037E+03  0.83292411027E+02 0.  0.
         13    1    3    3    0    0 -0.69106773339E+02 -0.23522727318E+03 -0.38084883643E+02  0.24810899728E+03  0.00000000000E+00 0. -1.
        -13    1    3    3    0    0  0.12050699169E+02 -0.35593193690E+02 -0.31847944155E+02  0.49258363091E+02  0.00000000000E+00 0.  1.
         22    1    1    2    0    0  0.57056074170E+02  0.27082046687E+03 -0.90250603004E+03  0.94398954186E+03  0.00000000000E+00 0. -1.
<mgrwt>
<rscale>  0 0.77157607E+03</rscale>
<asrwt>0</asrwt>
<pdfrwt beam="1">  1        2 0.17029198E+00 0.77157607E+03</pdfrwt>
<pdfrwt beam="2">  1       -2 0.20686004E-01 0.77157607E+03</pdfrwt>
<totfact> 0.43652358E+02</totfact>
</mgrwt>
</event>
<event>
 6    1  0.1637818E-005  0.1868259E+04  0.7818608E-02  0.8670819E-01
         -1   -1    0    0    0  501 -0.00000000000E+00  0.00000000000E+00  0.91596309347E+03  0.91596309347E+03  0.00000000000E+00 0.  1.
          1   -1    0    0  501    0  0.00000000000E+00 -0.00000000000E+00 -0.95265577695E+03  0.95265577695E+03  0.00000000000E+00 0. -1.
         23    2    1    2    0    0  0.34276893172E+03  0.86661693594E+03  0.86974648525E+01  0.93557239796E+03  0.81881693394E+02 0.  0.
         11    1    3    3    0    0  0.14279226853E+03  0.25907151323E+03 -0.37390060314E+01  0.29584060081E+03  0.00000000000E+00 0. -1.
        -11    1    3    3    0    0  0.19997666318E+03  0.60754542271E+03  0.12436470884E+02  0.63973179715E+03  0.00000000000E+00 0.  1.
         22    1    1    2    0    0 -0.34276893172E+03 -0.86661693594E+03 -0.45390148327E+02  0.93304647246E+03  0.00000000000E+00 0. -1.
<mgrwt>
<rscale>  0 0.18682586E+04</rscale>
<asrwt>0</asrwt>
<pdfrwt beam="1">  1        1 0.14656243E+00 0.18682586E+04</pdfrwt>
<pdfrwt beam="2">  1       -1 0.14091740E+00 0.18682586E+04</pdfrwt>
<totfact> 0.63764800E+00</totfact>
</mgrwt>
</event>
<event>
 6    1  0.1637818E-005  0.3180311E+04  0.7818608E-02  0.8194036E-01
          1   -1    0    0  501    0  0.00000000000E+00  0.00000000000E+00  0.10539950972E+04  0.10539950972E+04  0.00000000000E+00 0. -1.
         -1   -1    0    0    0  501 -0.00000000000E+00 -0.00000000000E+00 -0.23990570416E+04  0.23990570416E+04  0.00000000000E+00 0.  1.
         23    2    1    2    0    0 -0.84240533132E+02  0.15717997943E+04 -0.90796718573E+03  0.18194356327E+04  0.91052459586E+02 0.  0.
         13    1    3    3    0    0 -0.23190245168E+02  0.76906910985E+02 -0.39680378057E+02  0.89593486543E+02  0.00000000000E+00 0.  1.
        -13    1    3    3    0    0 -0.61050287965E+02  0.14948928833E+04 -0.86828680767E+03  0.17298421462E+04  0.00000000000E+00 0. -1.
         22    1    1    2    0    0  0.84240533132E+02 -0.15717997943E+04 -0.43709475864E+03  0.16336165061E+04  0.00000000000E+00 0.  1.
<mgrwt>
<rscale>  0 0.31803109E+04</rscale>
<asrwt>0</asrwt>
<pdfrwt beam="1">  1        1 0.16215309E+00 0.31803109E+04</pdfrwt>
<pdfrwt beam="2">  1       -1 0.36908570E+00 0.31803109E+04</pdfrwt>
<totfact> 0.13339008E-01</totfact>
</mgrwt>
</event>
<event>
 6    1  0.1637818E-005  0.5075154E+03  0.7818608E-02  0.1011836E+00
         -2   -1    0    0    0  501 -0.00000000000E+00  0.00000000000E+00  0.58978929336E+02  0.58978929336E+02  0.00000000000E+00 0.  1.
          2   -1    0    0  501    0  0.00000000000E+00 -0.00000000000E+00 -0.10917959986E+04  0.10917959986E+04  0.00000000000E+00 0. -1.
         23    2    1    2    0    0  0.13202395301E+03 -0.20079701474E+03 -0.64927362608E+03  0.69816545156E+03  0.90160916894E+02 0.  0.
         11    1    3    3    0    0  0.83610693585E+00 -0.70614306441E+02 -0.15030713856E+03  0.16607021181E+03  0.00000000000E+00 0. -1.
        -11    1    3    3    0    0  0.13118784607E+03 -0.13018270830E+03 -0.49896648752E+03  0.53209523975E+03  0.00000000000E+00 0.  1.
         22    1    1    2    0    0 -0.13202395301E+03  0.20079701474E+03 -0.38354344320E+03  0.45260947639E+03  0.00000000000E+00 0.  1.
<mgrwt>
<rscale>  0 0.50751536E+03</rscale>
<asrwt>0</asrwt>
<pdfrwt beam="1">  1        2 0.16796861E+00 0.50751536E+03</pdfrwt>
<pdfrwt beam="2">  1       -2 0.90736819E-02 0.50751536E+03</pdfrwt>
<totfact> 0.17865736E+03</totfact>
</mgrwt>
</event>
<event>
 6    1  0.1637818E-005  0.6939857E+04  0.7818608E-02  0.7583670E-01
         -2   -1    0    0    0  501 -0.00000000000E+00  0.00000000000E+00  0.30004119122E+04  0.30004119122E+04  0.00000000000E+00 0.  1.
          2   -1    0    0  501    0  0.00000000000E+00 -0.00000000000E+00 -0.40129167036E+04  0.40129167036E+04  0.00000000000E+00 0. -1.
         23    2    1    2    0    0 -0.10295258139E+04 -0.14386916094E+04 -0.35222969620E+04  0.39426912734E+04  0.92095820843E+02 0.  0.
         13    1    3    3    0    0 -0.83694867593E+03 -0.11456226671E+04 -0.28974107051E+04  0.32261313016E+04  0.00000000000E+00 0. -1.
        -13    1    3    3    0    0 -0.19257713798E+03 -0.29306894232E+03 -0.62488625697E+03  0.71655997180E+03  0.00000000000E+00 0.  1.
         22    1    1    2    0    0  0.10295258139E+04  0.14386916094E+04  0.25097921707E+04  0.30706373424E+04  0.00000000000E+00 0.  1.
<mgrwt>
<rscale>  0 0.69398568E+04</rscale>
<asrwt>0</asrwt>
<pdfrwt beam="1">  1        2 0.61737180E+00 0.69398568E+04</pdfrwt>
<pdfrwt beam="2">  1       -2 0.46160184E+00 0.69398568E+04</pdfrwt>
<totfact> 0.60987452E-04</totfact>
</mgrwt>
</event>
<event>
 6    1  0.1637818E-005  0.1162208E+04  0.7818608E-02  0.9146595E-01
          1   -1    0    0  501    0  0.00000000000E+00  0.00000000000E+00  0.15395284566E+04  0.15395284566E+04  0.00000000000E+00 0. -1.
         -1   -1    0    0    0  501 -0.00000000000E+00 -0.00000000000E+00 -0.21934103530E+03  0.21934103530E+03  0.00000000000E+00 0.  1.
         23    2    1    2    0    0 -0.26112262984E+03  0.13260965110E+03  0.14175312573E+04  0.14502497100E+04  0.89771979542E+02 0.  0.
         11    1    3    3    0    0 -0.13461237162E+03  0.65481124803E+02  0.93521301373E+03  0.94711754780E+03  0.00000000000E+00 0.  1.
        -11    1    3    3    0    0 -0.12651025822E+03  0.67128526297E+02  0.48231824361E+03  0.50313216216E+03  0.00000000000E+00 0. -1.
         22    1    1    2    0    0  0.26112262984E+03 -0.13260965110E+03 -0.97343836056E+02  0.30861978193E+03  0.00000000000E+00 0.  1.
<mgrwt>
<rscale>  0 0.11622078E+04</rscale>
<asrwt>0</asrwt>
<pdfrwt beam="1">  1        1 0.23685053E+00 0.11622078E+04</pdfrwt>
<pdfrwt beam="2">  1       -1 0.33744776E-01 0.11622078E+04</pdfrwt>
<totfact> 0.50485562E+01</totfact>
</mgrwt>
</event>
<event>
 6    1  0.2545051E-005  0.2728408E+04  0.7818608E-02  0.8325846E-01
         -1   -1    0    0    0  501 -0.00000000000E+00  0.00000000000E+00  0.10391951138E+04  0.10391951138E+04  0.00000000000E+00 0.  1.
          1   -1    0    0  501    0  0.00000000000E+00 -0.00000000000E+00 -0.17908597160E+04  0.17908597160E+04  0.00000000000E+00 0. -1.
         23    2    1    2    0    0 -0.70333487386E+03 -0.25988790298E+03 -0.15565000819E+04  0.17300630951E+04  0.90576713566E+02 0.  0.
         13    1    3    3    0    0 -0.41644990158E+03 -0.17595712377E+03 -0.84538583277E+03  0.95868067477E+03  0.00000000000E+00 0.  1.
        -13    1    3    3    0    0 -0.28688497229E+03 -0.83930779209E+02 -0.71111424915E+03  0.77138242031E+03  0.00000000000E+00 0. -1.
         22    1    1    2    0    0  0.70333487386E+03  0.25988790298E+03  0.80483547974E+03  0.10999917347E+04  0.00000000000E+00 0.  1.
<mgrwt>
<rscale>  0 0.27284081E+04</rscale>
<asrwt>0</asrwt>
<pdfrwt beam="1">  1        1 0.27551688E+00 0.27284081E+04</pdfrwt>
<pdfrwt beam="2">  1       -1 0.15987617E+00 0.27284081E+04</pdfrwt>
<totfact> 0.10542724E+00</totfact>
</mgrwt>
</event>
<event>
 6    1  0.1637818E-005  0.4867948E+03  0.7818608E-02  0.1017284E+00
         -1   -1    0    0    0  501 -0.00000000000E+00  0.00000000000E+00  0.25834598531E+02  0.25834598531E+02  0.00000000000E+00 0.  1.
          1   -1    0    0  501    0  0.00000000000E+00 -0.00000000000E+00 -0.22931379311E+04  0.22931379311E+04  0.00000000000E+00 0. -1.
         23    2    1    2    0    0  0.20028222545E+03  0.12246316860E+03 -0.11810920795E+04  0.12076827008E+04  0.91699552445E+02 0.  0.
         11    1    3    3    0    0  0.10207131363E+03  0.93499462453E+02 -0.49491778170E+03  0.51391080275E+03  0.00000000000E+00 0.  1.
        -11    1    3    3    0    0  0.98210911822E+02  0.28963706143E+02 -0.68617429784E+03  0.69377189802E+03  0.00000000000E+00 0. -1.
         22    1    1    2    0    0 -0.20028222545E+03 -0.12246316860E+03 -0.10862112530E+04  0.11112898288E+04  0.00000000000E+00 0.  1.
<mgrwt>
<rscale>  0 0.48679481E+03</rscale>
<asrwt>0</asrwt>
<pdfrwt beam="1">  1        1 0.35279045E+00 0.48679481E+03</pdfrwt>
<pdfrwt beam="2">  1       -1 0.39745536E-02 0.48679481E+03</pdfrwt>
<totfact> 0.52539538E+02</totfact>
</mgrwt>
</event>
<event>
 6    1  0.1637818E-005  0.5606003E+04  0.7818608E-02  0.7741269E-01
         -1   -1    0    0    0  501 -0.00000000000E+00  0.00000000000E+00  0.16173697168E+04  0.16173697168E+04  0.00000000000E+00 0.  1.
          1   -1    0    0  501    0  0.00000000000E+00 -0.00000000000E+00 -0.48577741770E+04  0.48577741770E+04  0.00000000000E+00 0. -1.
         23    2    1    2    0    0 -0.88630985928E+03 -0.68345713172E+03 -0.45879657991E+04  0.47234075040E+04  0.92138254229E+02 0.  0.
         13    1    3    3    0    0 -0.27909623372E+03 -0.16373862643E+03 -0.13594055569E+04  0.13973863151E+04  0.00000000000E+00 0. -1.
        -13    1    3    3    0    0 -0.60721362557E+03 -0.51971850529E+03 -0.32285602422E+04  0.33260211889E+04  0.00000000000E+00 0.  1.
         22    1    1    2    0    0  0.88630985928E+03  0.68345713172E+03  0.13475613389E+04  0.17517363899E+04  0.00000000000E+00 0. -1.
<mgrwt>
<rscale>  0 0.56060028E+04</rscale>
<asrwt>0</asrwt>
<pdfrwt beam="1">  1        1 0.74734988E+00 0.56060028E+04</pdfrwt>
<pdfrwt beam="2">  1       -1 0.24882611E+00 0.56060028E+04</pdfrwt>
<totfact> 0.62458424E-04</totfact>
</mgrwt>
</event>
<event>
 6    1  0.1637818E-005  0.5116483E+04  0.7818608E-02  0.7810786E-01
          2   -1    0    0  501    0  0.00000000000E+00  0.00000000000E+00  0.33046773126E+04  0.33046773126E+04  0.00000000000E+00 0.  1.
         -2   -1    0    0    0  501 -0.00000000000E+00 -0.00000000000E+00 -0.19804046958E+04  0.19804046958E+04  0.00000000000E+00 0. -1.
         23    2    1    2    0    0  0.21864677927E+04  0.11824933543E+04  0.12837121404E+04  0.27990053617E+04  0.87075907768E+02 0.  0.
         11    1    3    3    0    0  0.16485482769E+04  0.90944716126E+03  0.10099828073E+04  0.21365558339E+04  0.00000000000E+00 0.  1.
        -11    1    3    3    0    0  0.53791951580E+03  0.27304619301E+03  0.27372933314E+03  0.66244952775E+03  0.00000000000E+00 0. -1.
         22    1    1    2    0    0 -0.21864677927E+04 -0.11824933543E+04  0.40560476386E+02  0.24860766468E+04  0.00000000000E+00 0. -1.
<mgrwt>
<rscale>  0 0.51164826E+04</rscale>
<asrwt>0</asrwt>
<pdfrwt beam="1">  1        2 0.50841189E+00 0.51164826E+04</pdfrwt>
<pdfrwt beam="2">  1       -2 0.30467765E+00 0.51164826E+04</pdfrwt>
<totfact> 0.23703822E-02</totfact>
</mgrwt>
</event>
<event>
 6    1  0.2303923E-005  0.4327008E+04  0.7818608E-02  0.7941643E-01
          2   -1    0    0  501    0  0.00000000000E+00  0.00000000000E+00  0.21509771640E+04  0.21509771640E+04  0.00000000000E+00 0. -1.
         -2   -1    0    0    0  501 -0.00000000000E+00 -0.00000000000E+00 -0.21761039728E+04  0.21761039728E+04  0.00000000000E+00 0.  1.
         23    2    1    2    0    0 -0.70873446000E+03  0.12702091161E+04  0.15878678453E+04  0.21551033544E+04  0.86083917560E+02 0.  0.
         13    1    3    3    0    0 -0.97112019265E+02  0.21644816861E+03  0.22410680934E+03  0.32635014320E+03  0.00000000000E+00 0. -1.
        -13    1    3    3    0    0 -0.61162244074E+03  0.10537609475E+04  0.13637610359E+04  0.18287532112E+04  0.00000000000E+00 0.  1.
         22    1    1    2    0    0  0.70873446000E+03 -0.12702091161E+04 -0.16129946541E+04  0.21719777824E+04  0.00000000000E+00 0.  1.
<mgrwt>
<rscale>  0 0.43270082E+04</rscale>
<asrwt>0</asrwt>
<pdfrwt beam="1">  1        2 0.33091956E+00 0.43270082E+04</pdfrwt>
<pdfrwt beam="2">  1       -2 0.33478523E+00 0.43270082E+04</pdfrwt>
<totfact> 0.81933599E-02</totfact>
</mgrwt>
</event>
<event>
 6    1  0.1637818E-005  0.3660206E+03  0.7818608E-02  0.1056225E+00
          2   -1    0    0  501    0  0.00000000000E+00  0.00000000000E+00  0.67777483077E+03  0.67777483077E+03  0.00000000000E+00 0. -1.
         -2   -1    0    0    0  501 -0.00000000000E+00 -0.00000000000E+00 -0.49415781871E+02  0.49415781871E+02  0.00000000000E+00 0.  1.
         23    2    1    2    0    0 -0.12311449871E+03  0.11531275684E+03  0.39875653630E+03  0.44228444304E+03  0.90302500697E+02 0.  0.
         11    1    3    3    0    0 -0.56690964608E+02  0.76714709076E+02  0.31270115807E+03  0.32692663752E+03  0.00000000000E+00 0. -1.
        -11    1    3    3    0    0 -0.66423534107E+02  0.38598047762E+02  0.86055378227E+02  0.11535780553E+03  0.00000000000E+00 0.  1.
         22    1    1    2    0    0  0.12311449871E+03 -0.11531275684E+03  0.22960251260E+03  0.28490616960E+03  0.00000000000E+00 0. -1.
<mgrwt>
<rscale>  0 0.36602062E+03</rscale>
<asrwt>0</asrwt>
<pdfrwt beam="1">  1        2 0.10427304E+00 0.36602062E+03</pdfrwt>
<pdfrwt beam="2">  1       -2 0.76024285E-02 0.36602062E+03</pdfrwt>
<totfact> 0.44900914E+03</totfact>
</mgrwt>
</event>
<event>
 6    1  0.1637818E-005  0.4785571E+03  0.7818608E-02  0.1019532E+00
          2   -1    0    0  501    0  0.00000000000E+00  0.00000000000E+00  0.21062137057E+04  0.21062137057E+04  0.00000000000E+00 0. -1.
         -2   -1    0    0    0  501 -0.00000000000E+00 -0.00000000000E+00 -0.27183487514E+02  0.27183487514E+02  0.00000000000E+00 0.  1.
         23    2    1    2    0    0  0.43620308044E+02  0.17104940575E+03  0.17384263898E+04  0.17497676866E+04  0.91651588126E+02 0.  0.
         11    1    3    3    0    0  0.36141074981E+02  0.24129174902E+02  0.64906319316E+03  0.65051627428E+03  0.00000000000E+00 0. -1.
        -11    1    3    3    0    0  0.74792330635E+01  0.14692023085E+03  0.10893631967E+04  0.10992514123E+04  0.00000000000E+00 0.  1.
         22    1    1    2    0    0 -0.43620308044E+02 -0.17104940575E+03  0.34060382836E+03  0.38362950665E+03  0.00000000000E+00 0.  1.
<mgrwt>
<rscale>  0 0.47855714E+03</rscale>
<asrwt>0</asrwt>
<pdfrwt beam="1">  1        2 0.32403275E+00 0.47855714E+03</pdfrwt>
<pdfrwt beam="2">  1       -2 0.41820766E-02 0.47855714E+03</pdfrwt>
<totfact> 0.16527188E+03</totfact>
</mgrwt>
</event>
<event>
 6    1  0.1637818E-005  0.3153090E+04  0.7818608E-02  0.8201317E-01
          2   -1    0    0  501    0  0.00000000000E+00  0.00000000000E+00  0.44636986134E+04  0.44636986134E+04  0.00000000000E+00 0. -1.
         -2   -1    0    0    0  501 -0.00000000000E+00 -0.00000000000E+00 -0.55682408841E+03  0.55682408841E+03  0.00000000000E+00 0.  1.
         23    2    1    2    0    0 -0.13578092669E+04 -0.39685643438E+03  0.30583827741E+04  0.33709532773E+04  0.92085668218E+02 0.  0.
         13    1    3    3    0    0 -0.71948788661E+03 -0.17964602707E+03  0.16857818200E+04  0.18416828876E+04  0.00000000000E+00 0.  1.
        -13    1    3    3    0    0 -0.63832138030E+03 -0.21721040731E+03  0.13726009541E+04  0.15292703897E+04  0.00000000000E+00 0. -1.
         22    1    1    2    0    0  0.13578092669E+04  0.39685643438E+03  0.84849175090E+03  0.16495694245E+04  0.00000000000E+00 0.  1.
<mgrwt>
<rscale>  0 0.31530905E+04</rscale>
<asrwt>0</asrwt>
<pdfrwt beam="1">  1        2 0.68672284E+00 0.31530905E+04</pdfrwt>
<pdfrwt beam="2">  1       -2 0.85665247E-01 0.31530905E+04</pdfrwt>
<totfact> 0.13327093E-01</totfact>
</mgrwt>
</event>
<event>
 6    1  0.1637818E-005  0.2026730E+04  0.7818608E-02  0.8594225E-01
         -2   -1    0    0    0  501 -0.00000000000E+00  0.00000000000E+00  0.60239636371E+03  0.60239636371E+03  0.00000000000E+00 0.  1.
          2   -1    0    0  501    0  0.00000000000E+00 -0.00000000000E+00 -0.17047055502E+04  0.17047055502E+04  0.00000000000E+00 0. -1.
         23    2    1    2    0    0 -0.15448139367E+03 -0.97112518209E+03 -0.82063744588E+03  0.12842199121E+04  0.93948627819E+02 0.  0.
         13    1    3    3    0    0 -0.60438966406E+02 -0.65241932208E+03 -0.55959576550E+03  0.86165611542E+03  0.00000000000E+00 0.  1.
        -13    1    3    3    0    0 -0.94042427264E+02 -0.31870586001E+03 -0.26104168039E+03  0.42256379664E+03  0.00000000000E+00 0. -1.
         22    1    1    2    0    0  0.15448139367E+03  0.97112518209E+03 -0.28167174064E+03  0.10228820019E+04  0.00000000000E+00 0.  1.
<mgrwt>
<rscale>  0 0.20267298E+04</rscale>
<asrwt>0</asrwt>
<pdfrwt beam="1">  1        2 0.26226239E+00 0.20267298E+04</pdfrwt>
<pdfrwt beam="2">  1       -2 0.92676363E-01 0.20267298E+04</pdfrwt>
<totfact> 0.89232417E+00</totfact>
</mgrwt>
</event>
<event>
 6    1  0.1776942E-005  0.3141521E+04  0.7818608E-02  0.8204434E-01
          2   -1    0    0  501    0  0.00000000000E+00  0.00000000000E+00  0.21934075219E+04  0.21934075219E+04  0.00000000000E+00 0. -1.
         -2   -1    0    0    0  501 -0.00000000000E+00 -0.00000000000E+00 -0.11248656346E+04  0.11248656346E+04  0.00000000000E+00 0.  1.
         23    2    1    2    0    0 -0.67639737497E+03  0.13386427897E+04  0.10232690892E+04  0.18177640584E+04  0.87798724231E+02 0.  0.
         11    1    3    3    0    0 -0.52895922827E+03  0.11142749212E+04  0.82281601594E+03  0.14827112535E+04  0.00000000000E+00 0. -1.
        -11    1    3    3    0    0 -0.14743814670E+03  0.22436786849E+03  0.20045307322E+03  0.33505280491E+03  0.00000000000E+00 0.  1.
         22    1    1    2    0    0  0.67639737497E+03 -0.13386427897E+04  0.45272798112E+02  0.15005090981E+04  0.00000000000E+00 0.  1.
<mgrwt>
<rscale>  0 0.31415211E+04</rscale>
<asrwt>0</asrwt>
<pdfrwt beam="1">  1        2 0.33744731E+00 0.31415211E+04</pdfrwt>
<pdfrwt beam="2">  1       -2 0.17305625E+00 0.31415211E+04</pdfrwt>
<totfact> 0.89355437E-01</totfact>
</mgrwt>
</event>
<event>
 6    1  0.1637818E-005  0.3707391E+04  0.7818608E-02  0.8066326E-01
          1   -1    0    0  501    0  0.00000000000E+00  0.00000000000E+00  0.36235703452E+04  0.36235703452E+04  0.00000000000E+00 0. -1.
         -1   -1    0    0    0  501 -0.00000000000E+00 -0.00000000000E+00 -0.94828751224E+03  0.94828751224E+03  0.00000000000E+00 0.  1.
         23    2    1    2    0    0 -0.73041404958E+03 -0.15539934748E+04  0.48094451652E+03  0.17855482819E+04  0.92057783979E+02 0.  0.
         13    1    3    3    0    0 -0.56165660822E+03 -0.11292191080E+04  0.32216166873E+03  0.13016843243E+04  0.00000000000E+00 0.  1.
        -13    1    3    3    0    0 -0.16875744136E+03 -0.42477436684E+03  0.15878284779E+03  0.48386395763E+03  0.00000000000E+00 0. -1.
         22    1    1    2    0    0  0.73041404958E+03  0.15539934748E+04  0.21943383165E+04  0.27863095755E+04  0.00000000000E+00 0. -1.
<mgrwt>
<rscale>  0 0.37073907E+04</rscale>
<asrwt>0</asrwt>
<pdfrwt beam="1">  1        1 0.55747236E+00 0.37073907E+04</pdfrwt>
<pdfrwt beam="2">  1       -1 0.14589039E+00 0.37073907E+04</pdfrwt>
<totfact> 0.59902916E-02</totfact>
</mgrwt>
</event>
<event>
 6    1  0.1637818E-005  0.8290982E+03  0.7818608E-02  0.9518828E-01
         -2   -1    0    0    0  501 -0.00000000000E+00  0.00000000000E+00  0.44314340183E+02  0.44314340183E+02  0.00000000000E+00 0.  1.
          2   -1    0    0  501    0  0.00000000000E+00 -0.00000000000E+00 -0.38779992033E+04  0.38779992033E+04  0.00000000000E+00 0. -1.
         23    2    1    2    0    0  0.33634402429E+03  0.22782603843E+03 -0.21935604460E+04  0.22326271495E+04  0.88794999010E+02 0.  0.
         11    1    3    3    0    0  0.10891312953E+03  0.10844807141E+03 -0.65641294216E+03  0.67416689670E+03  0.00000000000E+00 0.  1.
        -11    1    3    3    0    0  0.22743089477E+03  0.11937796702E+03 -0.15371475038E+04  0.15584602528E+04  0.00000000000E+00 0. -1.
         22    1    1    2    0    0 -0.33634402429E+03 -0.22782603843E+03 -0.16401244171E+04  0.16896863940E+04  0.00000000000E+00 0.  1.
<mgrwt>
<rscale>  0 0.82909825E+03</rscale>
<asrwt>0</asrwt>
<pdfrwt beam="1">  1        2 0.59661516E+00 0.82909825E+03</pdfrwt>
<pdfrwt beam="2">  1       -2 0.68175919E-02 0.82909825E+03</pdfrwt>
<totfact> 0.58728450E+01</totfact>
</mgrwt>
</event>
<event>
 6    1  0.1637818E-005  0.2315704E+03  0.7818608E-02  0.1125539E+00
          2   -1    0    0  501    0  0.00000000000E+00  0.00000000000E+00  0.17479268788E+02  0.17479268788E+02  0.00000000000E+00 0. -1.
         -2   -1    0    0    0  501 -0.00000000000E+00 -0.00000000000E+00 -0.76697816088E+03  0.76697816088E+03  0.00000000000E+00 0.  1.
         23    2    1    2    0    0  0.79310270848E+01  0.95442684656E+02 -0.36039312162E+03  0.38373869058E+03  0.90553703893E+02 0.  0.
         11    1    3    3    0    0 -0.15383479742E+02  0.10216504737E+03 -0.24626198894E+03  0.26705676466E+03  0.00000000000E+00 0. -1.
        -11    1    3    3    0    0  0.23314506827E+02 -0.67223627138E+01 -0.11413113268E+03  0.11668192591E+03  0.00000000000E+00 0.  1.
         22    1    1    2    0    0 -0.79310270848E+01 -0.95442684656E+02 -0.38910577048E+03  0.40071873910E+03  0.00000000000E+00 0.  1.
<mgrwt>
<rscale>  0 0.23157044E+03</rscale>
<asrwt>0</asrwt>
<pdfrwt beam="1">  1        2 0.26891184E-02 0.23157044E+03</pdfrwt>
<pdfrwt beam="2">  1       -2 0.11799663E+00 0.23157044E+03</pdfrwt>
<totfact> 0.20870600E+03</totfact>
</mgrwt>
</event>
<event>
 6    1  0.1637818E-005  0.1380003E+04  0.7818608E-02  0.8968422E-01
          1   -1    0    0  501    0  0.00000000000E+00  0.00000000000E+00  0.39359570765E+04  0.39359570765E+04  0.00000000000E+00 0. -1.
         -1   -1    0    0    0  501 -0.00000000000E+00 -0.00000000000E+00 -0.12096218180E+03  0.12096218180E+03  0.00000000000E+00 0.  1.
         23    2    1    2    0    0  0.91179761555E+02  0.24892907364E+03  0.37789955396E+04  0.37893834921E+04  0.91326497726E+02 0.  0.
         13    1    3    3    0    0  0.54446479695E+02  0.12538224623E+03  0.25466235604E+04  0.25502895297E+04  0.00000000000E+00 0. -1.
        -13    1    3    3    0    0  0.36733281860E+02  0.12354682740E+03  0.12323719792E+04  0.12390939624E+04  0.00000000000E+00 0.  1.
         22    1    1    2    0    0 -0.91179761555E+02 -0.24892907364E+03  0.35999355077E+02  0.26753576618E+03  0.00000000000E+00 0.  1.
<mgrwt>
<rscale>  0 0.13800028E+04</rscale>
<asrwt>0</asrwt>
<pdfrwt beam="1">  1        1 0.60553176E+00 0.13800028E+04</pdfrwt>
<pdfrwt beam="2">  1       -1 0.18609569E-01 0.13800028E+04</pdfrwt>
<totfact> 0.25163706E+00</totfact>
</mgrwt>
</event>
<event>
 6    1  0.1637818E-005  0.2644448E+04  0.7818608E-02  0.8353258E-01
         -2   -1    0    0    0  501 -0.00000000000E+00  0.00000000000E+00  0.57694138484E+03  0.57694138484E+03  0.00000000000E+00 0. -1.
          2   -1    0    0  501    0  0.00000000000E+00 -0.00000000000E+00 -0.30302489962E+04  0.30302489962E+04  0.00000000000E+00 0.  1.
         23    2    1    2    0    0  0.10757025201E+04 -0.58299704841E+03 -0.54969665017E+03  0.13442815977E+04  0.88910834686E+02 0.  0.
         13    1    3    3    0    0  0.85112195029E+03 -0.49816252758E+03 -0.42681930495E+03  0.10745925727E+04  0.00000000000E+00 0.  1.
        -13    1    3    3    0    0  0.22458056980E+03 -0.84834520838E+02 -0.12287734523E+03  0.26968902504E+03  0.00000000000E+00 0. -1.
         22    1    1    2    0    0 -0.10757025201E+04  0.58299704841E+03 -0.19036109612E+04  0.22629087834E+04  0.00000000000E+00 0.  1.
<mgrwt>
<rscale>  0 0.26444478E+04</rscale>
<asrwt>0</asrwt>
<pdfrwt beam="1">  1        2 0.46619216E+00 0.26444478E+04</pdfrwt>
<pdfrwt beam="2">  1       -2 0.88760212E-01 0.26444478E+04</pdfrwt>
<totfact> 0.16023477E+00</totfact>
</mgrwt>
</event>
<event>
 6    1  0.1637818E-005  0.2202441E+04  0.7818608E-02  0.8517413E-01
         -2   -1    0    0    0  501 -0.00000000000E+00  0.00000000000E+00  0.63874349805E+03  0.63874349805E+03  0.00000000000E+00 0. -1.
          2   -1    0    0  501    0  0.00000000000E+00 -0.00000000000E+00 -0.18985494847E+04  0.18985494847E+04  0.00000000000E+00 0.  1.
         23    2    1    2    0    0 -0.78920461639E+03 -0.14036751483E+03  0.23588605568E+03  0.84034229071E+03  0.89364246356E+02 0.  0.
         13    1    3    3    0    0 -0.13589282419E+03 -0.41907442497E+02  0.73090853531E+02  0.15989173297E+03  0.00000000000E+00 0.  1.
        -13    1    3    3    0    0 -0.65331179221E+03 -0.98460072334E+02  0.16279520215E+03  0.68045055774E+03  0.00000000000E+00 0. -1.
         22    1    1    2    0    0  0.78920461639E+03  0.14036751483E+03 -0.14956920424E+04  0.16969506921E+04  0.00000000000E+00 0.  1.
<mgrwt>
<rscale>  0 0.22024406E+04</rscale>
<asrwt>0</asrwt>
<pdfrwt beam="1">  1        2 0.29208453E+00 0.22024406E+04</pdfrwt>
<pdfrwt beam="2">  1       -2 0.98268232E-01 0.22024406E+04</pdfrwt>
<totfact> 0.59844763E+00</totfact>
</mgrwt>
</event>
<event>
 6    1  0.1637818E-005  0.1705680E+04  0.7818608E-02  0.8758131E-01
          2   -1    0    0  501    0  0.00000000000E+00  0.00000000000E+00  0.33120218012E+04  0.33120218012E+04  0.00000000000E+00 0. -1.
         -2   -1    0    0    0  501 -0.00000000000E+00 -0.00000000000E+00 -0.21960492256E+03  0.21960492256E+03  0.00000000000E+00 0.  1.
         23    2    1    2    0    0  0.60215450499E+03  0.21038816903E+03  0.27150263971E+04  0.27904946134E+04  0.92944179800E+02 0.  0.
         13    1    3    3    0    0  0.27648619839E+03  0.62735419596E+02  0.13465278425E+04  0.13760514457E+04  0.00000000000E+00 0. -1.
        -13    1    3    3    0    0  0.32566830660E+03  0.14765274944E+03  0.13684985547E+04  0.14144431676E+04  0.00000000000E+00 0.  1.
         22    1    1    2    0    0 -0.60215450499E+03 -0.21038816903E+03  0.37739048154E+03  0.74113211043E+03  0.00000000000E+00 0.  1.
<mgrwt>
<rscale>  0 0.17056803E+04</rscale>
<asrwt>0</asrwt>
<pdfrwt beam="1">  1        2 0.50954178E+00 0.17056803E+04</pdfrwt>
<pdfrwt beam="2">  1       -2 0.33785375E-01 0.17056803E+04</pdfrwt>
<totfact> 0.85891699E+00</totfact>
</mgrwt>
</event>
<event>
 6    1  0.1637818E-005  0.2306091E+04  0.7818608E-02  0.8475523E-01
         -2   -1    0    0    0  501 -0.00000000000E+00  0.00000000000E+00  0.87814138309E+03  0.87814138309E+03  0.00000000000E+00 0.  1.
          2   -1    0    0  501    0  0.00000000000E+00 -0.00000000000E+00 -0.15140091384E+04  0.15140091384E+04  0.00000000000E+00 0. -1.
         23    2    1    2    0    0  0.58947309408E+03  0.58737972323E+03 -0.11436403704E+04  0.14173036123E+04  0.91338735181E+02 0.  0.
         11    1    3    3    0    0  0.41505333082E+03  0.46911065036E+03 -0.84848801505E+03  0.10546402142E+04  0.00000000000E+00 0. -1.
        -11    1    3    3    0    0  0.17441976326E+03  0.11826907287E+03 -0.29515235537E+03  0.36266339806E+03  0.00000000000E+00 0.  1.
         22    1    1    2    0    0 -0.58947309408E+03 -0.58737972323E+03  0.50777261506E+03  0.97484690927E+03  0.00000000000E+00 0.  1.
<mgrwt>
<rscale>  0 0.23060911E+04</rscale>
<asrwt>0</asrwt>
<pdfrwt beam="1">  1        2 0.23292448E+00 0.23060911E+04</pdfrwt>
<pdfrwt beam="2">  1       -2 0.13509868E+00 0.23060911E+04</pdfrwt>
<totfact> 0.44484962E+00</totfact>
</mgrwt>
</event>
<event>
 6    1  0.1637818E-005  0.4375969E+04  0.7818608E-02  0.7932718E-01
          2   -1    0    0  501    0  0.00000000000E+00  0.00000000000E+00  0.23439516579E+04  0.23439516579E+04  0.00000000000E+00 0. -1.
         -2   -1    0    0    0  501 -0.00000000000E+00 -0.00000000000E+00 -0.20423953604E+04  0.20423953604E+04  0.00000000000E+00 0.  1.
         23    2    1    2    0    0  0.40642643042E+03  0.14002952117E+04  0.17846875075E+04  0.23065183452E+04  0.94383547477E+02 0.  0.
         13    1    3    3    0    0  0.21120223279E+03  0.69944389774E+03  0.96768726345E+03  0.12125373351E+04  0.00000000000E+00 0.  1.
        -13    1    3    3    0    0  0.19522419763E+03  0.70085131397E+03  0.81700024406E+03  0.10939810101E+04  0.00000000000E+00 0. -1.
         22    1    1    2    0    0 -0.40642643042E+03 -0.14002952117E+04 -0.14831312100E+04  0.20798286731E+04  0.00000000000E+00 0.  1.
<mgrwt>
<rscale>  0 0.43759689E+04</rscale>
<asrwt>0</asrwt>
<pdfrwt beam="1">  1        2 0.36060795E+00 0.43759689E+04</pdfrwt>
<pdfrwt beam="2">  1       -2 0.31421467E+00 0.43759689E+04</pdfrwt>
<totfact> 0.85150124E-02</totfact>
</mgrwt>
</event>
<event>
 6    1  0.1637818E-005  0.1230903E+04  0.7818608E-02  0.9086230E-01
          2   -1    0    0  501    0  0.00000000000E+00  0.00000000000E+00  0.66574347016E+03  0.66574347016E+03  0.00000000000E+00 0. -1.
         -2   -1    0    0    0  501 -0.00000000000E+00 -0.00000000000E+00 -0.56895826985E+03  0.56895826985E+03  0.00000000000E+00 0.  1.
         23    2    1    2    0    0 -0.19927983040E+03  0.42575850127E+03  0.44194335370E+03  0.65150631560E+03  0.90353744682E+02 0.  0.
         13    1    3    3    0    0 -0.19784631461E+03  0.35506419908E+03  0.35698912187E+03  0.54097595400E+03  0.00000000000E+00 0. -1.
        -13    1    3    3    0    0 -0.14335157922E+01  0.70694302192E+02  0.84954231823E+02  0.11053036160E+03  0.00000000000E+00 0.  1.
         22    1    1    2    0    0  0.19927983040E+03 -0.42575850127E+03 -0.34515815339E+03  0.58319542442E+03  0.00000000000E+00 0.  1.
<mgrwt>
<rscale>  0 0.12309025E+04</rscale>
<asrwt>0</asrwt>
<pdfrwt beam="1">  1        2 0.10242207E+00 0.12309025E+04</pdfrwt>
<pdfrwt beam="2">  1       -2 0.87532041E-01 0.12309025E+04</pdfrwt>
<totfact> 0.48443826E+01</totfact>
</mgrwt>
</event>
<event>
 6    1  0.1637818E-005  0.2671719E+04  0.7818608E-02  0.8344240E-01
          2   -1    0    0  501    0  0.00000000000E+00  0.00000000000E+00  0.17839397215E+04  0.17839397215E+04  0.00000000000E+00 0.  1.
         -2   -1    0    0    0  501 -0.00000000000E+00 -0.00000000000E+00 -0.10003255241E+04  0.10003255241E+04  0.00000000000E+00 0. -1.
         23    2    1    2    0    0 -0.90830340100E+03  0.91123819993E+03  0.22590052422E+02  0.12894315176E+04  0.82177872600E+02 0.  0.
         13    1    3    3    0    0 -0.56283900436E+03  0.60660710266E+03 -0.11462646720E+02  0.82758160570E+03  0.00000000000E+00 0.  1.
        -13    1    3    3    0    0 -0.34546439664E+03  0.30463109727E+03  0.34052699142E+02  0.46184991187E+03  0.00000000000E+00 0. -1.
         22    1    1    2    0    0  0.90830340100E+03 -0.91123819993E+03  0.76102414494E+03  0.14948337280E+04  0.00000000000E+00 0.  1.
<mgrwt>
<rscale>  0 0.26717189E+04</rscale>
<asrwt>0</asrwt>
<pdfrwt beam="1">  1        2 0.27445227E+00 0.26717189E+04</pdfrwt>
<pdfrwt beam="2">  1       -2 0.15389623E+00 0.26717189E+04</pdfrwt>
<totfact> 0.21676122E+00</totfact>
</mgrwt>
</event>
<event>
 6    1  0.1637818E-005  0.2149059E+04  0.7818608E-02  0.8539935E-01
          2   -1    0    0  501    0  0.00000000000E+00  0.00000000000E+00  0.11667180987E+04  0.11667180987E+04  0.00000000000E+00 0. -1.
         -2   -1    0    0    0  501 -0.00000000000E+00 -0.00000000000E+00 -0.98962500381E+03  0.98962500381E+03  0.00000000000E+00 0.  1.
         23    2    1    2    0    0 -0.10743357471E+03  0.62390984836E+03  0.95751048390E+03  0.11514268011E+04  0.90287760890E+02 0.  0.
         11    1    3    3    0    0 -0.43409060026E+01  0.21252810270E+03  0.37208440489E+03  0.42852519443E+03  0.00000000000E+00 0.  1.
        -11    1    3    3    0    0 -0.10309266871E+03  0.41138174566E+03  0.58542607901E+03  0.72290160671E+03  0.00000000000E+00 0. -1.
         22    1    1    2    0    0  0.10743357471E+03 -0.62390984836E+03 -0.78041738897E+03  0.10049163014E+04  0.00000000000E+00 0.  1.
<mgrwt>
<rscale>  0 0.21490588E+04</rscale>
<asrwt>0</asrwt>
<pdfrwt beam="1">  1        2 0.17949509E+00 0.21490588E+04</pdfrwt>
<pdfrwt beam="2">  1       -2 0.15225000E+00 0.21490588E+04</pdfrwt>
<totfact> 0.52430744E+00</totfact>
</mgrwt>
</event>
<event>
 6    1  0.1637818E-005  0.4547752E+04  0.7818608E-02  0.7902330E-01
         -1   -1    0    0    0  501 -0.00000000000E+00  0.00000000000E+00  0.32474620094E+04  0.32474620094E+04  0.00000000000E+00 0.  1.
          1   -1    0    0  501    0  0.00000000000E+00 -0.00000000000E+00 -0.15921702432E+04  0.15921702432E+04  0.00000000000E+00 0. -1.
         23    2    1    2    0    0  0.46143158946E+03  0.78224301904E+03 -0.13894263224E+04  0.16623485870E+04  0.89855811078E+02 0.  0.
         11    1    3    3    0    0  0.26493565259E+03  0.36292956754E+03 -0.70246451848E+03  0.83388558612E+03  0.00000000000E+00 0. -1.
        -11    1    3    3    0    0  0.19649593688E+03  0.41931345150E+03 -0.68696180391E+03  0.82846300089E+03  0.00000000000E+00 0.  1.
         22    1    1    2    0    0 -0.46143158946E+03 -0.78224301904E+03  0.30447180885E+04  0.31772836655E+04  0.00000000000E+00 0.  1.
<mgrwt>
<rscale>  0 0.45477521E+04</rscale>
<asrwt>0</asrwt>
<pdfrwt beam="1">  1        1 0.24494927E+00 0.45477521E+04</pdfrwt>
<pdfrwt beam="2">  1       -1 0.49960954E+00 0.45477521E+04</pdfrwt>
<totfact> 0.63614117E-03</totfact>
</mgrwt>
</event>
<event>
 6    1  0.1637818E-005  0.1325893E+04  0.7818608E-02  0.9009280E-01
          2   -1    0    0  501    0  0.00000000000E+00  0.00000000000E+00  0.22087006123E+04  0.22087006123E+04  0.00000000000E+00 0. -1.
         -2   -1    0    0    0  501 -0.00000000000E+00 -0.00000000000E+00 -0.19898486063E+03  0.19898486063E+03  0.00000000000E+00 0.  1.
         23    2    1    2    0    0  0.60109877133E+03  0.87977231534E+02  0.54511904543E+03  0.82209307951E+03  0.98094503083E+02 0.  0.
         11    1    3    3    0    0  0.35735718595E+03  0.17679707924E+02  0.27283909805E+03  0.44995322407E+03  0.00000000000E+00 0. -1.
        -11    1    3    3    0    0  0.24374158538E+03  0.70297523610E+02  0.27227994738E+03  0.37213985545E+03  0.00000000000E+00 0.  1.
         22    1    1    2    0    0 -0.60109877133E+03 -0.87977231534E+02  0.14645967063E+04  0.15855923934E+04  0.00000000000E+00 0. -1.
<mgrwt>
<rscale>  0 0.13258929E+04</rscale>
<asrwt>0</asrwt>
<pdfrwt beam="1">  1        2 0.33980008E+00 0.13258929E+04</pdfrwt>
<pdfrwt beam="2">  1       -2 0.30613057E-01 0.13258929E+04</pdfrwt>
<totfact> 0.49424768E+01</totfact>
</mgrwt>
</event>
<event>
 6    1  0.1637818E-005  0.2369685E+04  0.7818608E-02  0.8450941E-01
         -1   -1    0    0    0  501 -0.00000000000E+00  0.00000000000E+00  0.64580776100E+03  0.64580776100E+03  0.00000000000E+00 0.  1.
          1   -1    0    0  501    0  0.00000000000E+00 -0.00000000000E+00 -0.21737915152E+04  0.21737915152E+04  0.00000000000E+00 0. -1.
         23    2    1    2    0    0 -0.81964241775E+03 -0.23238300705E+03  0.21159909407E+03  0.88260055629E+03  0.91618832140E+02 0.  0.
         11    1    3    3    0    0 -0.39359449983E+03 -0.72765658752E+02  0.71910461415E+02  0.40667257819E+03  0.00000000000E+00 0.  1.
        -11    1    3    3    0    0 -0.42604791793E+03 -0.15961734830E+03  0.13968863265E+03  0.47592797810E+03  0.00000000000E+00 0. -1.
         22    1    1    2    0    0  0.81964241775E+03  0.23238300705E+03 -0.17395828482E+04  0.19369987199E+04  0.00000000000E+00 0. -1.
<mgrwt>
<rscale>  0 0.23696847E+04</rscale>
<asrwt>0</asrwt>
<pdfrwt beam="1">  1        1 0.33442946E+00 0.23696847E+04</pdfrwt>
<pdfrwt beam="2">  1       -1 0.99355040E-01 0.23696847E+04</pdfrwt>
<totfact> 0.19725040E+00</totfact>
</mgrwt>
</event>
<event>
 6    1  0.1637818E-005  0.4547973E+04  0.7818608E-02  0.7902292E-01
          1   -1    0    0  501    0  0.00000000000E+00  0.00000000000E+00  0.29264716227E+04  0.29264716227E+04  0.00000000000E+00 0. -1.
         -1   -1    0    0    0  501 -0.00000000000E+00 -0.00000000000E+00 -0.17669791178E+04  0.17669791178E+04  0.00000000000E+00 0.  1.
         23    2    1    2    0    0 -0.17672822915E+04 -0.27232701814E+03 -0.86835576854E+03  0.19898203436E+04  0.88851317544E+02 0.  0.
         11    1    3    3    0    0 -0.54006442297E+02  0.65090262356E+01 -0.22294625265E+02  0.58788719563E+02  0.00000000000E+00 0.  1.
        -11    1    3    3    0    0 -0.17132758492E+04 -0.27883604438E+03 -0.84606114328E+03  0.19310316241E+04  0.00000000000E+00 0. -1.
         22    1    1    2    0    0  0.17672822915E+04  0.27232701814E+03  0.20278482734E+04  0.27036303968E+04  0.00000000000E+00 0. -1.
<mgrwt>
<rscale>  0 0.45479728E+04</rscale>
<asrwt>0</asrwt>
<pdfrwt beam="1">  1        1 0.45022640E+00 0.45479728E+04</pdfrwt>
<pdfrwt beam="2">  1       -1 0.27184294E+00 0.45479728E+04</pdfrwt>
<totfact> 0.25432170E-02</totfact>
</mgrwt>
</event>
<event>
 6    1  0.1637818E-005  0.7767550E+04  0.7818608E-02  0.7503073E-01
         -2   -1    0    0    0  501 -0.00000000000E+00  0.00000000000E+00  0.39899827433E+04  0.39899827433E+04  0.00000000000E+00 0.  1.
          2   -1    0    0  501    0  0.00000000000E+00 -0.00000000000E+00 -0.37803940636E+04  0.37803940636E+04  0.00000000000E+00 0. -1.
         23    2    1    2    0    0 -0.18222769170E+04  0.10027801264E+03  0.35332910770E+04  0.39785769087E+04  0.11907788250E+03 0.  0.
         13    1    3    3    0    0 -0.16834844577E+03 -0.20216353124E+02  0.36845017555E+03  0.40559269223E+03  0.00000000000E+00 0.  1.
        -13    1    3    3    0    0 -0.16539284712E+04  0.12049436576E+03  0.31648409014E+04  0.35729842165E+04  0.00000000000E+00 0. -1.
         22    1    1    2    0    0  0.18222769170E+04 -0.10027801264E+03 -0.33237023973E+04  0.37917998981E+04  0.00000000000E+00 0. -1.
<mgrwt>
<rscale>  0 0.77675497E+04</rscale>
<asrwt>0</asrwt>
<pdfrwt beam="1">  1        2 0.58159908E+00 0.77675497E+04</pdfrwt>
<pdfrwt beam="2">  1       -2 0.61384350E+00 0.77675497E+04</pdfrwt>
<totfact> 0.13882258E-04</totfact>
</mgrwt>
</event>
<event>
 6    1  0.1637818E-005  0.3088101E+04  0.7818608E-02  0.8219011E-01
         -2   -1    0    0    0  501 -0.00000000000E+00  0.00000000000E+00  0.13135210892E+04  0.13135210892E+04  0.00000000000E+00 0.  1.
          2   -1    0    0  501    0  0.00000000000E+00 -0.00000000000E+00 -0.18150387367E+04  0.18150387367E+04  0.00000000000E+00 0. -1.
         23    2    1    2    0    0  0.92921851714E+02 -0.66978922553E+03  0.11520956489E+04  0.13420299462E+04  0.12832737528E+03 0.  0.
         11    1    3    3    0    0  0.76252331837E+02 -0.21692845376E+03  0.31299861311E+03  0.38838190479E+03  0.00000000000E+00 0.  1.
        -11    1    3    3    0    0  0.16669519877E+02 -0.45286077177E+03  0.83909703576E+03  0.95364804143E+03  0.00000000000E+00 0. -1.
         22    1    1    2    0    0 -0.92921851714E+02  0.66978922553E+03 -0.16536132964E+04  0.17865298797E+04  0.00000000000E+00 0. -1.
<mgrwt>
<rscale>  0 0.30881008E+04</rscale>
<asrwt>0</asrwt>
<pdfrwt beam="1">  1        2 0.27923673E+00 0.30881008E+04</pdfrwt>
<pdfrwt beam="2">  1       -2 0.20208017E+00 0.30881008E+04</pdfrwt>
<totfact> 0.92725601E-01</totfact>
</mgrwt>
</event>
<event>
 6    1  0.1637818E-005  0.2759244E+04  0.7818608E-02  0.8316034E-01
         -2   -1    0    0    0  501 -0.00000000000E+00  0.00000000000E+00  0.13945488502E+04  0.13945488502E+04  0.00000000000E+00 0.  1.
          2   -1    0    0  501    0  0.00000000000E+00 -0.00000000000E+00 -0.13648546107E+04  0.13648546107E+04  0.00000000000E+00 0. -1.
         23    2    1    2    0    0 -0.10618397174E+04 -0.87103428373E+03 -0.10327027155E+03  0.13795904772E+04  0.80005168833E+02 0.  0.
         11    1    3    3    0    0 -0.34415246919E+03 -0.26769424281E+03 -0.68429873211E+02  0.44134315133E+03  0.00000000000E+00 0.  1.
        -11    1    3    3    0    0 -0.71768724818E+03 -0.60334004092E+03 -0.34840398338E+02  0.93824732589E+03  0.00000000000E+00 0. -1.
         22    1    1    2    0    0  0.10618397174E+04  0.87103428373E+03  0.13296451108E+03  0.13798129837E+04  0.00000000000E+00 0.  1.
<mgrwt>
<rscale>  0 0.27592437E+04</rscale>
<asrwt>0</asrwt>
<pdfrwt beam="1">  1        2 0.20997763E+00 0.27592437E+04</pdfrwt>
<pdfrwt beam="2">  1       -2 0.21454598E+00 0.27592437E+04</pdfrwt>
<totfact> 0.14170936E+00</totfact>
</mgrwt>
</event>
<event>
 6    1  0.1637818E-005  0.3121648E+04  0.7818608E-02  0.8209822E-01
          2   -1    0    0  501    0  0.00000000000E+00  0.00000000000E+00  0.18487731386E+04  0.18487731386E+04  0.00000000000E+00 0. -1.
         -2   -1    0    0    0  501 -0.00000000000E+00 -0.00000000000E+00 -0.13177237375E+04  0.13177237375E+04  0.00000000000E+00 0.  1.
         23    2    1    2    0    0  0.39757329523E+03  0.74918238742E+03  0.15932937883E+04  0.18071948814E+04  0.89607303651E+02 0.  0.
         13    1    3    3    0    0  0.30857836438E+03  0.52448388712E+03  0.12025302763E+04  0.13477325478E+04  0.00000000000E+00 0. -1.
        -13    1    3    3    0    0  0.88994930846E+02  0.22469850031E+03  0.39076351198E+03  0.45946233366E+03  0.00000000000E+00 0.  1.
         22    1    1    2    0    0 -0.39757329523E+03 -0.74918238742E+03 -0.10622443872E+04  0.13593019947E+04  0.00000000000E+00 0.  1.
<mgrwt>
<rscale>  0 0.31216484E+04</rscale>
<asrwt>0</asrwt>
<pdfrwt beam="1">  1        2 0.28442664E+00 0.31216484E+04</pdfrwt>
<pdfrwt beam="2">  1       -2 0.20272673E+00 0.31216484E+04</pdfrwt>
<totfact> 0.87709841E-01</totfact>
</mgrwt>
</event>
<event>
 6    1  0.1637818E-005  0.5557639E+04  0.7818608E-02  0.7747807E-01
         -2   -1    0    0    0  501 -0.00000000000E+00  0.00000000000E+00  0.35749664480E+04  0.35749664480E+04  0.00000000000E+00 0.  1.
          2   -1    0    0  501    0  0.00000000000E+00 -0.00000000000E+00 -0.21599752267E+04  0.21599752267E+04  0.00000000000E+00 0. -1.
         23    2    1    2    0    0  0.25427422345E+04  0.52103441538E+03  0.17294054351E+04  0.31203917649E+04  0.94798073383E+02 0.  0.
         11    1    3    3    0    0  0.39436659895E+03  0.96665157016E+02  0.30807350389E+03  0.50968465815E+03  0.00000000000E+00 0.  1.
        -11    1    3    3    0    0  0.21483756355E+04  0.42436925836E+03  0.14213319312E+04  0.26107071068E+04  0.00000000000E+00 0. -1.
         22    1    1    2    0    0 -0.25427422345E+04 -0.52103441538E+03 -0.31441421376E+03  0.26145499098E+04  0.00000000000E+00 0.  1.
<mgrwt>
<rscale>  0 0.55576394E+04</rscale>
<asrwt>0</asrwt>
<pdfrwt beam="1">  1        2 0.33230388E+00 0.55576394E+04</pdfrwt>
<pdfrwt beam="2">  1       -2 0.54999484E+00 0.55576394E+04</pdfrwt>
<totfact> 0.32827909E-03</totfact>
</mgrwt>
</event>
<event>
 6    1  0.1637818E-005  0.2884423E+04  0.7818608E-02  0.8277527E-01
          2   -1    0    0  501    0  0.00000000000E+00  0.00000000000E+00  0.11512775290E+04  0.11512775290E+04  0.00000000000E+00 0.  1.
         -2   -1    0    0    0  501 -0.00000000000E+00 -0.00000000000E+00 -0.18066657508E+04  0.18066657508E+04  0.00000000000E+00 0. -1.
         23    2    1    2    0    0 -0.56154947776E+03  0.10889224167E+04  0.44947052678E+03  0.13081545965E+04  0.90304199018E+02 0.  0.
         13    1    3    3    0    0 -0.17476348155E+03  0.31984895008E+03  0.17715173322E+03  0.40525098634E+03  0.00000000000E+00 0. -1.
        -13    1    3    3    0    0 -0.38678599621E+03  0.76907346659E+03  0.27231879356E+03  0.90290361014E+03  0.00000000000E+00 0.  1.
         22    1    1    2    0    0  0.56154947776E+03 -0.10889224167E+04 -0.11048587486E+04  0.16497886834E+04  0.00000000000E+00 0. -1.
<mgrwt>
<rscale>  0 0.28844228E+04</rscale>
<asrwt>0</asrwt>
<pdfrwt beam="1">  1        2 0.17711962E+00 0.28844228E+04</pdfrwt>
<pdfrwt beam="2">  1       -2 0.27794857E+00 0.28844228E+04</pdfrwt>
<totfact> 0.75906782E-01</totfact>
</mgrwt>
</event>
<event>
 6    1  0.1637818E-005  0.3277381E+04  0.7818608E-02  0.8168675E-01
          1   -1    0    0  501    0  0.00000000000E+00  0.00000000000E+00  0.16733974890E+04  0.16733974890E+04  0.00000000000E+00 0. -1.
         -1   -1    0    0    0  501 -0.00000000000E+00 -0.00000000000E+00 -0.16047034776E+04  0.16047034776E+04  0.00000000000E+00 0.  1.
         23    2    1    2    0    0  0.96593809277E+03  0.57288423012E+03 -0.11572765596E+04  0.16155016218E+04  0.96559383789E+02 0.  0.
         13    1    3    3    0    0  0.48913521583E+03  0.29138634691E+03 -0.65581348114E+03  0.86847601266E+03  0.00000000000E+00 0. -1.
        -13    1    3    3    0    0  0.47680287695E+03  0.28149788321E+03 -0.50146307847E+03  0.74702560919E+03  0.00000000000E+00 0.  1.
         22    1    1    2    0    0 -0.96593809277E+03 -0.57288423012E+03  0.12259705710E+04  0.16625993447E+04  0.00000000000E+00 0. -1.
<mgrwt>
<rscale>  0 0.32773811E+04</rscale>
<asrwt>0</asrwt>
<pdfrwt beam="1">  1        1 0.25744577E+00 0.32773811E+04</pdfrwt>
<pdfrwt beam="2">  1       -1 0.24687746E+00 0.32773811E+04</pdfrwt>
<totfact> 0.30187745E-01</totfact>
</mgrwt>
</event>
<event>
 6    1  0.1637818E-005  0.1502283E+04  0.7818608E-02  0.8882936E-01
          2   -1    0    0  501    0  0.00000000000E+00  0.00000000000E+00  0.11695508892E+04  0.11695508892E+04  0.00000000000E+00 0. -1.
         -2   -1    0    0    0  501 -0.00000000000E+00 -0.00000000000E+00 -0.48241877522E+03  0.48241877522E+03  0.00000000000E+00 0.  1.
         23    2    1    2    0    0  0.13717205598E+03  0.69437464752E+03  0.76922199046E+02  0.71744921823E+03  0.88566539807E+02 0.  0.
         11    1    3    3    0    0  0.12606072567E+03  0.48655534697E+03  0.82030133639E+02  0.50927041446E+03  0.00000000000E+00 0. -1.
        -11    1    3    3    0    0  0.11111330304E+02  0.20781930055E+03 -0.51079345921E+01  0.20817880377E+03  0.00000000000E+00 0.  1.
         22    1    1    2    0    0 -0.13717205598E+03 -0.69437464752E+03  0.61020991489E+03  0.93452044615E+03  0.00000000000E+00 0. -1.
<mgrwt>
<rscale>  0 0.15022827E+04</rscale>
<asrwt>0</asrwt>
<pdfrwt beam="1">  1        2 0.17993091E+00 0.15022827E+04</pdfrwt>
<pdfrwt beam="2">  1       -2 0.74218273E-01 0.15022827E+04</pdfrwt>
<totfact> 0.31195498E+01</totfact>
</mgrwt>
</event>
<event>
 6    1  0.1637818E-005  0.1639997E+04  0.7818608E-02  0.8796346E-01
         -1   -1    0    0    0  501 -0.00000000000E+00  0.00000000000E+00  0.14354921061E+04  0.14354921061E+04  0.00000000000E+00 0.  1.
          1   -1    0    0  501    0  0.00000000000E+00 -0.00000000000E+00 -0.46840917676E+03  0.46840917676E+03  0.00000000000E+00 0. -1.
         23    2    1    2    0    0  0.45905124968E+03  0.66765942229E+03  0.36370747365E+03  0.89367403391E+03  0.99362963380E+02 0.  0.
         11    1    3    3    0    0  0.21398915873E+02  0.15096341560E+02 -0.34048484206E+01  0.26408447925E+02  0.00000000000E+00 0. -1.
        -11    1    3    3    0    0  0.43765233381E+03  0.65256308073E+03  0.36711232207E+03  0.86726558599E+03  0.00000000000E+00 0.  1.
         22    1    1    2    0    0 -0.45905124968E+03 -0.66765942229E+03  0.60337545572E+03  0.10102272490E+04  0.00000000000E+00 0.  1.
<mgrwt>
<rscale>  0 0.16399972E+04</rscale>
<asrwt>0</asrwt>
<pdfrwt beam="1">  1        1 0.72062951E-01 0.16399972E+04</pdfrwt>
<pdfrwt beam="2">  1       -1 0.22084494E+00 0.16399972E+04</pdfrwt>
<totfact> 0.50362721E+00</totfact>
</mgrwt>
</event>
<event>
 6    1  0.1637818E-005  0.9778390E+03  0.7818608E-02  0.9333190E-01
          1   -1    0    0  501    0  0.00000000000E+00  0.00000000000E+00  0.16836950546E+04  0.16836950546E+04  0.00000000000E+00 0.  1.
         -1   -1    0    0    0  501 -0.00000000000E+00 -0.00000000000E+00 -0.14197479953E+03  0.14197479953E+03  0.00000000000E+00 0. -1.
         23    2    1    2    0    0 -0.33993736268E+03  0.32538469505E+03  0.56052714608E+03  0.73747293838E+03  0.90791205708E+02 0.  0.
         13    1    3    3    0    0 -0.25758532710E+03  0.23319185488E+03  0.34900177289E+03  0.49247424237E+03  0.00000000000E+00 0. -1.
        -13    1    3    3    0    0 -0.82352035578E+02  0.92192840169E+02  0.21152537319E+03  0.24499869601E+03  0.00000000000E+00 0.  1.
         22    1    1    2    0    0  0.33993736268E+03 -0.32538469505E+03  0.98119310897E+03  0.10881969157E+04  0.00000000000E+00 0.  1.
<mgrwt>
<rscale>  0 0.97783898E+03</rscale>
<asrwt>0</asrwt>
<pdfrwt beam="1">  1        1 0.25902999E+00 0.97783898E+03</pdfrwt>
<pdfrwt beam="2">  1       -1 0.21842278E-01 0.97783898E+03</pdfrwt>
<totfact> 0.86698029E+01</totfact>
</mgrwt>
</event>
<event>
 6    1  0.1637818E-005  0.3703858E+04  0.7818608E-02  0.8067107E-01
         -1   -1    0    0    0  501 -0.00000000000E+00  0.00000000000E+00  0.98096927922E+03  0.98096927922E+03  0.00000000000E+00 0.  1.
          1   -1    0    0  501    0  0.00000000000E+00 -0.00000000000E+00 -0.34961760629E+04  0.34961760629E+04  0.00000000000E+00 0. -1.
         23    2    1    2    0    0  0.11908068449E+04  0.11994381692E+04 -0.21706617304E+04  0.27522151530E+04  0.79012891515E+02 0.  0.
         13    1    3    3    0    0  0.83261296412E+03  0.82768892894E+03 -0.15646771187E+04  0.19561512715E+04  0.00000000000E+00 0.  1.
        -13    1    3    3    0    0  0.35819388081E+03  0.37174924024E+03 -0.60598461167E+03  0.79606388151E+03  0.00000000000E+00 0. -1.
         22    1    1    2    0    0 -0.11908068449E+04 -0.11994381692E+04 -0.34454505332E+03  0.17249301891E+04  0.00000000000E+00 0.  1.
<mgrwt>
<rscale>  0 0.37038582E+04</rscale>
<asrwt>0</asrwt>
<pdfrwt beam="1">  1        1 0.53787325E+00 0.37038582E+04</pdfrwt>
<pdfrwt beam="2">  1       -1 0.15091835E+00 0.37038582E+04</pdfrwt>
<totfact> 0.69156413E-02</totfact>
</mgrwt>
</event>
<event>
 6    1  0.1637818E-005  0.2683348E+04  0.7818608E-02  0.8340428E-01
         -2   -1    0    0    0  501 -0.00000000000E+00  0.00000000000E+00  0.90809674929E+03  0.90809674929E+03  0.00000000000E+00 0.  1.
          2   -1    0    0  501    0  0.00000000000E+00 -0.00000000000E+00 -0.19822663709E+04  0.19822663709E+04  0.00000000000E+00 0. -1.
         23    2    1    2    0    0 -0.10593049055E+04 -0.12935803329E+03  0.33550029903E+03  0.11223049569E+04  0.90263957331E+02 0.  0.
         11    1    3    3    0    0 -0.31477415209E+03 -0.49017083853E+02  0.58691462041E+02  0.32392920376E+03  0.00000000000E+00 0. -1.
        -11    1    3    3    0    0 -0.74453075342E+03 -0.80340949437E+02  0.27680883699E+03  0.79837575313E+03  0.00000000000E+00 0.  1.
         22    1    1    2    0    0  0.10593049055E+04  0.12935803329E+03 -0.14096699206E+04  0.17680581633E+04  0.00000000000E+00 0. -1.
<mgrwt>
<rscale>  0 0.26833484E+04</rscale>
<asrwt>0</asrwt>
<pdfrwt beam="1">  1        2 0.30496405E+00 0.26833484E+04</pdfrwt>
<pdfrwt beam="2">  1       -2 0.13970719E+00 0.26833484E+04</pdfrwt>
<totfact> 0.21684093E+00</totfact>
</mgrwt>
</event>
<event>
 6    1  0.1637818E-005  0.7746463E+03  0.7818608E-02  0.9597458E-01
         -2   -1    0    0    0  501 -0.00000000000E+00  0.00000000000E+00  0.57102046785E+03  0.57102046785E+03  0.00000000000E+00 0.  1.
          2   -1    0    0  501    0  0.00000000000E+00 -0.00000000000E+00 -0.26272123862E+03  0.26272123862E+03  0.00000000000E+00 0. -1.
         23    2    1    2    0    0 -0.37965209589E+03  0.44701357449E+02  0.16033919589E+03  0.42383184231E+03  0.88265777882E+02 0.  0.
         13    1    3    3    0    0 -0.23612476861E+03  0.22824601504E+02  0.14453759627E+03  0.27778946258E+03  0.00000000000E+00 0.  1.
        -13    1    3    3    0    0 -0.14352732728E+03  0.21876755946E+02  0.15801599624E+02  0.14604237973E+03  0.00000000000E+00 0. -1.
         22    1    1    2    0    0  0.37965209589E+03 -0.44701357449E+02  0.14796003334E+03  0.40990986416E+03  0.00000000000E+00 0. -1.
<mgrwt>
<rscale>  0 0.77464625E+03</rscale>
<asrwt>0</asrwt>
<pdfrwt beam="1">  1        2 0.40418652E-01 0.77464625E+03</pdfrwt>
<pdfrwt beam="2">  1       -2 0.87849302E-01 0.77464625E+03</pdfrwt>
<totfact> 0.14341662E+02</totfact>
</mgrwt>
</event>
<event>
 6    1  0.1637818E-005  0.2880853E+04  0.7818608E-02  0.8278597E-01
         -2   -1    0    0    0  501 -0.00000000000E+00  0.00000000000E+00  0.20551585591E+04  0.20551585591E+04  0.00000000000E+00 0.  1.
          2   -1    0    0  501    0  0.00000000000E+00 -0.00000000000E+00 -0.10095711663E+04  0.10095711663E+04  0.00000000000E+00 0. -1.
         23    2    1    2    0    0  0.17294313468E+03  0.14279180959E+04  0.56895654490E+03  0.15494619664E+04  0.90892347616E+02 0.  0.
         11    1    3    3    0    0  0.10935145617E+03  0.11035944993E+04  0.46983980648E+03  0.12044201940E+04  0.00000000000E+00 0. -1.
        -11    1    3    3    0    0  0.63591678512E+02  0.32432359656E+03  0.99116738424E+02  0.34504177239E+03  0.00000000000E+00 0.  1.
         22    1    1    2    0    0 -0.17294313468E+03 -0.14279180959E+04  0.47663084797E+03  0.15152677590E+04  0.00000000000E+00 0.  1.
<mgrwt>
<rscale>  0 0.28808532E+04</rscale>
<asrwt>0</asrwt>
<pdfrwt beam="1">  1        2 0.15531864E+00 0.28808532E+04</pdfrwt>
<pdfrwt beam="2">  1       -2 0.31617824E+00 0.28808532E+04</pdfrwt>
<totfact> 0.54267990E-01</totfact>
</mgrwt>
</event>
<event>
 6    1  0.1637818E-005  0.1907870E+04  0.7818608E-02  0.8650949E-01
          2   -1    0    0  501    0  0.00000000000E+00  0.00000000000E+00  0.13196701344E+04  0.13196701344E+04  0.00000000000E+00 0. -1.
         -2   -1    0    0    0  501 -0.00000000000E+00 -0.00000000000E+00 -0.68956030595E+03  0.68956030595E+03  0.00000000000E+00 0.  1.
         23    2    1    2    0    0  0.16721956340E+03 -0.80144694421E+03  0.82702651527E+03  0.11671759479E+04  0.89706463061E+02 0.  0.
         13    1    3    3    0    0  0.16373140520E+03 -0.66199487824E+03  0.65330366587E+03  0.94437856377E+03  0.00000000000E+00 0.  1.
        -13    1    3    3    0    0  0.34881582005E+01 -0.13945206598E+03  0.17372284940E+03  0.22279738409E+03  0.00000000000E+00 0. -1.
         22    1    1    2    0    0 -0.16721956340E+03  0.80144694421E+03 -0.19691668682E+03  0.84205449249E+03  0.00000000000E+00 0.  1.
<mgrwt>
<rscale>  0 0.19078702E+04</rscale>
<asrwt>0</asrwt>
<pdfrwt beam="1">  1        2 0.20302618E+00 0.19078702E+04</pdfrwt>
<pdfrwt beam="2">  1       -2 0.10608620E+00 0.19078702E+04</pdfrwt>
<totfact> 0.10808668E+01</totfact>
</mgrwt>
</event>
<event>
 6    1  0.1637818E-005  0.3653703E+04  0.7818608E-02  0.8078300E-01
          1   -1    0    0  501    0  0.00000000000E+00  0.00000000000E+00  0.13981488157E+04  0.13981488157E+04  0.00000000000E+00 0. -1.
         -1   -1    0    0    0  501 -0.00000000000E+00 -0.00000000000E+00 -0.23870040847E+04  0.23870040847E+04  0.00000000000E+00 0.  1.
         23    2    1    2    0    0  0.17795310404E+04  0.14249157664E+03 -0.89060792360E+03  0.19972247380E+04  0.93218061855E+02 0.  0.
         11    1    3    3    0    0  0.62245528867E+02  0.50969231698E+01 -0.12981721852E+02  0.63788788921E+02  0.00000000000E+00 0. -1.
        -11    1    3    3    0    0  0.17172855116E+04  0.13739465347E+03 -0.87762620175E+03  0.19334359490E+04  0.00000000000E+00 0.  1.
         22    1    1    2    0    0 -0.17795310404E+04 -0.14249157664E+03 -0.98247345445E+02  0.17879281625E+04  0.00000000000E+00 0. -1.
<mgrwt>
<rscale>  0 0.36537033E+04</rscale>
<asrwt>0</asrwt>
<pdfrwt beam="1">  1        1 0.21509982E+00 0.36537033E+04</pdfrwt>
<pdfrwt beam="2">  1       -1 0.36723140E+00 0.36537033E+04</pdfrwt>
<totfact> 0.73972689E-02</totfact>
</mgrwt>
</event>
<event>
 6    1  0.1637818E-005  0.1292988E+04  0.7818608E-02  0.9035144E-01
         -4   -1    0    0    0  501 -0.00000000000E+00  0.00000000000E+00  0.65065842583E+03  0.65065842583E+03  0.00000000000E+00 0.  1.
          4   -1    0    0  501    0  0.00000000000E+00 -0.00000000000E+00 -0.64235629345E+03  0.64235629345E+03  0.00000000000E+00 0. -1.
         23    2    1    2    0    0 -0.38742914388E+03  0.44947946342E+02  0.51492710280E+03  0.65364743824E+03  0.99916930030E+02 0.  0.
         13    1    3    3    0    0 -0.17850317774E+03  0.12399993332E+02  0.31702762232E+03  0.36403798924E+03  0.00000000000E+00 0. -1.
        -13    1    3    3    0    0 -0.20892596614E+03  0.32547953010E+02  0.19789948048E+03  0.28960944899E+03  0.00000000000E+00 0.  1.
         22    1    1    2    0    0  0.38742914388E+03 -0.44947946342E+02 -0.50662497043E+03  0.63936728104E+03  0.00000000000E+00 0. -1.
<mgrwt>
<rscale>  0 0.12929881E+04</rscale>
<asrwt>0</asrwt>
<pdfrwt beam="1">  1        4 0.98824046E-01 0.12929881E+04</pdfrwt>
<pdfrwt beam="2">  1       -4 0.10010130E+00 0.12929881E+04</pdfrwt>
<totfact> 0.13696085E+00</totfact>
</mgrwt>
</event>
<event>
 6    1  0.1637818E-005  0.1002852E+04  0.7818608E-02  0.9305422E-01
         -1   -1    0    0    0  501 -0.00000000000E+00  0.00000000000E+00  0.40427700994E+03  0.40427700994E+03  0.00000000000E+00 0.  1.
          1   -1    0    0  501    0  0.00000000000E+00 -0.00000000000E+00 -0.62192019153E+03  0.62192019153E+03  0.00000000000E+00 0. -1.
         23    2    1    2    0    0  0.37333313297E+03 -0.13967819480E+03 -0.41789096673E+03  0.58011783440E+03  0.54920082199E+02 0.  0.
         11    1    3    3    0    0  0.29443510469E+03 -0.86102946915E+02 -0.32713228211E+03  0.44846547062E+03  0.00000000000E+00 0. -1.
        -11    1    3    3    0    0  0.78898028285E+02 -0.53575247883E+02 -0.90758684620E+02  0.13165236377E+03  0.00000000000E+00 0.  1.
         22    1    1    2    0    0 -0.37333313297E+03  0.13967819480E+03  0.20024778514E+03  0.44607936708E+03  0.00000000000E+00 0.  1.
<mgrwt>
<rscale>  0 0.10028520E+04</rscale>
<asrwt>0</asrwt>
<pdfrwt beam="1">  1        1 0.95680029E-01 0.10028520E+04</pdfrwt>
<pdfrwt beam="2">  1       -1 0.62196463E-01 0.10028520E+04</pdfrwt>
<totfact> 0.85456585E+01</totfact>
</mgrwt>
</event>
<event>
 6    1  0.1637818E-005  0.4597339E+04  0.7818608E-02  0.7893814E-01
          1   -1    0    0  501    0  0.00000000000E+00  0.00000000000E+00  0.21895863440E+04  0.21895863440E+04  0.00000000000E+00 0.  1.
         -1   -1    0    0    0  501 -0.00000000000E+00 -0.00000000000E+00 -0.24131866098E+04  0.24131866098E+04  0.00000000000E+00 0. -1.
         23    2    1    2    0    0  0.16548977371E+04  0.10236039561E+04 -0.13350910062E+04  0.23618215386E+04  0.96340053815E+02 0.  0.
         11    1    3    3    0    0  0.13358875397E+04  0.81872364738E+03 -0.11196307007E+04  0.19257405940E+04  0.00000000000E+00 0. -1.
        -11    1    3    3    0    0  0.31901019740E+03  0.20488030875E+03 -0.21546030553E+03  0.43608094458E+03  0.00000000000E+00 0.  1.
         22    1    1    2    0    0 -0.16548977371E+04 -0.10236039561E+04  0.11114907405E+04  0.22409514152E+04  0.00000000000E+00 0.  1.
<mgrwt>
<rscale>  0 0.45973386E+04</rscale>
<asrwt>0</asrwt>
<pdfrwt beam="1">  1        1 0.33685944E+00 0.45973386E+04</pdfrwt>
<pdfrwt beam="2">  1       -1 0.37125948E+00 0.45973386E+04</pdfrwt>
<totfact> 0.18498371E-02</totfact>
</mgrwt>
</event>
<event>
 6    1  0.1637818E-005  0.2409316E+04  0.7818608E-02  0.8436024E-01
          2   -1    0    0  501    0  0.00000000000E+00  0.00000000000E+00  0.15259037296E+04  0.15259037296E+04  0.00000000000E+00 0. -1.
         -2   -1    0    0    0  501 -0.00000000000E+00 -0.00000000000E+00 -0.95104361809E+03  0.95104361809E+03  0.00000000000E+00 0.  1.
         23    2    1    2    0    0  0.72457320397E+03 -0.78492695769E+03  0.85611775165E+03  0.13723105219E+04  0.95822268238E+02 0.  0.
         13    1    3    3    0    0  0.65525175885E+03 -0.66509535895E+03  0.73228665857E+03  0.11865708804E+04  0.00000000000E+00 0.  1.
        -13    1    3    3    0    0  0.69321445120E+02 -0.11983159873E+03  0.12383109308E+03  0.18573964149E+03  0.00000000000E+00 0. -1.
         22    1    1    2    0    0 -0.72457320397E+03  0.78492695769E+03 -0.28125764010E+03  0.11046368258E+04  0.00000000000E+00 0.  1.
<mgrwt>
<rscale>  0 0.24093161E+04</rscale>
<asrwt>0</asrwt>
<pdfrwt beam="1">  1        2 0.23475442E+00 0.24093161E+04</pdfrwt>
<pdfrwt beam="2">  1       -2 0.14631440E+00 0.24093161E+04</pdfrwt>
<totfact> 0.35295577E+00</totfact>
</mgrwt>
</event>
<event>
 6    1  0.1637818E-005  0.2236856E+04  0.7818608E-02  0.8503243E-01
         -2   -1    0    0    0  501 -0.00000000000E+00  0.00000000000E+00  0.10348895578E+04  0.10348895578E+04  0.00000000000E+00 0. -1.
          2   -1    0    0  501    0  0.00000000000E+00 -0.00000000000E+00 -0.12087098536E+04  0.12087098536E+04  0.00000000000E+00 0.  1.
         23    2    1    2    0    0  0.66680376697E+03  0.10998320520E+03 -0.97863481050E+03  0.11926712635E+04  0.89526986638E+02 0.  0.
         11    1    3    3    0    0  0.32144932032E+03  0.20656581837E+02 -0.40984477090E+03  0.52127641050E+03  0.00000000000E+00 0.  1.
        -11    1    3    3    0    0  0.34535444664E+03  0.89326623364E+02 -0.56879003960E+03  0.67139485298E+03  0.00000000000E+00 0. -1.
         22    1    1    2    0    0 -0.66680376697E+03 -0.10998320520E+03  0.80481451468E+03  0.10509281479E+04  0.00000000000E+00 0. -1.
<mgrwt>
<rscale>  0 0.22368560E+04</rscale>
<asrwt>0</asrwt>
<pdfrwt beam="1">  1        2 0.18595536E+00 0.22368560E+04</pdfrwt>
<pdfrwt beam="2">  1       -2 0.15921378E+00 0.22368560E+04</pdfrwt>
<totfact> 0.43542754E+00</totfact>
</mgrwt>
</event>
<event>
 6    1  0.1637818E-005  0.3814573E+04  0.7818608E-02  0.8043035E-01
         -1   -1    0    0    0  501 -0.00000000000E+00  0.00000000000E+00  0.19614294974E+04  0.19614294974E+04  0.00000000000E+00 0.  1.
          1   -1    0    0  501    0  0.00000000000E+00 -0.00000000000E+00 -0.18546384191E+04  0.18546384191E+04  0.00000000000E+00 0. -1.
         23    2    1    2    0    0  0.33110504071E+03  0.85347738143E+03  0.17261007848E+04  0.19559017641E+04  0.89853230461E+02 0.  0.
         11    1    3    3    0    0  0.11098826058E+03  0.26150001600E+03  0.45209784328E+03  0.53394111309E+03  0.00000000000E+00 0. -1.
        -11    1    3    3    0    0  0.22011678013E+03  0.59197736543E+03  0.12740029415E+04  0.14219606511E+04  0.00000000000E+00 0.  1.
         22    1    1    2    0    0 -0.33110504071E+03 -0.85347738143E+03 -0.16193097065E+04  0.18601661523E+04  0.00000000000E+00 0. -1.
<mgrwt>
<rscale>  0 0.38145734E+04</rscale>
<asrwt>0</asrwt>
<pdfrwt beam="1">  1        1 0.28532899E+00 0.38145734E+04</pdfrwt>
<pdfrwt beam="2">  1       -1 0.30175838E+00 0.38145734E+04</pdfrwt>
<totfact> 0.95610688E-02</totfact>
</mgrwt>
</event>
<event>
 6    1  0.1637818E-005  0.2797443E+04  0.7818608E-02  0.8304063E-01
          1   -1    0    0  501    0  0.00000000000E+00  0.00000000000E+00  0.83660542149E+03  0.83660542149E+03  0.00000000000E+00 0. -1.
         -1   -1    0    0    0  501 -0.00000000000E+00 -0.00000000000E+00 -0.23385240698E+04  0.23385240698E+04  0.00000000000E+00 0.  1.
         23    2    1    2    0    0  0.28350915317E+03  0.13681093899E+04 -0.74322820803E+03  0.15852515316E+04  0.92376980934E+02 0.  0.
         11    1    3    3    0    0  0.18905561424E+03  0.10240381048E+04 -0.59071752349E+03  0.11972231446E+04  0.00000000000E+00 0.  1.
        -11    1    3    3    0    0  0.94453538931E+02  0.34407128504E+03 -0.15251068454E+03  0.38802838699E+03  0.00000000000E+00 0. -1.
         22    1    1    2    0    0 -0.28350915317E+03 -0.13681093899E+04 -0.75869044033E+03  0.15898779597E+04  0.00000000000E+00 0.  1.
<mgrwt>
<rscale>  0 0.27974431E+04</rscale>
<asrwt>0</asrwt>
<pdfrwt beam="1">  1        1 0.12870853E+00 0.27974431E+04</pdfrwt>
<pdfrwt beam="2">  1       -1 0.35977293E+00 0.27974431E+04</pdfrwt>
<totfact> 0.23811194E-01</totfact>
</mgrwt>
</event>
<event>
 6    1  0.1637818E-005  0.1779922E+04  0.7818608E-02  0.8717050E-01
         -2   -1    0    0    0  501 -0.00000000000E+00  0.00000000000E+00  0.74319761354E+03  0.74319761354E+03  0.00000000000E+00 0. -1.
          2   -1    0    0  501    0  0.00000000000E+00 -0.00000000000E+00 -0.10657067365E+04  0.10657067365E+04  0.00000000000E+00 0.  1.
         23    2    1    2    0    0 -0.71243695879E+03 -0.22079181551E+03  0.32730135227E+03  0.81967783415E+03  0.91815742498E+02 0.  0.
         13    1    3    3    0    0 -0.45154369869E+03 -0.15435807781E+03  0.25434428819E+03  0.54074868927E+03  0.00000000000E+00 0. -1.
        -13    1    3    3    0    0 -0.26089326009E+03 -0.66433737696E+02  0.72957064076E+02  0.27892914488E+03  0.00000000000E+00 0.  1.
         22    1    1    2    0    0  0.71243695879E+03  0.22079181551E+03 -0.64981047524E+03  0.98922651590E+03  0.00000000000E+00 0.  1.
<mgrwt>
<rscale>  0 0.17799221E+04</rscale>
<asrwt>0</asrwt>
<pdfrwt beam="1">  1        2 0.16395488E+00 0.17799221E+04</pdfrwt>
<pdfrwt beam="2">  1       -2 0.11433810E+00 0.17799221E+04</pdfrwt>
<totfact> 0.12941329E+01</totfact>
</mgrwt>
</event>
<event>
 6    1  0.1637818E-005  0.2035175E+04  0.7818608E-02  0.8590350E-01
          1   -1    0    0  501    0  0.00000000000E+00  0.00000000000E+00  0.29896247805E+04  0.29896247805E+04  0.00000000000E+00 0. -1.
         -1   -1    0    0    0  501 -0.00000000000E+00 -0.00000000000E+00 -0.34635918523E+03  0.34635918523E+03  0.00000000000E+00 0.  1.
         23    2    1    2    0    0 -0.73642406155E+03 -0.69009781174E+03  0.15100995931E+04  0.18185451443E+04  0.90278860978E+02 0.  0.
         13    1    3    3    0    0 -0.19305149206E+03 -0.12991104513E+03  0.33390235101E+03  0.40698469043E+03  0.00000000000E+00 0.  1.
        -13    1    3    3    0    0 -0.54337256949E+03 -0.56018676661E+03  0.11761972420E+04  0.14115604539E+04  0.00000000000E+00 0. -1.
         22    1    1    2    0    0  0.73642406155E+03  0.69009781174E+03  0.11331660022E+04  0.15174388215E+04  0.00000000000E+00 0.  1.
<mgrwt>
<rscale>  0 0.20351747E+04</rscale>
<asrwt>0</asrwt>
<pdfrwt beam="1">  1        1 0.45994226E+00 0.20351747E+04</pdfrwt>
<pdfrwt beam="2">  1       -1 0.53286031E-01 0.20351747E+04</pdfrwt>
<totfact> 0.20017323E+00</totfact>
</mgrwt>
</event>
<event>
 6    1  0.1637818E-005  0.5407028E+03  0.7818608E-02  0.1003669E+00
         -2   -1    0    0    0  501 -0.00000000000E+00  0.00000000000E+00  0.31657406877E+03  0.31657406877E+03  0.00000000000E+00 0.  1.
          2   -1    0    0  501    0  0.00000000000E+00 -0.00000000000E+00 -0.23087763782E+03  0.23087763782E+03  0.00000000000E+00 0. -1.
         23    2    1    2    0    0 -0.39341207362E+02 -0.14653975752E+03 -0.17371630958E+03  0.24692450137E+03  0.88163042317E+02 0.  0.
         11    1    3    3    0    0  0.14477709148E+02  0.46667986685E+00 -0.34542797745E+02  0.37456998389E+02  0.00000000000E+00 0. -1.
        -11    1    3    3    0    0 -0.53818916509E+02 -0.14700643739E+03 -0.13917351183E+03  0.20946750298E+03  0.00000000000E+00 0.  1.
         22    1    1    2    0    0  0.39341207362E+02  0.14653975752E+03  0.25941274053E+03  0.30052720523E+03  0.00000000000E+00 0.  1.
<mgrwt>
<rscale>  0 0.54070278E+03</rscale>
<asrwt>0</asrwt>
<pdfrwt beam="1">  1        2 0.35519637E-01 0.54070278E+03</pdfrwt>
<pdfrwt beam="2">  1       -2 0.48703703E-01 0.54070278E+03</pdfrwt>
<totfact> 0.59155289E+02</totfact>
</mgrwt>
</event>
<event>
 6    1  0.1637818E-005  0.1925641E+04  0.7818608E-02  0.8642197E-01
         -1   -1    0    0    0  501 -0.00000000000E+00  0.00000000000E+00  0.19464897196E+04  0.19464897196E+04  0.00000000000E+00 0.  1.
          1   -1    0    0  501    0  0.00000000000E+00 -0.00000000000E+00 -0.47625402026E+03  0.47625402026E+03  0.00000000000E+00 0. -1.
         23    2    1    2    0    0 -0.79316354242E+03  0.32394702756E+03  0.12831582777E+04  0.15457898965E+04  0.94451875856E+02 0.  0.
         13    1    3    3    0    0 -0.37131066866E+03  0.19333633824E+03  0.67327729322E+03  0.79281326043E+03  0.00000000000E+00 0.  1.
        -13    1    3    3    0    0 -0.42185287375E+03  0.13061068932E+03  0.60988098444E+03  0.75297663605E+03  0.00000000000E+00 0. -1.
         22    1    1    2    0    0  0.79316354242E+03 -0.32394702756E+03  0.18707742166E+03  0.87695384336E+03  0.00000000000E+00 0. -1.
<mgrwt>
<rscale>  0 0.19256412E+04</rscale>
<asrwt>0</asrwt>
<pdfrwt beam="1">  1        1 0.73269850E-01 0.19256412E+04</pdfrwt>
<pdfrwt beam="2">  1       -1 0.29945995E+00 0.19256412E+04</pdfrwt>
<totfact> 0.14742512E+00</totfact>
</mgrwt>
</event>
<event>
 6    1  0.1637818E-005  0.1357209E+04  0.7818608E-02  0.8985389E-01
          2   -1    0    0  501    0  0.00000000000E+00  0.00000000000E+00  0.64001668204E+03  0.64001668204E+03  0.00000000000E+00 0. -1.
         -2   -1    0    0    0  501 -0.00000000000E+00 -0.00000000000E+00 -0.71951848186E+03  0.71951848186E+03  0.00000000000E+00 0.  1.
         23    2    1    2    0    0  0.41274439215E+03  0.27275762061E+03  0.42086604264E+03  0.65588565553E+03  0.91121426858E+02 0.  0.
         11    1    3    3    0    0  0.28896321918E+03  0.22276269343E+03  0.34599258491E+03  0.50282584304E+03  0.00000000000E+00 0. -1.
        -11    1    3    3    0    0  0.12378117297E+03  0.49994927177E+02  0.74873457735E+02  0.15305981249E+03  0.00000000000E+00 0.  1.
         22    1    1    2    0    0 -0.41274439215E+03 -0.27275762061E+03 -0.50036784247E+03  0.70364950837E+03  0.00000000000E+00 0.  1.
<mgrwt>
<rscale>  0 0.13572087E+04</rscale>
<asrwt>0</asrwt>
<pdfrwt beam="1">  1        2 0.98464105E-01 0.13572087E+04</pdfrwt>
<pdfrwt beam="2">  1       -2 0.11069515E+00 0.13572087E+04</pdfrwt>
<totfact> 0.28952873E+01</totfact>
</mgrwt>
</event>
<event>
 6    1  0.1637818E-005  0.2061846E+04  0.7818608E-02  0.8578239E-01
         -2   -1    0    0    0  501 -0.00000000000E+00  0.00000000000E+00  0.38190469749E+03  0.38190469749E+03  0.00000000000E+00 0. -1.
          2   -1    0    0  501    0  0.00000000000E+00 -0.00000000000E+00 -0.27828981713E+04  0.27828981713E+04  0.00000000000E+00 0.  1.
         23    2    1    2    0    0  0.65945567964E+03  0.65692584614E+03 -0.18757854278E+04  0.20960293416E+04  0.91294410015E+02 0.  0.
         11    1    3    3    0    0  0.22754411186E+03  0.27915688804E+03 -0.77844574710E+03  0.85771946005E+03  0.00000000000E+00 0. -1.
        -11    1    3    3    0    0  0.43191156778E+03  0.37776895810E+03 -0.10973396807E+04  0.12383098816E+04  0.00000000000E+00 0.  1.
         22    1    1    2    0    0 -0.65945567964E+03 -0.65692584614E+03 -0.52520804608E+03  0.10687735272E+04  0.00000000000E+00 0. -1.
<mgrwt>
<rscale>  0 0.20618457E+04</rscale>
<asrwt>0</asrwt>
<pdfrwt beam="1">  1        2 0.42813820E+00 0.20618457E+04</pdfrwt>
<pdfrwt beam="2">  1       -2 0.58754566E-01 0.20618457E+04</pdfrwt>
<totfact> 0.59335710E+00</totfact>
</mgrwt>
</event>
<event>
 6    1  0.1637818E-005  0.2554962E+04  0.7818608E-02  0.8383663E-01
         -2   -1    0    0    0  501 -0.00000000000E+00  0.00000000000E+00  0.57019995476E+03  0.57019995476E+03  0.00000000000E+00 0.  1.
          2   -1    0    0  501    0  0.00000000000E+00 -0.00000000000E+00 -0.28620792758E+04  0.28620792758E+04  0.00000000000E+00 0. -1.
         23    2    1    2    0    0 -0.96498191021E+03 -0.60927482851E+03 -0.19135603974E+04  0.22299768095E+04  0.93151879371E+02 0.  0.
         13    1    3    3    0    0 -0.52213129239E+03 -0.32002039558E+03 -0.11153513542E+04  0.12724161203E+04  0.00000000000E+00 0. -1.
        -13    1    3    3    0    0 -0.44285061782E+03 -0.28925443292E+03 -0.79820904326E+03  0.95756068916E+03  0.00000000000E+00 0.  1.
         22    1    1    2    0    0  0.96498191021E+03  0.60927482851E+03 -0.37831892359E+03  0.12023024210E+04  0.00000000000E+00 0.  1.
<mgrwt>
<rscale>  0 0.25549618E+04</rscale>
<asrwt>0</asrwt>
<pdfrwt beam="1">  1        2 0.44031989E+00 0.25549618E+04</pdfrwt>
<pdfrwt beam="2">  1       -2 0.87723070E-01 0.25549618E+04</pdfrwt>
<totfact> 0.21095882E+00</totfact>
</mgrwt>
</event>
<event>
 6    1  0.1637818E-005  0.2325043E+04  0.7818608E-02  0.8468112E-01
          2   -1    0    0  501    0  0.00000000000E+00  0.00000000000E+00  0.50070580383E+03  0.50070580383E+03  0.00000000000E+00 0. -1.
         -2   -1    0    0    0  501 -0.00000000000E+00 -0.00000000000E+00 -0.26991018845E+04  0.26991018845E+04  0.00000000000E+00 0.  1.
         23    2    1    2    0    0 -0.50326942351E+03  0.13499792723E+03  0.32655065986E+03  0.62165707296E+03  0.91201041189E+02 0.  0.
         13    1    3    3    0    0 -0.42876042853E+03  0.98759730369E+02  0.30706490625E+03  0.53654249232E+03  0.00000000000E+00 0. -1.
        -13    1    3    3    0    0 -0.74508994977E+02  0.36238196856E+02  0.19485753615E+02  0.85114580642E+02  0.00000000000E+00 0.  1.
         22    1    1    2    0    0  0.50326942351E+03 -0.13499792723E+03 -0.25249467405E+04  0.25781506153E+04  0.00000000000E+00 0.  1.
<mgrwt>
<rscale>  0 0.23250428E+04</rscale>
<asrwt>0</asrwt>
<pdfrwt beam="1">  1        2 0.77031665E-01 0.23250428E+04</pdfrwt>
<pdfrwt beam="2">  1       -2 0.41524643E+00 0.23250428E+04</pdfrwt>
<totfact> 0.32808780E-01</totfact>
</mgrwt>
</event>
<event>
 6    1  0.1637818E-005  0.4948202E+04  0.7818608E-02  0.7836548E-01
          2   -1    0    0  501    0  0.00000000000E+00  0.00000000000E+00  0.24814289648E+04  0.24814289648E+04  0.00000000000E+00 0. -1.
         -2   -1    0    0    0  501 -0.00000000000E+00 -0.00000000000E+00 -0.24667947466E+04  0.24667947466E+04  0.00000000000E+00 0.  1.
         23    2    1    2    0    0 -0.85748965433E+03 -0.16452805450E+04 -0.16282251857E+04  0.24700744827E+04  0.88961318284E+02 0.  0.
         13    1    3    3    0    0 -0.32172697100E+02 -0.10670981335E+03 -0.93355705455E+02  0.14538691291E+03  0.00000000000E+00 0.  1.
        -13    1    3    3    0    0 -0.82531695723E+03 -0.15385707316E+04 -0.15348694802E+04  0.23246875698E+04  0.00000000000E+00 0. -1.
         22    1    1    2    0    0  0.85748965433E+03  0.16452805450E+04  0.16428594038E+04  0.24781492287E+04  0.00000000000E+00 0. -1.
<mgrwt>
<rscale>  0 0.49482021E+04</rscale>
<asrwt>0</asrwt>
<pdfrwt beam="1">  1        2 0.38175830E+00 0.49482021E+04</pdfrwt>
<pdfrwt beam="2">  1       -2 0.37950688E+00 0.49482021E+04</pdfrwt>
<totfact> 0.26318558E-02</totfact>
</mgrwt>
</event>
<event>
 6    1  0.1637818E-005  0.2319698E+04  0.7818608E-02  0.8470195E-01
         -2   -1    0    0    0  501 -0.00000000000E+00  0.00000000000E+00  0.84684232197E+03  0.84684232197E+03  0.00000000000E+00 0.  1.
          2   -1    0    0  501    0  0.00000000000E+00 -0.00000000000E+00 -0.15885475543E+04  0.15885475543E+04  0.00000000000E+00 0. -1.
         23    2    1    2    0    0 -0.41206871712E+03 -0.38935994644E+03  0.68871314792E+03  0.89672209599E+03  0.91558297274E+02 0.  0.
         13    1    3    3    0    0 -0.18010761436E+03 -0.22817435478E+03  0.32141225430E+03  0.43336834926E+03  0.00000000000E+00 0. -1.
        -13    1    3    3    0    0 -0.23196110277E+03 -0.16118559167E+03  0.36730089361E+03  0.46335374673E+03  0.00000000000E+00 0.  1.
         22    1    1    2    0    0  0.41206871712E+03  0.38935994644E+03 -0.14304183803E+04  0.15386677803E+04  0.00000000000E+00 0. -1.
<mgrwt>
<rscale>  0 0.23196977E+04</rscale>
<asrwt>0</asrwt>
<pdfrwt beam="1">  1        2 0.24439193E+00 0.23196977E+04</pdfrwt>
<pdfrwt beam="2">  1       -2 0.13028344E+00 0.23196977E+04</pdfrwt>
<totfact> 0.44254013E+00</totfact>
</mgrwt>
</event>
<event>
 6    1  0.1637818E-005  0.1894465E+04  0.7818608E-02  0.8657616E-01
         -2   -1    0    0    0  501 -0.00000000000E+00  0.00000000000E+00  0.98418894348E+03  0.98418894348E+03  0.00000000000E+00 0.  1.
          2   -1    0    0  501    0  0.00000000000E+00 -0.00000000000E+00 -0.91166363949E+03  0.91166363949E+03  0.00000000000E+00 0. -1.
         23    2    1    2    0    0 -0.56995849648E+03 -0.26868370856E+03 -0.66748320970E+03  0.92391831395E+03  0.10510752903E+03 0.  0.
         11    1    3    3    0    0 -0.35618559197E+03 -0.12912418885E+03 -0.45245381277E+03  0.59013192149E+03  0.00000000000E+00 0. -1.
        -11    1    3    3    0    0 -0.21377290452E+03 -0.13955951971E+03 -0.21502939693E+03  0.33378639246E+03  0.00000000000E+00 0.  1.
         22    1    1    2    0    0  0.56995849648E+03  0.26868370856E+03  0.74000851369E+03  0.97193426902E+03  0.00000000000E+00 0.  1.
<mgrwt>
<rscale>  0 0.18944649E+04</rscale>
<asrwt>0</asrwt>
<pdfrwt beam="1">  1        2 0.14025594E+00 0.18944649E+04</pdfrwt>
<pdfrwt beam="2">  1       -2 0.15141368E+00 0.18944649E+04</pdfrwt>
<totfact> 0.78827953E+00</totfact>
</mgrwt>
</event>
<event>
 6    1  0.1637818E-005  0.2482363E+04  0.7818608E-02  0.8409296E-01
          2   -1    0    0  501    0  0.00000000000E+00  0.00000000000E+00  0.13726953137E+04  0.13726953137E+04  0.00000000000E+00 0. -1.
         -2   -1    0    0    0  501 -0.00000000000E+00 -0.00000000000E+00 -0.11222680758E+04  0.11222680758E+04  0.00000000000E+00 0.  1.
         23    2    1    2    0    0  0.68263649540E+03 -0.69770121468E+00 -0.91411848604E+03  0.11450893899E+04  0.98102154952E+02 0.  0.
         13    1    3    3    0    0  0.44583974241E+03 -0.12482396041E+02 -0.51920940244E+03  0.68447592340E+03  0.00000000000E+00 0.  1.
        -13    1    3    3    0    0  0.23679675299E+03  0.11784694826E+02 -0.39490908360E+03  0.46061346655E+03  0.00000000000E+00 0. -1.
         22    1    1    2    0    0 -0.68263649540E+03  0.69770121468E+00  0.11645457239E+04  0.13498739996E+04  0.00000000000E+00 0. -1.
<mgrwt>
<rscale>  0 0.24823635E+04</rscale>
<asrwt>0</asrwt>
<pdfrwt beam="1">  1        2 0.21118389E+00 0.24823635E+04</pdfrwt>
<pdfrwt beam="2">  1       -2 0.17265663E+00 0.24823635E+04</pdfrwt>
<totfact> 0.27351277E+00</totfact>
</mgrwt>
</event>
<event>
 6    1  0.1637818E-005  0.4570638E+04  0.7818608E-02  0.7898386E-01
         -2   -1    0    0    0  501 -0.00000000000E+00  0.00000000000E+00  0.18189515300E+04  0.18189515300E+04  0.00000000000E+00 0.  1.
          2   -1    0    0  501    0  0.00000000000E+00 -0.00000000000E+00 -0.28712595463E+04  0.28712595463E+04  0.00000000000E+00 0. -1.
         23    2    1    2    0    0  0.21995574397E+04  0.52224848086E+03 -0.18951827200E+03  0.22704584962E+04  0.90929651075E+02 0.  0.
         13    1    3    3    0    0  0.12171181595E+04  0.31466561111E+03 -0.14312268140E+03  0.12652569553E+04  0.00000000000E+00 0. -1.
        -13    1    3    3    0    0  0.98243928014E+03  0.20758286975E+03 -0.46395590600E+02  0.10052015409E+04  0.00000000000E+00 0.  1.
         22    1    1    2    0    0 -0.21995574397E+04 -0.52224848086E+03 -0.86278974428E+03  0.24197525801E+04  0.00000000000E+00 0. -1.
<mgrwt>
<rscale>  0 0.45706376E+04</rscale>
<asrwt>0</asrwt>
<pdfrwt beam="1">  1        2 0.44173224E+00 0.45706376E+04</pdfrwt>
<pdfrwt beam="2">  1       -2 0.27983870E+00 0.45706376E+04</pdfrwt>
<totfact> 0.66518052E-02</totfact>
</mgrwt>
</event>
<event>
 6    1  0.1637818E-005  0.1550731E+04  0.7818608E-02  0.8851401E-01
          2   -1    0    0  501    0  0.00000000000E+00  0.00000000000E+00  0.27393988229E+04  0.27393988229E+04  0.00000000000E+00 0. -1.
         -2   -1    0    0    0  501 -0.00000000000E+00 -0.00000000000E+00 -0.21946110430E+03  0.21946110430E+03  0.00000000000E+00 0.  1.
         23    2    1    2    0    0  0.60951577250E+03  0.40497050492E+03  0.79135055861E+03  0.10817546674E+04  0.91906838730E+02 0.  0.
         13    1    3    3    0    0  0.17369158016E+03  0.71489523779E+02  0.22599493071E+03  0.29385919372E+03  0.00000000000E+00 0.  1.
        -13    1    3    3    0    0  0.43582419233E+03  0.33348098114E+03  0.56535562790E+03  0.78789547365E+03  0.00000000000E+00 0. -1.
         22    1    1    2    0    0 -0.60951577250E+03 -0.40497050492E+03  0.17285871600E+04  0.18771052598E+04  0.00000000000E+00 0. -1.
<mgrwt>
<rscale>  0 0.15507308E+04</rscale>
<asrwt>0</asrwt>
<pdfrwt beam="1">  1        2 0.42144595E+00 0.15507308E+04</pdfrwt>
<pdfrwt beam="2">  1       -2 0.33763249E-01 0.15507308E+04</pdfrwt>
<totfact> 0.19949254E+01</totfact>
</mgrwt>
</event>
<event>
 6    1  0.1637818E-005  0.1462747E+04  0.7818608E-02  0.8909611E-01
          2   -1    0    0  501    0  0.00000000000E+00  0.00000000000E+00  0.18194972062E+04  0.18194972062E+04  0.00000000000E+00 0. -1.
         -2   -1    0    0    0  501 -0.00000000000E+00 -0.00000000000E+00 -0.29398628814E+03  0.29398628814E+03  0.00000000000E+00 0.  1.
         23    2    1    2    0    0  0.47466114154E+02 -0.88805641203E+02  0.18082804285E+04  0.18133200890E+04  0.90067547589E+02 0.  0.
         11    1    3    3    0    0  0.16916168788E+02 -0.92619411194E+02  0.99165566814E+03  0.99611519225E+03  0.00000000000E+00 0. -1.
        -11    1    3    3    0    0  0.30549945366E+02  0.38137699916E+01  0.81662476039E+03  0.81720489676E+03  0.00000000000E+00 0.  1.
         22    1    1    2    0    0 -0.47466114154E+02  0.88805641203E+02 -0.28276951041E+03  0.30016340537E+03  0.00000000000E+00 0.  1.
<mgrwt>
<rscale>  0 0.14627470E+04</rscale>
<asrwt>0</asrwt>
<pdfrwt beam="1">  1        2 0.27992264E+00 0.14627470E+04</pdfrwt>
<pdfrwt beam="2">  1       -2 0.45228661E-01 0.14627470E+04</pdfrwt>
<totfact> 0.37803657E+01</totfact>
</mgrwt>
</event>
<event>
 6    1  0.1637818E-005  0.2552916E+04  0.7818608E-02  0.8384373E-01
         -2   -1    0    0    0  501 -0.00000000000E+00  0.00000000000E+00  0.58834381615E+03  0.58834381615E+03  0.00000000000E+00 0. -1.
          2   -1    0    0  501    0  0.00000000000E+00 -0.00000000000E+00 -0.27693748777E+04  0.27693748777E+04  0.00000000000E+00 0.  1.
         23    2    1    2    0    0 -0.11418896034E+03  0.12444840812E+04 -0.76017572669E+03  0.14654688082E+04  0.89173681058E+02 0.  0.
         11    1    3    3    0    0 -0.95240124581E+02  0.11822445402E+04 -0.70238052501E+03  0.13784452242E+04  0.00000000000E+00 0. -1.
        -11    1    3    3    0    0 -0.18948835759E+02  0.62239540972E+02 -0.57795201680E+02  0.87023584011E+02  0.00000000000E+00 0.  1.
         22    1    1    2    0    0  0.11418896034E+03 -0.12444840812E+04 -0.14208553349E+04  0.18922498856E+04  0.00000000000E+00 0.  1.
<mgrwt>
<rscale>  0 0.25529157E+04</rscale>
<asrwt>0</asrwt>
<pdfrwt beam="1">  1        2 0.42605769E+00 0.25529157E+04</pdfrwt>
<pdfrwt beam="2">  1       -2 0.90514431E-01 0.25529157E+04</pdfrwt>
<totfact> 0.22345608E+00</totfact>
</mgrwt>
</event>
<event>
 6    1  0.1637818E-005  0.1266503E+04  0.7818608E-02  0.9056558E-01
          1   -1    0    0  501    0  0.00000000000E+00  0.00000000000E+00  0.36239384884E+03  0.36239384884E+03  0.00000000000E+00 0. -1.
         -1   -1    0    0    0  501 -0.00000000000E+00 -0.00000000000E+00 -0.11065517829E+04  0.11065517829E+04  0.00000000000E+00 0.  1.
         23    2    1    2    0    0  0.31947394199E+03  0.53378992606E+03 -0.48882706686E+03  0.79649553209E+03  0.91967095102E+02 0.  0.
         11    1    3    3    0    0  0.88937949978E+02  0.99191215751E+02 -0.14107426991E+03  0.19403815568E+03  0.00000000000E+00 0.  1.
        -11    1    3    3    0    0  0.23053599201E+03  0.43459871031E+03 -0.34775279695E+03  0.60245737642E+03  0.00000000000E+00 0. -1.
         22    1    1    2    0    0 -0.31947394199E+03 -0.53378992606E+03 -0.25533086721E+03  0.67245009965E+03  0.00000000000E+00 0.  1.
<mgrwt>
<rscale>  0 0.12665032E+04</rscale>
<asrwt>0</asrwt>
<pdfrwt beam="1">  1        1 0.55752901E-01 0.12665032E+04</pdfrwt>
<pdfrwt beam="2">  1       -1 0.17023873E+00 0.12665032E+04</pdfrwt>
<totfact> 0.16510543E+01</totfact>
</mgrwt>
</event>
<event>
 6    1  0.1637818E-005  0.2430576E+04  0.7818608E-02  0.8428144E-01
         -2   -1    0    0    0  501 -0.00000000000E+00  0.00000000000E+00  0.12761000375E+04  0.12761000375E+04  0.00000000000E+00 0.  1.
          2   -1    0    0  501    0  0.00000000000E+00 -0.00000000000E+00 -0.11573741857E+04  0.11573741857E+04  0.00000000000E+00 0. -1.
         23    2    1    2    0    0  0.53180034518E+03 -0.70238206070E+03 -0.77615595529E+03  0.11777013078E+04  0.91706799323E+02 0.  0.
         13    1    3    3    0    0  0.22407629080E+03 -0.25209565400E+03 -0.24955133000E+03  0.41956914706E+03  0.00000000000E+00 0.  1.
        -13    1    3    3    0    0  0.30772405438E+03 -0.45028640670E+03 -0.52660462529E+03  0.75813216070E+03  0.00000000000E+00 0. -1.
         22    1    1    2    0    0 -0.53180034518E+03  0.70238206070E+03  0.89488180708E+03  0.12557729154E+04  0.00000000000E+00 0.  1.
<mgrwt>
<rscale>  0 0.24305763E+04</rscale>
<asrwt>0</asrwt>
<pdfrwt beam="1">  1        2 0.17805757E+00 0.24305763E+04</pdfrwt>
<pdfrwt beam="2">  1       -2 0.19632308E+00 0.24305763E+04</pdfrwt>
<totfact> 0.25348338E+00</totfact>
</mgrwt>
</event>
<event>
 6    1  0.1637818E-005  0.3394182E+04  0.7818608E-02  0.8139336E-01
          2   -1    0    0  501    0  0.00000000000E+00  0.00000000000E+00  0.12210490817E+04  0.12210490817E+04  0.00000000000E+00 0.  1.
         -2   -1    0    0    0  501 -0.00000000000E+00 -0.00000000000E+00 -0.23587238548E+04  0.23587238548E+04  0.00000000000E+00 0. -1.
         23    2    1    2    0    0 -0.54047937102E+03  0.11626643658E+04 -0.17399337879E+04  0.21632199728E+04  0.90800256622E+02 0.  0.
         13    1    3    3    0    0 -0.47151877009E+03  0.97923095458E+03 -0.15208396968E+04  0.18692716754E+04  0.00000000000E+00 0. -1.
        -13    1    3    3    0    0 -0.68960600937E+02  0.18343341119E+03 -0.21909409107E+03  0.29394829743E+03  0.00000000000E+00 0.  1.
         22    1    1    2    0    0  0.54047937102E+03 -0.11626643658E+04  0.60225901476E+03  0.14165529636E+04  0.00000000000E+00 0.  1.
<mgrwt>
<rscale>  0 0.33941818E+04</rscale>
<asrwt>0</asrwt>
<pdfrwt beam="1">  1        2 0.18785371E+00 0.33941818E+04</pdfrwt>
<pdfrwt beam="2">  1       -2 0.36288059E+00 0.33941818E+04</pdfrwt>
<totfact> 0.19650528E-01</totfact>
</mgrwt>
</event>
<event>
 6    1  0.1637818E-005  0.1534763E+04  0.7818608E-02  0.8861659E-01
         -1   -1    0    0    0  501 -0.00000000000E+00  0.00000000000E+00  0.73670342997E+03  0.73670342997E+03  0.00000000000E+00 0.  1.
          1   -1    0    0  501    0  0.00000000000E+00 -0.00000000000E+00 -0.79933735344E+03  0.79933735344E+03  0.00000000000E+00 0. -1.
         23    2    1    2    0    0  0.51913559216E+03  0.26537284286E+03  0.46365865144E+03  0.75060562811E+03  0.92222313574E+02 0.  0.
         13    1    3    3    0    0  0.39635897934E+03  0.17970049312E+03  0.29870511536E+03  0.52784226211E+03  0.00000000000E+00 0. -1.
        -13    1    3    3    0    0  0.12277661282E+03  0.85672349741E+02  0.16495353607E+03  0.22276336600E+03  0.00000000000E+00 0.  1.
         22    1    1    2    0    0 -0.51913559216E+03 -0.26537284286E+03 -0.52629257491E+03  0.78543515530E+03  0.00000000000E+00 0. -1.
<mgrwt>
<rscale>  0 0.15347633E+04</rscale>
<asrwt>0</asrwt>
<pdfrwt beam="1">  1        1 0.12297498E+00 0.15347633E+04</pdfrwt>
<pdfrwt beam="2">  1       -1 0.11333899E+00 0.15347633E+04</pdfrwt>
<totfact> 0.15183914E+01</totfact>
</mgrwt>
</event>
<event>
 6    1  0.1637818E-005  0.1706707E+04  0.7818608E-02  0.8757548E-01
         -2   -1    0    0    0  501 -0.00000000000E+00  0.00000000000E+00  0.63133414417E+03  0.63133414417E+03  0.00000000000E+00 0.  1.
          2   -1    0    0  501    0  0.00000000000E+00 -0.00000000000E+00 -0.11534500583E+04  0.11534500583E+04  0.00000000000E+00 0. -1.
         23    2    1    2    0    0  0.47688518434E+03  0.50900721136E+03  0.24704711716E+03  0.74645882525E+03  0.98288755441E+02 0.  0.
         13    1    3    3    0    0  0.36969322910E+03  0.35323262199E+03  0.21494977533E+03  0.55466185626E+03  0.00000000000E+00 0. -1.
        -13    1    3    3    0    0  0.10719195524E+03  0.15577458937E+03  0.32097341826E+02  0.19179696899E+03  0.00000000000E+00 0.  1.
         22    1    1    2    0    0 -0.47688518434E+03 -0.50900721136E+03 -0.76916303128E+03  0.10383253772E+04  0.00000000000E+00 0. -1.
<mgrwt>
<rscale>  0 0.17067072E+04</rscale>
<asrwt>0</asrwt>
<pdfrwt beam="1">  1        2 0.17745385E+00 0.17067072E+04</pdfrwt>
<pdfrwt beam="2">  1       -2 0.97128330E-01 0.17067072E+04</pdfrwt>
<totfact> 0.17005356E+01</totfact>
</mgrwt>
</event>
<event>
 6    1  0.1637818E-005  0.2736188E+04  0.7818608E-02  0.8323358E-01
         -2   -1    0    0    0  501 -0.00000000000E+00  0.00000000000E+00  0.12472545497E+04  0.12472545497E+04  0.00000000000E+00 0.  1.
          2   -1    0    0  501    0  0.00000000000E+00 -0.00000000000E+00 -0.15006408098E+04  0.15006408098E+04  0.00000000000E+00 0. -1.
         23    2    1    2    0    0  0.15998033338E+03 -0.66387671651E+03 -0.13157281476E+04  0.14850033262E+04  0.88138066582E+02 0.  0.
         13    1    3    3    0    0  0.68809652321E+02 -0.24494218290E+03 -0.40298815099E+03  0.47658251233E+03  0.00000000000E+00 0. -1.
        -13    1    3    3    0    0  0.91170681056E+02 -0.41893453361E+03 -0.91273999660E+03  0.10084208139E+04  0.00000000000E+00 0.  1.
         22    1    1    2    0    0 -0.15998033338E+03  0.66387671651E+03  0.10623418875E+04  0.12628920333E+04  0.00000000000E+00 0.  1.
<mgrwt>
<rscale>  0 0.27361879E+04</rscale>
<asrwt>0</asrwt>
<pdfrwt beam="1">  1        2 0.23086782E+00 0.27361879E+04</pdfrwt>
<pdfrwt beam="2">  1       -2 0.19188531E+00 0.27361879E+04</pdfrwt>
<totfact> 0.16705054E+00</totfact>
</mgrwt>
</event>
<event>
 6    1  0.1637818E-005  0.9234322E+03  0.7818608E-02  0.9396755E-01
          1   -1    0    0  501    0  0.00000000000E+00  0.00000000000E+00  0.40289845319E+03  0.40289845319E+03  0.00000000000E+00 0. -1.
         -1   -1    0    0    0  501 -0.00000000000E+00 -0.00000000000E+00 -0.52912033219E+03  0.52912033219E+03  0.00000000000E+00 0.  1.
         23    2    1    2    0    0 -0.27167781805E+03 -0.12870333669E+03  0.28398358946E+03  0.42345029241E+03  0.91049905894E+02 0.  0.
         11    1    3    3    0    0 -0.55056055698E+02 -0.60902486307E+02  0.44080609368E+02  0.93184667353E+02  0.00000000000E+00 0.  1.
        -11    1    3    3    0    0 -0.21662176235E+03 -0.67800850384E+02  0.23990298009E+03  0.33026562506E+03  0.00000000000E+00 0. -1.
         22    1    1    2    0    0  0.27167781805E+03  0.12870333669E+03 -0.41020546846E+03  0.50856849298E+03  0.00000000000E+00 0.  1.
<mgrwt>
<rscale>  0 0.92343221E+03</rscale>
<asrwt>0</asrwt>
<pdfrwt beam="1">  1        1 0.61984378E-01 0.92343221E+03</pdfrwt>
<pdfrwt beam="2">  1       -1 0.81403128E-01 0.92343221E+03</pdfrwt>
<totfact> 0.89966746E+01</totfact>
</mgrwt>
</event>
<event>
 6    1  0.1637818E-005  0.1308637E+04  0.7818608E-02  0.9022744E-01
         -1   -1    0    0    0  501 -0.00000000000E+00  0.00000000000E+00  0.39132299094E+03  0.39132299094E+03  0.00000000000E+00 0.  1.
          1   -1    0    0  501    0  0.00000000000E+00 -0.00000000000E+00 -0.10940641078E+04  0.10940641078E+04  0.00000000000E+00 0. -1.
         23    2    1    2    0    0  0.58946535191E+03  0.53923492356E+02 -0.45389774957E+02  0.60080362001E+03  0.92345081181E+02 0.  0.
         11    1    3    3    0    0  0.37697890409E+03  0.69663337752E+02 -0.56209718206E+02  0.38746045886E+03  0.00000000000E+00 0. -1.
        -11    1    3    3    0    0  0.21248644782E+03 -0.15739845396E+02  0.10819943249E+02  0.21334316116E+03  0.00000000000E+00 0.  1.
         22    1    1    2    0    0 -0.58946535191E+03 -0.53923492356E+02 -0.65735134186E+03  0.88458347869E+03  0.00000000000E+00 0. -1.
<mgrwt>
<rscale>  0 0.13086366E+04</rscale>
<asrwt>0</asrwt>
<pdfrwt beam="1">  1        1 0.16831755E+00 0.13086366E+04</pdfrwt>
<pdfrwt beam="2">  1       -1 0.60203539E-01 0.13086366E+04</pdfrwt>
<totfact> 0.35189280E+01</totfact>
</mgrwt>
</event>
<event>
 6    1  0.1637818E-005  0.2564730E+04  0.7818608E-02  0.8380281E-01
         -2   -1    0    0    0  501 -0.00000000000E+00  0.00000000000E+00  0.73544342391E+03  0.73544342391E+03  0.00000000000E+00 0.  1.
          2   -1    0    0  501    0  0.00000000000E+00 -0.00000000000E+00 -0.22360112112E+04  0.22360112112E+04  0.00000000000E+00 0. -1.
         23    2    1    2    0    0 -0.77271881643E+03 -0.38578475030E+03 -0.18469301483E+04  0.20409219231E+04  0.91033404078E+02 0.  0.
         13    1    3    3    0    0 -0.33611666371E+03 -0.16378804893E+03 -0.90657049061E+03  0.98064825041E+03  0.00000000000E+00 0. -1.
        -13    1    3    3    0    0 -0.43660215272E+03 -0.22199670137E+03 -0.94035965774E+03  0.10602736727E+04  0.00000000000E+00 0.  1.
         22    1    1    2    0    0  0.77271881643E+03  0.38578475030E+03  0.34636236108E+03  0.93053271195E+03  0.00000000000E+00 0.  1.
<mgrwt>
<rscale>  0 0.25647298E+04</rscale>
<asrwt>0</asrwt>
<pdfrwt beam="1">  1        2 0.34400172E+00 0.25647298E+04</pdfrwt>
<pdfrwt beam="2">  1       -2 0.11314514E+00 0.25647298E+04</pdfrwt>
<totfact> 0.26818304E+00</totfact>
</mgrwt>
</event>
<event>
 6    1  0.1637818E-005  0.2291601E+04  0.7818608E-02  0.8481240E-01
         -2   -1    0    0    0  501 -0.00000000000E+00  0.00000000000E+00  0.61851274648E+03  0.61851274648E+03  0.00000000000E+00 0. -1.
          2   -1    0    0  501    0  0.00000000000E+00 -0.00000000000E+00 -0.21226060067E+04  0.21226060067E+04  0.00000000000E+00 0.  1.
         23    2    1    2    0    0 -0.83507395438E+03  0.38894137376E+03 -0.15646039726E+04  0.18179256814E+04  0.90798076233E+02 0.  0.
         13    1    3    3    0    0 -0.53795136787E+03  0.24358664478E+03 -0.91612043457E+03  0.10899554020E+04  0.00000000000E+00 0.  1.
        -13    1    3    3    0    0 -0.29712258651E+03  0.14535472898E+03 -0.64848353802E+03  0.72797027943E+03  0.00000000000E+00 0. -1.
         22    1    1    2    0    0  0.83507395438E+03 -0.38894137376E+03  0.60510712323E+02  0.92319307180E+03  0.00000000000E+00 0. -1.
<mgrwt>
<rscale>  0 0.22916011E+04</rscale>
<asrwt>0</asrwt>
<pdfrwt beam="1">  1        2 0.32655478E+00 0.22916011E+04</pdfrwt>
<pdfrwt beam="2">  1       -2 0.95155805E-01 0.22916011E+04</pdfrwt>
<totfact> 0.48066945E+00</totfact>
</mgrwt>
</event>
<event>
 6    1  0.1637818E-005  0.1532558E+04  0.7818608E-02  0.8863086E-01
          1   -1    0    0  501    0  0.00000000000E+00  0.00000000000E+00  0.43411407596E+04  0.43411407596E+04  0.00000000000E+00 0. -1.
         -1   -1    0    0    0  501 -0.00000000000E+00 -0.00000000000E+00 -0.13526020836E+03  0.13526020836E+03  0.00000000000E+00 0.  1.
         23    2    1    2    0    0 -0.38384756427E+03 -0.50237674951E+03  0.33606535895E+04  0.34208774164E+04  0.93211579000E+02 0.  0.
         13    1    3    3    0    0 -0.17872341164E+03 -0.20649632801E+03  0.16844140137E+04  0.17064094939E+04  0.00000000000E+00 0. -1.
        -13    1    3    3    0    0 -0.20512415263E+03 -0.29588042150E+03  0.16762395758E+04  0.17144679225E+04  0.00000000000E+00 0.  1.
         22    1    1    2    0    0  0.38384756427E+03  0.50237674951E+03  0.84522696179E+03  0.10555235516E+04  0.00000000000E+00 0.  1.
<mgrwt>
<rscale>  0 0.15325581E+04</rscale>
<asrwt>0</asrwt>
<pdfrwt beam="1">  1        1 0.66786770E+00 0.15325581E+04</pdfrwt>
<pdfrwt beam="2">  1       -1 0.20809266E-01 0.15325581E+04</pdfrwt>
<totfact> 0.87881711E-01</totfact>
</mgrwt>
</event>
<event>
 6    1  0.1637818E-005  0.8367938E+03  0.7818608E-02  0.9508235E-01
          1   -1    0    0  501    0  0.00000000000E+00  0.00000000000E+00  0.66609123128E+03  0.66609123128E+03  0.00000000000E+00 0. -1.
         -1   -1    0    0    0  501 -0.00000000000E+00 -0.00000000000E+00 -0.26281081536E+03  0.26281081536E+03  0.00000000000E+00 0.  1.
         23    2    1    2    0    0 -0.31621262337E+03  0.26151990316E+03  0.14795915337E+03  0.44560914369E+03  0.91063246943E+02 0.  0.
         13    1    3    3    0    0 -0.17359421755E+03  0.89697661113E+02  0.49532308855E+02  0.20157894829E+03  0.00000000000E+00 0.  1.
        -13    1    3    3    0    0 -0.14261840582E+03  0.17182224205E+03  0.98426844519E+02  0.24403019539E+03  0.00000000000E+00 0. -1.
         22    1    1    2    0    0  0.31621262337E+03 -0.26151990316E+03  0.25532126255E+03  0.48329290295E+03  0.00000000000E+00 0. -1.
<mgrwt>
<rscale>  0 0.83679383E+03</rscale>
<asrwt>0</asrwt>
<pdfrwt beam="1">  1        1 0.10247557E+00 0.83679383E+03</pdfrwt>
<pdfrwt beam="2">  1       -1 0.40432433E-01 0.83679383E+03</pdfrwt>
<totfact> 0.17702047E+02</totfact>
</mgrwt>
</event>
<event>
 6    1  0.1637818E-005  0.3403849E+04  0.7818608E-02  0.8136962E-01
          1   -1    0    0  501    0  0.00000000000E+00  0.00000000000E+00  0.22092585563E+04  0.22092585563E+04  0.00000000000E+00 0. -1.
         -1   -1    0    0    0  501 -0.00000000000E+00 -0.00000000000E+00 -0.13110947735E+04  0.13110947735E+04  0.00000000000E+00 0.  1.
         23    2    1    2    0    0  0.70708515125E+03 -0.15165578554E+04  0.76324782246E+03  0.18416277845E+04  0.95543279620E+02 0.  0.
         11    1    3    3    0    0  0.39154967843E+03 -0.73421271603E+03  0.36025267830E+03  0.90673119240E+03  0.00000000000E+00 0. -1.
        -11    1    3    3    0    0  0.31553547282E+03 -0.78234513940E+03  0.40299514416E+03  0.93489659213E+03  0.00000000000E+00 0.  1.
         22    1    1    2    0    0 -0.70708515125E+03  0.15165578554E+04  0.13491596043E+03  0.16787255453E+04  0.00000000000E+00 0.  1.
<mgrwt>
<rscale>  0 0.34038492E+04</rscale>
<asrwt>0</asrwt>
<pdfrwt beam="1">  1        1 0.33988593E+00 0.34038492E+04</pdfrwt>
<pdfrwt beam="2">  1       -1 0.20170689E+00 0.34038492E+04</pdfrwt>
<totfact> 0.25866042E-01</totfact>
</mgrwt>
</event>
<event>
 6    1  0.1637818E-005  0.5767267E+03  0.7818608E-02  0.9954903E-01
          2   -1    0    0  501    0  0.00000000000E+00  0.00000000000E+00  0.19622354842E+04  0.19622354842E+04  0.00000000000E+00 0.  1.
         -2   -1    0    0    0  501 -0.00000000000E+00 -0.00000000000E+00 -0.42376876736E+02  0.42376876736E+02  0.00000000000E+00 0. -1.
         23    2    1    2    0    0 -0.18853597030E+03  0.77113400159E+02  0.16579642884E+04  0.16728279084E+04  0.89528436601E+02 0.  0.
         13    1    3    3    0    0 -0.14575441768E+03  0.19383150970E+02  0.96329423415E+03  0.97445155773E+03  0.00000000000E+00 0. -1.
        -13    1    3    3    0    0 -0.42781552616E+02  0.57730249188E+02  0.69467005421E+03  0.69837635064E+03  0.00000000000E+00 0.  1.
         22    1    1    2    0    0  0.18853597030E+03 -0.77113400159E+02  0.26189431906E+03  0.33178445253E+03  0.00000000000E+00 0. -1.
<mgrwt>
<rscale>  0 0.57672666E+03</rscale>
<asrwt>0</asrwt>
<pdfrwt beam="1">  1        2 0.30188231E+00 0.57672666E+03</pdfrwt>
<pdfrwt beam="2">  1       -2 0.65195210E-02 0.57672666E+03</pdfrwt>
<totfact> 0.98681925E+02</totfact>
</mgrwt>
</event>
<event>
 6    1  0.1637818E-005  0.3193004E+04  0.7818608E-02  0.8190667E-01
          2   -1    0    0  501    0  0.00000000000E+00  0.00000000000E+00  0.37183648934E+04  0.37183648934E+04  0.00000000000E+00 0. -1.
         -2   -1    0    0    0  501 -0.00000000000E+00 -0.00000000000E+00 -0.68546757410E+03  0.68546757410E+03  0.00000000000E+00 0.  1.
         23    2    1    2    0    0 -0.33248761151E+03  0.49379766752E+03 -0.52352541223E+03  0.79793080583E+03  0.90722463561E+02 0.  0.
         11    1    3    3    0    0 -0.19730319384E+03  0.23768706632E+03 -0.22615347467E+03  0.38284342217E+03  0.00000000000E+00 0. -1.
        -11    1    3    3    0    0 -0.13518441767E+03  0.25611060120E+03 -0.29737193756E+03  0.41508738366E+03  0.00000000000E+00 0.  1.
         22    1    1    2    0    0  0.33248761151E+03 -0.49379766752E+03  0.35564227316E+04  0.36059016617E+04  0.00000000000E+00 0. -1.
<mgrwt>
<rscale>  0 0.31930040E+04</rscale>
<asrwt>0</asrwt>
<pdfrwt beam="1">  1        2 0.57205612E+00 0.31930040E+04</pdfrwt>
<pdfrwt beam="2">  1       -2 0.10545655E+00 0.31930040E+04</pdfrwt>
<totfact> 0.34621678E-01</totfact>
</mgrwt>
</event>
<event>
 6    1  0.1637818E-005  0.6978723E+03  0.7818608E-02  0.9720878E-01
          2   -1    0    0  501    0  0.00000000000E+00  0.00000000000E+00  0.38905841086E+04  0.38905841086E+04  0.00000000000E+00 0. -1.
         -2   -1    0    0    0  501 -0.00000000000E+00 -0.00000000000E+00 -0.31295154590E+02  0.31295154590E+02  0.00000000000E+00 0.  1.
         23    2    1    2    0    0  0.26378533864E+03 -0.21708266143E+03  0.21755178439E+04  0.22038010525E+04  0.84578975698E+02 0.  0.
         13    1    3    3    0    0  0.19103978416E+03 -0.10802036812E+03  0.14540892715E+04  0.14705577883E+04  0.00000000000E+00 0. -1.
        -13    1    3    3    0    0  0.72745554488E+02 -0.10906229331E+03  0.72142857236E+03  0.73324326423E+03  0.00000000000E+00 0.  1.
         22    1    1    2    0    0 -0.26378533864E+03  0.21708266143E+03  0.16837711101E+04  0.17180782107E+04  0.00000000000E+00 0.  1.
<mgrwt>
<rscale>  0 0.69787228E+03</rscale>
<asrwt>0</asrwt>
<pdfrwt beam="1">  1        2 0.59855102E+00 0.69787228E+03</pdfrwt>
<pdfrwt beam="2">  1       -2 0.48146422E-02 0.69787228E+03</pdfrwt>
<totfact> 0.10112575E+02</totfact>
</mgrwt>
</event>
<event>
 6    1  0.1637818E-005  0.2315898E+04  0.7818608E-02  0.8471679E-01
         -1   -1    0    0    0  501 -0.00000000000E+00  0.00000000000E+00  0.68745149681E+03  0.68745149681E+03  0.00000000000E+00 0.  1.
          1   -1    0    0  501    0  0.00000000000E+00 -0.00000000000E+00 -0.19504597050E+04  0.19504597050E+04  0.00000000000E+00 0. -1.
         23    2    1    2    0    0  0.15551573599E+02 -0.64700280309E+03  0.45869897350E+03  0.79858249325E+03  0.92058522613E+02 0.  0.
         13    1    3    3    0    0  0.25540175556E+02 -0.13756274140E+03  0.13801660532E+03  0.19653089257E+03  0.00000000000E+00 0. -1.
        -13    1    3    3    0    0 -0.99886019562E+01 -0.50944006168E+03  0.32068236819E+03  0.60205160068E+03  0.00000000000E+00 0.  1.
         22    1    1    2    0    0 -0.15551573599E+02  0.64700280309E+03 -0.17217071817E+04  0.18393287086E+04  0.00000000000E+00 0. -1.
<mgrwt>
<rscale>  0 0.23158985E+04</rscale>
<asrwt>0</asrwt>
<pdfrwt beam="1">  1        1 0.30007072E+00 0.23158985E+04</pdfrwt>
<pdfrwt beam="2">  1       -1 0.10576177E+00 0.23158985E+04</pdfrwt>
<totfact> 0.24325689E+00</totfact>
</mgrwt>
</event>
<event>
 6    1  0.1637818E-005  0.2033514E+04  0.7818608E-02  0.8591110E-01
          2   -1    0    0  501    0  0.00000000000E+00  0.00000000000E+00  0.20324799378E+04  0.20324799378E+04  0.00000000000E+00 0. -1.
         -2   -1    0    0    0  501 -0.00000000000E+00 -0.00000000000E+00 -0.50863738022E+03  0.50863738022E+03  0.00000000000E+00 0.  1.
         23    2    1    2    0    0  0.12269990921E+03 -0.15197185488E+03  0.20077032597E+04  0.20193205266E+04  0.92910158751E+02 0.  0.
         11    1    3    3    0    0  0.10019254089E+02 -0.80823489735E+02  0.88370128720E+03  0.88744621637E+03  0.00000000000E+00 0. -1.
        -11    1    3    3    0    0  0.11268065512E+03 -0.71148365148E+02  0.11240019725E+04  0.11318743102E+04  0.00000000000E+00 0.  1.
         22    1    1    2    0    0 -0.12269990921E+03  0.15197185488E+03 -0.48386070218E+03  0.52179679140E+03  0.00000000000E+00 0.  1.
<mgrwt>
<rscale>  0 0.20335145E+04</rscale>
<asrwt>0</asrwt>
<pdfrwt beam="1">  1        2 0.31268922E+00 0.20335145E+04</pdfrwt>
<pdfrwt beam="2">  1       -2 0.78251906E-01 0.20335145E+04</pdfrwt>
<totfact> 0.86246897E+00</totfact>
</mgrwt>
</event>
<event>
 6    1  0.1637818E-005  0.3011732E+04  0.7818608E-02  0.8240389E-01
          2   -1    0    0  501    0  0.00000000000E+00  0.00000000000E+00  0.32700809812E+04  0.32700809812E+04  0.00000000000E+00 0.  1.
         -2   -1    0    0    0  501 -0.00000000000E+00 -0.00000000000E+00 -0.69344822587E+03  0.69344822587E+03  0.00000000000E+00 0. -1.
         23    2    1    2    0    0  0.13332345010E+04  0.34548344058E+03  0.49311238634E+03  0.14659443396E+04  0.94656954213E+02 0.  0.
         13    1    3    3    0    0  0.55028532857E+03  0.18443635838E+03  0.18272744988E+03  0.60845709304E+03  0.00000000000E+00 0. -1.
        -13    1    3    3    0    0  0.78294917239E+03  0.16104708220E+03  0.31038493647E+03  0.85748724656E+03  0.00000000000E+00 0.  1.
         22    1    1    2    0    0 -0.13332345010E+04 -0.34548344058E+03  0.20835203690E+04  0.24975848675E+04  0.00000000000E+00 0.  1.
<mgrwt>
<rscale>  0 0.30117316E+04</rscale>
<asrwt>0</asrwt>
<pdfrwt beam="1">  1        2 0.50308937E+00 0.30117316E+04</pdfrwt>
<pdfrwt beam="2">  1       -2 0.10668434E+00 0.30117316E+04</pdfrwt>
<totfact> 0.70497219E-01</totfact>
</mgrwt>
</event>
<event>
 6    1  0.1637818E-005  0.3126785E+04  0.7818608E-02  0.8208425E-01
         -1   -1    0    0    0  501 -0.00000000000E+00  0.00000000000E+00  0.11330154310E+04  0.11330154310E+04  0.00000000000E+00 0.  1.
          1   -1    0    0  501    0  0.00000000000E+00 -0.00000000000E+00 -0.21572493783E+04  0.21572493783E+04  0.00000000000E+00 0. -1.
         23    2    1    2    0    0  0.12652337170E+03  0.11810455525E+04  0.55490003070E+03  0.13142736956E+04  0.92328446749E+02 0.  0.
         13    1    3    3    0    0  0.78543453191E+02  0.65598786712E+03  0.25864616964E+03  0.70949770748E+03  0.00000000000E+00 0.  1.
        -13    1    3    3    0    0  0.47979918511E+02  0.52505768541E+03  0.29625386106E+03  0.60477598810E+03  0.00000000000E+00 0. -1.
         22    1    1    2    0    0 -0.12652337170E+03 -0.11810455525E+04 -0.15791339781E+04  0.19759911137E+04  0.00000000000E+00 0. -1.
<mgrwt>
<rscale>  0 0.31267855E+04</rscale>
<asrwt>0</asrwt>
<pdfrwt beam="1">  1        1 0.33188452E+00 0.31267855E+04</pdfrwt>
<pdfrwt beam="2">  1       -1 0.17431007E+00 0.31267855E+04</pdfrwt>
<totfact> 0.44878466E-01</totfact>
</mgrwt>
</event>
<event>
 6    1  0.1637818E-005  0.4658475E+04  0.7818608E-02  0.7883465E-01
          2   -1    0    0  501    0  0.00000000000E+00  0.00000000000E+00  0.18395056457E+04  0.18395056457E+04  0.00000000000E+00 0.  1.
         -2   -1    0    0    0  501 -0.00000000000E+00 -0.00000000000E+00 -0.29493502362E+04  0.29493502362E+04  0.00000000000E+00 0. -1.
         23    2    1    2    0    0 -0.15046487178E+04 -0.14946094927E+04  0.43299862587E+03  0.21662254294E+04  0.84967648575E+02 0.  0.
         13    1    3    3    0    0 -0.13290909482E+04 -0.13106156799E+04  0.35350558825E+03  0.18997795688E+04  0.00000000000E+00 0. -1.
        -13    1    3    3    0    0 -0.17555776963E+03 -0.18399381282E+03  0.79493037613E+02  0.26644586066E+03  0.00000000000E+00 0.  1.
         22    1    1    2    0    0  0.15046487178E+04  0.14946094927E+04 -0.15428432164E+04  0.26226304525E+04  0.00000000000E+00 0. -1.
<mgrwt>
<rscale>  0 0.46584746E+04</rscale>
<asrwt>0</asrwt>
<pdfrwt beam="1">  1        2 0.28300087E+00 0.46584746E+04</pdfrwt>
<pdfrwt beam="2">  1       -2 0.45374619E+00 0.46584746E+04</pdfrwt>
<totfact> 0.20160354E-02</totfact>
</mgrwt>
</event>
<event>
 6    1  0.1637818E-005  0.1242301E+04  0.7818608E-02  0.9076615E-01
          1   -1    0    0  501    0  0.00000000000E+00  0.00000000000E+00  0.10847027726E+04  0.10847027726E+04  0.00000000000E+00 0. -1.
         -1   -1    0    0    0  501 -0.00000000000E+00 -0.00000000000E+00 -0.35569951571E+03  0.35569951571E+03  0.00000000000E+00 0.  1.
         23    2    1    2    0    0 -0.48943796800E+03  0.19586935266E+03 -0.71330296246E+01  0.53496816031E+03  0.90695780479E+02 0.  0.
         13    1    3    3    0    0 -0.27050736922E+03  0.14418957727E+03 -0.34022332105E+02  0.30841917917E+03  0.00000000000E+00 0. -1.
        -13    1    3    3    0    0 -0.21893059878E+03  0.51679775386E+02  0.26889302480E+02  0.22654898114E+03  0.00000000000E+00 0.  1.
         22    1    1    2    0    0  0.48943796800E+03 -0.19586935266E+03  0.73613628648E+03  0.90543412798E+03  0.00000000000E+00 0. -1.
<mgrwt>
<rscale>  0 0.12423015E+04</rscale>
<asrwt>0</asrwt>
<pdfrwt beam="1">  1        1 0.16687735E+00 0.12423015E+04</pdfrwt>
<pdfrwt beam="2">  1       -1 0.54723003E-01 0.12423015E+04</pdfrwt>
<totfact> 0.43342791E+01</totfact>
</mgrwt>
</event>
<event>
 6    1  0.1637818E-005  0.1889752E+04  0.7818608E-02  0.8659975E-01
          2   -1    0    0  501    0  0.00000000000E+00  0.00000000000E+00  0.50256908951E+03  0.50256908951E+03  0.00000000000E+00 0.  1.
         -2   -1    0    0    0  501 -0.00000000000E+00 -0.00000000000E+00 -0.17764526579E+04  0.17764526579E+04  0.00000000000E+00 0. -1.
         23    2    1    2    0    0 -0.35377262522E+03  0.34811162935E+03 -0.16049070684E+04  0.16824370222E+04  0.92362646933E+02 0.  0.
         11    1    3    3    0    0 -0.76353134061E+02  0.28426992431E+02 -0.27147148186E+03  0.28343369673E+03  0.00000000000E+00 0. -1.
        -11    1    3    3    0    0 -0.27741949116E+03  0.31968463692E+03 -0.13334355865E+04  0.13990033254E+04  0.00000000000E+00 0.  1.
         22    1    1    2    0    0  0.35377262522E+03 -0.34811162935E+03  0.33102350000E+03  0.59658472525E+03  0.00000000000E+00 0.  1.
<mgrwt>
<rscale>  0 0.18897515E+04</rscale>
<asrwt>0</asrwt>
<pdfrwt beam="1">  1        2 0.77318323E-01 0.18897515E+04</pdfrwt>
<pdfrwt beam="2">  1       -2 0.27330040E+00 0.18897515E+04</pdfrwt>
<totfact> 0.26560551E+00</totfact>
</mgrwt>
</event>
<event>
 6    1  0.1637818E-005  0.1017053E+04  0.7818608E-02  0.9290036E-01
         -1   -1    0    0    0  501 -0.00000000000E+00  0.00000000000E+00  0.46708470259E+03  0.46708470259E+03  0.00000000000E+00 0.  1.
          1   -1    0    0  501    0  0.00000000000E+00 -0.00000000000E+00 -0.55364552967E+03  0.55364552967E+03  0.00000000000E+00 0. -1.
         23    2    1    2    0    0 -0.45206670796E+02 -0.17888567568E+03  0.42702889975E+03  0.47500307008E+03  0.96075529226E+02 0.  0.
         13    1    3    3    0    0 -0.74754880771E+01 -0.27705555749E+02  0.18460345757E+03  0.18682054835E+03  0.00000000000E+00 0. -1.
        -13    1    3    3    0    0 -0.37731182719E+02 -0.15118011993E+03  0.24242544218E+03  0.28818252172E+03  0.00000000000E+00 0.  1.
         22    1    1    2    0    0  0.45206670796E+02  0.17888567568E+03 -0.51358972683E+03  0.54572716219E+03  0.00000000000E+00 0. -1.
<mgrwt>
<rscale>  0 0.10170533E+04</rscale>
<asrwt>0</asrwt>
<pdfrwt beam="1">  1        1 0.85176235E-01 0.10170533E+04</pdfrwt>
<pdfrwt beam="2">  1       -1 0.71859185E-01 0.10170533E+04</pdfrwt>
<totfact> 0.75270955E+01</totfact>
</mgrwt>
</event>
<event>
 6    1  0.1637818E-005  0.1485047E+04  0.7818608E-02  0.8894458E-01
         -1   -1    0    0    0  501 -0.00000000000E+00  0.00000000000E+00  0.25543307616E+03  0.25543307616E+03  0.00000000000E+00 0.  1.
          1   -1    0    0  501    0  0.00000000000E+00 -0.00000000000E+00 -0.21584549093E+04  0.21584549093E+04  0.00000000000E+00 0. -1.
         23    2    1    2    0    0 -0.69059959190E+03 -0.17521725095E+03 -0.12803425167E+04  0.14676541811E+04  0.84279024268E+02 0.  0.
         11    1    3    3    0    0 -0.44466982725E+03 -0.95886407668E+02 -0.89027154680E+03  0.99975441258E+03  0.00000000000E+00 0.  1.
        -11    1    3    3    0    0 -0.24592976465E+03 -0.79330843280E+02 -0.39007096987E+03  0.46789976851E+03  0.00000000000E+00 0. -1.
         22    1    1    2    0    0  0.69059959190E+03  0.17521725095E+03 -0.62267931645E+03  0.94623380435E+03  0.00000000000E+00 0.  1.
<mgrwt>
<rscale>  0 0.14850465E+04</rscale>
<asrwt>0</asrwt>
<pdfrwt beam="1">  1        1 0.33207000E+00 0.14850465E+04</pdfrwt>
<pdfrwt beam="2">  1       -1 0.39297395E-01 0.14850465E+04</pdfrwt>
<totfact> 0.14186664E+01</totfact>
</mgrwt>
</event>
<event>
 6    1  0.1637818E-005  0.1796553E+04  0.7818608E-02  0.8708135E-01
          1   -1    0    0  501    0  0.00000000000E+00  0.00000000000E+00  0.67560302548E+03  0.67560302548E+03  0.00000000000E+00 0. -1.
         -1   -1    0    0    0  501 -0.00000000000E+00 -0.00000000000E+00 -0.11943413560E+04  0.11943413560E+04  0.00000000000E+00 0.  1.
         23    2    1    2    0    0 -0.10248823479E+03 -0.70188873173E+03 -0.82972329867E+03  0.10954359694E+04  0.91583735432E+02 0.  0.
         11    1    3    3    0    0  0.11638461993E+02 -0.19491913558E+02 -0.35255776769E+02  0.41932782966E+02  0.00000000000E+00 0. -1.
        -11    1    3    3    0    0 -0.11412669678E+03 -0.68239681818E+03 -0.79446752190E+03  0.10535031864E+04  0.00000000000E+00 0.  1.
         22    1    1    2    0    0  0.10248823479E+03  0.70188873173E+03  0.31098496816E+03  0.77450841211E+03  0.00000000000E+00 0. -1.
<mgrwt>
<rscale>  0 0.17965530E+04</rscale>
<asrwt>0</asrwt>
<pdfrwt beam="1">  1        1 0.10393893E+00 0.17965530E+04</pdfrwt>
<pdfrwt beam="2">  1       -1 0.18374482E+00 0.17965530E+04</pdfrwt>
<totfact> 0.53082964E+00</totfact>
</mgrwt>
</event>
<event>
 6    1  0.1637818E-005  0.1612521E+04  0.7818608E-02  0.8812892E-01
         -2   -1    0    0    0  501 -0.00000000000E+00  0.00000000000E+00  0.34481409152E+03  0.34481409152E+03  0.00000000000E+00 0.  1.
          2   -1    0    0  501    0  0.00000000000E+00 -0.00000000000E+00 -0.18852369449E+04  0.18852369449E+04  0.00000000000E+00 0. -1.
         23    2    1    2    0    0 -0.70297255574E+03  0.38832621892E+03 -0.81877894054E+03  0.11503577451E+04  0.89198216040E+02 0.  0.
         11    1    3    3    0    0 -0.36747453627E+03  0.17768304791E+03 -0.36036259636E+03  0.54449058869E+03  0.00000000000E+00 0. -1.
        -11    1    3    3    0    0 -0.33549801947E+03  0.21064317102E+03 -0.45841634419E+03  0.60586715638E+03  0.00000000000E+00 0.  1.
         22    1    1    2    0    0  0.70297255574E+03 -0.38832621892E+03 -0.72164391281E+03  0.10796932913E+04  0.00000000000E+00 0. -1.
<mgrwt>
<rscale>  0 0.16125213E+04</rscale>
<asrwt>0</asrwt>
<pdfrwt beam="1">  1        2 0.29003645E+00 0.16125213E+04</pdfrwt>
<pdfrwt beam="2">  1       -2 0.53048323E-01 0.16125213E+04</pdfrwt>
<totfact> 0.24841767E+01</totfact>
</mgrwt>
</event>
<event>
 6    1  0.1637818E-005  0.3613223E+04  0.7818608E-02  0.8087469E-01
         -1   -1    0    0    0  501 -0.00000000000E+00  0.00000000000E+00  0.18711811082E+04  0.18711811082E+04  0.00000000000E+00 0.  1.
          1   -1    0    0  501    0  0.00000000000E+00 -0.00000000000E+00 -0.17442701506E+04  0.17442701506E+04  0.00000000000E+00 0. -1.
         23    2    1    2    0    0 -0.17147422112E+04 -0.49310180860E+03  0.33974314142E+03  0.18185684627E+04  0.90970363323E+02 0.  0.
         13    1    3    3    0    0 -0.12784250195E+04 -0.40231964893E+03  0.23359966535E+03  0.13604412644E+04  0.00000000000E+00 0.  1.
        -13    1    3    3    0    0 -0.43631719171E+03 -0.90782159679E+02  0.10614347607E+03  0.45812719829E+03  0.00000000000E+00 0. -1.
         22    1    1    2    0    0  0.17147422112E+04  0.49310180860E+03 -0.21283218378E+03  0.17968827961E+04  0.00000000000E+00 0. -1.
<mgrwt>
<rscale>  0 0.36132231E+04</rscale>
<asrwt>0</asrwt>
<pdfrwt beam="1">  1        1 0.26834925E+00 0.36132231E+04</pdfrwt>
<pdfrwt beam="2">  1       -1 0.28787402E+00 0.36132231E+04</pdfrwt>
<totfact> 0.14218920E-01</totfact>
</mgrwt>
</event>
<event>
 6    1  0.1637818E-005  0.2095394E+04  0.7818608E-02  0.8563275E-01
          2   -1    0    0  501    0  0.00000000000E+00  0.00000000000E+00  0.70858029155E+03  0.70858029155E+03  0.00000000000E+00 0. -1.
         -2   -1    0    0    0  501 -0.00000000000E+00 -0.00000000000E+00 -0.15491107497E+04  0.15491107497E+04  0.00000000000E+00 0.  1.
         23    2    1    2    0    0 -0.32167717099E+03  0.91593808436E+03 -0.22310040015E+01  0.97505128217E+03  0.91111189018E+02 0.  0.
         13    1    3    3    0    0 -0.21292023460E+03  0.47160838202E+03  0.75601951022E+01  0.51750038536E+03  0.00000000000E+00 0. -1.
        -13    1    3    3    0    0 -0.10875693639E+03  0.44432970233E+03 -0.97911991037E+01  0.45755089681E+03  0.00000000000E+00 0.  1.
         22    1    1    2    0    0  0.32167717099E+03 -0.91593808436E+03 -0.83829945412E+03  0.12826397590E+04  0.00000000000E+00 0.  1.
<mgrwt>
<rscale>  0 0.20953943E+04</rscale>
<asrwt>0</asrwt>
<pdfrwt beam="1">  1        2 0.10901235E+00 0.20953943E+04</pdfrwt>
<pdfrwt beam="2">  1       -2 0.23832473E+00 0.20953943E+04</pdfrwt>
<totfact> 0.28207824E+00</totfact>
</mgrwt>
</event>
<event>
 6    1  0.1637818E-005  0.2677069E+04  0.7818608E-02  0.8342484E-01
         -2   -1    0    0    0  501 -0.00000000000E+00  0.00000000000E+00  0.92557812830E+03  0.92557812830E+03  0.00000000000E+00 0. -1.
          2   -1    0    0  501    0  0.00000000000E+00 -0.00000000000E+00 -0.19357357377E+04  0.19357357377E+04  0.00000000000E+00 0.  1.
         23    2    1    2    0    0  0.73686665669E+03  0.41670027406E+03  0.60029206830E+03  0.10419294227E+04  0.93030997259E+02 0.  0.
         13    1    3    3    0    0  0.43813293472E+03  0.25581797405E+03  0.41415435604E+03  0.65492528961E+03  0.00000000000E+00 0. -1.
        -13    1    3    3    0    0  0.29873372197E+03  0.16088230001E+03  0.18613771226E+03  0.38700413308E+03  0.00000000000E+00 0.  1.
         22    1    1    2    0    0 -0.73686665669E+03 -0.41670027406E+03 -0.16104496777E+04  0.18193844433E+04  0.00000000000E+00 0.  1.
<mgrwt>
<rscale>  0 0.26770690E+04</rscale>
<asrwt>0</asrwt>
<pdfrwt beam="1">  1        2 0.29780549E+00 0.26770690E+04</pdfrwt>
<pdfrwt beam="2">  1       -2 0.14239664E+00 0.26770690E+04</pdfrwt>
<totfact> 0.21910787E+00</totfact>
</mgrwt>
</event>
<event>
 6    1  0.1637818E-005  0.1472600E+04  0.7818608E-02  0.8902881E-01
         -1   -1    0    0    0  501 -0.00000000000E+00  0.00000000000E+00  0.43590024071E+03  0.43590024071E+03  0.00000000000E+00 0.  1.
          1   -1    0    0  501    0  0.00000000000E+00 -0.00000000000E+00 -0.12437193673E+04  0.12437193673E+04  0.00000000000E+00 0. -1.
         23    2    1    2    0    0  0.66206541177E+03 -0.23835709351E+03 -0.64187917023E+03  0.95665295416E+03  0.89617476218E+02 0.  0.
         11    1    3    3    0    0  0.18908150727E+03 -0.99803292325E+02 -0.15694053047E+03  0.26522225331E+03  0.00000000000E+00 0. -1.
        -11    1    3    3    0    0  0.47298390450E+03 -0.13855380119E+03 -0.48493863976E+03  0.69143070085E+03  0.00000000000E+00 0.  1.
         22    1    1    2    0    0 -0.66206541177E+03  0.23835709351E+03 -0.16593995639E+03  0.72296665388E+03  0.00000000000E+00 0. -1.
<mgrwt>
<rscale>  0 0.14725998E+04</rscale>
<asrwt>0</asrwt>
<pdfrwt beam="1">  1        1 0.19134144E+00 0.14725998E+04</pdfrwt>
<pdfrwt beam="2">  1       -1 0.67061577E-01 0.14725998E+04</pdfrwt>
<totfact> 0.21685299E+01</totfact>
</mgrwt>
</event>
<event>
 6    1  0.1637818E-005  0.2426081E+04  0.7818608E-02  0.8429803E-01
         -2   -1    0    0    0  501 -0.00000000000E+00  0.00000000000E+00  0.12293201706E+04  0.12293201706E+04  0.00000000000E+00 0.  1.
          2   -1    0    0  501    0  0.00000000000E+00 -0.00000000000E+00 -0.11969763929E+04  0.11969763929E+04  0.00000000000E+00 0. -1.
         23    2    1    2    0    0 -0.66406379537E+03  0.76718263030E+03  0.67790036027E+03  0.12236772496E+04  0.91034061129E+02 0.  0.
         11    1    3    3    0    0 -0.41387756440E+03  0.49661738618E+03  0.38053646542E+03  0.75015429619E+03  0.00000000000E+00 0. -1.
        -11    1    3    3    0    0 -0.25018623097E+03  0.27056524412E+03  0.29736389484E+03  0.47352295345E+03  0.00000000000E+00 0.  1.
         22    1    1    2    0    0  0.66406379537E+03 -0.76718263030E+03 -0.64555658256E+03  0.12026193138E+04  0.00000000000E+00 0. -1.
<mgrwt>
<rscale>  0 0.24260810E+04</rscale>
<asrwt>0</asrwt>
<pdfrwt beam="1">  1        2 0.18415021E+00 0.24260810E+04</pdfrwt>
<pdfrwt beam="2">  1       -2 0.18912618E+00 0.24260810E+04</pdfrwt>
<totfact> 0.26813526E+00</totfact>
</mgrwt>
</event>
<event>
 6    1  0.1637818E-005  0.2442860E+04  0.7818608E-02  0.8423629E-01
         -1   -1    0    0    0  501 -0.00000000000E+00  0.00000000000E+00  0.36298318472E+03  0.36298318472E+03  0.00000000000E+00 0.  1.
          1   -1    0    0  501    0  0.00000000000E+00 -0.00000000000E+00 -0.41100840705E+04  0.41100840705E+04  0.00000000000E+00 0. -1.
         23    2    1    2    0    0  0.70802174875E+03 -0.42934537077E+03 -0.23597467690E+03  0.86562501744E+03  0.89388917529E+02 0.  0.
         13    1    3    3    0    0  0.51629013158E+03 -0.31071065409E+03 -0.21246915850E+03  0.63893642394E+03  0.00000000000E+00 0. -1.
        -13    1    3    3    0    0  0.19173161718E+03 -0.11863471669E+03 -0.23505518393E+02  0.22668859350E+03  0.00000000000E+00 0.  1.
         22    1    1    2    0    0 -0.70802174875E+03  0.42934537077E+03 -0.35111262089E+04  0.36074422378E+04  0.00000000000E+00 0. -1.
<mgrwt>
<rscale>  0 0.24428601E+04</rscale>
<asrwt>0</asrwt>
<pdfrwt beam="1">  1        1 0.63232062E+00 0.24428601E+04</pdfrwt>
<pdfrwt beam="2">  1       -1 0.55843567E-01 0.24428601E+04</pdfrwt>
<totfact> 0.22234484E-01</totfact>
</mgrwt>
</event>
<event>
 6    1  0.1637818E-005  0.2763206E+04  0.7818608E-02  0.8314783E-01
          1   -1    0    0  501    0  0.00000000000E+00  0.00000000000E+00  0.16796935107E+04  0.16796935107E+04  0.00000000000E+00 0. -1.
         -1   -1    0    0    0  501 -0.00000000000E+00 -0.00000000000E+00 -0.11364134580E+04  0.11364134580E+04  0.00000000000E+00 0.  1.
         23    2    1    2    0    0  0.67866183021E+01  0.12707279085E+04 -0.27681119237E+03  0.13037098231E+04  0.90771090011E+02 0.  0.
         13    1    3    3    0    0  0.42869645542E+02  0.73619467868E+03 -0.18300033880E+03  0.75980888086E+03  0.00000000000E+00 0.  1.
        -13    1    3    3    0    0 -0.36083027240E+02  0.53453322986E+03 -0.93810853565E+02  0.54390094220E+03  0.00000000000E+00 0. -1.
         22    1    1    2    0    0 -0.67866183021E+01 -0.12707279085E+04  0.82009124513E+03  0.15123971456E+04  0.00000000000E+00 0. -1.
<mgrwt>
<rscale>  0 0.27632056E+04</rscale>
<asrwt>0</asrwt>
<pdfrwt beam="1">  1        1 0.25841439E+00 0.27632056E+04</pdfrwt>
<pdfrwt beam="2">  1       -1 0.17483284E+00 0.27632056E+04</pdfrwt>
<totfact> 0.96933868E-01</totfact>
</mgrwt>
</event>
<event>
 6    1  0.2289210E-005  0.3704454E+04  0.7818608E-02  0.8066976E-01
          2   -1    0    0  501    0  0.00000000000E+00  0.00000000000E+00  0.17519385796E+04  0.17519385796E+04  0.00000000000E+00 0. -1.
         -2   -1    0    0    0  501 -0.00000000000E+00 -0.00000000000E+00 -0.19582561432E+04  0.19582561432E+04  0.00000000000E+00 0.  1.
         23    2    1    2    0    0  0.16883651034E+04  0.75877381704E+03 -0.12136053245E+03  0.18572154663E+04  0.90589632235E+02 0.  0.
         11    1    3    3    0    0  0.97055889891E+03  0.38693269473E+03 -0.68877063338E+02  0.10471129530E+04  0.00000000000E+00 0.  1.
        -11    1    3    3    0    0  0.71780620453E+03  0.37184112231E+03 -0.52483469113E+02  0.81010251328E+03  0.00000000000E+00 0. -1.
         22    1    1    2    0    0 -0.16883651034E+04 -0.75877381704E+03 -0.84957031201E+02  0.18529792565E+04  0.00000000000E+00 0.  1.
<mgrwt>
<rscale>  0 0.37044538E+04</rscale>
<asrwt>0</asrwt>
<pdfrwt beam="1">  1        2 0.26952901E+00 0.37044538E+04</pdfrwt>
<pdfrwt beam="2">  1       -2 0.30127017E+00 0.37044538E+04</pdfrwt>
<totfact> 0.23148114E-01</totfact>
</mgrwt>
</event>
<event>
 6    1  0.1637818E-005  0.1753382E+04  0.7818608E-02  0.8731491E-01
          1   -1    0    0  501    0  0.00000000000E+00  0.00000000000E+00  0.19070621414E+04  0.19070621414E+04  0.00000000000E+00 0. -1.
         -1   -1    0    0    0  501 -0.00000000000E+00 -0.00000000000E+00 -0.40302142985E+03  0.40302142985E+03  0.00000000000E+00 0.  1.
         23    2    1    2    0    0  0.75053485226E+02  0.22006886051E+03  0.18645778224E+04  0.18810726887E+04  0.87867373655E+02 0.  0.
         11    1    3    3    0    0  0.53757012183E+02  0.61846548002E+02  0.85910837727E+03  0.86300754096E+03  0.00000000000E+00 0.  1.
        -11    1    3    3    0    0  0.21296473043E+02  0.15822231251E+03  0.10054694451E+04  0.10180651477E+04  0.00000000000E+00 0. -1.
         22    1    1    2    0    0 -0.75053485226E+02 -0.22006886051E+03 -0.36053711088E+03  0.42901088253E+03  0.00000000000E+00 0.  1.
<mgrwt>
<rscale>  0 0.17533818E+04</rscale>
<asrwt>0</asrwt>
<pdfrwt beam="1">  1        1 0.29339417E+00 0.17533818E+04</pdfrwt>
<pdfrwt beam="2">  1       -1 0.62003298E-01 0.17533818E+04</pdfrwt>
<totfact> 0.86133152E+00</totfact>
</mgrwt>
</event>
<event>
 6    1  0.1637818E-005  0.2680901E+04  0.7818608E-02  0.8341229E-01
         -2   -1    0    0    0  501 -0.00000000000E+00  0.00000000000E+00  0.89197835967E+03  0.89197835967E+03  0.00000000000E+00 0.  1.
          2   -1    0    0  501    0  0.00000000000E+00 -0.00000000000E+00 -0.20144068801E+04  0.20144068801E+04  0.00000000000E+00 0. -1.
         23    2    1    2    0    0  0.91530801366E+02 -0.78203219031E+03 -0.17358851341E+04  0.19082463461E+04  0.90303291484E+02 0.  0.
         13    1    3    3    0    0  0.29004267029E+02 -0.68820611174E+02 -0.20616630354E+03  0.21927623844E+03  0.00000000000E+00 0. -1.
        -13    1    3    3    0    0  0.62526534338E+02 -0.71321157914E+03 -0.15297188306E+04  0.16889701077E+04  0.00000000000E+00 0.  1.
         22    1    1    2    0    0 -0.91530801366E+02  0.78203219031E+03  0.61345661362E+03  0.99813889368E+03  0.00000000000E+00 0.  1.
<mgrwt>
<rscale>  0 0.26809009E+04</rscale>
<asrwt>0</asrwt>
<pdfrwt beam="1">  1        2 0.30990875E+00 0.26809009E+04</pdfrwt>
<pdfrwt beam="2">  1       -2 0.13722744E+00 0.26809009E+04</pdfrwt>
<totfact> 0.21802039E+00</totfact>
</mgrwt>
</event>
<event>
 6    1  0.1637818E-005  0.3734337E+04  0.7818608E-02  0.8060395E-01
         -2   -1    0    0    0  501 -0.00000000000E+00  0.00000000000E+00  0.19475164760E+04  0.19475164760E+04  0.00000000000E+00 0.  1.
          2   -1    0    0  501    0  0.00000000000E+00 -0.00000000000E+00 -0.17901354053E+04  0.17901354053E+04  0.00000000000E+00 0. -1.
         23    2    1    2    0    0 -0.52845016249E+03 -0.17539776235E+04 -0.27576879281E+03  0.18552821296E+04  0.10161828258E+03 0.  0.
         11    1    3    3    0    0 -0.44052243182E+03 -0.14720803688E+04 -0.26875409800E+03  0.15599068531E+04  0.00000000000E+00 0. -1.
        -11    1    3    3    0    0 -0.87927730661E+02 -0.28189725461E+03 -0.70146948111E+01  0.29537527642E+03  0.00000000000E+00 0.  1.
         22    1    1    2    0    0  0.52845016249E+03  0.17539776235E+04  0.43314986348E+03  0.18823697517E+04  0.00000000000E+00 0.  1.
<mgrwt>
<rscale>  0 0.37343370E+04</rscale>
<asrwt>0</asrwt>
<pdfrwt beam="1">  1        2 0.27540545E+00 0.37343370E+04</pdfrwt>
<pdfrwt beam="2">  1       -2 0.29961792E+00 0.37343370E+04</pdfrwt>
<totfact> 0.22509255E-01</totfact>
</mgrwt>
</event>
<event>
 6    1  0.1637818E-005  0.1275429E+04  0.7818608E-02  0.9049280E-01
         -2   -1    0    0    0  501 -0.00000000000E+00  0.00000000000E+00  0.17205569554E+03  0.17205569554E+03  0.00000000000E+00 0.  1.
          2   -1    0    0  501    0  0.00000000000E+00 -0.00000000000E+00 -0.23636528402E+04  0.23636528402E+04  0.00000000000E+00 0. -1.
         23    2    1    2    0    0 -0.11892830360E+03  0.69604384014E+01 -0.23402776115E+04  0.23451874861E+04  0.93875753974E+02 0.  0.
         13    1    3    3    0    0 -0.27382483179E+02  0.38702501454E+02 -0.46558172761E+03  0.46798934719E+03  0.00000000000E+00 0. -1.
        -13    1    3    3    0    0 -0.91545820421E+02 -0.31742063053E+02 -0.18746958839E+04  0.18771981390E+04  0.00000000000E+00 0.  1.
         22    1    1    2    0    0  0.11892830360E+03 -0.69604384014E+01  0.14868046687E+03  0.19052104957E+03  0.00000000000E+00 0.  1.
<mgrwt>
<rscale>  0 0.12754292E+04</rscale>
<asrwt>0</asrwt>
<pdfrwt beam="1">  1        2 0.36363886E+00 0.12754292E+04</pdfrwt>
<pdfrwt beam="2">  1       -2 0.26470110E-01 0.12754292E+04</pdfrwt>
<totfact> 0.53126580E+01</totfact>
</mgrwt>
</event>
<event>
 6    1  0.1637818E-005  0.1961667E+04  0.7818608E-02  0.8624755E-01
          4   -1    0    0  501    0  0.00000000000E+00  0.00000000000E+00  0.22750819477E+04  0.22750819477E+04  0.00000000000E+00 0. -1.
         -4   -1    0    0    0  501 -0.00000000000E+00 -0.00000000000E+00 -0.42285704585E+03  0.42285704585E+03  0.00000000000E+00 0.  1.
         23    2    1    2    0    0 -0.12095002828E+03 -0.21041678287E+03  0.22323550430E+04  0.22469367141E+04  0.80071389318E+02 0.  0.
         11    1    3    3    0    0 -0.70854056610E+02 -0.91694678544E+02  0.73872730183E+03  0.74776081595E+03  0.00000000000E+00 0.  1.
        -11    1    3    3    0    0 -0.50095971666E+02 -0.11872210433E+03  0.14936277412E+04  0.14991758982E+04  0.00000000000E+00 0. -1.
         22    1    1    2    0    0  0.12095002828E+03  0.21041678287E+03 -0.38013014114E+03  0.45100227944E+03  0.00000000000E+00 0.  1.
<mgrwt>
<rscale>  0 0.19616671E+04</rscale>
<asrwt>0</asrwt>
<pdfrwt beam="1">  1        4 0.35001260E+00 0.19616671E+04</pdfrwt>
<pdfrwt beam="2">  1       -4 0.65054932E-01 0.19616671E+04</pdfrwt>
<totfact> 0.61030436E-02</totfact>
</mgrwt>
</event>
<event>
 6    1  0.1637818E-005  0.4599014E+04  0.7818608E-02  0.7893528E-01
          2   -1    0    0  501    0  0.00000000000E+00  0.00000000000E+00  0.21289394358E+04  0.21289394358E+04  0.00000000000E+00 0. -1.
         -2   -1    0    0    0  501 -0.00000000000E+00 -0.00000000000E+00 -0.24837400937E+04  0.24837400937E+04  0.00000000000E+00 0.  1.
         23    2    1    2    0    0  0.21324641398E+04  0.84401387535E+03 -0.33242599646E+03  0.23191531279E+04  0.90561902872E+02 0.  0.
         13    1    3    3    0    0  0.54372251480E+03  0.23732484117E+03 -0.12032633836E+03  0.60533931067E+03  0.00000000000E+00 0. -1.
        -13    1    3    3    0    0  0.15887416250E+04  0.60668903418E+03 -0.21209965810E+03  0.17138138172E+04  0.00000000000E+00 0.  1.
         22    1    1    2    0    0 -0.21324641398E+04 -0.84401387535E+03 -0.22374661364E+02  0.22935264016E+04  0.00000000000E+00 0. -1.
<mgrwt>
<rscale>  0 0.45990139E+04</rscale>
<asrwt>0</asrwt>
<pdfrwt beam="1">  1        2 0.32752915E+00 0.45990139E+04</pdfrwt>
<pdfrwt beam="2">  1       -2 0.38211386E+00 0.45990139E+04</pdfrwt>
<totfact> 0.41287906E-02</totfact>
</mgrwt>
</event>
<event>
 6    1  0.1637818E-005  0.3055784E+04  0.7818608E-02  0.8227979E-01
          2   -1    0    0  501    0  0.00000000000E+00  0.00000000000E+00  0.25440899911E+04  0.25440899911E+04  0.00000000000E+00 0. -1.
         -2   -1    0    0    0  501 -0.00000000000E+00 -0.00000000000E+00 -0.91759862309E+03  0.91759862309E+03  0.00000000000E+00 0.  1.
         23    2    1    2    0    0  0.53270747934E+03  0.12441742674E+04  0.13999321341E+02  0.13564861378E+04  0.90065503424E+02 0.  0.
         13    1    3    3    0    0  0.29464138437E+03  0.57510507655E+03  0.75183755741E-01  0.64618836271E+03  0.00000000000E+00 0.  1.
        -13    1    3    3    0    0  0.23806609497E+03  0.66906919080E+03  0.13924137585E+02  0.71029777507E+03  0.00000000000E+00 0. -1.
         22    1    1    2    0    0 -0.53270747934E+03 -0.12441742674E+04  0.16124920467E+04  0.21052024764E+04  0.00000000000E+00 0. -1.
<mgrwt>
<rscale>  0 0.30557837E+04</rscale>
<asrwt>0</asrwt>
<pdfrwt beam="1">  1        2 0.39139846E+00 0.30557837E+04</pdfrwt>
<pdfrwt beam="2">  1       -2 0.14116902E+00 0.30557837E+04</pdfrwt>
<totfact> 0.98252325E-01</totfact>
</mgrwt>
</event>
<event>
 6    1  0.1637818E-005  0.2581511E+04  0.7818608E-02  0.8374509E-01
          1   -1    0    0  501    0  0.00000000000E+00  0.00000000000E+00  0.17246666002E+04  0.17246666002E+04  0.00000000000E+00 0. -1.
         -1   -1    0    0    0  501 -0.00000000000E+00 -0.00000000000E+00 -0.96601245452E+03  0.96601245452E+03  0.00000000000E+00 0.  1.
         23    2    1    2    0    0  0.42908956552E+03 -0.12142440618E+04  0.43973190050E+03  0.13639470187E+04  0.92091413883E+02 0.  0.
         13    1    3    3    0    0  0.25150094069E+03 -0.71048315747E+03  0.20922315351E+03  0.78218499614E+03  0.00000000000E+00 0. -1.
        -13    1    3    3    0    0  0.17758862482E+03 -0.50376090436E+03  0.23050874699E+03  0.58176202254E+03  0.00000000000E+00 0.  1.
         22    1    1    2    0    0 -0.42908956552E+03  0.12142440618E+04  0.31892224515E+03  0.13267320360E+04  0.00000000000E+00 0.  1.
<mgrwt>
<rscale>  0 0.25815107E+04</rscale>
<asrwt>0</asrwt>
<pdfrwt beam="1">  1        1 0.26533332E+00 0.25815107E+04</pdfrwt>
<pdfrwt beam="2">  1       -1 0.14861730E+00 0.25815107E+04</pdfrwt>
<totfact> 0.14467592E+00</totfact>
</mgrwt>
</event>
<event>
 6    1  0.1637818E-005  0.1230020E+04  0.7818608E-02  0.9086978E-01
          1   -1    0    0  501    0  0.00000000000E+00  0.00000000000E+00  0.78595011686E+03  0.78595011686E+03  0.00000000000E+00 0. -1.
         -1   -1    0    0    0  501 -0.00000000000E+00 -0.00000000000E+00 -0.48124877727E+03  0.48124877727E+03  0.00000000000E+00 0.  1.
         23    2    1    2    0    0  0.34295905181E+03 -0.26143423176E+03 -0.29403604874E+03  0.52932679888E+03  0.88095932337E+02 0.  0.
         11    1    3    3    0    0  0.17740119648E+03 -0.16155070330E+03 -0.11606720126E+03  0.26653594402E+03  0.00000000000E+00 0. -1.
        -11    1    3    3    0    0  0.16555785533E+03 -0.99883528466E+02 -0.17796884749E+03  0.26279085486E+03  0.00000000000E+00 0.  1.
         22    1    1    2    0    0 -0.34295905181E+03  0.26143423176E+03  0.59873738833E+03  0.73787209525E+03  0.00000000000E+00 0. -1.
<mgrwt>
<rscale>  0 0.12300204E+04</rscale>
<asrwt>0</asrwt>
<pdfrwt beam="1">  1        1 0.12091540E+00 0.12300204E+04</pdfrwt>
<pdfrwt beam="2">  1       -1 0.74038273E-01 0.12300204E+04</pdfrwt>
<totfact> 0.41277810E+01</totfact>
</mgrwt>
</event>
<event>
 6    1  0.1637818E-005  0.2585442E+04  0.7818608E-02  0.8373163E-01
          2   -1    0    0  501    0  0.00000000000E+00  0.00000000000E+00  0.29409145200E+04  0.29409145200E+04  0.00000000000E+00 0. -1.
         -2   -1    0    0    0  501 -0.00000000000E+00 -0.00000000000E+00 -0.56823396136E+03  0.56823396136E+03  0.00000000000E+00 0.  1.
         23    2    1    2    0    0  0.82420905094E+03  0.90248861567E+03  0.62297236482E+03  0.13748371112E+04  0.90973919461E+02 0.  0.
         13    1    3    3    0    0  0.40051793973E+03  0.46020558459E+03  0.26255317580E+03  0.66418218153E+03  0.00000000000E+00 0. -1.
        -13    1    3    3    0    0  0.42369111121E+03  0.44228303108E+03  0.36041918902E+03  0.71065492971E+03  0.00000000000E+00 0.  1.
         22    1    1    2    0    0 -0.82420905094E+03 -0.90248861567E+03  0.17497081938E+04  0.21343113701E+04  0.00000000000E+00 0.  1.
<mgrwt>
<rscale>  0 0.25854419E+04</rscale>
<asrwt>0</asrwt>
<pdfrwt beam="1">  1        2 0.45244838E+00 0.25854419E+04</pdfrwt>
<pdfrwt beam="2">  1       -2 0.87420611E-01 0.25854419E+04</pdfrwt>
<totfact> 0.18965847E+00</totfact>
</mgrwt>
</event>
<event>
 6    1  0.1637818E-005  0.1799681E+04  0.7818608E-02  0.8706469E-01
          1   -1    0    0  501    0  0.00000000000E+00  0.00000000000E+00  0.13788897356E+04  0.13788897356E+04  0.00000000000E+00 0. -1.
         -1   -1    0    0    0  501 -0.00000000000E+00 -0.00000000000E+00 -0.58722073240E+03  0.58722073240E+03  0.00000000000E+00 0.  1.
         23    2    1    2    0    0 -0.57748037264E+03  0.22329651654E+03  0.11066684104E+04  0.12714382132E+04  0.92169650104E+02 0.  0.
         11    1    3    3    0    0 -0.47328770867E+03  0.17065012040E+03  0.82176377922E+03  0.96354472009E+03  0.00000000000E+00 0.  1.
        -11    1    3    3    0    0 -0.10419266397E+03  0.52646396135E+02  0.28490463118E+03  0.30789349314E+03  0.00000000000E+00 0. -1.
         22    1    1    2    0    0  0.57748037264E+03 -0.22329651654E+03 -0.31499940716E+03  0.69467225481E+03  0.00000000000E+00 0.  1.
<mgrwt>
<rscale>  0 0.17996807E+04</rscale>
<asrwt>0</asrwt>
<pdfrwt beam="1">  1        1 0.21213688E+00 0.17996807E+04</pdfrwt>
<pdfrwt beam="2">  1       -1 0.90341652E-01 0.17996807E+04</pdfrwt>
<totfact> 0.89868370E+00</totfact>
</mgrwt>
</event>
<event>
 6    1  0.1637818E-005  0.9685863E+03  0.7818608E-02  0.9343686E-01
         -1   -1    0    0    0  501 -0.00000000000E+00  0.00000000000E+00  0.59657413715E+03  0.59657413715E+03  0.00000000000E+00 0.  1.
          1   -1    0    0  501    0  0.00000000000E+00 -0.00000000000E+00 -0.39314455608E+03  0.39314455608E+03  0.00000000000E+00 0. -1.
         23    2    1    2    0    0 -0.16481206500E+03  0.61339603581E+02 -0.35264767763E+03  0.40649705321E+03  0.99769263814E+02 0.  0.
         13    1    3    3    0    0 -0.14558401305E+03  0.71358101252E+02 -0.22677996800E+03  0.27877560395E+03  0.00000000000E+00 0. -1.
        -13    1    3    3    0    0 -0.19228051950E+02 -0.10018497671E+02 -0.12586770962E+03  0.12772144927E+03  0.00000000000E+00 0.  1.
         22    1    1    2    0    0  0.16481206500E+03 -0.61339603581E+02  0.55607725869E+03  0.58322164001E+03  0.00000000000E+00 0.  1.
<mgrwt>
<rscale>  0 0.96858634E+03</rscale>
<asrwt>0</asrwt>
<pdfrwt beam="1">  1        1 0.60483778E-01 0.96858634E+03</pdfrwt>
<pdfrwt beam="2">  1       -1 0.91780636E-01 0.96858634E+03</pdfrwt>
<totfact> 0.71366209E+01</totfact>
</mgrwt>
</event>
<event>
 6    1  0.1637818E-005  0.2567634E+04  0.7818608E-02  0.8379279E-01
          1   -1    0    0  501    0  0.00000000000E+00  0.00000000000E+00  0.33562364436E+04  0.33562364436E+04  0.00000000000E+00 0. -1.
         -1   -1    0    0    0  501 -0.00000000000E+00 -0.00000000000E+00 -0.49108167300E+03  0.49108167300E+03  0.00000000000E+00 0.  1.
         23    2    1    2    0    0  0.11177985196E+04 -0.25933724472E+03  0.22914731775E+04  0.25644151947E+04  0.92987259600E+02 0.  0.
         11    1    3    3    0    0  0.71847612278E+03 -0.17889095802E+03  0.13806686185E+04  0.15666702742E+04  0.00000000000E+00 0. -1.
        -11    1    3    3    0    0  0.39932239679E+03 -0.80446286696E+02  0.91080455903E+03  0.99774492049E+03  0.00000000000E+00 0.  1.
         22    1    1    2    0    0 -0.11177985196E+04  0.25933724472E+03  0.57368159304E+03  0.12829029219E+04  0.00000000000E+00 0.  1.
<mgrwt>
<rscale>  0 0.25676341E+04</rscale>
<asrwt>0</asrwt>
<pdfrwt beam="1">  1        1 0.51634405E+00 0.25676341E+04</pdfrwt>
<pdfrwt beam="2">  1       -1 0.75551029E-01 0.25676341E+04</pdfrwt>
<totfact> 0.50306420E-01</totfact>
</mgrwt>
</event>
<event>
 6    1  0.1637818E-005  0.2003205E+04  0.7818608E-02  0.8605124E-01
         -1   -1    0    0    0  501 -0.00000000000E+00  0.00000000000E+00  0.96337585928E+03  0.96337585928E+03  0.00000000000E+00 0.  1.
          1   -1    0    0  501    0  0.00000000000E+00 -0.00000000000E+00 -0.10413462115E+04  0.10413462115E+04  0.00000000000E+00 0. -1.
         23    2    1    2    0    0 -0.65196605380E+03  0.38155527119E+03 -0.69400955129E+03  0.10299664834E+04  0.92398806016E+02 0.  0.
         13    1    3    3    0    0 -0.28032255769E+03  0.19626064752E+03 -0.36341939885E+03  0.49917195191E+03  0.00000000000E+00 0. -1.
        -13    1    3    3    0    0 -0.37164349611E+03  0.18529462368E+03 -0.33059015244E+03  0.53079453148E+03  0.00000000000E+00 0.  1.
         22    1    1    2    0    0  0.65196605380E+03 -0.38155527119E+03  0.61603919909E+03  0.97475558737E+03  0.00000000000E+00 0.  1.
<mgrwt>
<rscale>  0 0.20032052E+04</rscale>
<asrwt>0</asrwt>
<pdfrwt beam="1">  1        1 0.16020711E+00 0.20032052E+04</pdfrwt>
<pdfrwt beam="2">  1       -1 0.14821167E+00 0.20032052E+04</pdfrwt>
<totfact> 0.46967182E+00</totfact>
</mgrwt>
</event>
<event>
 6    1  0.1637818E-005  0.1923185E+04  0.7818608E-02  0.8643401E-01
          2   -1    0    0  501    0  0.00000000000E+00  0.00000000000E+00  0.15402053087E+04  0.15402053087E+04  0.00000000000E+00 0. -1.
         -2   -1    0    0    0  501 -0.00000000000E+00 -0.00000000000E+00 -0.60034854425E+03  0.60034854425E+03  0.00000000000E+00 0.  1.
         23    2    1    2    0    0  0.78896445574E+03 -0.76564814500E+00  0.10785484397E+04  0.13394915087E+04  0.92224002517E+02 0.  0.
         13    1    3    3    0    0  0.39000620443E+03 -0.92510775692E+01  0.60955012904E+03  0.72370006339E+03  0.00000000000E+00 0.  1.
        -13    1    3    3    0    0  0.39895825131E+03  0.84854294242E+01  0.46899831061E+03  0.61579144534E+03  0.00000000000E+00 0. -1.
         22    1    1    2    0    0 -0.78896445574E+03  0.76564814500E+00 -0.13869167515E+03  0.80106234426E+03  0.00000000000E+00 0.  1.
<mgrwt>
<rscale>  0 0.19231849E+04</rscale>
<asrwt>0</asrwt>
<pdfrwt beam="1">  1        2 0.23695466E+00 0.19231849E+04</pdfrwt>
<pdfrwt beam="2">  1       -2 0.92361315E-01 0.19231849E+04</pdfrwt>
<totfact> 0.11210112E+01</totfact>
</mgrwt>
</event>
<event>
 6    1  0.1637818E-005  0.4525036E+04  0.7818608E-02  0.7906268E-01
         -2   -1    0    0    0  501 -0.00000000000E+00  0.00000000000E+00  0.19380900934E+04  0.19380900934E+04  0.00000000000E+00 0.  1.
          2   -1    0    0  501    0  0.00000000000E+00 -0.00000000000E+00 -0.26412532150E+04  0.26412532150E+04  0.00000000000E+00 0. -1.
         23    2    1    2    0    0 -0.20161204128E+04 -0.81161060322E+03 -0.98475479527E+03  0.23878262172E+04  0.92297057354E+02 0.  0.
         11    1    3    3    0    0 -0.58129720628E+03 -0.20720228864E+03 -0.31640783487E+03  0.69350785750E+03  0.00000000000E+00 0. -1.
        -11    1    3    3    0    0 -0.14348232065E+04 -0.60440831458E+03 -0.66834696040E+03  0.16943183597E+04  0.00000000000E+00 0.  1.
         22    1    1    2    0    0  0.20161204128E+04  0.81161060322E+03  0.28159167371E+03  0.21915170911E+04  0.00000000000E+00 0.  1.
<mgrwt>
<rscale>  0 0.45250356E+04</rscale>
<asrwt>0</asrwt>
<pdfrwt beam="1">  1        2 0.40634665E+00 0.45250356E+04</pdfrwt>
<pdfrwt beam="2">  1       -2 0.29816771E+00 0.45250356E+04</pdfrwt>
<totfact> 0.70963947E-02</totfact>
</mgrwt>
</event>
<event>
 6    1  0.1637818E-005  0.7092061E+03  0.7818608E-02  0.9701617E-01
         -1   -1    0    0    0  501 -0.00000000000E+00  0.00000000000E+00  0.76342605808E+03  0.76342605808E+03  0.00000000000E+00 0.  1.
          1   -1    0    0  501    0  0.00000000000E+00 -0.00000000000E+00 -0.16470921726E+03  0.16470921726E+03  0.00000000000E+00 0. -1.
         23    2    1    2    0    0  0.30759314350E+03  0.16305898419E+03  0.28979023271E+03  0.46269202053E+03  0.94359698140E+02 0.  0.
         13    1    3    3    0    0  0.15621147354E+03  0.68280162465E+02  0.83516740670E+02  0.18984006696E+03  0.00000000000E+00 0. -1.
        -13    1    3    3    0    0  0.15138166996E+03  0.94778821729E+02  0.20627349204E+03  0.27285195357E+03  0.00000000000E+00 0.  1.
         22    1    1    2    0    0 -0.30759314350E+03 -0.16305898419E+03  0.30892660811E+03  0.46544325481E+03  0.00000000000E+00 0.  1.
<mgrwt>
<rscale>  0 0.70920606E+03</rscale>
<asrwt>0</asrwt>
<pdfrwt beam="1">  1        1 0.25339880E-01 0.70920606E+03</pdfrwt>
<pdfrwt beam="2">  1       -1 0.11745016E+00 0.70920606E+03</pdfrwt>
<totfact> 0.12722951E+02</totfact>
</mgrwt>
</event>
<event>
 6    1  0.1637818E-005  0.1252081E+04  0.7818608E-02  0.9068453E-01
          2   -1    0    0  501    0  0.00000000000E+00  0.00000000000E+00  0.18943860865E+03  0.18943860865E+03  0.00000000000E+00 0. -1.
         -2   -1    0    0    0  501 -0.00000000000E+00 -0.00000000000E+00 -0.20688863208E+04  0.20688863208E+04  0.00000000000E+00 0.  1.
         23    2    1    2    0    0  0.53885005306E+03 -0.10400082699E+03 -0.14752176836E+04  0.15767257307E+04  0.92850763227E+02 0.  0.
         13    1    3    3    0    0  0.15580766027E+03 -0.64248804804E+02 -0.52693349279E+03  0.55322946572E+03  0.00000000000E+00 0.  1.
        -13    1    3    3    0    0  0.38304239279E+03 -0.39752022187E+02 -0.94828419083E+03  0.10234962650E+04  0.00000000000E+00 0. -1.
         22    1    1    2    0    0 -0.53885005306E+03  0.10400082699E+03 -0.40423002853E+03  0.68159919870E+03  0.00000000000E+00 0. -1.
<mgrwt>
<rscale>  0 0.12520814E+04</rscale>
<asrwt>0</asrwt>
<pdfrwt beam="1">  1        2 0.29144402E-01 0.12520814E+04</pdfrwt>
<pdfrwt beam="2">  1       -2 0.31829020E+00 0.12520814E+04</pdfrwt>
<totfact> 0.44813059E+00</totfact>
</mgrwt>
</event>
<event>
 6    1  0.1637818E-005  0.1658832E+04  0.7818608E-02  0.8785199E-01
         -2   -1    0    0    0  501 -0.00000000000E+00  0.00000000000E+00  0.18006087677E+03  0.18006087677E+03  0.00000000000E+00 0.  1.
          2   -1    0    0  501    0  0.00000000000E+00 -0.00000000000E+00 -0.38205447281E+04  0.38205447281E+04  0.00000000000E+00 0. -1.
         23    2    1    2    0    0 -0.40299272882E+03 -0.48584310869E+03 -0.31133953706E+04  0.31782498836E+04  0.97953680202E+02 0.  0.
         11    1    3    3    0    0 -0.62904204632E+02 -0.12680949417E+03 -0.82157362693E+03  0.83367908168E+03  0.00000000000E+00 0. -1.
        -11    1    3    3    0    0 -0.34008852418E+03 -0.35903361452E+03 -0.22918217436E+04  0.23445708019E+04  0.00000000000E+00 0.  1.
         22    1    1    2    0    0  0.40299272882E+03  0.48584310869E+03 -0.52708848078E+03  0.82235572127E+03  0.00000000000E+00 0.  1.
<mgrwt>
<rscale>  0 0.16588317E+04</rscale>
<asrwt>0</asrwt>
<pdfrwt beam="1">  1        2 0.58777611E+00 0.16588317E+04</pdfrwt>
<pdfrwt beam="2">  1       -2 0.27701674E-01 0.16588317E+04</pdfrwt>
<totfact> 0.54599727E+00</totfact>
</mgrwt>
</event>
<event>
 6    1  0.1637818E-005  0.2705542E+04  0.7818608E-02  0.8333209E-01
         -2   -1    0    0    0  501 -0.00000000000E+00  0.00000000000E+00  0.19668417244E+04  0.19668417244E+04  0.00000000000E+00 0.  1.
          2   -1    0    0  501    0  0.00000000000E+00 -0.00000000000E+00 -0.93042052313E+03  0.93042052313E+03  0.00000000000E+00 0. -1.
         23    2    1    2    0    0 -0.11764226092E+04 -0.61701277804E+03  0.78370616046E+03  0.15450271291E+04  0.90766513015E+02 0.  0.
         13    1    3    3    0    0 -0.10661285119E+04 -0.53092961038E+03  0.71507127493E+03  0.13891879582E+04  0.00000000000E+00 0.  1.
        -13    1    3    3    0    0 -0.11029409737E+03 -0.86083167664E+02  0.68634885524E+02  0.15583917088E+03  0.00000000000E+00 0. -1.
         22    1    1    2    0    0  0.11764226092E+04  0.61701277804E+03  0.25271504086E+03  0.13522351185E+04  0.00000000000E+00 0. -1.
<mgrwt>
<rscale>  0 0.27055424E+04</rscale>
<asrwt>0</asrwt>
<pdfrwt beam="1">  1        2 0.14314162E+00 0.27055424E+04</pdfrwt>
<pdfrwt beam="2">  1       -2 0.30259103E+00 0.27055424E+04</pdfrwt>
<totfact> 0.75169515E-01</totfact>
</mgrwt>
</event>
<event>
 6    1  0.1637818E-005  0.1811200E+04  0.7818608E-02  0.8700366E-01
          2   -1    0    0  501    0  0.00000000000E+00  0.00000000000E+00  0.73964068844E+03  0.73964068844E+03  0.00000000000E+00 0. -1.
         -2   -1    0    0    0  501 -0.00000000000E+00 -0.00000000000E+00 -0.11087970626E+04  0.11087970626E+04  0.00000000000E+00 0.  1.
         23    2    1    2    0    0  0.84126792281E+03 -0.31321189929E+02  0.14853602954E+03  0.86014722710E+03  0.95276257937E+02 0.  0.
         11    1    3    3    0    0  0.52070982955E+03  0.21694662249E+02  0.11324802408E+03  0.53332401026E+03  0.00000000000E+00 0. -1.
        -11    1    3    3    0    0  0.32055809326E+03 -0.53015852177E+02  0.35288005461E+02  0.32682321684E+03  0.00000000000E+00 0.  1.
         22    1    1    2    0    0 -0.84126792281E+03  0.31321189929E+02 -0.51769240372E+03  0.98829052397E+03  0.00000000000E+00 0.  1.
<mgrwt>
<rscale>  0 0.18112001E+04</rscale>
<asrwt>0</asrwt>
<pdfrwt beam="1">  1        2 0.11379087E+00 0.18112001E+04</pdfrwt>
<pdfrwt beam="2">  1       -2 0.17058416E+00 0.18112001E+04</pdfrwt>
<totfact> 0.75980985E+00</totfact>
</mgrwt>
</event>
<event>
 6    1  0.1637818E-005  0.5942847E+03  0.7818608E-02  0.9917335E-01
          1   -1    0    0  501    0  0.00000000000E+00  0.00000000000E+00  0.13763278991E+04  0.13763278991E+04  0.00000000000E+00 0. -1.
         -1   -1    0    0    0  501 -0.00000000000E+00 -0.00000000000E+00 -0.64151563457E+02  0.64151563457E+02  0.00000000000E+00 0.  1.
         23    2    1    2    0    0  0.21405020116E+03  0.19155647938E+03  0.57217512662E+03  0.64668278660E+03  0.91120127006E+02 0.  0.
         13    1    3    3    0    0  0.18770816661E+03  0.14870952297E+03  0.38967758619E+03  0.45738113124E+03  0.00000000000E+00 0.  1.
        -13    1    3    3    0    0  0.26342034555E+02  0.42846956405E+02  0.18249754043E+03  0.18930165536E+03  0.00000000000E+00 0. -1.
         22    1    1    2    0    0 -0.21405020116E+03 -0.19155647938E+03  0.74000120898E+03  0.79379667592E+03  0.00000000000E+00 0.  1.
<mgrwt>
<rscale>  0 0.59428473E+03</rscale>
<asrwt>0</asrwt>
<pdfrwt beam="1">  1        1 0.21174273E+00 0.59428473E+03</pdfrwt>
<pdfrwt beam="2">  1       -1 0.98694723E-02 0.59428473E+03</pdfrwt>
<totfact> 0.52642384E+02</totfact>
</mgrwt>
</event>
<event>
 6    1  0.1637818E-005  0.1700230E+04  0.7818608E-02  0.8761233E-01
         -1   -1    0    0    0  501 -0.00000000000E+00  0.00000000000E+00  0.42255990693E+03  0.42255990693E+03  0.00000000000E+00 0.  1.
          1   -1    0    0  501    0  0.00000000000E+00 -0.00000000000E+00 -0.17102796835E+04  0.17102796835E+04  0.00000000000E+00 0. -1.
         23    2    1    2    0    0  0.22181496284E+03  0.74706005912E+03 -0.10642248159E+04  0.13221296502E+04  0.90287006707E+02 0.  0.
         11    1    3    3    0    0  0.61832274271E+02  0.30473742618E+03 -0.36606580729E+03  0.48030438716E+03  0.00000000000E+00 0.  1.
        -11    1    3    3    0    0  0.15998268857E+03  0.44232263295E+03 -0.69815900860E+03  0.84182526307E+03  0.00000000000E+00 0. -1.
         22    1    1    2    0    0 -0.22181496284E+03 -0.74706005912E+03 -0.22349496066E+03  0.81070994019E+03  0.00000000000E+00 0.  1.
<mgrwt>
<rscale>  0 0.17002301E+04</rscale>
<asrwt>0</asrwt>
<pdfrwt beam="1">  1        1 0.26311996E+00 0.17002301E+04</pdfrwt>
<pdfrwt beam="2">  1       -1 0.65009215E-01 0.17002301E+04</pdfrwt>
<totfact> 0.10705564E+01</totfact>
</mgrwt>
</event>
<event>
 6    1  0.1637818E-005  0.2564338E+04  0.7818608E-02  0.8380417E-01
          2   -1    0    0  501    0  0.00000000000E+00  0.00000000000E+00  0.30070225905E+04  0.30070225905E+04  0.00000000000E+00 0.  1.
         -2   -1    0    0    0  501 -0.00000000000E+00 -0.00000000000E+00 -0.54670581810E+03  0.54670581810E+03  0.00000000000E+00 0. -1.
         23    2    1    2    0    0 -0.53020068083E+02  0.10033865189E+04  0.23318937379E+04  0.25407683355E+04  0.90441671470E+02 0.  0.
         11    1    3    3    0    0  0.70072073198E+01  0.35951231560E+03  0.92241830464E+03  0.99002713839E+03  0.00000000000E+00 0. -1.
        -11    1    3    3    0    0 -0.60027275403E+02  0.64387420328E+03  0.14094754333E+04  0.15507411971E+04  0.00000000000E+00 0.  1.
         22    1    1    2    0    0  0.53020068083E+02 -0.10033865189E+04  0.12842303450E+03  0.10129600731E+04  0.00000000000E+00 0. -1.
<mgrwt>
<rscale>  0 0.25643375E+04</rscale>
<asrwt>0</asrwt>
<pdfrwt beam="1">  1        2 0.46261885E+00 0.25643375E+04</pdfrwt>
<pdfrwt beam="2">  1       -2 0.84108589E-01 0.25643375E+04</pdfrwt>
<totfact> 0.18871940E+00</totfact>
</mgrwt>
</event>
<event>
 6    1  0.1637818E-005  0.3655708E+04  0.7818608E-02  0.8077849E-01
          2   -1    0    0  501    0  0.00000000000E+00  0.00000000000E+00  0.21606091663E+04  0.21606091663E+04  0.00000000000E+00 0. -1.
         -2   -1    0    0    0  501 -0.00000000000E+00 -0.00000000000E+00 -0.15463462772E+04  0.15463462772E+04  0.00000000000E+00 0.  1.
         23    2    1    2    0    0 -0.30952499862E+03 -0.15399149297E+04  0.12529348709E+04  0.20113594963E+04  0.92614885513E+02 0.  0.
         11    1    3    3    0    0 -0.10973268886E+03 -0.35314995190E+03  0.28197454255E+03  0.46504386264E+03  0.00000000000E+00 0.  1.
        -11    1    3    3    0    0 -0.19979230976E+03 -0.11867649778E+04  0.97096032839E+03  0.15463156337E+04  0.00000000000E+00 0. -1.
         22    1    1    2    0    0  0.30952499862E+03  0.15399149297E+04 -0.63867198186E+03  0.16955959471E+04  0.00000000000E+00 0.  1.
<mgrwt>
<rscale>  0 0.36557078E+04</rscale>
<asrwt>0</asrwt>
<pdfrwt beam="1">  1        2 0.33240141E+00 0.36557078E+04</pdfrwt>
<pdfrwt beam="2">  1       -2 0.23789943E+00 0.36557078E+04</pdfrwt>
<totfact> 0.33654387E-01</totfact>
</mgrwt>
</event>
<event>
 6    1  0.1637818E-005  0.1258680E+04  0.7818608E-02  0.9062990E-01
          1   -1    0    0  501    0  0.00000000000E+00  0.00000000000E+00  0.20445843809E+03  0.20445843809E+03  0.00000000000E+00 0. -1.
         -1   -1    0    0    0  501 -0.00000000000E+00 -0.00000000000E+00 -0.19371593725E+04  0.19371593725E+04  0.00000000000E+00 0.  1.
         23    2    1    2    0    0 -0.35918045720E+03 -0.40338985711E+02 -0.17407021887E+04  0.17800906959E+04  0.89671296945E+02 0.  0.
         11    1    3    3    0    0 -0.21100503458E+03 -0.31653432806E+02 -0.81018050122E+03  0.83780517364E+03  0.00000000000E+00 0. -1.
        -11    1    3    3    0    0 -0.14817542262E+03 -0.86855529053E+01 -0.93052168744E+03  0.94228552228E+03  0.00000000000E+00 0.  1.
         22    1    1    2    0    0  0.35918045720E+03  0.40338985711E+02  0.80012542064E+01  0.36152711471E+03  0.00000000000E+00 0. -1.
<mgrwt>
<rscale>  0 0.12586796E+04</rscale>
<asrwt>0</asrwt>
<pdfrwt beam="1">  1        1 0.31455144E-01 0.12586796E+04</pdfrwt>
<pdfrwt beam="2">  1       -1 0.29802452E+00 0.12586796E+04</pdfrwt>
<totfact> 0.48709962E+00</totfact>
</mgrwt>
</event>
<event>
 6    1  0.1637818E-005  0.3970099E+04  0.7818608E-02  0.8010606E-01
         -2   -1    0    0    0  501 -0.00000000000E+00  0.00000000000E+00  0.29337711534E+04  0.29337711534E+04  0.00000000000E+00 0.  1.
          2   -1    0    0  501    0  0.00000000000E+00 -0.00000000000E+00 -0.13431247441E+04  0.13431247441E+04  0.00000000000E+00 0. -1.
         23    2    1    2    0    0  0.12678390698E+04  0.79898329276E+03  0.21963515555E+04  0.26605206524E+04  0.92842757131E+02 0.  0.
         11    1    3    3    0    0  0.28739504195E+03  0.20070287424E+03  0.45223917702E+03  0.57218688127E+03  0.00000000000E+00 0. -1.
        -11    1    3    3    0    0  0.98044402782E+03  0.59828041852E+03  0.17441123785E+04  0.20883337711E+04  0.00000000000E+00 0.  1.
         22    1    1    2    0    0 -0.12678390698E+04 -0.79898329276E+03 -0.60570514611E+03  0.16163752451E+04  0.00000000000E+00 0. -1.
<mgrwt>
<rscale>  0 0.39700986E+04</rscale>
<asrwt>0</asrwt>
<pdfrwt beam="1">  1        2 0.20663458E+00 0.39700986E+04</pdfrwt>
<pdfrwt beam="2">  1       -2 0.45134941E+00 0.39700986E+04</pdfrwt>
<totfact> 0.41955066E-02</totfact>
</mgrwt>
</event>
<event>
 6    1  0.1637818E-005  0.9340012E+03  0.7818608E-02  0.9384049E-01
         -1   -1    0    0    0  501 -0.00000000000E+00  0.00000000000E+00  0.17243316329E+03  0.17243316329E+03  0.00000000000E+00 0.  1.
          1   -1    0    0  501    0  0.00000000000E+00 -0.00000000000E+00 -0.12647774056E+04  0.12647774056E+04  0.00000000000E+00 0. -1.
         23    2    1    2    0    0 -0.42977527011E+03  0.16914684027E+03 -0.63299070848E+03  0.78580968970E+03  0.59179346361E+02 0.  0.
         13    1    3    3    0    0 -0.27979663505E+03  0.13016027339E+03 -0.38538079484E+03  0.49370660395E+03  0.00000000000E+00 0. -1.
        -13    1    3    3    0    0 -0.14997863506E+03  0.38986566879E+02 -0.24760991364E+03  0.29210308575E+03  0.00000000000E+00 0.  1.
         22    1    1    2    0    0  0.42977527011E+03 -0.16914684027E+03 -0.45935353382E+03  0.65140087918E+03  0.00000000000E+00 0.  1.
<mgrwt>
<rscale>  0 0.93400122E+03</rscale>
<asrwt>0</asrwt>
<pdfrwt beam="1">  1        1 0.19458114E+00 0.93400122E+03</pdfrwt>
<pdfrwt beam="2">  1       -1 0.26528179E-01 0.93400122E+03</pdfrwt>
<totfact> 0.12187500E+02</totfact>
</mgrwt>
</event>
<event>
 6    1  0.1637818E-005  0.1915227E+04  0.7818608E-02  0.8647314E-01
         -2   -1    0    0    0  501 -0.00000000000E+00  0.00000000000E+00  0.74443562707E+03  0.74443562707E+03  0.00000000000E+00 0.  1.
          2   -1    0    0  501    0  0.00000000000E+00 -0.00000000000E+00 -0.12318370307E+04  0.12318370307E+04  0.00000000000E+00 0. -1.
         23    2    1    2    0    0  0.27785816243E+03  0.91387318304E+03 -0.21095328207E+03  0.98189198768E+03  0.85095447294E+02 0.  0.
         11    1    3    3    0    0  0.18400369497E+03  0.72266572498E+03 -0.15492031063E+03  0.76164520117E+03  0.00000000000E+00 0. -1.
        -11    1    3    3    0    0  0.93854467457E+02  0.19120745807E+03 -0.56032971436E+02  0.22024678651E+03  0.00000000000E+00 0.  1.
         22    1    1    2    0    0 -0.27785816243E+03 -0.91387318304E+03 -0.27644812156E+03  0.99438067008E+03  0.00000000000E+00 0. -1.
<mgrwt>
<rscale>  0 0.19152267E+04</rscale>
<asrwt>0</asrwt>
<pdfrwt beam="1">  1        2 0.18951339E+00 0.19152267E+04</pdfrwt>
<pdfrwt beam="2">  1       -2 0.11452856E+00 0.19152267E+04</pdfrwt>
<totfact> 0.10103238E+01</totfact>
</mgrwt>
</event>
<event>
 6    1  0.1637818E-005  0.9887383E+03  0.7818608E-02  0.9320983E-01
         -1   -1    0    0    0  501 -0.00000000000E+00  0.00000000000E+00  0.20990514756E+04  0.20990514756E+04  0.00000000000E+00 0.  1.
          1   -1    0    0  501    0  0.00000000000E+00 -0.00000000000E+00 -0.11643394550E+03  0.11643394550E+03  0.00000000000E+00 0. -1.
         23    2    1    2    0    0  0.21447257545E+03 -0.40659703381E+03  0.13808809443E+04  0.14582492940E+04  0.91319152077E+02 0.  0.
         11    1    3    3    0    0  0.15539416129E+03 -0.36152881436E+03  0.11921671606E+04  0.12554333784E+04  0.00000000000E+00 0.  1.
        -11    1    3    3    0    0  0.59078414160E+02 -0.45068219448E+02  0.18871378379E+03  0.20281591559E+03  0.00000000000E+00 0. -1.
         22    1    1    2    0    0 -0.21447257545E+03  0.40659703381E+03  0.60173658576E+03  0.75723612709E+03  0.00000000000E+00 0. -1.
<mgrwt>
<rscale>  0 0.98873828E+03</rscale>
<asrwt>0</asrwt>
<pdfrwt beam="1">  1        1 0.17912916E-01 0.98873828E+03</pdfrwt>
<pdfrwt beam="2">  1       -1 0.32293097E+00 0.98873828E+03</pdfrwt>
<totfact> 0.72599714E+00</totfact>
</mgrwt>
</event>
<event>
 6    1  0.1637818E-005  0.5016478E+04  0.7818608E-02  0.7825970E-01
         -3   -1    0    0    0  501 -0.00000000000E+00  0.00000000000E+00  0.27027329920E+04  0.27027329920E+04  0.00000000000E+00 0.  1.
          3   -1    0    0  501    0  0.00000000000E+00 -0.00000000000E+00 -0.23277408009E+04  0.23277408009E+04  0.00000000000E+00 0. -1.
         23    2    1    2    0    0 -0.63254217010E+03  0.17922701036E+04  0.18276023002E+04  0.26383162206E+04  0.90777699075E+02 0.  0.
         13    1    3    3    0    0 -0.11482455871E+02  0.41928530235E+02  0.62188718425E+02  0.75876776025E+02  0.00000000000E+00 0. -1.
        -13    1    3    3    0    0 -0.62105971423E+03  0.17503415734E+04  0.17654135818E+04  0.25624394446E+04  0.00000000000E+00 0.  1.
         22    1    1    2    0    0  0.63254217010E+03 -0.17922701036E+04 -0.14526101092E+04  0.23921575723E+04  0.00000000000E+00 0.  1.
<mgrwt>
<rscale>  0 0.50164776E+04</rscale>
<asrwt>0</asrwt>
<pdfrwt beam="1">  1        3 0.35811397E+00 0.50164776E+04</pdfrwt>
<pdfrwt beam="2">  1       -3 0.41580508E+00 0.50164776E+04</pdfrwt>
<totfact> 0.30049347E-04</totfact>
</mgrwt>
</event>
<event>
 6    1  0.1637818E-005  0.4775455E+04  0.7818608E-02  0.7864111E-01
          2   -1    0    0  501    0  0.00000000000E+00  0.00000000000E+00  0.24363227617E+04  0.24363227617E+04  0.00000000000E+00 0. -1.
         -2   -1    0    0    0  501 -0.00000000000E+00 -0.00000000000E+00 -0.23401011077E+04  0.23401011077E+04  0.00000000000E+00 0.  1.
         23    2    1    2    0    0  0.11017405265E+04 -0.19668714743E+03 -0.20605251629E+04  0.23465936585E+04  0.90663273706E+02 0.  0.
         13    1    3    3    0    0  0.55039401171E+03 -0.13355295575E+03 -0.97988174923E+03  0.11317854048E+04  0.00000000000E+00 0.  1.
        -13    1    3    3    0    0  0.55134651476E+03 -0.63134191683E+02 -0.10806434137E+04  0.12148082536E+04  0.00000000000E+00 0. -1.
         22    1    1    2    0    0 -0.11017405265E+04  0.19668714743E+03  0.21567468170E+04  0.24298302110E+04  0.00000000000E+00 0. -1.
<mgrwt>
<rscale>  0 0.47754546E+04</rscale>
<asrwt>0</asrwt>
<pdfrwt beam="1">  1        2 0.37481889E+00 0.47754546E+04</pdfrwt>
<pdfrwt beam="2">  1       -2 0.36001555E+00 0.47754546E+04</pdfrwt>
<totfact> 0.37756087E-02</totfact>
</mgrwt>
</event>
<event>
 6    1  0.1637818E-005  0.1955391E+04  0.7818608E-02  0.8627765E-01
          1   -1    0    0  501    0  0.00000000000E+00  0.00000000000E+00  0.89627371142E+03  0.89627371142E+03  0.00000000000E+00 0. -1.
         -1   -1    0    0    0  501 -0.00000000000E+00 -0.00000000000E+00 -0.10665142387E+04  0.10665142387E+04  0.00000000000E+00 0.  1.
         23    2    1    2    0    0 -0.39982529246E+03 -0.48279350427E+03  0.66494079138E+03  0.91852856314E+03  0.92728814366E+02 0.  0.
         11    1    3    3    0    0 -0.40037267355E+03 -0.45594237810E+03  0.63884845475E+03  0.88108403573E+03  0.00000000000E+00 0.  1.
        -11    1    3    3    0    0  0.54738109148E+00 -0.26851126176E+02  0.26092336625E+02  0.37444527417E+02  0.00000000000E+00 0. -1.
         22    1    1    2    0    0  0.39982529246E+03  0.48279350427E+03 -0.83518131867E+03  0.10442593870E+04  0.00000000000E+00 0.  1.
<mgrwt>
<rscale>  0 0.19553912E+04</rscale>
<asrwt>0</asrwt>
<pdfrwt beam="1">  1        1 0.13788826E+00 0.19553912E+04</pdfrwt>
<pdfrwt beam="2">  1       -1 0.16407911E+00 0.19553912E+04</pdfrwt>
<totfact> 0.46463280E+00</totfact>
</mgrwt>
</event>
<event>
 6    1  0.1637818E-005  0.2930771E+04  0.7818608E-02  0.8263781E-01
          3   -1    0    0  501    0  0.00000000000E+00  0.00000000000E+00  0.14623273130E+04  0.14623273130E+04  0.00000000000E+00 0. -1.
         -3   -1    0    0    0  501 -0.00000000000E+00 -0.00000000000E+00 -0.14684502550E+04  0.14684502550E+04  0.00000000000E+00 0.  1.
         23    2    1    2    0    0  0.38167203625E+03 -0.13653215748E+04  0.36197605793E+03  0.14661023755E+04  0.93021304800E+02 0.  0.
         13    1    3    3    0    0  0.13321641726E+03 -0.34065063796E+03  0.74994039310E+02  0.37338127551E+03  0.00000000000E+00 0. -1.
        -13    1    3    3    0    0  0.24845561899E+03 -0.10246709368E+04  0.28698201862E+03  0.10927211000E+04  0.00000000000E+00 0.  1.
         22    1    1    2    0    0 -0.38167203625E+03  0.13653215748E+04 -0.36809899991E+03  0.14646751925E+04  0.00000000000E+00 0.  1.
<mgrwt>
<rscale>  0 0.29307712E+04</rscale>
<asrwt>0</asrwt>
<pdfrwt beam="1">  1        3 0.22497343E+00 0.29307712E+04</pdfrwt>
<pdfrwt beam="2">  1       -3 0.22591542E+00 0.29307712E+04</pdfrwt>
<totfact> 0.23455043E-02</totfact>
</mgrwt>
</event>
<event>
 6    1  0.1637818E-005  0.1142752E+04  0.7818608E-02  0.9164497E-01
          1   -1    0    0  501    0  0.00000000000E+00  0.00000000000E+00  0.16357994455E+04  0.16357994455E+04  0.00000000000E+00 0. -1.
         -1   -1    0    0    0  501 -0.00000000000E+00 -0.00000000000E+00 -0.19957845738E+03  0.19957845738E+03  0.00000000000E+00 0.  1.
         23    2    1    2    0    0  0.11479229695E+02  0.50836897482E+03  0.31671741847E+03  0.60580113433E+03  0.90079431186E+02 0.  0.
         13    1    3    3    0    0 -0.66719703624E+01  0.48759116527E+02  0.35445670974E+01  0.49340962586E+02  0.00000000000E+00 0. -1.
        -13    1    3    3    0    0  0.18151200058E+02  0.45960985829E+03  0.31317285137E+03  0.55646017174E+03  0.00000000000E+00 0.  1.
         22    1    1    2    0    0 -0.11479229695E+02 -0.50836897482E+03  0.11195035696E+04  0.12295767685E+04  0.00000000000E+00 0. -1.
<mgrwt>
<rscale>  0 0.11427516E+04</rscale>
<asrwt>0</asrwt>
<pdfrwt beam="1">  1        1 0.25166144E+00 0.11427516E+04</pdfrwt>
<pdfrwt beam="2">  1       -1 0.30704379E-01 0.11427516E+04</pdfrwt>
<totfact> 0.51335611E+01</totfact>
</mgrwt>
</event>
<event>
 6    1  0.1637818E-005  0.1270805E+04  0.7818608E-02  0.9053043E-01
          2   -1    0    0  501    0  0.00000000000E+00  0.00000000000E+00  0.27151763183E+04  0.27151763183E+04  0.00000000000E+00 0. -1.
         -2   -1    0    0    0  501 -0.00000000000E+00 -0.00000000000E+00 -0.14869622811E+03  0.14869622811E+03  0.00000000000E+00 0.  1.
         23    2    1    2    0    0 -0.42528008116E+03 -0.32782914394E+03  0.54694870922E+03  0.77417350259E+03  0.10888813775E+03 0.  0.
         13    1    3    3    0    0 -0.28459513502E+03 -0.16036936137E+03  0.29078330297E+03  0.43734157386E+03  0.00000000000E+00 0. -1.
        -13    1    3    3    0    0 -0.14068494614E+03 -0.16745978257E+03  0.25616540624E+03  0.33683192872E+03  0.00000000000E+00 0.  1.
         22    1    1    2    0    0  0.42528008116E+03  0.32782914394E+03  0.20195313810E+04  0.20896990438E+04  0.00000000000E+00 0. -1.
<mgrwt>
<rscale>  0 0.12708052E+04</rscale>
<asrwt>0</asrwt>
<pdfrwt beam="1">  1        2 0.41771940E+00 0.12708052E+04</pdfrwt>
<pdfrwt beam="2">  1       -2 0.22876345E-01 0.12708052E+04</pdfrwt>
<totfact> 0.43346254E+01</totfact>
</mgrwt>
</event>
<event>
 6    1  0.1637818E-005  0.2992483E+04  0.7818608E-02  0.8245881E-01
          2   -1    0    0  501    0  0.00000000000E+00  0.00000000000E+00  0.15717614206E+04  0.15717614206E+04  0.00000000000E+00 0.  1.
         -2   -1    0    0    0  501 -0.00000000000E+00 -0.00000000000E+00 -0.14243504044E+04  0.14243504044E+04  0.00000000000E+00 0. -1.
         23    2    1    2    0    0  0.58083318631E+03  0.67349034332E+03 -0.11294587337E+04  0.14400421636E+04  0.84190076560E+02 0.  0.
         11    1    3    3    0    0  0.83686033616E+02  0.61977150091E+02 -0.10995896250E+03  0.15144468558E+03  0.00000000000E+00 0. -1.
        -11    1    3    3    0    0  0.49714715269E+03  0.61151319323E+03 -0.10194997712E+04  0.12885974780E+04  0.00000000000E+00 0.  1.
         22    1    1    2    0    0 -0.58083318631E+03 -0.67349034332E+03  0.12768697499E+04  0.15560696614E+04  0.00000000000E+00 0.  1.
<mgrwt>
<rscale>  0 0.29924833E+04</rscale>
<asrwt>0</asrwt>
<pdfrwt beam="1">  1        2 0.24180945E+00 0.29924833E+04</pdfrwt>
<pdfrwt beam="2">  1       -2 0.21913083E+00 0.29924833E+04</pdfrwt>
<totfact> 0.99172366E-01</totfact>
</mgrwt>
</event>
<event>
 6    1  0.1637818E-005  0.1212492E+04  0.7818608E-02  0.9101992E-01
          1   -1    0    0  501    0  0.00000000000E+00  0.00000000000E+00  0.30742900721E+04  0.30742900721E+04  0.00000000000E+00 0. -1.
         -1   -1    0    0    0  501 -0.00000000000E+00 -0.00000000000E+00 -0.11955091555E+03  0.11955091555E+03  0.00000000000E+00 0.  1.
         23    2    1    2    0    0 -0.48412419298E+03  0.35899191395E+03  0.14614755711E+04  0.15835343199E+04  0.91753304675E+02 0.  0.
         11    1    3    3    0    0 -0.46420413475E+03  0.31527633211E+03  0.13286588294E+04  0.14422964083E+04  0.00000000000E+00 0. -1.
        -11    1    3    3    0    0 -0.19920058221E+02  0.43715581842E+02  0.13281674169E+03  0.14123791165E+03  0.00000000000E+00 0.  1.
         22    1    1    2    0    0  0.48412419298E+03 -0.35899191395E+03  0.14932635854E+04  0.16103066677E+04  0.00000000000E+00 0.  1.
<mgrwt>
<rscale>  0 0.12124920E+04</rscale>
<asrwt>0</asrwt>
<pdfrwt beam="1">  1        1 0.47296764E+00 0.12124920E+04</pdfrwt>
<pdfrwt beam="2">  1       -1 0.18392451E-01 0.12124920E+04</pdfrwt>
<totfact> 0.12436457E+01</totfact>
</mgrwt>
</event>
<event>
 6    1  0.1637818E-005  0.3547510E+04  0.7818608E-02  0.8102622E-01
         -3   -1    0    0    0  501 -0.00000000000E+00  0.00000000000E+00  0.16445996940E+04  0.16445996940E+04  0.00000000000E+00 0.  1.
          3   -1    0    0  501    0  0.00000000000E+00 -0.00000000000E+00 -0.19130534113E+04  0.19130534113E+04  0.00000000000E+00 0. -1.
         23    2    1    2    0    0 -0.14021821576E+04 -0.93930781356E+03 -0.67810962161E+03  0.18209228638E+04  0.86680133348E+02 0.  0.
         11    1    3    3    0    0 -0.11507369514E+04 -0.80785965311E+03 -0.55322691822E+03  0.15109244765E+04  0.00000000000E+00 0.  1.
        -11    1    3    3    0    0 -0.25144520611E+03 -0.13144816045E+03 -0.12488270339E+03  0.30999838736E+03  0.00000000000E+00 0. -1.
         22    1    1    2    0    0  0.14021821576E+04  0.93930781356E+03  0.40965590431E+03  0.17367302414E+04  0.00000000000E+00 0. -1.
<mgrwt>
<rscale>  0 0.35475101E+04</rscale>
<asrwt>0</asrwt>
<pdfrwt beam="1">  1        3 0.29431591E+00 0.35475101E+04</pdfrwt>
<pdfrwt beam="2">  1       -3 0.25301534E+00 0.35475101E+04</pdfrwt>
<totfact> 0.61723318E-03</totfact>
</mgrwt>
</event>
<event>
 6    1  0.1637818E-005  0.1643568E+04  0.7818608E-02  0.8794221E-01
         -1   -1    0    0    0  501 -0.00000000000E+00  0.00000000000E+00  0.41345255014E+03  0.41345255014E+03  0.00000000000E+00 0.  1.
          1   -1    0    0  501    0  0.00000000000E+00 -0.00000000000E+00 -0.16333895683E+04  0.16333895683E+04  0.00000000000E+00 0. -1.
         23    2    1    2    0    0 -0.73943066772E+03  0.19597107693E+03 -0.24636874325E+03  0.80869933132E+03  0.90192435761E+02 0.  0.
         13    1    3    3    0    0 -0.17376607815E+03  0.20743979836E+02 -0.87072659474E+02  0.19546511362E+03  0.00000000000E+00 0. -1.
        -13    1    3    3    0    0 -0.56566458957E+03  0.17522709710E+03 -0.15929608377E+03  0.61323421770E+03  0.00000000000E+00 0.  1.
         22    1    1    2    0    0  0.73943066772E+03 -0.19597107693E+03 -0.97356827488E+03  0.12381427871E+04  0.00000000000E+00 0.  1.
<mgrwt>
<rscale>  0 0.16435682E+04</rscale>
<asrwt>0</asrwt>
<pdfrwt beam="1">  1        1 0.25129070E+00 0.16435682E+04</pdfrwt>
<pdfrwt beam="2">  1       -1 0.63608087E-01 0.16435682E+04</pdfrwt>
<totfact> 0.12685468E+01</totfact>
</mgrwt>
</event>
<event>
 6    1  0.1637818E-005  0.3673707E+04  0.7818608E-02  0.8073814E-01
         -2   -1    0    0    0  501 -0.00000000000E+00  0.00000000000E+00  0.71578969175E+03  0.71578969175E+03  0.00000000000E+00 0. -1.
          2   -1    0    0  501    0  0.00000000000E+00 -0.00000000000E+00 -0.47137169768E+04  0.47137169768E+04  0.00000000000E+00 0.  1.
         23    2    1    2    0    0 -0.28228976424E+03  0.13203783607E+04 -0.38384499981E+04  0.40699039577E+04  0.85634747116E+02 0.  0.
         11    1    3    3    0    0 -0.11066782182E+03  0.72058167453E+03 -0.20824867374E+04  0.22064080148E+04  0.00000000000E+00 0. -1.
        -11    1    3    3    0    0 -0.17162194241E+03  0.59979668617E+03 -0.17559632608E+04  0.18634959429E+04  0.00000000000E+00 0.  1.
         22    1    1    2    0    0  0.28228976424E+03 -0.13203783607E+04 -0.15947728689E+03  0.13596027109E+04  0.00000000000E+00 0. -1.
<mgrwt>
<rscale>  0 0.36737066E+04</rscale>
<asrwt>0</asrwt>
<pdfrwt beam="1">  1        2 0.72518722E+00 0.36737066E+04</pdfrwt>
<pdfrwt beam="2">  1       -2 0.11012149E+00 0.36737066E+04</pdfrwt>
<totfact> 0.39093206E-02</totfact>
</mgrwt>
</event>
<event>
 6    1  0.1637818E-005  0.3842858E+04  0.7818608E-02  0.8037020E-01
          2   -1    0    0  501    0  0.00000000000E+00  0.00000000000E+00  0.19210438622E+04  0.19210438622E+04  0.00000000000E+00 0. -1.
         -2   -1    0    0    0  501 -0.00000000000E+00 -0.00000000000E+00 -0.19218143169E+04  0.19218143169E+04  0.00000000000E+00 0.  1.
         23    2    1    2    0    0 -0.97385513588E+03  0.91984584937E+03 -0.13764069613E+04  0.19227316181E+04  0.88828711762E+02 0.  0.
         11    1    3    3    0    0 -0.43084175883E+03  0.34869462974E+03 -0.55272903016E+03  0.78276557586E+03  0.00000000000E+00 0. -1.
        -11    1    3    3    0    0 -0.54301337706E+03  0.57115121963E+03 -0.82367793109E+03  0.11399660423E+04  0.00000000000E+00 0.  1.
         22    1    1    2    0    0  0.97385513588E+03 -0.91984584937E+03  0.13756365065E+04  0.19201265610E+04  0.00000000000E+00 0. -1.
<mgrwt>
<rscale>  0 0.38428581E+04</rscale>
<asrwt>0</asrwt>
<pdfrwt beam="1">  1        2 0.29554521E+00 0.38428581E+04</pdfrwt>
<pdfrwt beam="2">  1       -2 0.29566374E+00 0.38428581E+04</pdfrwt>
<totfact> 0.19954689E-01</totfact>
</mgrwt>
</event>
<event>
 6    1  0.1637818E-005  0.1915582E+04  0.7818608E-02  0.8647139E-01
          2   -1    0    0  501    0  0.00000000000E+00  0.00000000000E+00  0.41487444650E+03  0.41487444650E+03  0.00000000000E+00 0.  1.
         -2   -1    0    0    0  501 -0.00000000000E+00 -0.00000000000E+00 -0.22111832579E+04  0.22111832579E+04  0.00000000000E+00 0. -1.
         23    2    1    2    0    0  0.70725703226E+03  0.26105895108E+03 -0.17053072429E+04  0.18666858777E+04  0.89883745518E+02 0.  0.
         13    1    3    3    0    0  0.13127849336E+03  0.43162904250E+02 -0.23494679006E+03  0.27257489481E+03  0.00000000000E+00 0. -1.
        -13    1    3    3    0    0  0.57597853890E+03  0.21789604683E+03 -0.14703604529E+04  0.15941109829E+04  0.00000000000E+00 0.  1.
         22    1    1    2    0    0 -0.70725703226E+03 -0.26105895108E+03 -0.91001568442E+02  0.75937182663E+03  0.00000000000E+00 0. -1.
<mgrwt>
<rscale>  0 0.19155818E+04</rscale>
<asrwt>0</asrwt>
<pdfrwt beam="1">  1        2 0.63826836E-01 0.19155818E+04</pdfrwt>
<pdfrwt beam="2">  1       -2 0.34018205E+00 0.19155818E+04</pdfrwt>
<totfact> 0.12832532E+00</totfact>
</mgrwt>
</event>
<event>
 6    1  0.1637818E-005  0.5340725E+04  0.7818608E-02  0.7777994E-01
          2   -1    0    0  501    0  0.00000000000E+00  0.00000000000E+00  0.26493911725E+04  0.26493911725E+04  0.00000000000E+00 0.  1.
         -2   -1    0    0    0  501 -0.00000000000E+00 -0.00000000000E+00 -0.26914995363E+04  0.26914995363E+04  0.00000000000E+00 0. -1.
         23    2    1    2    0    0 -0.12906423640E+04 -0.16838354789E+03  0.23098445281E+04  0.26528071654E+04  0.88844707410E+02 0.  0.
         11    1    3    3    0    0 -0.87998266034E+03 -0.13028433321E+03  0.16545410705E+04  0.18785232615E+04  0.00000000000E+00 0.  1.
        -11    1    3    3    0    0 -0.41065970363E+03 -0.38099214685E+02  0.65530345758E+03  0.77428390392E+03  0.00000000000E+00 0. -1.
         22    1    1    2    0    0  0.12906423640E+04  0.16838354789E+03 -0.23519528919E+04  0.26880835435E+04  0.00000000000E+00 0. -1.
<mgrwt>
<rscale>  0 0.53407247E+04</rscale>
<asrwt>0</asrwt>
<pdfrwt beam="1">  1        2 0.40759864E+00 0.53407247E+04</pdfrwt>
<pdfrwt beam="2">  1       -2 0.41407685E+00 0.53407247E+04</pdfrwt>
<totfact> 0.12116215E-02</totfact>
</mgrwt>
</event>
<event>
 6    1  0.1637818E-005  0.2690243E+04  0.7818608E-02  0.8338178E-01
          2   -1    0    0  501    0  0.00000000000E+00  0.00000000000E+00  0.58630048694E+03  0.58630048694E+03  0.00000000000E+00 0. -1.
         -2   -1    0    0    0  501 -0.00000000000E+00 -0.00000000000E+00 -0.30860491424E+04  0.30860491424E+04  0.00000000000E+00 0.  1.
         23    2    1    2    0    0 -0.86986234532E+03  0.89651461494E+01 -0.26497281772E+04  0.27896068975E+04  0.64080850662E+02 0.  0.
         13    1    3    3    0    0 -0.29832145856E+03  0.50207251854E+01 -0.81392326099E+03  0.86688636805E+03  0.00000000000E+00 0. -1.
        -13    1    3    3    0    0 -0.57154088676E+03  0.39444209640E+01 -0.18358049163E+04  0.19227205294E+04  0.00000000000E+00 0.  1.
         22    1    1    2    0    0  0.86986234532E+03 -0.89651461494E+01  0.14997952182E+03  0.88274273184E+03  0.00000000000E+00 0. -1.
<mgrwt>
<rscale>  0 0.26902432E+04</rscale>
<asrwt>0</asrwt>
<pdfrwt beam="1">  1        2 0.90200073E-01 0.26902432E+04</pdfrwt>
<pdfrwt beam="2">  1       -2 0.47477680E+00 0.26902432E+04</pdfrwt>
<totfact> 0.10663060E-01</totfact>
</mgrwt>
</event>
<event>
 6    1  0.1637818E-005  0.1782236E+04  0.7818608E-02  0.8715804E-01
          1   -1    0    0  501    0  0.00000000000E+00  0.00000000000E+00  0.10635832302E+04  0.10635832302E+04  0.00000000000E+00 0. -1.
         -1   -1    0    0    0  501 -0.00000000000E+00 -0.00000000000E+00 -0.74661848245E+03  0.74661848245E+03  0.00000000000E+00 0.  1.
         23    2    1    2    0    0  0.46305129035E+03 -0.56410393363E+03 -0.35655851361E+03  0.81709379856E+03  0.88761233541E+02 0.  0.
         11    1    3    3    0    0  0.20512654373E+03 -0.26676550363E+03 -0.21224113920E+03  0.39785303070E+03  0.00000000000E+00 0. -1.
        -11    1    3    3    0    0  0.25792474662E+03 -0.29733843001E+03 -0.14431737440E+03  0.41924076785E+03  0.00000000000E+00 0.  1.
         22    1    1    2    0    0 -0.46305129035E+03  0.56410393363E+03  0.67352326135E+03  0.99310791409E+03  0.00000000000E+00 0. -1.
<mgrwt>
<rscale>  0 0.17822356E+04</rscale>
<asrwt>0</asrwt>
<pdfrwt beam="1">  1        1 0.16362819E+00 0.17822356E+04</pdfrwt>
<pdfrwt beam="2">  1       -1 0.11486438E+00 0.17822356E+04</pdfrwt>
<totfact> 0.87910634E+00</totfact>
</mgrwt>
</event>
<event>
 6    1  0.3536937E-005  0.3757998E+04  0.7818608E-02  0.8055229E-01
         -1   -1    0    0    0  501 -0.00000000000E+00  0.00000000000E+00  0.14157432012E+04  0.14157432012E+04  0.00000000000E+00 0.  1.
          1   -1    0    0  501    0  0.00000000000E+00 -0.00000000000E+00 -0.24938400026E+04  0.24938400026E+04  0.00000000000E+00 0. -1.
         23    2    1    2    0    0 -0.13010370385E+04  0.10283233695E+04 -0.14560656208E+04  0.22086990936E+04  0.89879177432E+02 0.  0.
         11    1    3    3    0    0 -0.57490251972E+03  0.51090410549E+03 -0.66559360292E+03  0.10171286823E+04  0.00000000000E+00 0.  1.
        -11    1    3    3    0    0 -0.72613451874E+03  0.51741926399E+03 -0.79047201789E+03  0.11915704113E+04  0.00000000000E+00 0. -1.
         22    1    1    2    0    0  0.13010370385E+04 -0.10283233695E+04  0.37796881946E+03  0.17008841101E+04  0.00000000000E+00 0.  1.
<mgrwt>
<rscale>  0 0.37579979E+04</rscale>
<asrwt>0</asrwt>
<pdfrwt beam="1">  1        1 0.38366769E+00 0.37579979E+04</pdfrwt>
<pdfrwt beam="2">  1       -1 0.21780665E+00 0.37579979E+04</pdfrwt>
<totfact> 0.12436090E-01</totfact>
</mgrwt>
</event>
<event>
 6    1  0.1637818E-005  0.1910658E+04  0.7818608E-02  0.8649570E-01
          2   -1    0    0  501    0  0.00000000000E+00  0.00000000000E+00  0.24994109511E+04  0.24994109511E+04  0.00000000000E+00 0. -1.
         -2   -1    0    0    0  501 -0.00000000000E+00 -0.00000000000E+00 -0.36514729552E+03  0.36514729552E+03  0.00000000000E+00 0.  1.
         23    2    1    2    0    0 -0.20736204636E+03 -0.76886346256E+03  0.28488250089E+03  0.85101393432E+03  0.94427934153E+02 0.  0.
         13    1    3    3    0    0  0.73452030681E+01 -0.28492334741E+02  0.21287963265E+02  0.36317248341E+02  0.00000000000E+00 0. -1.
        -13    1    3    3    0    0 -0.21470724943E+03 -0.74037112782E+03  0.26359453763E+03  0.81469668597E+03  0.00000000000E+00 0.  1.
         22    1    1    2    0    0  0.20736204636E+03  0.76886346256E+03  0.18493811547E+04  0.20135443123E+04  0.00000000000E+00 0. -1.
<mgrwt>
<rscale>  0 0.19106576E+04</rscale>
<asrwt>0</asrwt>
<pdfrwt beam="1">  1        2 0.38452475E+00 0.19106576E+04</pdfrwt>
<pdfrwt beam="2">  1       -2 0.56176509E-01 0.19106576E+04</pdfrwt>
<totfact> 0.97054622E+00</totfact>
</mgrwt>
</event>
<event>
 6    1  0.1637818E-005  0.1661688E+04  0.7818608E-02  0.8783522E-01
          1   -1    0    0  501    0  0.00000000000E+00  0.00000000000E+00  0.41152854563E+03  0.41152854563E+03  0.00000000000E+00 0. -1.
         -1   -1    0    0    0  501 -0.00000000000E+00 -0.00000000000E+00 -0.16774099777E+04  0.16774099777E+04  0.00000000000E+00 0.  1.
         23    2    1    2    0    0  0.33005258513E+03 -0.66003335635E+03 -0.16131176166E+03  0.76053613806E+03  0.88402445697E+02 0.  0.
         13    1    3    3    0    0  0.98593719208E+02 -0.23507700527E+03 -0.95325009936E+02  0.27215579618E+03  0.00000000000E+00 0.  1.
        -13    1    3    3    0    0  0.23145886592E+03 -0.42495635107E+03 -0.65986751722E+02  0.48838034188E+03  0.00000000000E+00 0. -1.
         22    1    1    2    0    0 -0.33005258513E+03  0.66003335635E+03 -0.11045696705E+04  0.13284023853E+04  0.00000000000E+00 0.  1.
<mgrwt>
<rscale>  0 0.16616884E+04</rscale>
<asrwt>0</asrwt>
<pdfrwt beam="1">  1        1 0.63312083E-01 0.16616884E+04</pdfrwt>
<pdfrwt beam="2">  1       -1 0.25806308E+00 0.16616884E+04</pdfrwt>
<totfact> 0.34074868E+00</totfact>
</mgrwt>
</event>
<event>
 6    1  0.1637818E-005  0.3950920E+04  0.7818608E-02  0.8014521E-01
         -2   -1    0    0    0  501 -0.00000000000E+00  0.00000000000E+00  0.26551947615E+04  0.26551947615E+04  0.00000000000E+00 0.  1.
          2   -1    0    0  501    0  0.00000000000E+00 -0.00000000000E+00 -0.14697388161E+04  0.14697388161E+04  0.00000000000E+00 0. -1.
         23    2    1    2    0    0 -0.14727761724E+04  0.11059240430E+04  0.13357563475E+04  0.22770353516E+04  0.92235184174E+02 0.  0.
         11    1    3    3    0    0 -0.71492728799E+03  0.59354115676E+03  0.68352344783E+03  0.11535234872E+04  0.00000000000E+00 0.  1.
        -11    1    3    3    0    0 -0.75784888443E+03  0.51238288628E+03  0.65223289971E+03  0.11235118643E+04  0.00000000000E+00 0. -1.
         22    1    1    2    0    0  0.14727761724E+04 -0.11059240430E+04 -0.15030040214E+03  0.18478982261E+04  0.00000000000E+00 0. -1.
<mgrwt>
<rscale>  0 0.39509203E+04</rscale>
<asrwt>0</asrwt>
<pdfrwt beam="1">  1        2 0.22611366E+00 0.39509203E+04</pdfrwt>
<pdfrwt beam="2">  1       -2 0.40849150E+00 0.39509203E+04</pdfrwt>
<totfact> 0.68248139E-02</totfact>
</mgrwt>
</event>
<event>
 6    1  0.1637818E-005  0.1625157E+04  0.7818608E-02  0.8805240E-01
         -2   -1    0    0    0  501 -0.00000000000E+00  0.00000000000E+00  0.64370892657E+03  0.64370892657E+03  0.00000000000E+00 0.  1.
          2   -1    0    0  501    0  0.00000000000E+00 -0.00000000000E+00 -0.10257493438E+04  0.10257493438E+04  0.00000000000E+00 0. -1.
         23    2    1    2    0    0  0.16342851651E+03  0.23194097630E+03  0.58784712456E+03  0.65892012650E+03  0.90033298021E+02 0.  0.
         13    1    3    3    0    0  0.10732808404E+02  0.76085842429E+02  0.19418376643E+03  0.20883386636E+03  0.00000000000E+00 0.  1.
        -13    1    3    3    0    0  0.15269570811E+03  0.15585513387E+03  0.39366335813E+03  0.45008626014E+03  0.00000000000E+00 0. -1.
         22    1    1    2    0    0 -0.16342851651E+03 -0.23194097630E+03 -0.96988754181E+03  0.10105381439E+04  0.00000000000E+00 0. -1.
<mgrwt>
<rscale>  0 0.16251572E+04</rscale>
<asrwt>0</asrwt>
<pdfrwt beam="1">  1        2 0.15780759E+00 0.16251572E+04</pdfrwt>
<pdfrwt beam="2">  1       -2 0.99032142E-01 0.16251572E+04</pdfrwt>
<totfact> 0.19621810E+01</totfact>
</mgrwt>
</event>
<event>
 6    1  0.1637818E-005  0.3233071E+04  0.7818608E-02  0.8180137E-01
          1   -1    0    0  501    0  0.00000000000E+00  0.00000000000E+00  0.19045737667E+04  0.19045737667E+04  0.00000000000E+00 0.  1.
         -1   -1    0    0    0  501 -0.00000000000E+00 -0.00000000000E+00 -0.13720587895E+04  0.13720587895E+04  0.00000000000E+00 0. -1.
         23    2    1    2    0    0 -0.92399569430E+03  0.39710326986E+03  0.15473724425E+04  0.18478587026E+04  0.93601596779E+02 0.  0.
         13    1    3    3    0    0 -0.46045504702E+03  0.19396215965E+03  0.85412339320E+03  0.98952864562E+03  0.00000000000E+00 0. -1.
        -13    1    3    3    0    0 -0.46354064727E+03  0.20314111021E+03  0.69324904930E+03  0.85833005697E+03  0.00000000000E+00 0.  1.
         22    1    1    2    0    0  0.92399569430E+03 -0.39710326986E+03 -0.10148574653E+04  0.14287738537E+04  0.00000000000E+00 0. -1.
<mgrwt>
<rscale>  0 0.32330711E+04</rscale>
<asrwt>0</asrwt>
<pdfrwt beam="1">  1        1 0.29301135E+00 0.32330711E+04</pdfrwt>
<pdfrwt beam="2">  1       -1 0.21108597E+00 0.32330711E+04</pdfrwt>
<totfact> 0.36480799E-01</totfact>
</mgrwt>
</event>
<event>
 6    1  0.1637818E-005  0.2277552E+04  0.7818608E-02  0.8486825E-01
         -2   -1    0    0    0  501 -0.00000000000E+00  0.00000000000E+00  0.54203554702E+03  0.54203554702E+03  0.00000000000E+00 0.  1.
          2   -1    0    0  501    0  0.00000000000E+00 -0.00000000000E+00 -0.23924821792E+04  0.23924821792E+04  0.00000000000E+00 0. -1.
         23    2    1    2    0    0 -0.11017348236E+04 -0.20087848391E+02 -0.12876610063E+04  0.16972017585E+04  0.90552740850E+02 0.  0.
         13    1    3    3    0    0 -0.68038756123E+03 -0.26052250096E+02 -0.73025143983E+03  0.99843533521E+03  0.00000000000E+00 0. -1.
        -13    1    3    3    0    0 -0.42134726234E+03  0.59644017054E+01 -0.55740956645E+03  0.69876642331E+03  0.00000000000E+00 0.  1.
         22    1    1    2    0    0  0.11017348236E+04  0.20087848391E+02 -0.56278562586E+03  0.12373159677E+04  0.00000000000E+00 0. -1.
<mgrwt>
<rscale>  0 0.22775517E+04</rscale>
<asrwt>0</asrwt>
<pdfrwt beam="1">  1        2 0.36807417E+00 0.22775517E+04</pdfrwt>
<pdfrwt beam="2">  1       -2 0.83390086E-01 0.22775517E+04</pdfrwt>
<totfact> 0.45890908E+00</totfact>
</mgrwt>
</event>
<event>
 6    1  0.1722876E-005  0.1915902E+04  0.7818608E-02  0.8646981E-01
          2   -1    0    0  501    0  0.00000000000E+00  0.00000000000E+00  0.15583706401E+04  0.15583706401E+04  0.00000000000E+00 0. -1.
         -2   -1    0    0    0  501 -0.00000000000E+00 -0.00000000000E+00 -0.58886513429E+03  0.58886513429E+03  0.00000000000E+00 0.  1.
         23    2    1    2    0    0  0.85335432543E+03  0.59752651459E+02  0.96382698259E+03  0.12917731921E+04  0.89059212232E+02 0.  0.
         11    1    3    3    0    0  0.49838226016E+03  0.42172646929E+02  0.49758017607E+03  0.70551360087E+03  0.00000000000E+00 0. -1.
        -11    1    3    3    0    0  0.35497206527E+03  0.17580004530E+02  0.46624680652E+03  0.58625959120E+03  0.00000000000E+00 0.  1.
         22    1    1    2    0    0 -0.85335432543E+03 -0.59752651459E+02  0.56785232022E+01  0.85546258230E+03  0.00000000000E+00 0.  1.
<mgrwt>
<rscale>  0 0.19159020E+04</rscale>
<asrwt>0</asrwt>
<pdfrwt beam="1">  1        2 0.23974933E+00 0.19159020E+04</pdfrwt>
<pdfrwt beam="2">  1       -2 0.90594637E-01 0.19159020E+04</pdfrwt>
<totfact> 0.11457406E+01</totfact>
</mgrwt>
</event>
<event>
 6    1  0.1637818E-005  0.1164248E+04  0.7818608E-02  0.9144739E-01
          2   -1    0    0  501    0  0.00000000000E+00  0.00000000000E+00  0.69341351158E+03  0.69341351158E+03  0.00000000000E+00 0. -1.
         -2   -1    0    0    0  501 -0.00000000000E+00 -0.00000000000E+00 -0.48869573171E+03  0.48869573171E+03  0.00000000000E+00 0.  1.
         23    2    1    2    0    0 -0.56318841112E+03  0.13031313875E+03  0.12666941107E+03  0.59879607833E+03  0.91372332657E+02 0.  0.
         13    1    3    3    0    0 -0.32959586264E+03  0.11581832766E+03  0.99097001235E+02  0.36313569550E+03  0.00000000000E+00 0. -1.
        -13    1    3    3    0    0 -0.23359254848E+03  0.14494811091E+02  0.27572409835E+02  0.23566038283E+03  0.00000000000E+00 0.  1.
         22    1    1    2    0    0  0.56318841112E+03 -0.13031313875E+03  0.78048368799E+02  0.58331316497E+03  0.00000000000E+00 0.  1.
<mgrwt>
<rscale>  0 0.11642478E+04</rscale>
<asrwt>0</asrwt>
<pdfrwt beam="1">  1        2 0.10667900E+00 0.11642478E+04</pdfrwt>
<pdfrwt beam="2">  1       -2 0.75183959E-01 0.11642478E+04</pdfrwt>
<totfact> 0.65166278E+01</totfact>
</mgrwt>
</event>
<event>
 6    1  0.1637818E-005  0.4720626E+03  0.7818608E-02  0.1021340E+00
          2   -1    0    0  501    0  0.00000000000E+00  0.00000000000E+00  0.23119931470E+03  0.23119931470E+03  0.00000000000E+00 0. -1.
         -2   -1    0    0    0  501 -0.00000000000E+00 -0.00000000000E+00 -0.24096422707E+03  0.24096422707E+03  0.00000000000E+00 0.  1.
         23    2    1    2    0    0 -0.14222743785E+03  0.89066474157E+02  0.14814112984E+03  0.24173828477E+03  0.91269507932E+02 0.  0.
         13    1    3    3    0    0 -0.75768838050E+02  0.76459071001E+02  0.13528398117E+03  0.17288337664E+03  0.00000000000E+00 0.  1.
        -13    1    3    3    0    0 -0.66458599799E+02  0.12607403155E+02  0.12857148670E+02  0.68854908130E+02  0.00000000000E+00 0. -1.
         22    1    1    2    0    0  0.14222743785E+03 -0.89066474157E+02 -0.15790604221E+03  0.23042525700E+03  0.00000000000E+00 0.  1.
<mgrwt>
<rscale>  0 0.47206256E+03</rscale>
<asrwt>0</asrwt>
<pdfrwt beam="1">  1        2 0.35569126E-01 0.47206256E+03</pdfrwt>
<pdfrwt beam="2">  1       -2 0.37071419E-01 0.47206256E+03</pdfrwt>
<totfact> 0.10082036E+03</totfact>
</mgrwt>
</event>
<event>
 6    1  0.1637818E-005  0.3491944E+03  0.7818608E-02  0.1062946E+00
          1   -1    0    0  501    0  0.00000000000E+00  0.00000000000E+00  0.64903703849E+03  0.64903703849E+03  0.00000000000E+00 0. -1.
         -1   -1    0    0    0  501 -0.00000000000E+00 -0.00000000000E+00 -0.46968321023E+02  0.46968321023E+02  0.00000000000E+00 0.  1.
         23    2    1    2    0    0 -0.97771316588E+02 -0.67679212400E+02  0.10001228003E+03  0.18005926494E+03  0.90989980736E+02 0.  0.
         11    1    3    3    0    0 -0.37234627471E+01 -0.41178590411E+02  0.15980478528E+01  0.41377460532E+02  0.00000000000E+00 0. -1.
        -11    1    3    3    0    0 -0.94047853841E+02 -0.26500621988E+02  0.98414232181E+02  0.13868180441E+03  0.00000000000E+00 0.  1.
         22    1    1    2    0    0  0.97771316588E+02  0.67679212400E+02  0.50205643744E+03  0.51594609458E+03  0.00000000000E+00 0. -1.
<mgrwt>
<rscale>  0 0.34919439E+03</rscale>
<asrwt>0</asrwt>
<pdfrwt beam="1">  1        1 0.99851845E-01 0.34919439E+03</pdfrwt>
<pdfrwt beam="2">  1       -1 0.72258960E-02 0.34919439E+03</pdfrwt>
<totfact> 0.31761934E+03</totfact>
</mgrwt>
</event>
<event>
 6    1  0.1637818E-005  0.1319115E+04  0.7818608E-02  0.9014543E-01
         -1   -1    0    0    0  501 -0.00000000000E+00  0.00000000000E+00  0.43606026497E+03  0.43606026497E+03  0.00000000000E+00 0.  1.
          1   -1    0    0  501    0  0.00000000000E+00 -0.00000000000E+00 -0.99760483927E+03  0.99760483927E+03  0.00000000000E+00 0. -1.
         23    2    1    2    0    0  0.14690723920E+03  0.36895228046E+03 -0.85031937731E+03  0.94264737642E+03  0.88507122027E+02 0.  0.
         13    1    3    3    0    0  0.44193582943E+02  0.17408245517E+03 -0.46987831997E+03  0.50303420316E+03  0.00000000000E+00 0.  1.
        -13    1    3    3    0    0  0.10271365626E+03  0.19486982529E+03 -0.38044105734E+03  0.43961317326E+03  0.00000000000E+00 0. -1.
         22    1    1    2    0    0 -0.14690723920E+03 -0.36895228046E+03  0.28877480301E+03  0.49101772783E+03  0.00000000000E+00 0. -1.
<mgrwt>
<rscale>  0 0.13191146E+04</rscale>
<asrwt>0</asrwt>
<pdfrwt beam="1">  1        1 0.15347767E+00 0.13191146E+04</pdfrwt>
<pdfrwt beam="2">  1       -1 0.67086196E-01 0.13191146E+04</pdfrwt>
<totfact> 0.33562924E+01</totfact>
</mgrwt>
</event>
<event>
 6    1  0.1637818E-005  0.8283378E+03  0.7818608E-02  0.9519881E-01
         -1   -1    0    0    0  501 -0.00000000000E+00  0.00000000000E+00  0.18371658803E+03  0.18371658803E+03  0.00000000000E+00 0.  1.
          1   -1    0    0  501    0  0.00000000000E+00 -0.00000000000E+00 -0.93369843171E+03  0.93369843171E+03  0.00000000000E+00 0. -1.
         23    2    1    2    0    0 -0.27543291404E+03  0.30249592352E+03 -0.38473257479E+03  0.56898626201E+03  0.91428323663E+02 0.  0.
         11    1    3    3    0    0 -0.15822962865E+03  0.13604912081E+03 -0.24625396356E+03  0.32278010042E+03  0.00000000000E+00 0. -1.
        -11    1    3    3    0    0 -0.11720328539E+03  0.16644680270E+03 -0.13847861123E+03  0.24620616159E+03  0.00000000000E+00 0.  1.
         22    1    1    2    0    0  0.27543291404E+03 -0.30249592352E+03 -0.36524926889E+03  0.54842875773E+03  0.00000000000E+00 0. -1.
<mgrwt>
<rscale>  0 0.82833783E+03</rscale>
<asrwt>0</asrwt>
<pdfrwt beam="1">  1        1 0.14364591E+00 0.82833783E+03</pdfrwt>
<pdfrwt beam="2">  1       -1 0.28264090E-01 0.82833783E+03</pdfrwt>
<totfact> 0.19519180E+02</totfact>
</mgrwt>
</event>
<event>
 6    1  0.1637818E-005  0.1085785E+04  0.7818608E-02  0.9219159E-01
          2   -1    0    0  501    0  0.00000000000E+00  0.00000000000E+00  0.72712931888E+03  0.72712931888E+03  0.00000000000E+00 0. -1.
         -2   -1    0    0    0  501 -0.00000000000E+00 -0.00000000000E+00 -0.40533674677E+03  0.40533674677E+03  0.00000000000E+00 0.  1.
         23    2    1    2    0    0  0.20028504390E+03 -0.66878332831E+02  0.67920210512E+03  0.71734152471E+03  0.93148018021E+02 0.  0.
         13    1    3    3    0    0  0.13778644268E+03  0.19567857756E+01  0.40932596122E+03  0.43189891795E+03  0.00000000000E+00 0. -1.
        -13    1    3    3    0    0  0.62498601224E+02 -0.68835118607E+02  0.26987614390E+03  0.28544260676E+03  0.00000000000E+00 0.  1.
         22    1    1    2    0    0 -0.20028504390E+03  0.66878332831E+02 -0.35740953300E+03  0.41512454094E+03  0.00000000000E+00 0.  1.
<mgrwt>
<rscale>  0 0.10857849E+04</rscale>
<asrwt>0</asrwt>
<pdfrwt beam="1">  1        2 0.11186605E+00 0.10857849E+04</pdfrwt>
<pdfrwt beam="2">  1       -2 0.62359500E-01 0.10857849E+04</pdfrwt>
<totfact> 0.92588717E+01</totfact>
</mgrwt>
</event>
<event>
 6    1  0.1637818E-005  0.3063261E+04  0.7818608E-02  0.8225893E-01
         -4   -1    0    0    0  501 -0.00000000000E+00  0.00000000000E+00  0.15857924928E+04  0.15857924928E+04  0.00000000000E+00 0.  1.
          4   -1    0    0  501    0  0.00000000000E+00 -0.00000000000E+00 -0.14793186278E+04  0.14793186278E+04  0.00000000000E+00 0. -1.
         23    2    1    2    0    0  0.37390199964E+03 -0.14180829352E+04  0.49057410901E+03  0.15490982863E+04  0.90997955083E+02 0.  0.
         13    1    3    3    0    0  0.13984676777E+03 -0.38563886761E+03  0.15545421276E+03  0.43868036990E+03  0.00000000000E+00 0. -1.
        -13    1    3    3    0    0  0.23405523186E+03 -0.10324440676E+04  0.33511989626E+03  0.11104179164E+04  0.00000000000E+00 0.  1.
         22    1    1    2    0    0 -0.37390199964E+03  0.14180829352E+04 -0.38410024403E+03  0.15160128343E+04  0.00000000000E+00 0. -1.
<mgrwt>
<rscale>  0 0.30632613E+04</rscale>
<asrwt>0</asrwt>
<pdfrwt beam="1">  1        4 0.22758748E+00 0.30632613E+04</pdfrwt>
<pdfrwt beam="2">  1       -4 0.24396808E+00 0.30632613E+04</pdfrwt>
<totfact> 0.10150435E-02</totfact>
</mgrwt>
</event>
<event>
 6    1  0.2169298E-005  0.2598596E+04  0.7818608E-02  0.8368678E-01
         -1   -1    0    0    0  501 -0.00000000000E+00  0.00000000000E+00  0.15172438119E+04  0.15172438119E+04  0.00000000000E+00 0. -1.
          1   -1    0    0  501    0  0.00000000000E+00 -0.00000000000E+00 -0.11126592284E+04  0.11126592284E+04  0.00000000000E+00 0.  1.
         23    2    1    2    0    0 -0.94125917012E+01  0.31107927101E+03  0.14776260003E+04  0.15126399594E+04  0.88555860327E+02 0.  0.
         13    1    3    3    0    0 -0.95006652456E+01  0.41846151110E+02  0.38271771055E+03  0.38511583838E+03  0.00000000000E+00 0.  1.
        -13    1    3    3    0    0  0.88073544304E-01  0.26923311990E+03  0.10949082897E+04  0.11275241210E+04  0.00000000000E+00 0. -1.
         22    1    1    2    0    0  0.94125917012E+01 -0.31107927101E+03 -0.10730414168E+04  0.11172630809E+04  0.00000000000E+00 0.  1.
<mgrwt>
<rscale>  0 0.25985960E+04</rscale>
<asrwt>0</asrwt>
<pdfrwt beam="1">  1        1 0.17117834E+00 0.25985960E+04</pdfrwt>
<pdfrwt beam="2">  1       -1 0.23342212E+00 0.25985960E+04</pdfrwt>
<totfact> 0.97880953E-01</totfact>
</mgrwt>
</event>
<event>
 6    1  0.1637818E-005  0.2724120E+04  0.7818608E-02  0.8327221E-01
         -2   -1    0    0    0  501 -0.00000000000E+00  0.00000000000E+00  0.13495714118E+04  0.13495714118E+04  0.00000000000E+00 0.  1.
          2   -1    0    0  501    0  0.00000000000E+00 -0.00000000000E+00 -0.13746645513E+04  0.13746645513E+04  0.00000000000E+00 0. -1.
         23    2    1    2    0    0 -0.12696178541E+04 -0.28671842920E+03  0.38350365916E+03  0.13600188627E+04  0.91865648191E+02 0.  0.
         11    1    3    3    0    0 -0.94230449798E+03 -0.25075224088E+03  0.27115254888E+03  0.10120959233E+04  0.00000000000E+00 0.  1.
        -11    1    3    3    0    0 -0.32731335612E+03 -0.35966188318E+02  0.11235111028E+03  0.34792293942E+03  0.00000000000E+00 0. -1.
         22    1    1    2    0    0  0.12696178541E+04  0.28671842920E+03 -0.40859679860E+03  0.13642171004E+04  0.00000000000E+00 0. -1.
<mgrwt>
<rscale>  0 0.27241204E+04</rscale>
<asrwt>0</asrwt>
<pdfrwt beam="1">  1        2 0.21148685E+00 0.27241204E+04</pdfrwt>
<pdfrwt beam="2">  1       -2 0.20762637E+00 0.27241204E+04</pdfrwt>
<totfact> 0.15541972E+00</totfact>
</mgrwt>
</event>
<event>
 6    1  0.1637818E-005  0.7460982E+03  0.7818608E-02  0.9641492E-01
          1   -1    0    0  501    0  0.00000000000E+00  0.00000000000E+00  0.68971443808E+03  0.68971443808E+03  0.00000000000E+00 0. -1.
         -1   -1    0    0    0  501 -0.00000000000E+00 -0.00000000000E+00 -0.20177283175E+03  0.20177283175E+03  0.00000000000E+00 0.  1.
         23    2    1    2    0    0 -0.34648937954E+03 -0.42711110247E+02  0.11857632414E+03  0.38324535817E+03  0.10458265075E+03 0.  0.
         13    1    3    3    0    0 -0.17860706866E+03 -0.37158453117E+02  0.89253671392E+01  0.18264965862E+03  0.00000000000E+00 0.  1.
        -13    1    3    3    0    0 -0.16788231088E+03 -0.55526571298E+01  0.10965095701E+03  0.20059569956E+03  0.00000000000E+00 0. -1.
         22    1    1    2    0    0  0.34648937954E+03  0.42711110247E+02  0.36936528218E+03  0.50824191165E+03  0.00000000000E+00 0. -1.
<mgrwt>
<rscale>  0 0.74609821E+03</rscale>
<asrwt>0</asrwt>
<pdfrwt beam="1">  1        1 0.10610991E+00 0.74609821E+03</pdfrwt>
<pdfrwt beam="2">  1       -1 0.31041975E-01 0.74609821E+03</pdfrwt>
<totfact> 0.27065493E+02</totfact>
</mgrwt>
</event>
<event>
 6    1  0.1637818E-005  0.2436793E+04  0.7818608E-02  0.8425856E-01
          2   -1    0    0  501    0  0.00000000000E+00  0.00000000000E+00  0.20942014264E+04  0.20942014264E+04  0.00000000000E+00 0.  1.
         -2   -1    0    0    0  501 -0.00000000000E+00 -0.00000000000E+00 -0.70885722728E+03  0.70885722728E+03  0.00000000000E+00 0. -1.
         23    2    1    2    0    0  0.30812188951E+03 -0.92226640271E+03  0.15348100035E+04  0.18192627180E+04  0.92523909162E+02 0.  0.
         13    1    3    3    0    0  0.13933157535E+03 -0.53628850866E+03  0.91991251229E+03  0.10738983577E+04  0.00000000000E+00 0.  1.
        -13    1    3    3    0    0  0.16879031416E+03 -0.38597789405E+03  0.61489749120E+03  0.74536436025E+03  0.00000000000E+00 0. -1.
         22    1    1    2    0    0 -0.30812188951E+03  0.92226640271E+03 -0.14946580441E+03  0.98379593567E+03  0.00000000000E+00 0. -1.
<mgrwt>
<rscale>  0 0.24367928E+04</rscale>
<asrwt>0</asrwt>
<pdfrwt beam="1">  1        2 0.32218483E+00 0.24367928E+04</pdfrwt>
<pdfrwt beam="2">  1       -2 0.10905496E+00 0.24367928E+04</pdfrwt>
<totfact> 0.35603681E+00</totfact>
</mgrwt>
</event>
<event>
 6    1  0.1637818E-005  0.3354962E+04  0.7818608E-02  0.8149050E-01
          1   -1    0    0  501    0  0.00000000000E+00  0.00000000000E+00  0.20879942984E+04  0.20879942984E+04  0.00000000000E+00 0. -1.
         -1   -1    0    0    0  501 -0.00000000000E+00 -0.00000000000E+00 -0.13476769154E+04  0.13476769154E+04  0.00000000000E+00 0.  1.
         23    2    1    2    0    0  0.11032452699E+04  0.15567536373E+03 -0.91210402427E+03  0.14427132484E+04  0.90015674315E+02 0.  0.
         11    1    3    3    0    0  0.36804108657E+03  0.79578530086E+02 -0.26632918531E+03  0.46121385366E+03  0.00000000000E+00 0.  1.
        -11    1    3    3    0    0  0.73520418335E+03  0.76096833640E+02 -0.64577483895E+03  0.98149939477E+03  0.00000000000E+00 0. -1.
         22    1    1    2    0    0 -0.11032452699E+04 -0.15567536373E+03  0.16524214073E+04  0.19929579654E+04  0.00000000000E+00 0. -1.
<mgrwt>
<rscale>  0 0.33549615E+04</rscale>
<asrwt>0</asrwt>
<pdfrwt beam="1">  1        1 0.32122989E+00 0.33549615E+04</pdfrwt>
<pdfrwt beam="2">  1       -1 0.20733491E+00 0.33549615E+04</pdfrwt>
<totfact> 0.28745628E-01</totfact>
</mgrwt>
</event>
<event>
 6    1  0.1637818E-005  0.2397144E+04  0.7818608E-02  0.8440574E-01
         -1   -1    0    0    0  501 -0.00000000000E+00  0.00000000000E+00  0.82614116039E+03  0.82614116039E+03  0.00000000000E+00 0. -1.
          1   -1    0    0  501    0  0.00000000000E+00 -0.00000000000E+00 -0.17388970876E+04  0.17388970876E+04  0.00000000000E+00 0.  1.
         23    2    1    2    0    0 -0.10507784142E+04 -0.54601773861E+03 -0.27420280249E+03  0.12196681355E+04  0.10066050468E+03 0.  0.
         13    1    3    3    0    0 -0.20038298148E+03 -0.14864346943E+03 -0.46608008710E+02  0.25381199094E+03  0.00000000000E+00 0. -1.
        -13    1    3    3    0    0 -0.85039543270E+03 -0.39737426919E+03 -0.22759479378E+03  0.96585614453E+03  0.00000000000E+00 0.  1.
         22    1    1    2    0    0  0.10507784142E+04  0.54601773861E+03 -0.63855312476E+03  0.13453701125E+04  0.00000000000E+00 0.  1.
<mgrwt>
<rscale>  0 0.23971437E+04</rscale>
<asrwt>0</asrwt>
<pdfrwt beam="1">  1        1 0.26752262E+00 0.23971437E+04</pdfrwt>
<pdfrwt beam="2">  1       -1 0.12709864E+00 0.23971437E+04</pdfrwt>
<totfact> 0.21571729E+00</totfact>
</mgrwt>
</event>
<event>
 6    1  0.1637818E-005  0.2150460E+04  0.7818608E-02  0.8539335E-01
         -2   -1    0    0    0  501 -0.00000000000E+00  0.00000000000E+00  0.62913078134E+03  0.62913078134E+03  0.00000000000E+00 0. -1.
          2   -1    0    0  501    0  0.00000000000E+00 -0.00000000000E+00 -0.18376453814E+04  0.18376453814E+04  0.00000000000E+00 0.  1.
         23    2    1    2    0    0 -0.84379235662E+02  0.73483857811E+03 -0.14978479847E+04  0.16725335054E+04  0.81927712634E+02 0.  0.
         13    1    3    3    0    0  0.34049002658E+01  0.24894184943E+03 -0.45356313112E+03  0.51740037848E+03  0.00000000000E+00 0. -1.
        -13    1    3    3    0    0 -0.87784135928E+02  0.48589672868E+03 -0.10442848536E+04  0.11551331269E+04  0.00000000000E+00 0.  1.
         22    1    1    2    0    0  0.84379235662E+02 -0.73483857811E+03  0.28933338465E+03  0.79424265735E+03  0.00000000000E+00 0. -1.
<mgrwt>
<rscale>  0 0.21504597E+04</rscale>
<asrwt>0</asrwt>
<pdfrwt beam="1">  1        2 0.28271467E+00 0.21504597E+04</pdfrwt>
<pdfrwt beam="2">  1       -2 0.96789353E-01 0.21504597E+04</pdfrwt>
<totfact> 0.67327617E+00</totfact>
</mgrwt>
</event>
<event>
 6    1  0.1637818E-005  0.2975026E+04  0.7818608E-02  0.8250899E-01
          2   -1    0    0  501    0  0.00000000000E+00  0.00000000000E+00  0.14826306074E+04  0.14826306074E+04  0.00000000000E+00 0. -1.
         -2   -1    0    0    0  501 -0.00000000000E+00 -0.00000000000E+00 -0.14924110025E+04  0.14924110025E+04  0.00000000000E+00 0.  1.
         23    2    1    2    0    0 -0.73104646319E+03  0.92742467792E+03  0.89733323069E+03  0.14859477262E+04  0.91039845441E+02 0.  0.
         11    1    3    3    0    0 -0.54192537487E+03  0.69484815489E+03  0.61884828979E+03  0.10767870152E+04  0.00000000000E+00 0.  1.
        -11    1    3    3    0    0 -0.18912108832E+03  0.23257652303E+03  0.27848494090E+03  0.40916071099E+03  0.00000000000E+00 0. -1.
         22    1    1    2    0    0  0.73104646319E+03 -0.92742467792E+03 -0.90711362576E+03  0.14890938837E+04  0.00000000000E+00 0.  1.
<mgrwt>
<rscale>  0 0.29750255E+04</rscale>
<asrwt>0</asrwt>
<pdfrwt beam="1">  1        2 0.22809702E+00 0.29750255E+04</pdfrwt>
<pdfrwt beam="2">  1       -2 0.22960169E+00 0.29750255E+04</pdfrwt>
<totfact> 0.95779357E-01</totfact>
</mgrwt>
</event>
<event>
 6    1  0.1637818E-005  0.3935539E+04  0.7818608E-02  0.8017678E-01
          1   -1    0    0  501    0  0.00000000000E+00  0.00000000000E+00  0.18555109367E+04  0.18555109367E+04  0.00000000000E+00 0. -1.
         -1   -1    0    0    0  501 -0.00000000000E+00 -0.00000000000E+00 -0.20868193305E+04  0.20868193305E+04  0.00000000000E+00 0.  1.
         23    2    1    2    0    0  0.15383898885E+04  0.57348427510E+03  0.96900510472E+03  0.19085455792E+04  0.89708817674E+02 0.  0.
         13    1    3    3    0    0  0.60578773175E+03  0.23205954290E+03  0.43361835183E+03  0.78029179314E+03  0.00000000000E+00 0. -1.
        -13    1    3    3    0    0  0.93260215674E+03  0.34142473220E+03  0.53538675289E+03  0.11282537860E+04  0.00000000000E+00 0.  1.
         22    1    1    2    0    0 -0.15383898885E+04 -0.57348427510E+03 -0.12003134985E+04  0.20337846881E+04  0.00000000000E+00 0.  1.
<mgrwt>
<rscale>  0 0.39355386E+04</rscale>
<asrwt>0</asrwt>
<pdfrwt beam="1">  1        1 0.28546322E+00 0.39355386E+04</pdfrwt>
<pdfrwt beam="2">  1       -1 0.32104913E+00 0.39355386E+04</pdfrwt>
<totfact> 0.70788076E-02</totfact>
</mgrwt>
</event>
<event>
 6    1  0.1637818E-005  0.9481328E+03  0.7818608E-02  0.9367336E-01
         -1   -1    0    0    0  501 -0.00000000000E+00  0.00000000000E+00  0.27390284590E+03  0.27390284590E+03  0.00000000000E+00 0.  1.
          1   -1    0    0  501    0  0.00000000000E+00 -0.00000000000E+00 -0.82050607215E+03  0.82050607215E+03  0.00000000000E+00 0. -1.
         23    2    1    2    0    0 -0.44151160040E+03  0.13152824820E+03 -0.38114847441E+03  0.60491177988E+03  0.91716566294E+02 0.  0.
         13    1    3    3    0    0 -0.34772676756E+03  0.13819591615E+03 -0.32341211356E+03  0.49457801338E+03  0.00000000000E+00 0. -1.
        -13    1    3    3    0    0 -0.93784832843E+02 -0.66676679557E+01 -0.57736360854E+02  0.11033376651E+03  0.00000000000E+00 0.  1.
         22    1    1    2    0    0  0.44151160040E+03 -0.13152824820E+03 -0.16545475184E+03  0.48949713816E+03  0.00000000000E+00 0.  1.
<mgrwt>
<rscale>  0 0.94813279E+03</rscale>
<asrwt>0</asrwt>
<pdfrwt beam="1">  1        1 0.12623170E+00 0.94813279E+03</pdfrwt>
<pdfrwt beam="2">  1       -1 0.42138900E-01 0.94813279E+03</pdfrwt>
<totfact> 0.11797832E+02</totfact>
</mgrwt>
</event>
<event>
 6    1  0.1637818E-005  0.2105467E+04  0.7818608E-02  0.8558839E-01
         -1   -1    0    0    0  501 -0.00000000000E+00  0.00000000000E+00  0.79511185215E+03  0.79511185215E+03  0.00000000000E+00 0.  1.
          1   -1    0    0  501    0  0.00000000000E+00 -0.00000000000E+00 -0.13938257239E+04  0.13938257239E+04  0.00000000000E+00 0. -1.
         23    2    1    2    0    0 -0.16598178073E+03 -0.19512674055E+03 -0.13596593948E+04  0.13860288107E+04  0.82327381918E+02 0.  0.
         13    1    3    3    0    0 -0.68666026011E+01 -0.49818310470E+02 -0.35308425629E+03  0.35664759403E+03  0.00000000000E+00 0.  1.
        -13    1    3    3    0    0 -0.15911517813E+03 -0.14530843008E+03 -0.10065751385E+04  0.10293812167E+04  0.00000000000E+00 0. -1.
         22    1    1    2    0    0  0.16598178073E+03  0.19512674055E+03  0.76094552306E+03  0.80290876535E+03  0.00000000000E+00 0.  1.
<mgrwt>
<rscale>  0 0.21054666E+04</rscale>
<asrwt>0</asrwt>
<pdfrwt beam="1">  1        1 0.21443473E+00 0.21054666E+04</pdfrwt>
<pdfrwt beam="2">  1       -1 0.12232490E+00 0.21054666E+04</pdfrwt>
<totfact> 0.42124311E+00</totfact>
</mgrwt>
</event>
<event>
 6    1  0.1637818E-005  0.1674500E+04  0.7818608E-02  0.8776043E-01
         -2   -1    0    0    0  501 -0.00000000000E+00  0.00000000000E+00  0.82884082218E+03  0.82884082218E+03  0.00000000000E+00 0.  1.
          2   -1    0    0  501    0  0.00000000000E+00 -0.00000000000E+00 -0.84574401233E+03  0.84574401233E+03  0.00000000000E+00 0. -1.
         23    2    1    2    0    0  0.25945075318E+03  0.16945064506E+03  0.76668099912E+03  0.83195063385E+03  0.91180525962E+02 0.  0.
         11    1    3    3    0    0  0.18670040679E+03  0.75823072741E+02  0.42674565686E+03  0.47193011761E+03  0.00000000000E+00 0.  1.
        -11    1    3    3    0    0  0.72750346386E+02  0.93627572320E+02  0.33993534226E+03  0.36002051624E+03  0.00000000000E+00 0. -1.
         22    1    1    2    0    0 -0.25945075318E+03 -0.16945064506E+03 -0.78358418927E+03  0.84263420066E+03  0.00000000000E+00 0. -1.
<mgrwt>
<rscale>  0 0.16744995E+04</rscale>
<asrwt>0</asrwt>
<pdfrwt beam="1">  1        2 0.13011446E+00 0.16744995E+04</pdfrwt>
<pdfrwt beam="2">  1       -2 0.12751397E+00 0.16744995E+04</pdfrwt>
<totfact> 0.13893526E+01</totfact>
</mgrwt>
</event>
<event>
 6    1  0.1637818E-005  0.1395381E+04  0.7818608E-02  0.8957169E-01
         -2   -1    0    0    0  501 -0.00000000000E+00  0.00000000000E+00  0.30074385140E+03  0.30074385140E+03  0.00000000000E+00 0.  1.
          2   -1    0    0  501    0  0.00000000000E+00 -0.00000000000E+00 -0.16185604992E+04  0.16185604992E+04  0.00000000000E+00 0. -1.
         23    2    1    2    0    0  0.20901819042E+03 -0.63029606125E+03 -0.94266247541E+03  0.11566101905E+04  0.90403880123E+02 0.  0.
         13    1    3    3    0    0  0.10438962087E+03 -0.35384678340E+03 -0.59705549897E+03  0.70184044335E+03  0.00000000000E+00 0.  1.
        -13    1    3    3    0    0  0.10462856955E+03 -0.27644927785E+03 -0.34560697644E+03  0.45476974718E+03  0.00000000000E+00 0. -1.
         22    1    1    2    0    0 -0.20901819042E+03  0.63029606125E+03 -0.37515417242E+03  0.76269416010E+03  0.00000000000E+00 0.  1.
<mgrwt>
<rscale>  0 0.13953811E+04</rscale>
<asrwt>0</asrwt>
<pdfrwt beam="1">  1        2 0.24900930E+00 0.13953811E+04</pdfrwt>
<pdfrwt beam="2">  1       -2 0.46268285E-01 0.13953811E+04</pdfrwt>
<totfact> 0.46942922E+01</totfact>
</mgrwt>
</event>
<event>
 6    1  0.1637818E-005  0.2509875E+04  0.7818608E-02  0.8399476E-01
         -1   -1    0    0    0  501 -0.00000000000E+00  0.00000000000E+00  0.65647812213E+03  0.65647812213E+03  0.00000000000E+00 0.  1.
          1   -1    0    0  501    0  0.00000000000E+00 -0.00000000000E+00 -0.23989647210E+04  0.23989647210E+04  0.00000000000E+00 0. -1.
         23    2    1    2    0    0 -0.93510726404E+03  0.72950934034E+03 -0.37918122992E+03  0.12484533573E+04  0.90817990144E+02 0.  0.
         13    1    3    3    0    0 -0.39576011659E+03  0.36605791140E+03 -0.17330279680E+03  0.56626700749E+03  0.00000000000E+00 0. -1.
        -13    1    3    3    0    0 -0.53934714744E+03  0.36345142894E+03 -0.20587843312E+03  0.68218634982E+03  0.00000000000E+00 0.  1.
         22    1    1    2    0    0  0.93510726404E+03 -0.72950934034E+03 -0.13633053689E+04  0.18069894858E+04  0.00000000000E+00 0. -1.
<mgrwt>
<rscale>  0 0.25098748E+04</rscale>
<asrwt>0</asrwt>
<pdfrwt beam="1">  1        1 0.36907150E+00 0.25098748E+04</pdfrwt>
<pdfrwt beam="2">  1       -1 0.10099663E+00 0.25098748E+04</pdfrwt>
<totfact> 0.13155388E+00</totfact>
</mgrwt>
</event>
<event>
 6    1  0.1637818E-005  0.1425115E+04  0.7818608E-02  0.8935837E-01
          1   -1    0    0  501    0  0.00000000000E+00  0.00000000000E+00  0.17790314384E+04  0.17790314384E+04  0.00000000000E+00 0. -1.
         -1   -1    0    0    0  501 -0.00000000000E+00 -0.00000000000E+00 -0.28540142967E+03  0.28540142967E+03  0.00000000000E+00 0.  1.
         23    2    1    2    0    0  0.45832853073E+03 -0.53998042812E+03  0.80337719647E+03  0.10754470999E+04  0.97609630869E+02 0.  0.
         13    1    3    3    0    0  0.91334749971E+02 -0.17392118596E+03  0.23136176235E+03  0.30351092329E+03  0.00000000000E+00 0.  1.
        -13    1    3    3    0    0  0.36699378076E+03 -0.36605924216E+03  0.57201543412E+03  0.77193617661E+03  0.00000000000E+00 0. -1.
         22    1    1    2    0    0 -0.45832853073E+03  0.53998042812E+03  0.69025281226E+03  0.98898576818E+03  0.00000000000E+00 0.  1.
<mgrwt>
<rscale>  0 0.14251149E+04</rscale>
<asrwt>0</asrwt>
<pdfrwt beam="1">  1        1 0.27369714E+00 0.14251149E+04</pdfrwt>
<pdfrwt beam="2">  1       -1 0.43907913E-01 0.14251149E+04</pdfrwt>
<totfact> 0.21011585E+01</totfact>
</mgrwt>
</event>
<event>
 6    1  0.1637818E-005  0.4463753E+04  0.7818608E-02  0.7917013E-01
          1   -1    0    0  501    0  0.00000000000E+00  0.00000000000E+00  0.29738254659E+04  0.29738254659E+04  0.00000000000E+00 0. -1.
         -1   -1    0    0    0  501 -0.00000000000E+00 -0.00000000000E+00 -0.16750386250E+04  0.16750386250E+04  0.00000000000E+00 0.  1.
         23    2    1    2    0    0 -0.81718954924E+03  0.20008450723E+03 -0.15024120738E+04  0.17240482114E+04  0.85250374211E+02 0.  0.
         11    1    3    3    0    0 -0.31135290724E+03  0.75541006672E+02 -0.65836373432E+03  0.73218159168E+03  0.00000000000E+00 0.  1.
        -11    1    3    3    0    0 -0.50583664200E+03  0.12454350055E+03 -0.84404833950E+03  0.99186661973E+03  0.00000000000E+00 0. -1.
         22    1    1    2    0    0  0.81718954924E+03 -0.20008450723E+03  0.28011989147E+04  0.29248158796E+04  0.00000000000E+00 0. -1.
<mgrwt>
<rscale>  0 0.44637529E+04</rscale>
<asrwt>0</asrwt>
<pdfrwt beam="1">  1        1 0.45751161E+00 0.44637529E+04</pdfrwt>
<pdfrwt beam="2">  1       -1 0.25769825E+00 0.44637529E+04</pdfrwt>
<totfact> 0.29227959E-02</totfact>
</mgrwt>
</event>
<event>
 6    1  0.1637818E-005  0.1490981E+04  0.7818608E-02  0.8890473E-01
         -1   -1    0    0    0  501 -0.00000000000E+00  0.00000000000E+00  0.55827233915E+03  0.55827233915E+03  0.00000000000E+00 0.  1.
          1   -1    0    0  501    0  0.00000000000E+00 -0.00000000000E+00 -0.99549215672E+03  0.99549215672E+03  0.00000000000E+00 0. -1.
         23    2    1    2    0    0 -0.68684015563E+03 -0.28204767230E+03 -0.23598501717E+03  0.78448188608E+03  0.91774791915E+02 0.  0.
         11    1    3    3    0    0 -0.77798230384E+02 -0.62469006056E+02 -0.45240507565E+02  0.10955201912E+03  0.00000000000E+00 0. -1.
        -11    1    3    3    0    0 -0.60904192525E+03 -0.21957866624E+03 -0.19074450961E+03  0.67492986696E+03  0.00000000000E+00 0.  1.
         22    1    1    2    0    0  0.68684015563E+03  0.28204767230E+03 -0.20123480040E+03  0.76928260979E+03  0.00000000000E+00 0.  1.
<mgrwt>
<rscale>  0 0.14909805E+04</rscale>
<asrwt>0</asrwt>
<pdfrwt beam="1">  1        1 0.15315264E+00 0.14909805E+04</pdfrwt>
<pdfrwt beam="2">  1       -1 0.85888053E-01 0.14909805E+04</pdfrwt>
<totfact> 0.19770686E+01</totfact>
</mgrwt>
</event>
<event>
 6    1  0.1637818E-005  0.2381189E+04  0.7818608E-02  0.8446580E-01
          1   -1    0    0  501    0  0.00000000000E+00  0.00000000000E+00  0.59543263535E+03  0.59543263535E+03  0.00000000000E+00 0. -1.
         -1   -1    0    0    0  501 -0.00000000000E+00 -0.00000000000E+00 -0.23806472870E+04  0.23806472870E+04  0.00000000000E+00 0.  1.
         23    2    1    2    0    0  0.48008704694E+02  0.22622360914E+03 -0.23513907968E+04  0.23644939641E+04  0.91165069741E+02 0.  0.
         11    1    3    3    0    0 -0.11941627804E+01  0.11671030670E+03 -0.15206354271E+04  0.15251081351E+04  0.00000000000E+00 0.  1.
        -11    1    3    3    0    0  0.49202867474E+02  0.10951330245E+03 -0.83075536973E+03  0.83938582899E+03  0.00000000000E+00 0. -1.
         22    1    1    2    0    0 -0.48008704694E+02 -0.22622360914E+03  0.56617614512E+03  0.61158595828E+03  0.00000000000E+00 0. -1.
<mgrwt>
<rscale>  0 0.23811889E+04</rscale>
<asrwt>0</asrwt>
<pdfrwt beam="1">  1        1 0.91605020E-01 0.23811889E+04</pdfrwt>
<pdfrwt beam="2">  1       -1 0.36625343E+00 0.23811889E+04</pdfrwt>
<totfact> 0.37650971E-01</totfact>
</mgrwt>
</event>
<event>
 6    1  0.1637818E-005  0.2444594E+04  0.7818608E-02  0.8422994E-01
          2   -1    0    0  501    0  0.00000000000E+00  0.00000000000E+00  0.19755048392E+04  0.19755048392E+04  0.00000000000E+00 0. -1.
         -2   -1    0    0    0  501 -0.00000000000E+00 -0.00000000000E+00 -0.75626730736E+03  0.75626730736E+03  0.00000000000E+00 0.  1.
         23    2    1    2    0    0  0.14859360435E+03 -0.12085066873E+04  0.50045459955E+03  0.13178353106E+04  0.60552681163E+02 0.  0.
         11    1    3    3    0    0  0.70194403438E+02 -0.72011438270E+03  0.32258278741E+03  0.79218156580E+03  0.00000000000E+00 0.  1.
        -11    1    3    3    0    0  0.78399200914E+02 -0.48839230456E+03  0.17787181213E+03  0.52565374479E+03  0.00000000000E+00 0. -1.
         22    1    1    2    0    0 -0.14859360435E+03  0.12085066873E+04  0.71878293233E+03  0.14139368360E+04  0.00000000000E+00 0. -1.
<mgrwt>
<rscale>  0 0.24445938E+04</rscale>
<asrwt>0</asrwt>
<pdfrwt beam="1">  1        2 0.30392382E+00 0.24445938E+04</pdfrwt>
<pdfrwt beam="2">  1       -2 0.11634882E+00 0.24445938E+04</pdfrwt>
<totfact> 0.35397351E+00</totfact>
</mgrwt>
</event>
<event>
 6    1  0.1637818E-005  0.1775171E+04  0.7818608E-02  0.8719616E-01
          2   -1    0    0  501    0  0.00000000000E+00  0.00000000000E+00  0.12913734734E+04  0.12913734734E+04  0.00000000000E+00 0. -1.
         -2   -1    0    0    0  501 -0.00000000000E+00 -0.00000000000E+00 -0.61005418894E+03  0.61005418894E+03  0.00000000000E+00 0.  1.
         23    2    1    2    0    0  0.20712127311E+03 -0.79599864414E+02 -0.57711074935E+03  0.62358514066E+03  0.81032403703E+02 0.  0.
         11    1    3    3    0    0  0.95867283842E+02 -0.30808172407E+02 -0.37016923728E+03  0.38362083341E+03  0.00000000000E+00 0.  1.
        -11    1    3    3    0    0  0.11125398927E+03 -0.48791692007E+02 -0.20694151207E+03  0.23996430725E+03  0.00000000000E+00 0. -1.
         22    1    1    2    0    0 -0.20712127311E+03  0.79599864414E+02  0.12584300338E+04  0.12778425216E+04  0.00000000000E+00 0. -1.
<mgrwt>
<rscale>  0 0.17751707E+04</rscale>
<asrwt>0</asrwt>
<pdfrwt beam="1">  1        2 0.19867284E+00 0.17751707E+04</pdfrwt>
<pdfrwt beam="2">  1       -2 0.93854491E-01 0.17751707E+04</pdfrwt>
<totfact> 0.15170493E+01</totfact>
</mgrwt>
</event>
<event>
 6    1  0.1637818E-005  0.3509109E+04  0.7818608E-02  0.8111635E-01
          2   -1    0    0  501    0  0.00000000000E+00  0.00000000000E+00  0.24303392186E+04  0.24303392186E+04  0.00000000000E+00 0.  1.
         -2   -1    0    0    0  501 -0.00000000000E+00 -0.00000000000E+00 -0.12666795344E+04  0.12666795344E+04  0.00000000000E+00 0. -1.
         23    2    1    2    0    0  0.10473864697E+04 -0.18510727444E+03 -0.88620628788E+03  0.13876392642E+04  0.94329331416E+02 0.  0.
         13    1    3    3    0    0  0.79549087826E+03 -0.10937336767E+03 -0.70137306637E+03  0.10661577975E+04  0.00000000000E+00 0.  1.
        -13    1    3    3    0    0  0.25189559146E+03 -0.75733906762E+02 -0.18483322151E+03  0.32148146666E+03  0.00000000000E+00 0. -1.
         22    1    1    2    0    0 -0.10473864697E+04  0.18510727444E+03  0.20498659721E+04  0.23093794889E+04  0.00000000000E+00 0.  1.
<mgrwt>
<rscale>  0 0.35091087E+04</rscale>
<asrwt>0</asrwt>
<pdfrwt beam="1">  1        2 0.37389834E+00 0.35091087E+04</pdfrwt>
<pdfrwt beam="2">  1       -2 0.19487378E+00 0.35091087E+04</pdfrwt>
<totfact> 0.45089755E-01</totfact>
</mgrwt>
</event>
<event>
 6    1  0.1637818E-005  0.2983139E+04  0.7818608E-02  0.8248562E-01
         -1   -1    0    0    0  501 -0.00000000000E+00  0.00000000000E+00  0.11847404466E+04  0.11847404466E+04  0.00000000000E+00 0.  1.
          1   -1    0    0  501    0  0.00000000000E+00 -0.00000000000E+00 -0.18778619218E+04  0.18778619218E+04  0.00000000000E+00 0. -1.
         23    2    1    2    0    0 -0.13637590167E+04 -0.59905021422E+03 -0.30259605941E+03  0.15227290245E+04  0.91866707889E+02 0.  0.
         11    1    3    3    0    0 -0.39638573501E+03 -0.21003469606E+03 -0.11798334934E+03  0.46384943159E+03  0.00000000000E+00 0. -1.
        -11    1    3    3    0    0 -0.96737328174E+03 -0.38901551816E+03 -0.18461271007E+03  0.10588795929E+04  0.00000000000E+00 0.  1.
         22    1    1    2    0    0  0.13637590167E+04  0.59905021422E+03 -0.39052541578E+03  0.15398733439E+04  0.00000000000E+00 0.  1.
<mgrwt>
<rscale>  0 0.29831386E+04</rscale>
<asrwt>0</asrwt>
<pdfrwt beam="1">  1        1 0.28890183E+00 0.29831386E+04</pdfrwt>
<pdfrwt beam="2">  1       -1 0.18226776E+00 0.29831386E+04</pdfrwt>
<totfact> 0.61623873E-01</totfact>
</mgrwt>
</event>
<event>
 6    1  0.1637818E-005  0.1700693E+04  0.7818608E-02  0.8760969E-01
          2   -1    0    0  501    0  0.00000000000E+00  0.00000000000E+00  0.11578118266E+04  0.11578118266E+04  0.00000000000E+00 0. -1.
         -2   -1    0    0    0  501 -0.00000000000E+00 -0.00000000000E+00 -0.62453072349E+03  0.62453072349E+03  0.00000000000E+00 0.  1.
         23    2    1    2    0    0  0.72433732292E+03 -0.44037298656E+03  0.23597064643E+03  0.88401831444E+03  0.84931205216E+02 0.  0.
         13    1    3    3    0    0  0.31223709737E+03 -0.23851404671E+03  0.11701404642E+03  0.40996736762E+03  0.00000000000E+00 0. -1.
        -13    1    3    3    0    0  0.41210022555E+03 -0.20185893985E+03  0.11895660001E+03  0.47405094682E+03  0.00000000000E+00 0.  1.
         22    1    1    2    0    0 -0.72433732292E+03  0.44037298656E+03  0.29731045664E+03  0.89832423562E+03  0.00000000000E+00 0.  1.
<mgrwt>
<rscale>  0 0.17006929E+04</rscale>
<asrwt>0</asrwt>
<pdfrwt beam="1">  1        2 0.17812490E+00 0.17006929E+04</pdfrwt>
<pdfrwt beam="2">  1       -2 0.96081650E-01 0.17006929E+04</pdfrwt>
<totfact> 0.17345836E+01</totfact>
</mgrwt>
</event>
<event>
 6    1  0.1637818E-005  0.1390915E+04  0.7818608E-02  0.8960421E-01
          2   -1    0    0  501    0  0.00000000000E+00  0.00000000000E+00  0.29223023960E+03  0.29223023960E+03  0.00000000000E+00 0. -1.
         -2   -1    0    0    0  501 -0.00000000000E+00 -0.00000000000E+00 -0.16550695901E+04  0.16550695901E+04  0.00000000000E+00 0.  1.
         23    2    1    2    0    0  0.44636765109E+03  0.52869569706E+03 -0.64168072228E+03  0.94788350650E+03  0.89251176622E+02 0.  0.
         11    1    3    3    0    0  0.25671898975E+03  0.25890508548E+03 -0.29095595098E+03  0.46646741408E+03  0.00000000000E+00 0. -1.
        -11    1    3    3    0    0  0.18964866134E+03  0.26979061158E+03 -0.35072477130E+03  0.48141609243E+03  0.00000000000E+00 0.  1.
         22    1    1    2    0    0 -0.44636765109E+03 -0.52869569706E+03 -0.72115862827E+03  0.99941632324E+03  0.00000000000E+00 0.  1.
<mgrwt>
<rscale>  0 0.13909154E+04</rscale>
<asrwt>0</asrwt>
<pdfrwt beam="1">  1        2 0.44958496E-01 0.13909154E+04</pdfrwt>
<pdfrwt beam="2">  1       -2 0.25462610E+00 0.13909154E+04</pdfrwt>
<totfact> 0.66370413E+00</totfact>
</mgrwt>
</event>
<event>
 6    1  0.1637818E-005  0.2366028E+04  0.7818608E-02  0.8452333E-01
         -1   -1    0    0    0  501 -0.00000000000E+00  0.00000000000E+00  0.94283802769E+03  0.94283802769E+03  0.00000000000E+00 0.  1.
          1   -1    0    0  501    0  0.00000000000E+00 -0.00000000000E+00 -0.14843722892E+04  0.14843722892E+04  0.00000000000E+00 0. -1.
         23    2    1    2    0    0 -0.83169564659E+03 -0.26493060602E+03 -0.10876583921E+04  0.13975708457E+04  0.91091253249E+02 0.  0.
         11    1    3    3    0    0 -0.64849314928E+03 -0.24513518520E+03 -0.86616950072E+03  0.11094522196E+04  0.00000000000E+00 0.  1.
        -11    1    3    3    0    0 -0.18320249731E+03 -0.19795420817E+02 -0.22148889137E+03  0.28811862610E+03  0.00000000000E+00 0. -1.
         22    1    1    2    0    0  0.83169564659E+03  0.26493060602E+03  0.54612413058E+03  0.10296394712E+04  0.00000000000E+00 0.  1.
<mgrwt>
<rscale>  0 0.23660284E+04</rscale>
<asrwt>0</asrwt>
<pdfrwt beam="1">  1        1 0.22836497E+00 0.23660284E+04</pdfrwt>
<pdfrwt beam="2">  1       -1 0.14505200E+00 0.23660284E+04</pdfrwt>
<totfact> 0.23011250E+00</totfact>
</mgrwt>
</event>
<event>
 6    1  0.1637818E-005  0.1430913E+04  0.7818608E-02  0.8931741E-01
          1   -1    0    0  501    0  0.00000000000E+00  0.00000000000E+00  0.13598886218E+04  0.13598886218E+04  0.00000000000E+00 0. -1.
         -1   -1    0    0    0  501 -0.00000000000E+00 -0.00000000000E+00 -0.37641147609E+03  0.37641147609E+03  0.00000000000E+00 0.  1.
         23    2    1    2    0    0 -0.12121192219E+03 -0.42270804407E+03  0.11742234237E+04  0.12569687269E+04  0.88291058414E+02 0.  0.
         11    1    3    3    0    0 -0.53022517136E+02 -0.25026614041E+03  0.56650218859E+03  0.62158608256E+03  0.00000000000E+00 0. -1.
        -11    1    3    3    0    0 -0.68189405058E+02 -0.17244190366E+03  0.60772123512E+03  0.63538264433E+03  0.00000000000E+00 0.  1.
         22    1    1    2    0    0  0.12121192219E+03  0.42270804407E+03 -0.19074627803E+03  0.47933137096E+03  0.00000000000E+00 0.  1.
<mgrwt>
<rscale>  0 0.14309126E+04</rscale>
<asrwt>0</asrwt>
<pdfrwt beam="1">  1        1 0.20921363E+00 0.14309126E+04</pdfrwt>
<pdfrwt beam="2">  1       -1 0.57909459E-01 0.14309126E+04</pdfrwt>
<totfact> 0.24093189E+01</totfact>
</mgrwt>
</event>
<event>
 6    1  0.1637818E-005  0.3930278E+04  0.7818608E-02  0.8018761E-01
          1   -1    0    0  501    0  0.00000000000E+00  0.00000000000E+00  0.32054972055E+04  0.32054972055E+04  0.00000000000E+00 0. -1.
         -1   -1    0    0    0  501 -0.00000000000E+00 -0.00000000000E+00 -0.12047339696E+04  0.12047339696E+04  0.00000000000E+00 0.  1.
         23    2    1    2    0    0 -0.37340720650E+03  0.16827511310E+04 -0.57248260761E+02  0.17257394855E+04  0.61766474908E+02 0.  0.
         11    1    3    3    0    0 -0.88582297271E+02  0.45886202631E+03 -0.39772056582E+02  0.46902345257E+03  0.00000000000E+00 0.  1.
        -11    1    3    3    0    0 -0.28482490923E+03  0.12238891047E+04 -0.17476204179E+02  0.12567160329E+04  0.00000000000E+00 0. -1.
         22    1    1    2    0    0  0.37340720650E+03 -0.16827511310E+04  0.20580114967E+04  0.26844916896E+04  0.00000000000E+00 0. -1.
<mgrwt>
<rscale>  0 0.39302780E+04</rscale>
<asrwt>0</asrwt>
<pdfrwt beam="1">  1        1 0.49315341E+00 0.39302780E+04</pdfrwt>
<pdfrwt beam="2">  1       -1 0.18534369E+00 0.39302780E+04</pdfrwt>
<totfact> 0.63108973E-02</totfact>
</mgrwt>
</event>
<event>
 6    1  0.1637818E-005  0.1657678E+04  0.7818608E-02  0.8785877E-01
          2   -1    0    0  501    0  0.00000000000E+00  0.00000000000E+00  0.93673805730E+03  0.93673805730E+03  0.00000000000E+00 0.  1.
         -2   -1    0    0    0  501 -0.00000000000E+00 -0.00000000000E+00 -0.73336873392E+03  0.73336873392E+03  0.00000000000E+00 0. -1.
         23    2    1    2    0    0 -0.24794916250E+03 -0.39745407973E+03  0.78758835286E+03  0.92126741787E+03  0.94814075898E+02 0.  0.
         11    1    3    3    0    0 -0.26833400740E+02 -0.11230781605E+03  0.15951292353E+03  0.19691990685E+03  0.00000000000E+00 0.  1.
        -11    1    3    3    0    0 -0.22111576176E+03 -0.28514626368E+03  0.62807542933E+03  0.72434751102E+03  0.00000000000E+00 0. -1.
         22    1    1    2    0    0  0.24794916250E+03  0.39745407973E+03 -0.58421902948E+03  0.74883937335E+03  0.00000000000E+00 0. -1.
<mgrwt>
<rscale>  0 0.16576784E+04</rscale>
<asrwt>0</asrwt>
<pdfrwt beam="1">  1        2 0.14411355E+00 0.16576784E+04</pdfrwt>
<pdfrwt beam="2">  1       -2 0.11282596E+00 0.16576784E+04</pdfrwt>
<totfact> 0.16340304E+01</totfact>
</mgrwt>
</event>
<event>
 6    1  0.1637818E-005  0.2042572E+04  0.7818608E-02  0.8586971E-01
          2   -1    0    0  501    0  0.00000000000E+00  0.00000000000E+00  0.16572942092E+04  0.16572942092E+04  0.00000000000E+00 0. -1.
         -2   -1    0    0    0  501 -0.00000000000E+00 -0.00000000000E+00 -0.62935440151E+03  0.62935440151E+03  0.00000000000E+00 0.  1.
         23    2    1    2    0    0 -0.12209275376E+03 -0.27890744172E+03  0.16038650651E+04  0.16351995307E+04  0.93799555693E+02 0.  0.
         13    1    3    3    0    0 -0.27771364049E+02 -0.17256675656E+03  0.96636478245E+03  0.98204451370E+03  0.00000000000E+00 0.  1.
        -13    1    3    3    0    0 -0.94321389709E+02 -0.10634068516E+03  0.63750028268E+03  0.65315501705E+03  0.00000000000E+00 0. -1.
         22    1    1    2    0    0  0.12209275376E+03  0.27890744172E+03 -0.57592525747E+03  0.65144907994E+03  0.00000000000E+00 0.  1.
<mgrwt>
<rscale>  0 0.20425723E+04</rscale>
<asrwt>0</asrwt>
<pdfrwt beam="1">  1        2 0.25496834E+00 0.20425723E+04</pdfrwt>
<pdfrwt beam="2">  1       -2 0.96823755E-01 0.20425723E+04</pdfrwt>
<totfact> 0.85497617E+00</totfact>
</mgrwt>
</event>
<event>
 6    1  0.1637818E-005  0.2930074E+04  0.7818608E-02  0.8263986E-01
         -2   -1    0    0    0  501 -0.00000000000E+00  0.00000000000E+00  0.14488537161E+04  0.14488537161E+04  0.00000000000E+00 0. -1.
          2   -1    0    0  501    0  0.00000000000E+00 -0.00000000000E+00 -0.14814006489E+04  0.14814006489E+04  0.00000000000E+00 0.  1.
         23    2    1    2    0    0  0.12293887883E+04  0.63292302109E+03  0.46331253828E+03  0.14612870548E+04  0.93343478412E+02 0.  0.
         13    1    3    3    0    0  0.74256206869E+03  0.35257618074E+03  0.31458880806E+03  0.88015595620E+03  0.00000000000E+00 0. -1.
        -13    1    3    3    0    0  0.48682671961E+03  0.28034684036E+03  0.14872373022E+03  0.58113109860E+03  0.00000000000E+00 0.  1.
         22    1    1    2    0    0 -0.12293887883E+04 -0.63292302109E+03 -0.49585947100E+03  0.14689673102E+04  0.00000000000E+00 0.  1.
<mgrwt>
<rscale>  0 0.29300736E+04</rscale>
<asrwt>0</asrwt>
<pdfrwt beam="1">  1        2 0.22790779E+00 0.29300736E+04</pdfrwt>
<pdfrwt beam="2">  1       -2 0.22290057E+00 0.29300736E+04</pdfrwt>
<totfact> 0.10609180E+00</totfact>
</mgrwt>
</event>
<event>
 6    1  0.1637818E-005  0.1954256E+04  0.7818608E-02  0.8628311E-01
         -2   -1    0    0    0  501 -0.00000000000E+00  0.00000000000E+00  0.88807830774E+03  0.88807830774E+03  0.00000000000E+00 0.  1.
          2   -1    0    0  501    0  0.00000000000E+00 -0.00000000000E+00 -0.10751068486E+04  0.10751068486E+04  0.00000000000E+00 0. -1.
         23    2    1    2    0    0 -0.60998810214E+03  0.41140441492E+03 -0.73639632709E+03  0.10449564038E+04  0.91188035675E+02 0.  0.
         11    1    3    3    0    0 -0.16533610852E+03  0.16022103515E+03 -0.21195234616E+03  0.31293866161E+03  0.00000000000E+00 0.  1.
        -11    1    3    3    0    0 -0.44465199363E+03  0.25118337977E+03 -0.52444398092E+03  0.73201774216E+03  0.00000000000E+00 0. -1.
         22    1    1    2    0    0  0.60998810214E+03 -0.41140441492E+03  0.54936778627E+03  0.91822875253E+03  0.00000000000E+00 0.  1.
<mgrwt>
<rscale>  0 0.19542559E+04</rscale>
<asrwt>0</asrwt>
<pdfrwt beam="1">  1        2 0.16540105E+00 0.19542559E+04</pdfrwt>
<pdfrwt beam="2">  1       -2 0.13662743E+00 0.19542559E+04</pdfrwt>
<totfact> 0.80542700E+00</totfact>
</mgrwt>
</event>
<event>
 6    1  0.1637818E-005  0.2048494E+04  0.7818608E-02  0.8584278E-01
         -1   -1    0    0    0  501 -0.00000000000E+00  0.00000000000E+00  0.33795573459E+03  0.33795573459E+03  0.00000000000E+00 0.  1.
          1   -1    0    0  501    0  0.00000000000E+00 -0.00000000000E+00 -0.31042006800E+04  0.31042006800E+04  0.00000000000E+00 0. -1.
         23    2    1    2    0    0  0.99623432009E+03  0.22157872350E+03 -0.12829596613E+04  0.16416800373E+04  0.86878656875E+02 0.  0.
         13    1    3    3    0    0  0.58441644353E+03  0.12287527746E+03 -0.81759875962E+03  0.10124764911E+04  0.00000000000E+00 0. -1.
        -13    1    3    3    0    0  0.41181787656E+03  0.98703446038E+02 -0.46536090169E+03  0.62920354619E+03  0.00000000000E+00 0.  1.
         22    1    1    2    0    0 -0.99623432009E+03 -0.22157872350E+03 -0.14832852841E+04  0.18004763773E+04  0.00000000000E+00 0. -1.
<mgrwt>
<rscale>  0 0.20484945E+04</rscale>
<asrwt>0</asrwt>
<pdfrwt beam="1">  1        1 0.47756931E+00 0.20484945E+04</pdfrwt>
<pdfrwt beam="2">  1       -1 0.51993193E-01 0.20484945E+04</pdfrwt>
<totfact> 0.17274801E+00</totfact>
</mgrwt>
</event>
<event>
 6    1  0.1637818E-005  0.1681298E+04  0.7818608E-02  0.8772103E-01
          1   -1    0    0  501    0  0.00000000000E+00  0.00000000000E+00  0.60473034261E+03  0.60473034261E+03  0.00000000000E+00 0. -1.
         -1   -1    0    0    0  501 -0.00000000000E+00 -0.00000000000E+00 -0.11686052152E+04  0.11686052152E+04  0.00000000000E+00 0.  1.
         23    2    1    2    0    0 -0.12348262791E+03  0.72894632846E+03 -0.69928858586E+03  0.10217056070E+04  0.90923659310E+02 0.  0.
         11    1    3    3    0    0 -0.73101178546E+02  0.48495384329E+03 -0.51980059646E+03  0.71464443782E+03  0.00000000000E+00 0.  1.
        -11    1    3    3    0    0 -0.50381449368E+02  0.24399248517E+03 -0.17948798941E+03  0.30706116915E+03  0.00000000000E+00 0. -1.
         22    1    1    2    0    0  0.12348262791E+03 -0.72894632846E+03  0.13541371331E+03  0.75162995079E+03  0.00000000000E+00 0. -1.
<mgrwt>
<rscale>  0 0.16812983E+04</rscale>
<asrwt>0</asrwt>
<pdfrwt beam="1">  1        1 0.93035438E-01 0.16812983E+04</pdfrwt>
<pdfrwt beam="2">  1       -1 0.17978542E+00 0.16812983E+04</pdfrwt>
<totfact> 0.67393303E+00</totfact>
</mgrwt>
</event>
<event>
 6    1  0.1637818E-005  0.2394912E+04  0.7818608E-02  0.8441411E-01
          2   -1    0    0  501    0  0.00000000000E+00  0.00000000000E+00  0.17124934030E+04  0.17124934030E+04  0.00000000000E+00 0.  1.
         -2   -1    0    0    0  501 -0.00000000000E+00 -0.00000000000E+00 -0.83731785112E+03  0.83731785112E+03  0.00000000000E+00 0. -1.
         23    2    1    2    0    0 -0.11891297316E+04  0.12470204101E+03  0.45177506198E+03  0.12814074965E+04  0.91237863937E+02 0.  0.
         13    1    3    3    0    0 -0.53831671470E+03  0.92283929010E+02  0.23617577305E+03  0.59504638866E+03  0.00000000000E+00 0. -1.
        -13    1    3    3    0    0 -0.65081301688E+03  0.32418111996E+02  0.21559928893E+03  0.68636110781E+03  0.00000000000E+00 0.  1.
         22    1    1    2    0    0  0.11891297316E+04 -0.12470204101E+03  0.42340048988E+03  0.12684037576E+04  0.00000000000E+00 0.  1.
<mgrwt>
<rscale>  0 0.23949124E+04</rscale>
<asrwt>0</asrwt>
<pdfrwt beam="1">  1        2 0.26346052E+00 0.23949124E+04</pdfrwt>
<pdfrwt beam="2">  1       -2 0.12881813E+00 0.23949124E+04</pdfrwt>
<totfact> 0.38594114E+00</totfact>
</mgrwt>
</event>
<event>
 6    1  0.1637818E-005  0.2129937E+04  0.7818608E-02  0.8548169E-01
         -1   -1    0    0    0  501 -0.00000000000E+00  0.00000000000E+00  0.56021818124E+03  0.56021818124E+03  0.00000000000E+00 0.  1.
          1   -1    0    0  501    0  0.00000000000E+00 -0.00000000000E+00 -0.20244927174E+04  0.20244927174E+04  0.00000000000E+00 0. -1.
         23    2    1    2    0    0  0.15006973768E+03 -0.68896463828E+00 -0.20105684376E+04  0.20181789687E+04  0.90219213163E+02 0.  0.
         11    1    3    3    0    0  0.77982965550E+02  0.11857224250E+02 -0.15339446211E+04  0.15359713661E+04  0.00000000000E+00 0.  1.
        -11    1    3    3    0    0  0.72086772129E+02 -0.12546188889E+02 -0.47662381652E+03  0.48220760264E+03  0.00000000000E+00 0. -1.
         22    1    1    2    0    0 -0.15006973768E+03  0.68896463828E+00  0.54629390148E+03  0.56653192993E+03  0.00000000000E+00 0.  1.
<mgrwt>
<rscale>  0 0.21299367E+04</rscale>
<asrwt>0</asrwt>
<pdfrwt beam="1">  1        1 0.31146042E+00 0.21299367E+04</pdfrwt>
<pdfrwt beam="2">  1       -1 0.86187411E-01 0.21299367E+04</pdfrwt>
<totfact> 0.34942477E+00</totfact>
</mgrwt>
</event>
<event>
 6    1  0.1637818E-005  0.3038108E+04  0.7818608E-02  0.8232932E-01
          1   -1    0    0  501    0  0.00000000000E+00  0.00000000000E+00  0.10719056390E+04  0.10719056390E+04  0.00000000000E+00 0. -1.
         -1   -1    0    0    0  501 -0.00000000000E+00 -0.00000000000E+00 -0.21527317119E+04  0.21527317119E+04  0.00000000000E+00 0.  1.
         23    2    1    2    0    0 -0.25978016520E+03 -0.12276434089E+04 -0.14470552096E+04  0.19174580005E+04  0.89901782277E+02 0.  0.
         11    1    3    3    0    0 -0.17526898903E+03 -0.61417957565E+03 -0.72333425178E+03  0.96496021133E+03  0.00000000000E+00 0.  1.
        -11    1    3    3    0    0 -0.84511176171E+02 -0.61346383321E+03 -0.72372095783E+03  0.95249778916E+03  0.00000000000E+00 0. -1.
         22    1    1    2    0    0  0.25978016520E+03  0.12276434089E+04  0.36622913677E+03  0.13071793504E+04  0.00000000000E+00 0. -1.
<mgrwt>
<rscale>  0 0.30381081E+04</rscale>
<asrwt>0</asrwt>
<pdfrwt beam="1">  1        1 0.16490856E+00 0.30381081E+04</pdfrwt>
<pdfrwt beam="2">  1       -1 0.33118949E+00 0.30381081E+04</pdfrwt>
<totfact> 0.23350154E-01</totfact>
</mgrwt>
</event>
<event>
 6    1  0.1637818E-005  0.8191061E+03  0.7818608E-02  0.9532766E-01
          2   -1    0    0  501    0  0.00000000000E+00  0.00000000000E+00  0.35239176725E+03  0.35239176725E+03  0.00000000000E+00 0.  1.
         -2   -1    0    0    0  501 -0.00000000000E+00 -0.00000000000E+00 -0.47598645070E+03  0.47598645070E+03  0.00000000000E+00 0. -1.
         23    2    1    2    0    0  0.15548673919E+03 -0.26864340561E+03  0.19954787002E+03  0.38030845184E+03  0.92031302696E+02 0.  0.
         13    1    3    3    0    0  0.71225565237E+02 -0.84225484225E+02  0.25776713247E+02  0.11327600047E+03  0.00000000000E+00 0.  1.
        -13    1    3    3    0    0  0.84261173951E+02 -0.18441792138E+03  0.17377115677E+03  0.26703245138E+03  0.00000000000E+00 0. -1.
         22    1    1    2    0    0 -0.15548673919E+03  0.26864340561E+03 -0.32314255346E+03  0.44806976610E+03  0.00000000000E+00 0. -1.
<mgrwt>
<rscale>  0 0.81910611E+03</rscale>
<asrwt>0</asrwt>
<pdfrwt beam="1">  1        2 0.54214118E-01 0.81910611E+03</pdfrwt>
<pdfrwt beam="2">  1       -2 0.73228685E-01 0.81910611E+03</pdfrwt>
<totfact> 0.15549401E+02</totfact>
</mgrwt>
</event>
<event>
 6    1  0.1637818E-005  0.4147494E+04  0.7818608E-02  0.7975436E-01
         -2   -1    0    0    0  501 -0.00000000000E+00  0.00000000000E+00  0.13130268145E+04  0.13130268145E+04  0.00000000000E+00 0.  1.
          2   -1    0    0  501    0  0.00000000000E+00 -0.00000000000E+00 -0.32752015608E+04  0.32752015608E+04  0.00000000000E+00 0. -1.
         23    2    1    2    0    0 -0.43998882437E+03  0.18439604554E+04 -0.19087983743E+04  0.26917502279E+04  0.90706829327E+02 0.  0.
         13    1    3    3    0    0 -0.22289365634E+03  0.78402479630E+03 -0.78009336487E+03  0.11282385037E+04  0.00000000000E+00 0.  1.
        -13    1    3    3    0    0 -0.21709516804E+03  0.10599356591E+04 -0.11287050095E+04  0.15635117242E+04  0.00000000000E+00 0. -1.
         22    1    1    2    0    0  0.43998882437E+03 -0.18439604554E+04 -0.53376372034E+02  0.18964781474E+04  0.00000000000E+00 0.  1.
<mgrwt>
<rscale>  0 0.41474944E+04</rscale>
<asrwt>0</asrwt>
<pdfrwt beam="1">  1        2 0.50387716E+00 0.41474944E+04</pdfrwt>
<pdfrwt beam="2">  1       -2 0.20200413E+00 0.41474944E+04</pdfrwt>
<totfact> 0.11624731E-01</totfact>
</mgrwt>
</event>
<event>
 6    1  0.1637818E-005  0.1719781E+04  0.7818608E-02  0.8750162E-01
          1   -1    0    0  501    0  0.00000000000E+00  0.00000000000E+00  0.48666627041E+03  0.48666627041E+03  0.00000000000E+00 0. -1.
         -1   -1    0    0    0  501 -0.00000000000E+00 -0.00000000000E+00 -0.15193404056E+04  0.15193404056E+04  0.00000000000E+00 0.  1.
         23    2    1    2    0    0 -0.71388668911E+03  0.19379071854E+03 -0.10234374709E+04  0.12662267334E+04  0.93363997834E+02 0.  0.
         13    1    3    3    0    0 -0.26117629495E+03  0.61573137810E+02 -0.44797826608E+03  0.52219616547E+03  0.00000000000E+00 0.  1.
        -13    1    3    3    0    0 -0.45271039416E+03  0.13221758073E+03 -0.57545920481E+03  0.74403056795E+03  0.00000000000E+00 0. -1.
         22    1    1    2    0    0  0.71388668911E+03 -0.19379071854E+03 -0.92366642869E+01  0.73977994259E+03  0.00000000000E+00 0. -1.
<mgrwt>
<rscale>  0 0.17197811E+04</rscale>
<asrwt>0</asrwt>
<pdfrwt beam="1">  1        1 0.74871735E-01 0.17197811E+04</pdfrwt>
<pdfrwt beam="2">  1       -1 0.23374468E+00 0.17197811E+04</pdfrwt>
<totfact> 0.38965494E+00</totfact>
</mgrwt>
</event>
<event>
 6    1  0.1637818E-005  0.1951257E+04  0.7818608E-02  0.8629755E-01
          1   -1    0    0  501    0  0.00000000000E+00  0.00000000000E+00  0.22747098307E+04  0.22747098307E+04  0.00000000000E+00 0. -1.
         -1   -1    0    0    0  501 -0.00000000000E+00 -0.00000000000E+00 -0.41844935303E+03  0.41844935303E+03  0.00000000000E+00 0.  1.
         23    2    1    2    0    0  0.51095153210E+03  0.27307793165E+03 -0.14948447765E+03  0.60541977215E+03  0.92436283727E+02 0.  0.
         11    1    3    3    0    0  0.39538938499E+03  0.21087630488E+03 -0.15474487319E+03  0.47407547659E+03  0.00000000000E+00 0.  1.
        -11    1    3    3    0    0  0.11556214711E+03  0.62201626766E+02  0.52603955383E+01  0.13134429556E+03  0.00000000000E+00 0. -1.
         22    1    1    2    0    0 -0.51095153210E+03 -0.27307793165E+03  0.20057449553E+04  0.20877394116E+04  0.00000000000E+00 0. -1.
<mgrwt>
<rscale>  0 0.19512569E+04</rscale>
<asrwt>0</asrwt>
<pdfrwt beam="1">  1        1 0.34995535E+00 0.19512569E+04</pdfrwt>
<pdfrwt beam="2">  1       -1 0.64376825E-01 0.19512569E+04</pdfrwt>
<totfact> 0.44156954E+00</totfact>
</mgrwt>
</event>
<event>
 6    1  0.1637818E-005  0.7256111E+03  0.7818608E-02  0.9674409E-01
         -2   -1    0    0    0  501 -0.00000000000E+00  0.00000000000E+00  0.65143216578E+02  0.65143216578E+02  0.00000000000E+00 0.  1.
          2   -1    0    0  501    0  0.00000000000E+00 -0.00000000000E+00 -0.20205923286E+04  0.20205923286E+04  0.00000000000E+00 0. -1.
         23    2    1    2    0    0  0.22270748885E+03  0.27881655214E+03 -0.10389286831E+04  0.11021975479E+04  0.90162801830E+02 0.  0.
         13    1    3    3    0    0  0.10990343213E+02 -0.63989327042E+01 -0.30827725592E+02  0.33347903215E+02  0.00000000000E+00 0.  1.
        -13    1    3    3    0    0  0.21171714563E+03  0.28521548484E+03 -0.10081009575E+04  0.10688496447E+04  0.00000000000E+00 0. -1.
         22    1    1    2    0    0 -0.22270748885E+03 -0.27881655214E+03 -0.91652042898E+03  0.98353799727E+03  0.00000000000E+00 0. -1.
<mgrwt>
<rscale>  0 0.72561115E+03</rscale>
<asrwt>0</asrwt>
<pdfrwt beam="1">  1        2 0.31086037E+00 0.72561115E+03</pdfrwt>
<pdfrwt beam="2">  1       -2 0.10022033E-01 0.72561115E+03</pdfrwt>
<totfact> 0.45657891E+02</totfact>
</mgrwt>
</event>
<event>
 6    1  0.1637818E-005  0.2459693E+04  0.7818608E-02  0.8417487E-01
          1   -1    0    0  501    0  0.00000000000E+00  0.00000000000E+00  0.23834138699E+04  0.23834138699E+04  0.00000000000E+00 0. -1.
         -1   -1    0    0    0  501 -0.00000000000E+00 -0.00000000000E+00 -0.63460331127E+03  0.63460331127E+03  0.00000000000E+00 0.  1.
         23    2    1    2    0    0 -0.20453486222E+03 -0.10935119878E+04  0.23627111560E+03  0.11404180376E+04  0.84417314749E+02 0.  0.
         13    1    3    3    0    0 -0.10617099195E+03 -0.43229967637E+03  0.60767014743E+02  0.44927488223E+03  0.00000000000E+00 0. -1.
        -13    1    3    3    0    0 -0.98363870268E+02 -0.66121231142E+03  0.17550410086E+03  0.69114315534E+03  0.00000000000E+00 0.  1.
         22    1    1    2    0    0  0.20453486222E+03  0.10935119878E+04  0.15125394430E+04  0.18775991436E+04  0.00000000000E+00 0. -1.
<mgrwt>
<rscale>  0 0.24596929E+04</rscale>
<asrwt>0</asrwt>
<pdfrwt beam="1">  1        1 0.36667905E+00 0.24596929E+04</pdfrwt>
<pdfrwt beam="2">  1       -1 0.97631280E-01 0.24596929E+04</pdfrwt>
<totfact> 0.14633630E+00</totfact>
</mgrwt>
</event>
<event>
 6    1  0.1637818E-005  0.3562229E+04  0.7818608E-02  0.8099199E-01
          1   -1    0    0  501    0  0.00000000000E+00  0.00000000000E+00  0.19971029993E+04  0.19971029993E+04  0.00000000000E+00 0. -1.
         -1   -1    0    0    0  501 -0.00000000000E+00 -0.00000000000E+00 -0.15884849483E+04  0.15884849483E+04  0.00000000000E+00 0.  1.
         23    2    1    2    0    0 -0.57142843107E+03 -0.10486346127E+04  0.15331424856E+04  0.19452464568E+04  0.85398441673E+02 0.  0.
         11    1    3    3    0    0 -0.15381779856E+02 -0.54064831987E+02  0.52488216378E+02  0.76906554128E+02  0.00000000000E+00 0.  1.
        -11    1    3    3    0    0 -0.55604665121E+03 -0.99456978069E+03  0.14806542692E+04  0.18683399027E+04  0.00000000000E+00 0. -1.
         22    1    1    2    0    0  0.57142843107E+03  0.10486346127E+04 -0.11245244345E+04  0.16403414909E+04  0.00000000000E+00 0.  1.
<mgrwt>
<rscale>  0 0.35622285E+04</rscale>
<asrwt>0</asrwt>
<pdfrwt beam="1">  1        1 0.30724662E+00 0.35622285E+04</pdfrwt>
<pdfrwt beam="2">  1       -1 0.24438230E+00 0.35622285E+04</pdfrwt>
<totfact> 0.18436572E-01</totfact>
</mgrwt>
</event>
<event>
 6    1  0.1637818E-005  0.2253592E+04  0.7818608E-02  0.8496447E-01
         -1   -1    0    0    0  501 -0.00000000000E+00  0.00000000000E+00  0.50678620241E+03  0.50678620241E+03  0.00000000000E+00 0.  1.
          1   -1    0    0  501    0  0.00000000000E+00 -0.00000000000E+00 -0.25053343938E+04  0.25053343938E+04  0.00000000000E+00 0. -1.
         23    2    1    2    0    0  0.18184950402E+03  0.87505546109E+03 -0.87196693970E+02  0.90213105860E+03  0.86289520546E+02 0.  0.
         13    1    3    3    0    0  0.15662994116E+03  0.57413391077E+03 -0.75979376438E+02  0.59994629060E+03  0.00000000000E+00 0.  1.
        -13    1    3    3    0    0  0.25219562867E+02  0.30092155032E+03 -0.11217317532E+02  0.30218476800E+03  0.00000000000E+00 0. -1.
         22    1    1    2    0    0 -0.18184950402E+03 -0.87505546109E+03 -0.19113514974E+04  0.21099895376E+04  0.00000000000E+00 0. -1.
<mgrwt>
<rscale>  0 0.22535917E+04</rscale>
<asrwt>0</asrwt>
<pdfrwt beam="1">  1        1 0.38543606E+00 0.22535917E+04</pdfrwt>
<pdfrwt beam="2">  1       -1 0.77967108E-01 0.22535917E+04</pdfrwt>
<totfact> 0.20083192E+00</totfact>
</mgrwt>
</event>
<event>
 6    1  0.1637818E-005  0.3550219E+04  0.7818608E-02  0.8101991E-01
         -2   -1    0    0    0  501 -0.00000000000E+00  0.00000000000E+00  0.10646302201E+04  0.10646302201E+04  0.00000000000E+00 0.  1.
          2   -1    0    0  501    0  0.00000000000E+00 -0.00000000000E+00 -0.29597263794E+04  0.29597263794E+04  0.00000000000E+00 0. -1.
         23    2    1    2    0    0 -0.36476179179E+03  0.69606272929E+03  0.85466105053E+03  0.11645105896E+04  0.89916149979E+02 0.  0.
         11    1    3    3    0    0 -0.23442597396E+02  0.10907370055E+03  0.10803499226E+03  0.15530031255E+03  0.00000000000E+00 0. -1.
        -11    1    3    3    0    0 -0.34131919439E+03  0.58698902874E+03  0.74662605828E+03  0.10092102770E+04  0.00000000000E+00 0.  1.
         22    1    1    2    0    0  0.36476179179E+03 -0.69606272929E+03 -0.27497572098E+04  0.28598460100E+04  0.00000000000E+00 0. -1.
<mgrwt>
<rscale>  0 0.35502192E+04</rscale>
<asrwt>0</asrwt>
<pdfrwt beam="1">  1        2 0.45534252E+00 0.35502192E+04</pdfrwt>
<pdfrwt beam="2">  1       -2 0.16378927E+00 0.35502192E+04</pdfrwt>
<totfact> 0.35649789E-01</totfact>
</mgrwt>
</event>
<event>
 6    1  0.1637818E-005  0.2231997E+04  0.7818608E-02  0.8505227E-01
         -2   -1    0    0    0  501 -0.00000000000E+00  0.00000000000E+00  0.87379907801E+03  0.87379907801E+03  0.00000000000E+00 0.  1.
          2   -1    0    0  501    0  0.00000000000E+00 -0.00000000000E+00 -0.14253307118E+04  0.14253307118E+04  0.00000000000E+00 0. -1.
         23    2    1    2    0    0  0.57583209944E+03  0.94442468752E+03 -0.41368571490E+03  0.11844450386E+04  0.90849224930E+02 0.  0.
         13    1    3    3    0    0  0.36535793134E+03  0.52176352812E+03 -0.21641901791E+03  0.67272638463E+03  0.00000000000E+00 0.  1.
        -13    1    3    3    0    0  0.21047416810E+03  0.42266115940E+03 -0.19726669699E+03  0.51171865399E+03  0.00000000000E+00 0. -1.
         22    1    1    2    0    0 -0.57583209944E+03 -0.94442468752E+03 -0.13784591887E+03  0.11146847512E+04  0.00000000000E+00 0. -1.
<mgrwt>
<rscale>  0 0.22319970E+04</rscale>
<asrwt>0</asrwt>
<pdfrwt beam="1">  1        2 0.21928164E+00 0.22319970E+04</pdfrwt>
<pdfrwt beam="2">  1       -2 0.13443063E+00 0.22319970E+04</pdfrwt>
<totfact> 0.50893365E+00</totfact>
</mgrwt>
</event>
<event>
 6    1  0.1637818E-005  0.1166243E+04  0.7818608E-02  0.9142928E-01
          1   -1    0    0  501    0  0.00000000000E+00  0.00000000000E+00  0.34771041249E+04  0.34771041249E+04  0.00000000000E+00 0. -1.
         -1   -1    0    0    0  501 -0.00000000000E+00 -0.00000000000E+00 -0.97791298057E+02  0.97791298057E+02  0.00000000000E+00 0.  1.
         23    2    1    2    0    0 -0.51816012613E+03 -0.20493915321E+03  0.21879972595E+04  0.22597061765E+04  0.91924012113E+02 0.  0.
         13    1    3    3    0    0 -0.21213167911E+03 -0.57019508006E+02  0.10124478797E+04  0.10360027909E+04  0.00000000000E+00 0. -1.
        -13    1    3    3    0    0 -0.30602844702E+03 -0.14791964520E+03  0.11755493798E+04  0.12237033857E+04  0.00000000000E+00 0.  1.
         22    1    1    2    0    0  0.51816012613E+03  0.20493915321E+03  0.11913155673E+04  0.13151892464E+04  0.00000000000E+00 0.  1.
<mgrwt>
<rscale>  0 0.11662427E+04</rscale>
<asrwt>0</asrwt>
<pdfrwt beam="1">  1        1 0.53493900E+00 0.11662427E+04</pdfrwt>
<pdfrwt beam="2">  1       -1 0.15044818E-01 0.11662427E+04</pdfrwt>
<totfact> 0.86655037E+00</totfact>
</mgrwt>
</event>
<event>
 6    1  0.1637818E-005  0.2965306E+04  0.7818608E-02  0.8253708E-01
          1   -1    0    0  501    0  0.00000000000E+00  0.00000000000E+00  0.85486888733E+03  0.85486888733E+03  0.00000000000E+00 0. -1.
         -1   -1    0    0    0  501 -0.00000000000E+00 -0.00000000000E+00 -0.25714592963E+04  0.25714592963E+04  0.00000000000E+00 0.  1.
         23    2    1    2    0    0 -0.49778489464E+03 -0.14318210792E+03 -0.24625840339E+04  0.25181446086E+04  0.91876159822E+02 0.  0.
         11    1    3    3    0    0 -0.62728787676E+02 -0.47243442318E+01 -0.18966166473E+03  0.19982183890E+03  0.00000000000E+00 0. -1.
        -11    1    3    3    0    0 -0.43505610697E+03 -0.13845776369E+03 -0.22729223692E+04  0.23183227697E+04  0.00000000000E+00 0.  1.
         22    1    1    2    0    0  0.49778489464E+03  0.14318210792E+03  0.74599362495E+03  0.90818357496E+03  0.00000000000E+00 0. -1.
<mgrwt>
<rscale>  0 0.29653064E+04</rscale>
<asrwt>0</asrwt>
<pdfrwt beam="1">  1        1 0.13151829E+00 0.29653064E+04</pdfrwt>
<pdfrwt beam="2">  1       -1 0.39560912E+00 0.29653064E+04</pdfrwt>
<totfact> 0.12972736E-01</totfact>
</mgrwt>
</event>
<event>
 6    1  0.1637818E-005  0.1795484E+04  0.7818608E-02  0.8708705E-01
         -1   -1    0    0    0  501 -0.00000000000E+00  0.00000000000E+00  0.96241650258E+03  0.96241650258E+03  0.00000000000E+00 0.  1.
          1   -1    0    0  501    0  0.00000000000E+00 -0.00000000000E+00 -0.83741324670E+03  0.83741324670E+03  0.00000000000E+00 0. -1.
         23    2    1    2    0    0  0.78042787729E+03  0.96871009354E+02 -0.36665325530E+03  0.87237204723E+03  0.90259155002E+02 0.  0.
         13    1    3    3    0    0  0.70241884932E+03  0.10894093041E+03 -0.31149629873E+03  0.77607365006E+03  0.00000000000E+00 0.  1.
        -13    1    3    3    0    0  0.78009027969E+02 -0.12069921054E+02 -0.55156956568E+02  0.96298397166E+02  0.00000000000E+00 0. -1.
         22    1    1    2    0    0 -0.78042787729E+03 -0.96871009354E+02  0.49165651117E+03  0.92745770205E+03  0.00000000000E+00 0.  1.
<mgrwt>
<rscale>  0 0.17954836E+04</rscale>
<asrwt>0</asrwt>
<pdfrwt beam="1">  1        1 0.12883281E+00 0.17954836E+04</pdfrwt>
<pdfrwt beam="2">  1       -1 0.14806408E+00 0.17954836E+04</pdfrwt>
<totfact> 0.70016641E+00</totfact>
</mgrwt>
</event>
<event>
 6    1  0.1637818E-005  0.2355459E+04  0.7818608E-02  0.8456370E-01
          2   -1    0    0  501    0  0.00000000000E+00  0.00000000000E+00  0.24810671913E+04  0.24810671913E+04  0.00000000000E+00 0.  1.
         -2   -1    0    0    0  501 -0.00000000000E+00 -0.00000000000E+00 -0.55905259122E+03  0.55905259122E+03  0.00000000000E+00 0. -1.
         23    2    1    2    0    0  0.42442652235E+03 -0.44650540770E+03 -0.33034776311E+03  0.70503066921E+03  0.91834895084E+02 0.  0.
         13    1    3    3    0    0  0.17945643962E+03 -0.12538708253E+03 -0.11252339367E+03  0.24614639609E+03  0.00000000000E+00 0.  1.
        -13    1    3    3    0    0  0.24497008273E+03 -0.32111832516E+03 -0.21782436944E+03  0.45888427311E+03  0.00000000000E+00 0. -1.
         22    1    1    2    0    0 -0.42442652235E+03  0.44650540770E+03  0.22523623632E+04  0.23350891133E+04  0.00000000000E+00 0.  1.
<mgrwt>
<rscale>  0 0.23554592E+04</rscale>
<asrwt>0</asrwt>
<pdfrwt beam="1">  1        2 0.38170264E+00 0.23554592E+04</pdfrwt>
<pdfrwt beam="2">  1       -2 0.86008093E-01 0.23554592E+04</pdfrwt>
<totfact> 0.37789681E+00</totfact>
</mgrwt>
</event>
<event>
 6    1  0.1637818E-005  0.2471688E+04  0.7818608E-02  0.8413142E-01
         -2   -1    0    0    0  501 -0.00000000000E+00  0.00000000000E+00  0.11952828118E+04  0.11952828118E+04  0.00000000000E+00 0.  1.
          2   -1    0    0  501    0  0.00000000000E+00 -0.00000000000E+00 -0.12777820075E+04  0.12777820075E+04  0.00000000000E+00 0. -1.
         23    2    1    2    0    0  0.35509939360E+03 -0.46270563288E+03  0.10469370491E+04  0.12019163963E+04  0.91289412363E+02 0.  0.
         11    1    3    3    0    0  0.21328843112E+03 -0.24454400482E+03  0.66251540615E+03  0.73771294453E+03  0.00000000000E+00 0. -1.
        -11    1    3    3    0    0  0.14181096248E+03 -0.21816162806E+03  0.38442164296E+03  0.46420345175E+03  0.00000000000E+00 0.  1.
         22    1    1    2    0    0 -0.35509939360E+03  0.46270563288E+03 -0.11294362449E+04  0.12711484230E+04  0.00000000000E+00 0. -1.
<mgrwt>
<rscale>  0 0.24716884E+04</rscale>
<asrwt>0</asrwt>
<pdfrwt beam="1">  1        2 0.19658185E+00 0.24716884E+04</pdfrwt>
<pdfrwt beam="2">  1       -2 0.18388967E+00 0.24716884E+04</pdfrwt>
<totfact> 0.25964355E+00</totfact>
</mgrwt>
</event>
<event>
 6    1  0.1637818E-005  0.1163983E+04  0.7818608E-02  0.9144980E-01
         -2   -1    0    0    0  501 -0.00000000000E+00  0.00000000000E+00  0.11544110185E+03  0.11544110185E+03  0.00000000000E+00 0.  1.
          2   -1    0    0  501    0  0.00000000000E+00 -0.00000000000E+00 -0.29340843829E+04  0.29340843829E+04  0.00000000000E+00 0. -1.
         23    2    1    2    0    0 -0.27449230944E+03  0.39739759067E+03 -0.59251486701E+03  0.77160569054E+03  0.10502666820E+03 0.  0.
         13    1    3    3    0    0 -0.21782667632E+03  0.26511665787E+03 -0.47411181347E+03  0.58524978844E+03  0.00000000000E+00 0.  1.
        -13    1    3    3    0    0 -0.56665633127E+02  0.13228093281E+03 -0.11840305354E+03  0.18635590210E+03  0.00000000000E+00 0. -1.
         22    1    1    2    0    0  0.27449230944E+03 -0.39739759067E+03 -0.22261284140E+04  0.22779197942E+04  0.00000000000E+00 0. -1.
<mgrwt>
<rscale>  0 0.11639827E+04</rscale>
<asrwt>0</asrwt>
<pdfrwt beam="1">  1        2 0.45139753E+00 0.11639827E+04</pdfrwt>
<pdfrwt beam="2">  1       -2 0.17760172E-01 0.11639827E+04</pdfrwt>
<totfact> 0.50509831E+01</totfact>
</mgrwt>
</event>
<event>
 6    1  0.1637818E-005  0.4335921E+04  0.7818608E-02  0.7940009E-01
          1   -1    0    0  501    0  0.00000000000E+00  0.00000000000E+00  0.35794781611E+04  0.35794781611E+04  0.00000000000E+00 0. -1.
         -1   -1    0    0    0  501 -0.00000000000E+00 -0.00000000000E+00 -0.13130553656E+04  0.13130553656E+04  0.00000000000E+00 0.  1.
         23    2    1    2    0    0 -0.48332885738E+03 -0.17048653299E+04 -0.27366637334E+03  0.17954016982E+04  0.91659130673E+02 0.  0.
         13    1    3    3    0    0 -0.68135103724E+02 -0.36321073893E+03 -0.73400554596E+02  0.37676527792E+03  0.00000000000E+00 0.  1.
        -13    1    3    3    0    0 -0.41519375365E+03 -0.13416545910E+04 -0.20026581874E+03  0.14186364202E+04  0.00000000000E+00 0. -1.
         22    1    1    2    0    0  0.48332885738E+03  0.17048653299E+04  0.25400891688E+04  0.30971318285E+04  0.00000000000E+00 0. -1.
<mgrwt>
<rscale>  0 0.43359211E+04</rscale>
<asrwt>0</asrwt>
<pdfrwt beam="1">  1        1 0.55068894E+00 0.43359211E+04</pdfrwt>
<pdfrwt beam="2">  1       -1 0.20200852E+00 0.43359211E+04</pdfrwt>
<totfact> 0.23945629E-02</totfact>
</mgrwt>
</event>
<event>
 6    1  0.1637818E-005  0.1933929E+04  0.7818608E-02  0.8638149E-01
         -1   -1    0    0    0  501 -0.00000000000E+00  0.00000000000E+00  0.83374190704E+03  0.83374190704E+03  0.00000000000E+00 0.  1.
          1   -1    0    0  501    0  0.00000000000E+00 -0.00000000000E+00 -0.11214750011E+04  0.11214750011E+04  0.00000000000E+00 0. -1.
         23    2    1    2    0    0 -0.29870596834E+03  0.78909068527E+03 -0.61700316046E+03  0.10495082675E+04  0.94262073328E+02 0.  0.
         13    1    3    3    0    0 -0.23964520000E+03  0.59425023850E+03 -0.41953357601E+03  0.76587961798E+03  0.00000000000E+00 0. -1.
        -13    1    3    3    0    0 -0.59060768341E+02  0.19484044677E+03 -0.19746958445E+03  0.28362864953E+03  0.00000000000E+00 0.  1.
         22    1    1    2    0    0  0.29870596834E+03 -0.78909068527E+03  0.32927006639E+03  0.90570864063E+03  0.00000000000E+00 0.  1.
<mgrwt>
<rscale>  0 0.19339294E+04</rscale>
<asrwt>0</asrwt>
<pdfrwt beam="1">  1        1 0.17253462E+00 0.19339294E+04</pdfrwt>
<pdfrwt beam="2">  1       -1 0.12826799E+00 0.19339294E+04</pdfrwt>
<totfact> 0.59794099E+00</totfact>
</mgrwt>
</event>
<event>
 6    1  0.1637818E-005  0.2565580E+04  0.7818608E-02  0.8379988E-01
          1   -1    0    0  501    0  0.00000000000E+00  0.00000000000E+00  0.11648265009E+04  0.11648265009E+04  0.00000000000E+00 0. -1.
         -1   -1    0    0    0  501 -0.00000000000E+00 -0.00000000000E+00 -0.14126995215E+04  0.14126995215E+04  0.00000000000E+00 0.  1.
         23    2    1    2    0    0  0.10121800554E+04  0.11825433232E+03  0.65609559801E+03  0.12153029074E+04  0.89482799164E+02 0.  0.
         13    1    3    3    0    0  0.59576546912E+03  0.77544666162E+02  0.33486479252E+03  0.68781109232E+03  0.00000000000E+00 0.  1.
        -13    1    3    3    0    0  0.41641458631E+03  0.40709666162E+02  0.32123080549E+03  0.52749181511E+03  0.00000000000E+00 0. -1.
         22    1    1    2    0    0 -0.10121800554E+04 -0.11825433232E+03 -0.90396861858E+03  0.13622231150E+04  0.00000000000E+00 0. -1.
<mgrwt>
<rscale>  0 0.25655797E+04</rscale>
<asrwt>0</asrwt>
<pdfrwt beam="1">  1        1 0.17920408E+00 0.25655797E+04</pdfrwt>
<pdfrwt beam="2">  1       -1 0.21733839E+00 0.25655797E+04</pdfrwt>
<totfact> 0.11489296E+00</totfact>
</mgrwt>
</event>
<event>
 6    1  0.1637818E-005  0.1103604E+04  0.7818608E-02  0.9201686E-01
          1   -1    0    0  501    0  0.00000000000E+00  0.00000000000E+00  0.25439294496E+04  0.25439294496E+04  0.00000000000E+00 0. -1.
         -1   -1    0    0    0  501 -0.00000000000E+00 -0.00000000000E+00 -0.11969098543E+03  0.11969098543E+03  0.00000000000E+00 0.  1.
         23    2    1    2    0    0  0.18902009638E+03  0.89281921912E+02  0.24429990654E+04  0.24537351840E+04  0.94191621769E+02 0.  0.
         13    1    3    3    0    0  0.79124664058E+02  0.85492612198E+02  0.10635635887E+04  0.10699239255E+04  0.00000000000E+00 0.  1.
        -13    1    3    3    0    0  0.10989543233E+03  0.37893097145E+01  0.13794354767E+04  0.13838112586E+04  0.00000000000E+00 0. -1.
         22    1    1    2    0    0 -0.18902009638E+03 -0.89281921912E+02 -0.18760601210E+02  0.20988525097E+03  0.00000000000E+00 0.  1.
<mgrwt>
<rscale>  0 0.11036040E+04</rscale>
<asrwt>0</asrwt>
<pdfrwt beam="1">  1        1 0.39137372E+00 0.11036040E+04</pdfrwt>
<pdfrwt beam="2">  1       -1 0.18414000E-01 0.11036040E+04</pdfrwt>
<totfact> 0.29815831E+01</totfact>
</mgrwt>
</event>
<event>
 6    1  0.1637818E-005  0.3562255E+04  0.7818608E-02  0.8099193E-01
          2   -1    0    0  501    0  0.00000000000E+00  0.00000000000E+00  0.15633741075E+04  0.15633741075E+04  0.00000000000E+00 0. -1.
         -2   -1    0    0    0  501 -0.00000000000E+00 -0.00000000000E+00 -0.20292103204E+04  0.20292103204E+04  0.00000000000E+00 0.  1.
         23    2    1    2    0    0  0.12970847340E+04 -0.53818185252E+03  0.86997648933E+03  0.16544244528E+04  0.90513338660E+02 0.  0.
         13    1    3    3    0    0  0.52389433012E+03 -0.17516749176E+03  0.31725841500E+03  0.63702576179E+03  0.00000000000E+00 0.  1.
        -13    1    3    3    0    0  0.77319040393E+03 -0.36301436076E+03  0.55271807433E+03  0.10173986910E+04  0.00000000000E+00 0. -1.
         22    1    1    2    0    0 -0.12970847340E+04  0.53818185252E+03 -0.13358127022E+04  0.19381599751E+04  0.00000000000E+00 0.  1.
<mgrwt>
<rscale>  0 0.35622548E+04</rscale>
<asrwt>0</asrwt>
<pdfrwt beam="1">  1        2 0.24051909E+00 0.35622548E+04</pdfrwt>
<pdfrwt beam="2">  1       -2 0.31218620E+00 0.35622548E+04</pdfrwt>
<totfact> 0.25569371E-01</totfact>
</mgrwt>
</event>
<event>
 6    1  0.1637818E-005  0.1779384E+04  0.7818608E-02  0.8717340E-01
          1   -1    0    0  501    0  0.00000000000E+00  0.00000000000E+00  0.18602926643E+04  0.18602926643E+04  0.00000000000E+00 0. -1.
         -1   -1    0    0    0  501 -0.00000000000E+00 -0.00000000000E+00 -0.42549839448E+03  0.42549839448E+03  0.00000000000E+00 0.  1.
         23    2    1    2    0    0  0.57966440992E+03 -0.88849822034E+02 -0.13669214010E+03  0.60844951468E+03  0.87298062698E+02 0.  0.
         11    1    3    3    0    0  0.42896843586E+03 -0.45210715972E+02 -0.65974880202E+02  0.43636064514E+03  0.00000000000E+00 0.  1.
        -11    1    3    3    0    0  0.15069597405E+03 -0.43639106063E+02 -0.70717259897E+02  0.17208886954E+03  0.00000000000E+00 0. -1.
         22    1    1    2    0    0 -0.57966440992E+03  0.88849822034E+02  0.15714864099E+04  0.16773415441E+04  0.00000000000E+00 0. -1.
<mgrwt>
<rscale>  0 0.17793836E+04</rscale>
<asrwt>0</asrwt>
<pdfrwt beam="1">  1        1 0.28619887E+00 0.17793836E+04</pdfrwt>
<pdfrwt beam="2">  1       -1 0.65461293E-01 0.17793836E+04</pdfrwt>
<totfact> 0.82900123E+00</totfact>
</mgrwt>
</event>
<event>
 6    1  0.1637818E-005  0.1737626E+04  0.7818608E-02  0.8740191E-01
          1   -1    0    0  501    0  0.00000000000E+00  0.00000000000E+00  0.13791389677E+04  0.13791389677E+04  0.00000000000E+00 0. -1.
         -1   -1    0    0    0  501 -0.00000000000E+00 -0.00000000000E+00 -0.54732392058E+03  0.54732392058E+03  0.00000000000E+00 0.  1.
         23    2    1    2    0    0 -0.39878910463E+03  0.23998713555E+02 -0.43531507147E+03  0.59784427269E+03  0.91158514209E+02 0.  0.
         11    1    3    3    0    0 -0.33535940820E+03  0.45812214575E+02 -0.32823285420E+03  0.47148859822E+03  0.00000000000E+00 0. -1.
        -11    1    3    3    0    0 -0.63429696438E+02 -0.21813501020E+02 -0.10708221727E+03  0.12635567447E+03  0.00000000000E+00 0.  1.
         22    1    1    2    0    0  0.39878910463E+03 -0.23998713555E+02  0.12671301186E+04  0.13286186156E+04  0.00000000000E+00 0. -1.
<mgrwt>
<rscale>  0 0.17376257E+04</rscale>
<asrwt>0</asrwt>
<pdfrwt beam="1">  1        1 0.21217522E+00 0.17376257E+04</pdfrwt>
<pdfrwt beam="2">  1       -1 0.84203681E-01 0.17376257E+04</pdfrwt>
<totfact> 0.10534255E+01</totfact>
</mgrwt>
</event>
<event>
 6    1  0.1637818E-005  0.1733890E+04  0.7818608E-02  0.8742268E-01
          2   -1    0    0  501    0  0.00000000000E+00  0.00000000000E+00  0.18456201690E+04  0.18456201690E+04  0.00000000000E+00 0. -1.
         -2   -1    0    0    0  501 -0.00000000000E+00 -0.00000000000E+00 -0.40723097062E+03  0.40723097062E+03  0.00000000000E+00 0.  1.
         23    2    1    2    0    0  0.70374357695E+03  0.26014179502E+03  0.12799801669E+04  0.14860250858E+04  0.83621482921E+02 0.  0.
         11    1    3    3    0    0  0.42410099422E+03  0.11717211262E+03  0.78179743799E+03  0.89710545161E+03  0.00000000000E+00 0.  1.
        -11    1    3    3    0    0  0.27964258273E+03  0.14296968240E+03  0.49818272889E+03  0.58891963418E+03  0.00000000000E+00 0. -1.
         22    1    1    2    0    0 -0.70374357695E+03 -0.26014179502E+03  0.15840903155E+03  0.76682605387E+03  0.00000000000E+00 0.  1.
<mgrwt>
<rscale>  0 0.17338901E+04</rscale>
<asrwt>0</asrwt>
<pdfrwt beam="1">  1        2 0.28394156E+00 0.17338901E+04</pdfrwt>
<pdfrwt beam="2">  1       -2 0.62650919E-01 0.17338901E+04</pdfrwt>
<totfact> 0.18248671E+01</totfact>
</mgrwt>
</event>
<event>
 6    1  0.1637818E-005  0.4403673E+03  0.7818608E-02  0.1030634E+00
          2   -1    0    0  501    0  0.00000000000E+00  0.00000000000E+00  0.12358690840E+04  0.12358690840E+04  0.00000000000E+00 0. -1.
         -2   -1    0    0    0  501 -0.00000000000E+00 -0.00000000000E+00 -0.39228131724E+02  0.39228131724E+02  0.00000000000E+00 0.  1.
         23    2    1    2    0    0  0.13184189090E+03 -0.12972715811E+03  0.33202957446E+03  0.39092288088E+03  0.91463876660E+02 0.  0.
         13    1    3    3    0    0  0.76852924016E+02 -0.12991283678E+03  0.25396557562E+03  0.29543566252E+03  0.00000000000E+00 0. -1.
        -13    1    3    3    0    0  0.54988966880E+02  0.18567866788E+00  0.78063998843E+02  0.95487218362E+02  0.00000000000E+00 0.  1.
         22    1    1    2    0    0 -0.13184189090E+03  0.12972715811E+03  0.86461137779E+03  0.88417433482E+03  0.00000000000E+00 0. -1.
<mgrwt>
<rscale>  0 0.44036728E+03</rscale>
<asrwt>0</asrwt>
<pdfrwt beam="1">  1        2 0.19013368E+00 0.44036728E+03</pdfrwt>
<pdfrwt beam="2">  1       -2 0.60350981E-02 0.44036728E+03</pdfrwt>
<totfact> 0.27992202E+03</totfact>
</mgrwt>
</event>
<event>
 6    1  0.1637818E-005  0.1713616E+04  0.7818608E-02  0.8753637E-01
          1   -1    0    0  501    0  0.00000000000E+00  0.00000000000E+00  0.70964258957E+03  0.70964258957E+03  0.00000000000E+00 0. -1.
         -1   -1    0    0    0  501 -0.00000000000E+00 -0.00000000000E+00 -0.10344925147E+04  0.10344925147E+04  0.00000000000E+00 0.  1.
         23    2    1    2    0    0 -0.34913723506E+03  0.55423877024E+03  0.39526418425E+03  0.77066617624E+03  0.92817867390E+02 0.  0.
         11    1    3    3    0    0 -0.29718877859E+03  0.46050596038E+03  0.36776418169E+03  0.66002833499E+03  0.00000000000E+00 0. -1.
        -11    1    3    3    0    0 -0.51948456469E+02  0.93732809862E+02  0.27500002559E+02  0.11063784124E+03  0.00000000000E+00 0.  1.
         22    1    1    2    0    0  0.34913723506E+03 -0.55423877024E+03 -0.72011410940E+03  0.97346892806E+03  0.00000000000E+00 0.  1.
<mgrwt>
<rscale>  0 0.17136160E+04</rscale>
<asrwt>0</asrwt>
<pdfrwt beam="1">  1        1 0.10917578E+00 0.17136160E+04</pdfrwt>
<pdfrwt beam="2">  1       -1 0.15915269E+00 0.17136160E+04</pdfrwt>
<totfact> 0.75221764E+00</totfact>
</mgrwt>
</event>
<event>
 6    1  0.1637818E-005  0.3352737E+04  0.7818608E-02  0.8149605E-01
         -2   -1    0    0    0  501 -0.00000000000E+00  0.00000000000E+00  0.17701542989E+04  0.17701542989E+04  0.00000000000E+00 0.  1.
          2   -1    0    0  501    0  0.00000000000E+00 -0.00000000000E+00 -0.15875519451E+04  0.15875519451E+04  0.00000000000E+00 0. -1.
         23    2    1    2    0    0  0.14347773888E+03 -0.16328577051E+04  0.43821086125E+03  0.16987469752E+04  0.83080563006E+02 0.  0.
         11    1    3    3    0    0  0.33146335097E+01 -0.46287962538E+03  0.12716685650E+03  0.48004160630E+03  0.00000000000E+00 0. -1.
        -11    1    3    3    0    0  0.14016310537E+03 -0.11699780797E+04  0.31104400476E+03  0.12187053689E+04  0.00000000000E+00 0.  1.
         22    1    1    2    0    0 -0.14347773888E+03  0.16328577051E+04 -0.25560850741E+03  0.16589592689E+04  0.00000000000E+00 0. -1.
<mgrwt>
<rscale>  0 0.33527373E+04</rscale>
<asrwt>0</asrwt>
<pdfrwt beam="1">  1        2 0.24423876E+00 0.33527373E+04</pdfrwt>
<pdfrwt beam="2">  1       -2 0.27233143E+00 0.33527373E+04</pdfrwt>
<totfact> 0.44203444E-01</totfact>
</mgrwt>
</event>
<event>
 6    1  0.1637818E-005  0.1150476E+04  0.7818608E-02  0.9157345E-01
         -2   -1    0    0    0  501 -0.00000000000E+00  0.00000000000E+00  0.31434431786E+03  0.31434431786E+03  0.00000000000E+00 0.  1.
          2   -1    0    0  501    0  0.00000000000E+00 -0.00000000000E+00 -0.10526632317E+04  0.10526632317E+04  0.00000000000E+00 0. -1.
         23    2    1    2    0    0  0.48054464096E+03 -0.19667178789E+03 -0.87435722372E+02  0.53439006652E+03  0.91240306563E+02 0.  0.
         13    1    3    3    0    0  0.44218361092E+03 -0.15793584265E+03 -0.95856736428E+02  0.47922707569E+03  0.00000000000E+00 0. -1.
        -13    1    3    3    0    0  0.38361030047E+02 -0.38735945238E+02  0.84210140564E+01  0.55162990832E+02  0.00000000000E+00 0.  1.
         22    1    1    2    0    0 -0.48054464096E+03  0.19667178789E+03 -0.65088319147E+03  0.83261748303E+03  0.00000000000E+00 0. -1.
<mgrwt>
<rscale>  0 0.11504759E+04</rscale>
<asrwt>0</asrwt>
<pdfrwt beam="1">  1        2 0.16194819E+00 0.11504759E+04</pdfrwt>
<pdfrwt beam="2">  1       -2 0.48360664E-01 0.11504759E+04</pdfrwt>
<totfact> 0.93453998E+01</totfact>
</mgrwt>
</event>
<event>
 6    1  0.1637818E-005  0.3103912E+04  0.7818608E-02  0.8214665E-01
          2   -1    0    0  501    0  0.00000000000E+00  0.00000000000E+00  0.18094379896E+04  0.18094379896E+04  0.00000000000E+00 0.  1.
         -2   -1    0    0    0  501 -0.00000000000E+00 -0.00000000000E+00 -0.13311136695E+04  0.13311136695E+04  0.00000000000E+00 0. -1.
         23    2    1    2    0    0 -0.10638173393E+04 -0.66802449394E+03 -0.68139618154E+03  0.14308979814E+04  0.72140287605E+02 0.  0.
         11    1    3    3    0    0 -0.79018310554E+03 -0.50527998970E+03 -0.54280885094E+03  0.10836690717E+04  0.00000000000E+00 0.  1.
        -11    1    3    3    0    0 -0.27363423378E+03 -0.16274450424E+03 -0.13858733059E+03  0.34722890973E+03  0.00000000000E+00 0. -1.
         22    1    1    2    0    0  0.10638173393E+04  0.66802449394E+03  0.11597205016E+04  0.17096536777E+04  0.00000000000E+00 0.  1.
<mgrwt>
<rscale>  0 0.31039121E+04</rscale>
<asrwt>0</asrwt>
<pdfrwt beam="1">  1        2 0.27837508E+00 0.31039121E+04</pdfrwt>
<pdfrwt beam="2">  1       -2 0.20478672E+00 0.31039121E+04</pdfrwt>
<totfact> 0.89555436E-01</totfact>
</mgrwt>
</event>
<event>
 6    1  0.2194108E-005  0.3661041E+04  0.7818608E-02  0.8076651E-01
         -1   -1    0    0    0  501 -0.00000000000E+00  0.00000000000E+00  0.18561513570E+04  0.18561513570E+04  0.00000000000E+00 0.  1.
          1   -1    0    0  501    0  0.00000000000E+00 -0.00000000000E+00 -0.18052434880E+04  0.18052434880E+04  0.00000000000E+00 0. -1.
         23    2    1    2    0    0  0.57618381408E+03  0.66109572941E+03 -0.15801817637E+04  0.18095069594E+04  0.91135497050E+02 0.  0.
         13    1    3    3    0    0  0.90802661759E+02  0.16036464159E+03 -0.33392677648E+03  0.38140402948E+03  0.00000000000E+00 0.  1.
        -13    1    3    3    0    0  0.48538115232E+03  0.50073108781E+03 -0.12462549872E+04  0.14281029299E+04  0.00000000000E+00 0. -1.
         22    1    1    2    0    0 -0.57618381408E+03 -0.66109572941E+03  0.16310896327E+04  0.18518878856E+04  0.00000000000E+00 0.  1.
<mgrwt>
<rscale>  0 0.36610409E+04</rscale>
<asrwt>0</asrwt>
<pdfrwt beam="1">  1        1 0.27772977E+00 0.36610409E+04</pdfrwt>
<pdfrwt beam="2">  1       -1 0.28556175E+00 0.36610409E+04</pdfrwt>
<totfact> 0.13323698E-01</totfact>
</mgrwt>
</event>
<event>
 6    1  0.1637818E-005  0.2096195E+04  0.7818608E-02  0.8562921E-01
          2   -1    0    0  501    0  0.00000000000E+00  0.00000000000E+00  0.21105894397E+04  0.21105894397E+04  0.00000000000E+00 0.  1.
         -2   -1    0    0    0  501 -0.00000000000E+00 -0.00000000000E+00 -0.52047454102E+03  0.52047454102E+03  0.00000000000E+00 0. -1.
         23    2    1    2    0    0  0.88316788217E+03  0.57716381036E+01  0.14999323893E+04  0.17432848951E+04  0.96053283207E+02 0.  0.
         11    1    3    3    0    0  0.45213867364E+03  0.50833415615E+02  0.76115601070E+03  0.88677612111E+03  0.00000000000E+00 0.  1.
        -11    1    3    3    0    0  0.43102920852E+03 -0.45061777511E+02  0.73877637855E+03  0.85650877398E+03  0.00000000000E+00 0. -1.
         22    1    1    2    0    0 -0.88316788217E+03 -0.57716381036E+01  0.90182509432E+02  0.88777908564E+03  0.00000000000E+00 0. -1.
<mgrwt>
<rscale>  0 0.20961947E+04</rscale>
<asrwt>0</asrwt>
<pdfrwt beam="1">  1        2 0.32470606E+00 0.20961947E+04</pdfrwt>
<pdfrwt beam="2">  1       -2 0.80073008E-01 0.20961947E+04</pdfrwt>
<totfact> 0.73700956E+00</totfact>
</mgrwt>
</event>
<event>
 6    1  0.1637818E-005  0.1129858E+04  0.7818608E-02  0.9176569E-01
         -2   -1    0    0    0  501 -0.00000000000E+00  0.00000000000E+00  0.27997329453E+03  0.27997329453E+03  0.00000000000E+00 0.  1.
          2   -1    0    0  501    0  0.00000000000E+00 -0.00000000000E+00 -0.11399124084E+04  0.11399124084E+04  0.00000000000E+00 0. -1.
         23    2    1    2    0    0  0.18150904781E+02 -0.44477674221E+03 -0.65484416991E+01  0.45737261466E+03  0.10483806942E+03 0.  0.
         11    1    3    3    0    0  0.50286507099E+02 -0.39034355679E+03  0.20821159191E+01  0.39357484718E+03  0.00000000000E+00 0.  1.
        -11    1    3    3    0    0 -0.32135602318E+02 -0.54433185419E+02 -0.86305576182E+01  0.63797767484E+02  0.00000000000E+00 0. -1.
         22    1    1    2    0    0 -0.18150904781E+02  0.44477674221E+03 -0.85339067219E+03  0.96251308830E+03  0.00000000000E+00 0. -1.
<mgrwt>
<rscale>  0 0.11298585E+04</rscale>
<asrwt>0</asrwt>
<pdfrwt beam="1">  1        2 0.17537114E+00 0.11298585E+04</pdfrwt>
<pdfrwt beam="2">  1       -2 0.43072815E-01 0.11298585E+04</pdfrwt>
<totfact> 0.10423265E+02</totfact>
</mgrwt>
</event>
<event>
 6    1  0.1637818E-005  0.2250124E+04  0.7818608E-02  0.8497850E-01
         -2   -1    0    0    0  501 -0.00000000000E+00  0.00000000000E+00  0.86119514896E+03  0.86119514896E+03  0.00000000000E+00 0.  1.
          2   -1    0    0  501    0  0.00000000000E+00 -0.00000000000E+00 -0.14697766531E+04  0.14697766531E+04  0.00000000000E+00 0. -1.
         23    2    1    2    0    0 -0.94404800131E+03 -0.16163407212E+03 -0.91268250548E+03  0.13260690102E+04  0.90096958095E+02 0.  0.
         13    1    3    3    0    0 -0.50697039129E+03 -0.46964105802E+02 -0.51369258744E+03  0.72325975920E+03  0.00000000000E+00 0.  1.
        -13    1    3    3    0    0 -0.43707761002E+03 -0.11466996632E+03 -0.39898991803E+03  0.60280925096E+03  0.00000000000E+00 0. -1.
         22    1    1    2    0    0  0.94404800131E+03  0.16163407212E+03  0.30410100138E+03  0.10049027919E+04  0.00000000000E+00 0. -1.
<mgrwt>
<rscale>  0 0.22501240E+04</rscale>
<asrwt>0</asrwt>
<pdfrwt beam="1">  1        2 0.22611948E+00 0.22501240E+04</pdfrwt>
<pdfrwt beam="2">  1       -2 0.13249156E+00 0.22501240E+04</pdfrwt>
<totfact> 0.49753164E+00</totfact>
</mgrwt>
</event>
<event>
 6    1  0.1637818E-005  0.4398917E+04  0.7818608E-02  0.7928576E-01
          1   -1    0    0  501    0  0.00000000000E+00  0.00000000000E+00  0.27985574433E+04  0.27985574433E+04  0.00000000000E+00 0. -1.
         -1   -1    0    0    0  501 -0.00000000000E+00 -0.00000000000E+00 -0.17286115723E+04  0.17286115723E+04  0.00000000000E+00 0.  1.
         23    2    1    2    0    0 -0.60300016973E+02  0.16015453145E+04  0.20841440260E+04  0.26305453354E+04  0.86769545119E+02 0.  0.
         11    1    3    3    0    0 -0.14588334173E+02  0.19398749297E+03  0.30006835224E+03  0.35761009905E+03  0.00000000000E+00 0.  1.
        -11    1    3    3    0    0 -0.45711682800E+02  0.14075578216E+04  0.17840756738E+04  0.22729352364E+04  0.00000000000E+00 0. -1.
         22    1    1    2    0    0  0.60300016973E+02 -0.16015453145E+04 -0.10141981550E+04  0.18966236802E+04  0.00000000000E+00 0.  1.
<mgrwt>
<rscale>  0 0.43989175E+04</rscale>
<asrwt>0</asrwt>
<pdfrwt beam="1">  1        1 0.43054730E+00 0.43989175E+04</pdfrwt>
<pdfrwt beam="2">  1       -1 0.26594024E+00 0.43989175E+04</pdfrwt>
<totfact> 0.34744364E-02</totfact>
</mgrwt>
</event>
<event>
 6    1  0.1637818E-005  0.1424209E+04  0.7818608E-02  0.8936479E-01
          2   -1    0    0  501    0  0.00000000000E+00  0.00000000000E+00  0.15475342161E+04  0.15475342161E+04  0.00000000000E+00 0. -1.
         -2   -1    0    0    0  501 -0.00000000000E+00 -0.00000000000E+00 -0.32767771834E+03  0.32767771834E+03  0.00000000000E+00 0.  1.
         23    2    1    2    0    0  0.37808773141E+03 -0.37563729650E+03 -0.25327942782E+01  0.54168679689E+03  0.96770138523E+02 0.  0.
         11    1    3    3    0    0  0.25969022869E+03 -0.21595421824E+03 -0.37574631598E+02  0.33983391855E+03  0.00000000000E+00 0. -1.
        -11    1    3    3    0    0  0.11839750272E+03 -0.15968307826E+03  0.35041837320E+02  0.20185287834E+03  0.00000000000E+00 0.  1.
         22    1    1    2    0    0 -0.37808773141E+03  0.37563729650E+03  0.12223892920E+04  0.13335251375E+04  0.00000000000E+00 0. -1.
<mgrwt>
<rscale>  0 0.14242085E+04</rscale>
<asrwt>0</asrwt>
<pdfrwt beam="1">  1        2 0.23808218E+00 0.14242085E+04</pdfrwt>
<pdfrwt beam="2">  1       -2 0.50411958E-01 0.14242085E+04</pdfrwt>
<totfact> 0.43140484E+01</totfact>
</mgrwt>
</event>
<event>
 6    1  0.1637818E-005  0.1170905E+04  0.7818608E-02  0.9138712E-01
          1   -1    0    0  501    0  0.00000000000E+00  0.00000000000E+00  0.22816312030E+03  0.22816312030E+03  0.00000000000E+00 0. -1.
         -1   -1    0    0    0  501 -0.00000000000E+00 -0.00000000000E+00 -0.15022344413E+04  0.15022344413E+04  0.00000000000E+00 0.  1.
         23    2    1    2    0    0  0.16940948289E+03 -0.19588959317E+03  0.12930491169E+03  0.30332462861E+03  0.90629821425E+02 0.  0.
         13    1    3    3    0    0  0.86984440816E+02 -0.14242828004E+03  0.11808565981E+03  0.20444150986E+03  0.00000000000E+00 0.  1.
        -13    1    3    3    0    0  0.82425042072E+02 -0.53461313132E+02  0.11219251874E+02  0.98883118757E+02  0.00000000000E+00 0. -1.
         22    1    1    2    0    0 -0.16940948289E+03  0.19588959317E+03 -0.14033762326E+04  0.14270729330E+04  0.00000000000E+00 0.  1.
<mgrwt>
<rscale>  0 0.11709048E+04</rscale>
<asrwt>0</asrwt>
<pdfrwt beam="1">  1        1 0.35102018E-01 0.11709048E+04</pdfrwt>
<pdfrwt beam="2">  1       -1 0.23111299E+00 0.11709048E+04</pdfrwt>
<totfact> 0.11549482E+01</totfact>
</mgrwt>
</event>
<event>
 6    1  0.1637818E-005  0.3039635E+04  0.7818608E-02  0.8232503E-01
         -1   -1    0    0    0  501 -0.00000000000E+00  0.00000000000E+00  0.12817101256E+04  0.12817101256E+04  0.00000000000E+00 0.  1.
          1   -1    0    0  501    0  0.00000000000E+00 -0.00000000000E+00 -0.18021585110E+04  0.18021585110E+04  0.00000000000E+00 0. -1.
         23    2    1    2    0    0  0.45167711270E+02 -0.15161208120E+04 -0.33575608142E+03  0.15558720117E+04  0.85692075061E+02 0.  0.
         13    1    3    3    0    0  0.14468270285E+02 -0.22546096426E+03 -0.80619825551E+02  0.23987816391E+03  0.00000000000E+00 0. -1.
        -13    1    3    3    0    0  0.30699440986E+02 -0.12906598477E+04 -0.25513625587E+03  0.13159938477E+04  0.00000000000E+00 0.  1.
         22    1    1    2    0    0 -0.45167711270E+02  0.15161208120E+04 -0.18469230392E+03  0.15279966249E+04  0.00000000000E+00 0.  1.
<mgrwt>
<rscale>  0 0.30396347E+04</rscale>
<asrwt>0</asrwt>
<pdfrwt beam="1">  1        1 0.27725515E+00 0.30396347E+04</pdfrwt>
<pdfrwt beam="2">  1       -1 0.19718617E+00 0.30396347E+04</pdfrwt>
<totfact> 0.54212178E-01</totfact>
</mgrwt>
</event>
<event>
 6    1  0.1637818E-005  0.9669213E+03  0.7818608E-02  0.9345588E-01
         -2   -1    0    0    0  501 -0.00000000000E+00  0.00000000000E+00  0.53968117568E+03  0.53968117568E+03  0.00000000000E+00 0.  1.
          2   -1    0    0  501    0  0.00000000000E+00 -0.00000000000E+00 -0.43309685340E+03  0.43309685340E+03  0.00000000000E+00 0. -1.
         23    2    1    2    0    0  0.74184897515E+02 -0.18741751704E+03 -0.38368026641E+03  0.44269493028E+03  0.90219342451E+02 0.  0.
         13    1    3    3    0    0  0.31474461976E+02 -0.36226279941E+02 -0.17514906446E+03  0.18160446001E+03  0.00000000000E+00 0. -1.
        -13    1    3    3    0    0  0.42710435539E+02 -0.15119123710E+03 -0.20853120195E+03  0.26109047027E+03  0.00000000000E+00 0.  1.
         22    1    1    2    0    0 -0.74184897515E+02  0.18741751704E+03  0.49026458869E+03  0.53008309880E+03  0.00000000000E+00 0.  1.
<mgrwt>
<rscale>  0 0.96692134E+03</rscale>
<asrwt>0</asrwt>
<pdfrwt beam="1">  1        2 0.66630285E-01 0.96692134E+03</pdfrwt>
<pdfrwt beam="2">  1       -2 0.83027874E-01 0.96692134E+03</pdfrwt>
<totfact> 0.92417600E+01</totfact>
</mgrwt>
</event>
<event>
 6    1  0.1637818E-005  0.2301208E+04  0.7818608E-02  0.8477445E-01
         -2   -1    0    0    0  501 -0.00000000000E+00  0.00000000000E+00  0.21050596041E+04  0.21050596041E+04  0.00000000000E+00 0. -1.
          2   -1    0    0  501    0  0.00000000000E+00 -0.00000000000E+00 -0.62890826550E+03  0.62890826550E+03  0.00000000000E+00 0.  1.
         23    2    1    2    0    0 -0.85541982433E+03  0.50890748100E+03  0.57028446175E+02  0.10005782181E+04  0.84703168956E+02 0.  0.
         13    1    3    3    0    0 -0.40636658860E+03  0.28198876938E+03  0.37778533544E+01  0.49463698059E+03  0.00000000000E+00 0.  1.
        -13    1    3    3    0    0 -0.44905323573E+03  0.22691871162E+03  0.53250592821E+02  0.50594123753E+03  0.00000000000E+00 0. -1.
         22    1    1    2    0    0  0.85541982433E+03 -0.50890748100E+03  0.14191228925E+04  0.17333896515E+04  0.00000000000E+00 0. -1.
<mgrwt>
<rscale>  0 0.23012078E+04</rscale>
<asrwt>0</asrwt>
<pdfrwt beam="1">  1        2 0.96755119E-01 0.23012078E+04</pdfrwt>
<pdfrwt beam="2">  1       -2 0.32385532E+00 0.23012078E+04</pdfrwt>
<totfact> 0.96285626E-01</totfact>
</mgrwt>
</event>
<event>
 6    1  0.1637818E-005  0.1594403E+04  0.7818608E-02  0.8823994E-01
         -2   -1    0    0    0  501 -0.00000000000E+00  0.00000000000E+00  0.11035311185E+04  0.11035311185E+04  0.00000000000E+00 0.  1.
          2   -1    0    0  501    0  0.00000000000E+00 -0.00000000000E+00 -0.57590572019E+03  0.57590572019E+03  0.00000000000E+00 0. -1.
         23    2    1    2    0    0  0.50993525465E+03  0.60528691875E+03  0.18879989466E+03  0.81850191672E+03  0.88846887986E+02 0.  0.
         11    1    3    3    0    0  0.31621622401E+03  0.37924991112E+03  0.16167160028E+03  0.51957761860E+03  0.00000000000E+00 0. -1.
        -11    1    3    3    0    0  0.19371903064E+03  0.22603700763E+03  0.27128294375E+02  0.29892429812E+03  0.00000000000E+00 0.  1.
         22    1    1    2    0    0 -0.50993525465E+03 -0.60528691875E+03  0.33882550365E+03  0.86093492197E+03  0.00000000000E+00 0. -1.
<mgrwt>
<rscale>  0 0.15944026E+04</rscale>
<asrwt>0</asrwt>
<pdfrwt beam="1">  1        2 0.88600880E-01 0.15944026E+04</pdfrwt>
<pdfrwt beam="2">  1       -2 0.16977402E+00 0.15944026E+04</pdfrwt>
<totfact> 0.10684211E+01</totfact>
</mgrwt>
</event>
<event>
 6    1  0.1637818E-005  0.1559739E+04  0.7818608E-02  0.8845671E-01
          2   -1    0    0  501    0  0.00000000000E+00  0.00000000000E+00  0.12316942124E+04  0.12316942124E+04  0.00000000000E+00 0.  1.
         -2   -1    0    0    0  501 -0.00000000000E+00 -0.00000000000E+00 -0.49378855729E+03  0.49378855729E+03  0.00000000000E+00 0. -1.
         23    2    1    2    0    0 -0.48248354159E+03  0.87193977717E+02  0.10373577037E+04  0.11509702049E+04  0.90709699153E+02 0.  0.
         13    1    3    3    0    0 -0.24579098420E+03  0.34931721312E+02  0.62712820835E+03  0.67447996470E+03  0.00000000000E+00 0.  1.
        -13    1    3    3    0    0 -0.23669255740E+03  0.52262256405E+02  0.41022949536E+03  0.47649024023E+03  0.00000000000E+00 0. -1.
         22    1    1    2    0    0  0.48248354159E+03 -0.87193977717E+02 -0.29945204861E+03  0.57451256476E+03  0.00000000000E+00 0. -1.
<mgrwt>
<rscale>  0 0.15597391E+04</rscale>
<asrwt>0</asrwt>
<pdfrwt beam="1">  1        2 0.18949142E+00 0.15597391E+04</pdfrwt>
<pdfrwt beam="2">  1       -2 0.75967471E-01 0.15597391E+04</pdfrwt>
<totfact> 0.27073762E+01</totfact>
</mgrwt>
</event>
<event>
 6    1  0.1637818E-005  0.1743295E+04  0.7818608E-02  0.8737050E-01
          1   -1    0    0  501    0  0.00000000000E+00  0.00000000000E+00  0.19580309414E+04  0.19580309414E+04  0.00000000000E+00 0. -1.
         -1   -1    0    0    0  501 -0.00000000000E+00 -0.00000000000E+00 -0.38802719111E+03  0.38802719111E+03  0.00000000000E+00 0.  1.
         23    2    1    2    0    0 -0.82020913477E+03  0.24616370716E+03  0.58768399382E+03  0.10428729195E+04  0.94190520460E+02 0.  0.
         13    1    3    3    0    0 -0.62112675684E+03  0.16114993264E+03  0.39834729464E+03  0.75528028969E+03  0.00000000000E+00 0. -1.
        -13    1    3    3    0    0 -0.19908237793E+03  0.85013774519E+02  0.18933669918E+03  0.28759262980E+03  0.00000000000E+00 0.  1.
         22    1    1    2    0    0  0.82020913477E+03 -0.24616370716E+03  0.98231975651E+03  0.13031852131E+04  0.00000000000E+00 0. -1.
<mgrwt>
<rscale>  0 0.17432949E+04</rscale>
<asrwt>0</asrwt>
<pdfrwt beam="1">  1        1 0.30123552E+00 0.17432949E+04</pdfrwt>
<pdfrwt beam="2">  1       -1 0.59696492E-01 0.17432949E+04</pdfrwt>
<totfact> 0.85846857E+00</totfact>
</mgrwt>
</event>
<event>
 6    1  0.1637818E-005  0.2329999E+04  0.7818608E-02  0.8466186E-01
         -2   -1    0    0    0  501 -0.00000000000E+00  0.00000000000E+00  0.79101425510E+03  0.79101425510E+03  0.00000000000E+00 0.  1.
          2   -1    0    0  501    0  0.00000000000E+00 -0.00000000000E+00 -0.17158014165E+04  0.17158014165E+04  0.00000000000E+00 0. -1.
         23    2    1    2    0    0  0.70507507206E+03 -0.51945718935E+03  0.36052270982E+03  0.95150602596E+03  0.91763088091E+02 0.  0.
         13    1    3    3    0    0  0.53792714401E+03 -0.35473207226E+03  0.28875119707E+03  0.70610035346E+03  0.00000000000E+00 0.  1.
        -13    1    3    3    0    0  0.16714792806E+03 -0.16472511709E+03  0.71771512748E+02  0.24540567250E+03  0.00000000000E+00 0. -1.
         22    1    1    2    0    0 -0.70507507206E+03  0.51945718935E+03 -0.12853098712E+04  0.15553096457E+04  0.00000000000E+00 0. -1.
<mgrwt>
<rscale>  0 0.23299986E+04</rscale>
<asrwt>0</asrwt>
<pdfrwt beam="1">  1        2 0.26396945E+00 0.23299986E+04</pdfrwt>
<pdfrwt beam="2">  1       -2 0.12169450E+00 0.23299986E+04</pdfrwt>
<totfact> 0.44572306E+00</totfact>
</mgrwt>
</event>
<event>
 6    1  0.1637818E-005  0.4044242E+04  0.7818608E-02  0.7995681E-01
          2   -1    0    0  501    0  0.00000000000E+00  0.00000000000E+00  0.21917650299E+04  0.21917650299E+04  0.00000000000E+00 0.  1.
         -2   -1    0    0    0  501 -0.00000000000E+00 -0.00000000000E+00 -0.18656076857E+04  0.18656076857E+04  0.00000000000E+00 0. -1.
         23    2    1    2    0    0  0.10034171157E+03  0.20016909248E+04  0.42463022538E+03  0.20507506969E+04  0.91829052922E+02 0.  0.
         11    1    3    3    0    0 -0.52532474300E+01  0.12833258103E+03  0.47174805504E+02  0.13682949330E+03  0.00000000000E+00 0.  1.
        -11    1    3    3    0    0  0.10559495900E+03  0.18733583438E+04  0.37745541988E+03  0.19139212036E+04  0.00000000000E+00 0. -1.
         22    1    1    2    0    0 -0.10034171157E+03 -0.20016909248E+04 -0.98472881135E+02  0.20066220187E+04  0.00000000000E+00 0.  1.
<mgrwt>
<rscale>  0 0.40442422E+04</rscale>
<asrwt>0</asrwt>
<pdfrwt beam="1">  1        2 0.33719462E+00 0.40442422E+04</pdfrwt>
<pdfrwt beam="2">  1       -2 0.28701657E+00 0.40442422E+04</pdfrwt>
<totfact> 0.15655937E-01</totfact>
</mgrwt>
</event>
<event>
 6    1  0.1637818E-005  0.1709771E+04  0.7818608E-02  0.8755811E-01
          2   -1    0    0  501    0  0.00000000000E+00  0.00000000000E+00  0.20639045961E+04  0.20639045961E+04  0.00000000000E+00 0. -1.
         -2   -1    0    0    0  501 -0.00000000000E+00 -0.00000000000E+00 -0.35410029203E+03  0.35410029203E+03  0.00000000000E+00 0.  1.
         23    2    1    2    0    0 -0.60954101136E+03 -0.54386051084E+03  0.12012887249E+04  0.14557613670E+04  0.93925806661E+02 0.  0.
         11    1    3    3    0    0 -0.53154504694E+03 -0.43035541025E+03  0.97781632693E+03  0.11932605270E+04  0.00000000000E+00 0.  1.
        -11    1    3    3    0    0 -0.77995964411E+02 -0.11350510060E+03  0.22347239801E+03  0.26250083999E+03  0.00000000000E+00 0. -1.
         22    1    1    2    0    0  0.60954101136E+03  0.54386051084E+03  0.50851557915E+03  0.96224352116E+03  0.00000000000E+00 0.  1.
<mgrwt>
<rscale>  0 0.17097710E+04</rscale>
<asrwt>0</asrwt>
<pdfrwt beam="1">  1        2 0.31752378E+00 0.17097710E+04</pdfrwt>
<pdfrwt beam="2">  1       -2 0.54476969E-01 0.17097710E+04</pdfrwt>
<totfact> 0.18563923E+01</totfact>
</mgrwt>
</event>
<event>
 6    1  0.1637818E-005  0.9754392E+03  0.7818608E-02  0.9335901E-01
         -2   -1    0    0    0  501 -0.00000000000E+00  0.00000000000E+00  0.17503609458E+04  0.17503609458E+04  0.00000000000E+00 0. -1.
          2   -1    0    0  501    0  0.00000000000E+00 -0.00000000000E+00 -0.13589791971E+03  0.13589791971E+03  0.00000000000E+00 0.  1.
         23    2    1    2    0    0  0.29887236329E+03  0.32365465136E+03  0.12001997479E+04  0.12815348900E+04  0.88177188312E+02 0.  0.
         11    1    3    3    0    0  0.17119287614E+03  0.14577817782E+03  0.50819171995E+03  0.55571314740E+03  0.00000000000E+00 0. -1.
        -11    1    3    3    0    0  0.12767948715E+03  0.17787647353E+03  0.69200802797E+03  0.72582174261E+03  0.00000000000E+00 0.  1.
         22    1    1    2    0    0 -0.29887236329E+03 -0.32365465136E+03  0.41426327814E+03  0.60472397546E+03  0.00000000000E+00 0.  1.
<mgrwt>
<rscale>  0 0.97543921E+03</rscale>
<asrwt>0</asrwt>
<pdfrwt beam="1">  1        2 0.20907374E-01 0.97543921E+03</pdfrwt>
<pdfrwt beam="2">  1       -2 0.26928628E+00 0.97543921E+03</pdfrwt>
<totfact> 0.13359477E+01</totfact>
</mgrwt>
</event>
<event>
 6    1  0.1637818E-005  0.2499491E+04  0.7818608E-02  0.8403167E-01
          1   -1    0    0  501    0  0.00000000000E+00  0.00000000000E+00  0.15262454762E+04  0.15262454762E+04  0.00000000000E+00 0. -1.
         -1   -1    0    0    0  501 -0.00000000000E+00 -0.00000000000E+00 -0.10233373981E+04  0.10233373981E+04  0.00000000000E+00 0.  1.
         23    2    1    2    0    0 -0.82032331114E+03 -0.54050189926E+03  0.10370533768E+04  0.14313772412E+04  0.91040991997E+02 0.  0.
         11    1    3    3    0    0 -0.69304216562E+03 -0.41492208682E+03  0.85352590582E+03  0.11751486091E+04  0.00000000000E+00 0.  1.
        -11    1    3    3    0    0 -0.12728114553E+03 -0.12557981244E+03  0.18352747101E+03  0.25622863212E+03  0.00000000000E+00 0. -1.
         22    1    1    2    0    0  0.82032331114E+03  0.54050189926E+03 -0.53414529871E+03  0.11182056332E+04  0.00000000000E+00 0.  1.
<mgrwt>
<rscale>  0 0.24994912E+04</rscale>
<asrwt>0</asrwt>
<pdfrwt beam="1">  1        1 0.23480700E+00 0.24994912E+04</pdfrwt>
<pdfrwt beam="2">  1       -1 0.15743652E+00 0.24994912E+04</pdfrwt>
<totfact> 0.17037684E+00</totfact>
</mgrwt>
</event>
<event>
 6    1  0.1637818E-005  0.3968001E+04  0.7818608E-02  0.8011033E-01
          1   -1    0    0  501    0  0.00000000000E+00  0.00000000000E+00  0.24363043685E+04  0.24363043685E+04  0.00000000000E+00 0. -1.
         -1   -1    0    0    0  501 -0.00000000000E+00 -0.00000000000E+00 -0.16156678373E+04  0.16156678373E+04  0.00000000000E+00 0.  1.
         23    2    1    2    0    0  0.97541857599E+03  0.71558737939E+03  0.20149292302E+04  0.23520187515E+04  0.92443004303E+02 0.  0.
         11    1    3    3    0    0  0.18632152571E+03  0.11587649458E+03  0.42909026054E+03  0.48193518717E+03  0.00000000000E+00 0.  1.
        -11    1    3    3    0    0  0.78909705028E+03  0.59971088481E+03  0.15858389696E+04  0.18700835644E+04  0.00000000000E+00 0. -1.
         22    1    1    2    0    0 -0.97541857599E+03 -0.71558737939E+03 -0.11942926989E+04  0.16999534543E+04  0.00000000000E+00 0.  1.
<mgrwt>
<rscale>  0 0.39680013E+04</rscale>
<asrwt>0</asrwt>
<pdfrwt beam="1">  1        1 0.37481606E+00 0.39680013E+04</pdfrwt>
<pdfrwt beam="2">  1       -1 0.24856428E+00 0.39680013E+04</pdfrwt>
<totfact> 0.83837053E-02</totfact>
</mgrwt>
</event>
<event>
 6    1  0.1637818E-005  0.3437850E+04  0.7818608E-02  0.8128679E-01
         -2   -1    0    0    0  501 -0.00000000000E+00  0.00000000000E+00  0.24249719040E+04  0.24249719040E+04  0.00000000000E+00 0.  1.
          2   -1    0    0  501    0  0.00000000000E+00 -0.00000000000E+00 -0.12184480941E+04  0.12184480941E+04  0.00000000000E+00 0. -1.
         23    2    1    2    0    0  0.44194844964E+03  0.53482184796E+03  0.22690062279E+04  0.23744748732E+04  0.91590503060E+02 0.  0.
         11    1    3    3    0    0  0.15690677641E+03  0.12499667823E+03  0.65288339770E+03  0.68300851901E+03  0.00000000000E+00 0.  1.
        -11    1    3    3    0    0  0.28504167323E+03  0.40982516972E+03  0.16161228302E+04  0.16914663542E+04  0.00000000000E+00 0. -1.
         22    1    1    2    0    0 -0.44194844964E+03 -0.53482184796E+03 -0.10624824180E+04  0.12689451248E+04  0.00000000000E+00 0. -1.
<mgrwt>
<rscale>  0 0.34378496E+04</rscale>
<asrwt>0</asrwt>
<pdfrwt beam="1">  1        2 0.18745355E+00 0.34378496E+04</pdfrwt>
<pdfrwt beam="2">  1       -2 0.37307260E+00 0.34378496E+04</pdfrwt>
<totfact> 0.16910470E-01</totfact>
</mgrwt>
</event>
<event>
 6    1  0.1637818E-005  0.2292757E+04  0.7818608E-02  0.8480782E-01
         -2   -1    0    0    0  501 -0.00000000000E+00  0.00000000000E+00  0.75605158199E+03  0.75605158199E+03  0.00000000000E+00 0.  1.
          2   -1    0    0  501    0  0.00000000000E+00 -0.00000000000E+00 -0.17382195778E+04  0.17382195778E+04  0.00000000000E+00 0. -1.
         23    2    1    2    0    0  0.57250382611E+03  0.66102173234E+02 -0.15675243751E+04  0.16728259583E+04  0.95309453873E+02 0.  0.
         13    1    3    3    0    0  0.30642254985E+03 -0.45380279588E+01 -0.75006892328E+03  0.81025845409E+03  0.00000000000E+00 0. -1.
        -13    1    3    3    0    0  0.26608127626E+03  0.70640201192E+02 -0.81745545183E+03  0.86256750421E+03  0.00000000000E+00 0.  1.
         22    1    1    2    0    0 -0.57250382611E+03 -0.66102173234E+02  0.58535637931E+03  0.82144520147E+03  0.00000000000E+00 0.  1.
<mgrwt>
<rscale>  0 0.22927570E+04</rscale>
<asrwt>0</asrwt>
<pdfrwt beam="1">  1        2 0.26741839E+00 0.22927570E+04</pdfrwt>
<pdfrwt beam="2">  1       -2 0.11631563E+00 0.22927570E+04</pdfrwt>
<totfact> 0.48584176E+00</totfact>
</mgrwt>
</event>
<event>
 6    1  0.1637818E-005  0.3702810E+03  0.7818608E-02  0.1054586E+00
          1   -1    0    0  501    0  0.00000000000E+00  0.00000000000E+00  0.51528493727E+03  0.51528493727E+03  0.00000000000E+00 0. -1.
         -1   -1    0    0    0  501 -0.00000000000E+00 -0.00000000000E+00 -0.66520496273E+02  0.66520496273E+02  0.00000000000E+00 0.  1.
         23    2    1    2    0    0  0.91146727221E+02  0.48503814879E+02  0.45774316437E+03  0.47816681422E+03  0.91947548933E+02 0.  0.
         11    1    3    3    0    0  0.44028817477E+02 -0.21803193027E+02  0.23040663634E+03  0.23558678669E+03  0.00000000000E+00 0. -1.
        -11    1    3    3    0    0  0.47117909745E+02  0.70307007907E+02  0.22733652803E+03  0.24258002753E+03  0.00000000000E+00 0.  1.
         22    1    1    2    0    0 -0.91146727221E+02 -0.48503814879E+02 -0.89787233742E+01  0.10363861932E+03  0.00000000000E+00 0.  1.
<mgrwt>
<rscale>  0 0.37028103E+03</rscale>
<asrwt>0</asrwt>
<pdfrwt beam="1">  1        1 0.79274603E-01 0.37028103E+03</pdfrwt>
<pdfrwt beam="2">  1       -1 0.10233923E-01 0.37028103E+03</pdfrwt>
<totfact> 0.25588166E+03</totfact>
</mgrwt>
</event>
<event>
 6    1  0.1637818E-005  0.2262848E+04  0.7818608E-02  0.8492715E-01
         -2   -1    0    0    0  501 -0.00000000000E+00  0.00000000000E+00  0.12283695904E+04  0.12283695904E+04  0.00000000000E+00 0.  1.
          2   -1    0    0  501    0  0.00000000000E+00 -0.00000000000E+00 -0.10421293720E+04  0.10421293720E+04  0.00000000000E+00 0. -1.
         23    2    1    2    0    0 -0.10697389076E+04  0.20046140098E+03  0.39617900022E+03  0.11620764816E+04  0.94540177807E+02 0.  0.
         11    1    3    3    0    0 -0.50610198635E+03  0.48949635611E+02  0.19909819585E+03  0.54605437366E+03  0.00000000000E+00 0.  1.
        -11    1    3    3    0    0 -0.56363692128E+03  0.15151176536E+03  0.19708080438E+03  0.61602210798E+03  0.00000000000E+00 0. -1.
         22    1    1    2    0    0  0.10697389076E+04 -0.20046140098E+03 -0.20993878186E+03  0.11084224808E+04  0.00000000000E+00 0. -1.
<mgrwt>
<rscale>  0 0.22628478E+04</rscale>
<asrwt>0</asrwt>
<pdfrwt beam="1">  1        2 0.16032760E+00 0.22628478E+04</pdfrwt>
<pdfrwt beam="2">  1       -2 0.18897994E+00 0.22628478E+04</pdfrwt>
<totfact> 0.33899621E+00</totfact>
</mgrwt>
</event>
<event>
 6    1  0.1637818E-005  0.1213446E+04  0.7818608E-02  0.9101168E-01
          2   -1    0    0  501    0  0.00000000000E+00  0.00000000000E+00  0.17500534614E+04  0.17500534614E+04  0.00000000000E+00 0. -1.
         -2   -1    0    0    0  501 -0.00000000000E+00 -0.00000000000E+00 -0.21034367465E+03  0.21034367465E+03  0.00000000000E+00 0.  1.
         23    2    1    2    0    0  0.16244423924E+03  0.73659014065E+02  0.17052937368E+04  0.17170212422E+04  0.91221904553E+02 0.  0.
         11    1    3    3    0    0  0.10456431178E+03  0.28382063000E+02  0.13421929526E+04  0.13465590068E+04  0.00000000000E+00 0. -1.
        -11    1    3    3    0    0  0.57879927464E+02  0.45276951066E+02  0.36310078426E+03  0.37046223536E+03  0.00000000000E+00 0.  1.
         22    1    1    2    0    0 -0.16244423924E+03 -0.73659014065E+02 -0.16558395008E+03  0.24337589391E+03  0.00000000000E+00 0.  1.
<mgrwt>
<rscale>  0 0.12134458E+04</rscale>
<asrwt>0</asrwt>
<pdfrwt beam="1">  1        2 0.26923898E+00 0.12134458E+04</pdfrwt>
<pdfrwt beam="2">  1       -2 0.32360567E-01 0.12134458E+04</pdfrwt>
<totfact> 0.80650428E+01</totfact>
</mgrwt>
</event>
<event>
 6    1  0.1637818E-005  0.3147106E+04  0.7818608E-02  0.8202928E-01
          1   -1    0    0  501    0  0.00000000000E+00  0.00000000000E+00  0.17562408555E+04  0.17562408555E+04  0.00000000000E+00 0. -1.
         -1   -1    0    0    0  501 -0.00000000000E+00 -0.00000000000E+00 -0.14098687525E+04  0.14098687525E+04  0.00000000000E+00 0.  1.
         23    2    1    2    0    0 -0.19121433250E+03  0.81349145938E+03  0.15131413195E+04  0.17309504948E+04  0.90893824113E+02 0.  0.
         13    1    3    3    0    0 -0.16339357358E+03  0.73067927857E+03  0.12934079813E+04  0.14944878301E+04  0.00000000000E+00 0.  1.
        -13    1    3    3    0    0 -0.27820758918E+02  0.82812180806E+02  0.21973333820E+03  0.23646266477E+03  0.00000000000E+00 0. -1.
         22    1    1    2    0    0  0.19121433250E+03 -0.81349145938E+03 -0.11667692166E+04  0.14351591132E+04  0.00000000000E+00 0.  1.
<mgrwt>
<rscale>  0 0.31471060E+04</rscale>
<asrwt>0</asrwt>
<pdfrwt beam="1">  1        1 0.27019090E+00 0.31471060E+04</pdfrwt>
<pdfrwt beam="2">  1       -1 0.21690289E+00 0.31471060E+04</pdfrwt>
<totfact> 0.42338693E-01</totfact>
</mgrwt>
</event>
<event>
 6    1  0.1637818E-005  0.2259897E+04  0.7818608E-02  0.8493903E-01
          2   -1    0    0  501    0  0.00000000000E+00  0.00000000000E+00  0.15786990030E+04  0.15786990030E+04  0.00000000000E+00 0. -1.
         -2   -1    0    0    0  501 -0.00000000000E+00 -0.00000000000E+00 -0.80875701855E+03  0.80875701855E+03  0.00000000000E+00 0.  1.
         23    2    1    2    0    0 -0.46306494725E+03  0.85118626946E+03  0.99601513320E+03  0.13924403034E+04  0.88863054193E+02 0.  0.
         13    1    3    3    0    0 -0.21974617467E+03  0.47456313716E+03  0.57716798331E+03  0.77885905874E+03  0.00000000000E+00 0.  1.
        -13    1    3    3    0    0 -0.24331877257E+03  0.37662313230E+03  0.41884714989E+03  0.61358124470E+03  0.00000000000E+00 0. -1.
         22    1    1    2    0    0  0.46306494725E+03 -0.85118626946E+03 -0.22607314876E+03  0.99501571811E+03  0.00000000000E+00 0.  1.
<mgrwt>
<rscale>  0 0.22598973E+04</rscale>
<asrwt>0</asrwt>
<pdfrwt beam="1">  1        2 0.24287677E+00 0.22598973E+04</pdfrwt>
<pdfrwt beam="2">  1       -2 0.12442416E+00 0.22598973E+04</pdfrwt>
<totfact> 0.50582845E+00</totfact>
</mgrwt>
</event>
<event>
 6    1  0.1637818E-005  0.3155748E+04  0.7818608E-02  0.8200603E-01
          2   -1    0    0  501    0  0.00000000000E+00  0.00000000000E+00  0.24816637236E+04  0.24816637236E+04  0.00000000000E+00 0.  1.
         -2   -1    0    0    0  501 -0.00000000000E+00 -0.00000000000E+00 -0.10032326853E+04  0.10032326853E+04  0.00000000000E+00 0. -1.
         23    2    1    2    0    0  0.99671946465E+03  0.68318440923E+03 -0.37843247801E+03  0.12694658082E+04  0.90231200309E+02 0.  0.
         13    1    3    3    0    0  0.83441418357E+03  0.59292543084E+03 -0.34869481599E+03  0.10813859954E+04  0.00000000000E+00 0.  1.
        -13    1    3    3    0    0  0.16230528108E+03  0.90258978392E+02 -0.29737662017E+02  0.18807981282E+03  0.00000000000E+00 0. -1.
         22    1    1    2    0    0 -0.99671946465E+03 -0.68318440923E+03  0.18568635163E+04  0.22154306007E+04  0.00000000000E+00 0.  1.
<mgrwt>
<rscale>  0 0.31557479E+04</rscale>
<asrwt>0</asrwt>
<pdfrwt beam="1">  1        2 0.38179442E+00 0.31557479E+04</pdfrwt>
<pdfrwt beam="2">  1       -2 0.15434349E+00 0.31557479E+04</pdfrwt>
<totfact> 0.83697390E-01</totfact>
</mgrwt>
</event>
<event>
 6    1  0.1637818E-005  0.3739078E+04  0.7818608E-02  0.8059356E-01
         -2   -1    0    0    0  501 -0.00000000000E+00  0.00000000000E+00  0.11887963906E+04  0.11887963906E+04  0.00000000000E+00 0.  1.
          2   -1    0    0  501    0  0.00000000000E+00 -0.00000000000E+00 -0.29400969658E+04  0.29400969658E+04  0.00000000000E+00 0. -1.
         23    2    1    2    0    0 -0.16677473720E+04 -0.83967381594E+03 -0.80106943038E+03  0.20338103884E+04  0.90769211372E+02 0.  0.
         11    1    3    3    0    0 -0.11894410105E+04 -0.55599898199E+03 -0.58008221593E+03  0.14354094059E+04  0.00000000000E+00 0.  1.
        -11    1    3    3    0    0 -0.47830636149E+03 -0.28367483395E+03 -0.22098721445E+03  0.59840098246E+03  0.00000000000E+00 0. -1.
         22    1    1    2    0    0  0.16677473720E+04  0.83967381594E+03 -0.95023114484E+03  0.20950829679E+04  0.00000000000E+00 0.  1.
<mgrwt>
<rscale>  0 0.37390783E+04</rscale>
<asrwt>0</asrwt>
<pdfrwt beam="1">  1        2 0.45232260E+00 0.37390783E+04</pdfrwt>
<pdfrwt beam="2">  1       -2 0.18289176E+00 0.37390783E+04</pdfrwt>
<totfact> 0.26470133E-01</totfact>
</mgrwt>
</event>
<event>
 6    1  0.1637818E-005  0.1654621E+04  0.7818608E-02  0.8787678E-01
         -1   -1    0    0    0  501 -0.00000000000E+00  0.00000000000E+00  0.67015531534E+03  0.67015531534E+03  0.00000000000E+00 0.  1.
          1   -1    0    0  501    0  0.00000000000E+00 -0.00000000000E+00 -0.10213193140E+04  0.10213193140E+04  0.00000000000E+00 0. -1.
         23    2    1    2    0    0  0.70107531961E+03  0.63240490146E+02  0.26238392996E+03  0.75769359287E+03  0.98733432114E+02 0.  0.
         11    1    3    3    0    0  0.30562088912E+03  0.43311242967E+02  0.16469985554E+03  0.34986573717E+03  0.00000000000E+00 0. -1.
        -11    1    3    3    0    0  0.39545443049E+03  0.19929247179E+02  0.97684074421E+02  0.40782785570E+03  0.00000000000E+00 0.  1.
         22    1    1    2    0    0 -0.70107531961E+03 -0.63240490146E+02 -0.61354792864E+03  0.93378103649E+03  0.00000000000E+00 0. -1.
<mgrwt>
<rscale>  0 0.16546209E+04</rscale>
<asrwt>0</asrwt>
<pdfrwt beam="1">  1        1 0.15712605E+00 0.16546209E+04</pdfrwt>
<pdfrwt beam="2">  1       -1 0.10310082E+00 0.16546209E+04</pdfrwt>
<totfact> 0.12359359E+01</totfact>
</mgrwt>
</event>
<event>
 6    1  0.1637818E-005  0.4107487E+03  0.7818608E-02  0.1040120E+00
         -1   -1    0    0    0  501 -0.00000000000E+00  0.00000000000E+00  0.26655885940E+02  0.26655885940E+02  0.00000000000E+00 0.  1.
          1   -1    0    0  501    0  0.00000000000E+00 -0.00000000000E+00 -0.15823383890E+04  0.15823383890E+04  0.00000000000E+00 0. -1.
         23    2    1    2    0    0 -0.19023641997E+03  0.32188141006E+02 -0.70849554560E+03  0.74011470170E+03  0.92616745947E+02 0.  0.
         13    1    3    3    0    0 -0.96125157531E+02  0.57438492352E+00 -0.50040730876E+03  0.50955652335E+03  0.00000000000E+00 0.  1.
        -13    1    3    3    0    0 -0.94111262444E+02  0.31613756082E+02 -0.20808823684E+03  0.23055817835E+03  0.00000000000E+00 0. -1.
         22    1    1    2    0    0  0.19023641997E+03 -0.32188141006E+02 -0.84718695749E+03  0.86887957327E+03  0.00000000000E+00 0.  1.
<mgrwt>
<rscale>  0 0.41074874E+03</rscale>
<asrwt>0</asrwt>
<pdfrwt beam="1">  1        1 0.24343676E+00 0.41074874E+03</pdfrwt>
<pdfrwt beam="2">  1       -1 0.41009040E-02 0.41074874E+03</pdfrwt>
<totfact> 0.14878773E+03</totfact>
</mgrwt>
</event>
<event>
 6    1  0.1637818E-005  0.1955365E+04  0.7818608E-02  0.8627778E-01
          2   -1    0    0  501    0  0.00000000000E+00  0.00000000000E+00  0.27134299963E+04  0.27134299963E+04  0.00000000000E+00 0. -1.
         -2   -1    0    0    0  501 -0.00000000000E+00 -0.00000000000E+00 -0.35227126457E+03  0.35227126457E+03  0.00000000000E+00 0.  1.
         23    2    1    2    0    0 -0.29859964871E+03 -0.34419727131E+03 -0.16900868767E+03  0.49482968065E+03  0.93053557466E+02 0.  0.
         13    1    3    3    0    0 -0.14104670334E+03 -0.14313526672E+03 -0.12204330319E+03  0.23510943187E+03  0.00000000000E+00 0.  1.
        -13    1    3    3    0    0 -0.15755294537E+03 -0.20106200460E+03 -0.46965384478E+02  0.25972024878E+03  0.00000000000E+00 0. -1.
         22    1    1    2    0    0  0.29859964871E+03  0.34419727131E+03  0.25301674194E+04  0.25708715803E+04  0.00000000000E+00 0. -1.
<mgrwt>
<rscale>  0 0.19553654E+04</rscale>
<asrwt>0</asrwt>
<pdfrwt beam="1">  1        2 0.41745076E+00 0.19553654E+04</pdfrwt>
<pdfrwt beam="2">  1       -2 0.54195581E-01 0.19553654E+04</pdfrwt>
<totfact> 0.78028668E+00</totfact>
</mgrwt>
</event>
<event>
 6    1  0.1637818E-005  0.3549737E+04  0.7818608E-02  0.8102103E-01
         -2   -1    0    0    0  501 -0.00000000000E+00  0.00000000000E+00  0.17254266668E+04  0.17254266668E+04  0.00000000000E+00 0.  1.
          2   -1    0    0  501    0  0.00000000000E+00 -0.00000000000E+00 -0.18257270190E+04  0.18257270190E+04  0.00000000000E+00 0. -1.
         23    2    1    2    0    0  0.14187066849E+04 -0.74916900839E+03  0.70624099717E+03  0.17554666837E+04  0.94361383036E+02 0.  0.
         11    1    3    3    0    0  0.76482915957E+03 -0.45641937332E+03  0.39841704853E+03  0.97571431896E+03  0.00000000000E+00 0. -1.
        -11    1    3    3    0    0  0.65387752536E+03 -0.29274963507E+03  0.30782394864E+03  0.77975236477E+03  0.00000000000E+00 0.  1.
         22    1    1    2    0    0 -0.14187066849E+04  0.74916900839E+03 -0.80654134936E+03  0.17956870020E+04  0.00000000000E+00 0. -1.
<mgrwt>
<rscale>  0 0.35497369E+04</rscale>
<asrwt>0</asrwt>
<pdfrwt beam="1">  1        2 0.28088108E+00 0.35497369E+04</pdfrwt>
<pdfrwt beam="2">  1       -2 0.26545026E+00 0.35497369E+04</pdfrwt>
<totfact> 0.35309750E-01</totfact>
</mgrwt>
</event>
<event>
 6    1  0.1637818E-005  0.4906794E+04  0.7818608E-02  0.7843048E-01
          2   -1    0    0  501    0  0.00000000000E+00  0.00000000000E+00  0.23230874253E+04  0.23230874253E+04  0.00000000000E+00 0. -1.
         -2   -1    0    0    0  501 -0.00000000000E+00 -0.00000000000E+00 -0.25910163775E+04  0.25910163775E+04  0.00000000000E+00 0.  1.
         23    2    1    2    0    0 -0.15780088071E+04 -0.10975641702E+03  0.17430289704E+04  0.23555671051E+04  0.91586727986E+02 0.  0.
         13    1    3    3    0    0 -0.11396127259E+03  0.15787111211E+02  0.12699317394E+03  0.17135831103E+03  0.00000000000E+00 0. -1.
        -13    1    3    3    0    0 -0.14640475345E+04 -0.12554352823E+03  0.16160357965E+04  0.21842087941E+04  0.00000000000E+00 0.  1.
         22    1    1    2    0    0  0.15780088071E+04  0.10975641702E+03 -0.20109579227E+04  0.25585366976E+04  0.00000000000E+00 0.  1.
<mgrwt>
<rscale>  0 0.49067943E+04</rscale>
<asrwt>0</asrwt>
<pdfrwt beam="1">  1        2 0.35739807E+00 0.49067943E+04</pdfrwt>
<pdfrwt beam="2">  1       -2 0.39861790E+00 0.49067943E+04</pdfrwt>
<totfact> 0.24463347E-02</totfact>
</mgrwt>
</event>
<event>
 6    1  0.1637818E-005  0.2893396E+04  0.7818608E-02  0.8274845E-01
          2   -1    0    0  501    0  0.00000000000E+00  0.00000000000E+00  0.18969125619E+04  0.18969125619E+04  0.00000000000E+00 0.  1.
         -2   -1    0    0    0  501 -0.00000000000E+00 -0.00000000000E+00 -0.11033373949E+04  0.11033373949E+04  0.00000000000E+00 0. -1.
         23    2    1    2    0    0 -0.14328460813E+04 -0.10998944552E+03  0.23567157655E+03  0.14586916586E+04  0.84229995550E+02 0.  0.
         11    1    3    3    0    0 -0.10648572630E+04 -0.66082420538E+02  0.20858439779E+03  0.10871041017E+04  0.00000000000E+00 0. -1.
        -11    1    3    3    0    0 -0.36798881825E+03 -0.43907024981E+02  0.27087178759E+02  0.37158755691E+03  0.00000000000E+00 0.  1.
         22    1    1    2    0    0  0.14328460813E+04  0.10998944552E+03  0.55790359041E+03  0.15415582982E+04  0.00000000000E+00 0.  1.
<mgrwt>
<rscale>  0 0.28933956E+04</rscale>
<asrwt>0</asrwt>
<pdfrwt beam="1">  1        2 0.29183270E+00 0.28933956E+04</pdfrwt>
<pdfrwt beam="2">  1       -2 0.16974421E+00 0.28933956E+04</pdfrwt>
<totfact> 0.14091440E+00</totfact>
</mgrwt>
</event>
<event>
 6    1  0.1637818E-005  0.1036716E+04  0.7818608E-02  0.9269167E-01
         -2   -1    0    0    0  501 -0.00000000000E+00  0.00000000000E+00  0.66881622337E+03  0.66881622337E+03  0.00000000000E+00 0.  1.
          2   -1    0    0  501    0  0.00000000000E+00 -0.00000000000E+00 -0.40174728594E+03  0.40174728594E+03  0.00000000000E+00 0. -1.
         23    2    1    2    0    0 -0.63633291968E+01  0.45358511448E+03  0.38528744173E+03  0.60178257668E+03  0.88971393145E+02 0.  0.
         13    1    3    3    0    0 -0.22287018474E+02  0.12375148415E+03  0.64152669907E+02  0.14116198524E+03  0.00000000000E+00 0. -1.
        -13    1    3    3    0    0  0.15923689277E+02  0.32983363034E+03  0.32113477182E+03  0.46062059144E+03  0.00000000000E+00 0.  1.
         22    1    1    2    0    0  0.63633291968E+01 -0.45358511448E+03 -0.11821850431E+03  0.46878093263E+03  0.00000000000E+00 0.  1.
<mgrwt>
<rscale>  0 0.10367162E+04</rscale>
<asrwt>0</asrwt>
<pdfrwt beam="1">  1        2 0.61807275E-01 0.10367162E+04</pdfrwt>
<pdfrwt beam="2">  1       -2 0.10289480E+00 0.10367162E+04</pdfrwt>
<totfact> 0.60853249E+01</totfact>
</mgrwt>
</event>
<event>
 6    1  0.1637818E-005  0.2356218E+04  0.7818608E-02  0.8456079E-01
          2   -1    0    0  501    0  0.00000000000E+00  0.00000000000E+00  0.24998416849E+04  0.24998416849E+04  0.00000000000E+00 0. -1.
         -2   -1    0    0    0  501 -0.00000000000E+00 -0.00000000000E+00 -0.55521137710E+03  0.55521137710E+03  0.00000000000E+00 0.  1.
         23    2    1    2    0    0  0.80080044824E+03  0.22988418534E+03 -0.10300990820E+03  0.84440642567E+03  0.91011394593E+02 0.  0.
         11    1    3    3    0    0  0.21650883882E+03  0.80232796785E+02  0.84080331590E+01  0.23104993830E+03  0.00000000000E+00 0. -1.
        -11    1    3    3    0    0  0.58429160942E+03  0.14965138856E+03 -0.11141794136E+03  0.61335648737E+03  0.00000000000E+00 0.  1.
         22    1    1    2    0    0 -0.80080044824E+03 -0.22988418534E+03  0.20476402160E+04  0.22106466363E+04  0.00000000000E+00 0. -1.
<mgrwt>
<rscale>  0 0.23562178E+04</rscale>
<asrwt>0</asrwt>
<pdfrwt beam="1">  1        2 0.38459102E+00 0.23562178E+04</pdfrwt>
<pdfrwt beam="2">  1       -2 0.85417136E-01 0.23562178E+04</pdfrwt>
<totfact> 0.37437804E+00</totfact>
</mgrwt>
</event>
<event>
 6    1  0.1637818E-005  0.5961165E+04  0.7818608E-02  0.7695236E-01
         -2   -1    0    0    0  501 -0.00000000000E+00  0.00000000000E+00  0.25021513992E+04  0.25021513992E+04  0.00000000000E+00 0.  1.
          2   -1    0    0  501    0  0.00000000000E+00 -0.00000000000E+00 -0.35504929615E+04  0.35504929615E+04  0.00000000000E+00 0. -1.
         23    2    1    2    0    0 -0.12168358790E+04 -0.27173660383E+04 -0.40275086896E+03  0.30060798881E+04  0.97674399902E+02 0.  0.
         13    1    3    3    0    0 -0.45587992013E+03 -0.11249642451E+04 -0.18415586157E+03  0.12277151280E+04  0.00000000000E+00 0.  1.
        -13    1    3    3    0    0 -0.76095595882E+03 -0.15924017933E+04 -0.21859500739E+03  0.17783647601E+04  0.00000000000E+00 0. -1.
         22    1    1    2    0    0  0.12168358790E+04  0.27173660383E+04 -0.64559069331E+03  0.30465644726E+04  0.00000000000E+00 0.  1.
<mgrwt>
<rscale>  0 0.59611646E+04</rscale>
<asrwt>0</asrwt>
<pdfrwt beam="1">  1        2 0.54622968E+00 0.59611646E+04</pdfrwt>
<pdfrwt beam="2">  1       -2 0.38494637E+00 0.59611646E+04</pdfrwt>
<totfact> 0.46956634E-03</totfact>
</mgrwt>
</event>
<event>
 6    1  0.1637818E-005  0.2988446E+04  0.7818608E-02  0.8247038E-01
          2   -1    0    0  501    0  0.00000000000E+00  0.00000000000E+00  0.21973968577E+04  0.21973968577E+04  0.00000000000E+00 0. -1.
         -2   -1    0    0    0  501 -0.00000000000E+00 -0.00000000000E+00 -0.10160670667E+04  0.10160670667E+04  0.00000000000E+00 0.  1.
         23    2    1    2    0    0 -0.69221337653E+03  0.55563912965E+03 -0.69937734969E+03  0.11338116579E+04  0.92227963031E+02 0.  0.
         11    1    3    3    0    0 -0.50890471777E+03  0.41293078729E+03 -0.46317952534E+03  0.80251549490E+03  0.00000000000E+00 0. -1.
        -11    1    3    3    0    0 -0.18330865876E+03  0.14270834237E+03 -0.23619782436E+03  0.33129616295E+03  0.00000000000E+00 0.  1.
         22    1    1    2    0    0  0.69221337653E+03 -0.55563912965E+03  0.18807071407E+04  0.20796522666E+04  0.00000000000E+00 0. -1.
<mgrwt>
<rscale>  0 0.29884461E+04</rscale>
<asrwt>0</asrwt>
<pdfrwt beam="1">  1        2 0.33806105E+00 0.29884461E+04</pdfrwt>
<pdfrwt beam="2">  1       -2 0.15631801E+00 0.29884461E+04</pdfrwt>
<totfact> 0.11911941E+00</totfact>
</mgrwt>
</event>
<event>
 6    1  0.1637818E-005  0.6336122E+04  0.7818608E-02  0.7650068E-01
         -2   -1    0    0    0  501 -0.00000000000E+00  0.00000000000E+00  0.21659579896E+04  0.21659579896E+04  0.00000000000E+00 0.  1.
          2   -1    0    0  501    0  0.00000000000E+00 -0.00000000000E+00 -0.46337980899E+04  0.46337980899E+04  0.00000000000E+00 0. -1.
         23    2    1    2    0    0  0.17981658132E+04 -0.23338432644E+04 -0.24822081597E+04  0.38534989428E+04  0.88724739710E+02 0.  0.
         11    1    3    3    0    0  0.10627570859E+04 -0.14335882898E+04 -0.15396207458E+04  0.23569174888E+04  0.00000000000E+00 0. -1.
        -11    1    3    3    0    0  0.73540872722E+03 -0.90025497459E+03 -0.94258741399E+03  0.14965814540E+04  0.00000000000E+00 0.  1.
         22    1    1    2    0    0 -0.17981658132E+04  0.23338432644E+04  0.14368059518E+02  0.29462571367E+04  0.00000000000E+00 0. -1.
<mgrwt>
<rscale>  0 0.63361225E+04</rscale>
<asrwt>0</asrwt>
<pdfrwt beam="1">  1        2 0.71289200E+00 0.63361225E+04</pdfrwt>
<pdfrwt beam="2">  1       -2 0.33322431E+00 0.63361225E+04</pdfrwt>
<totfact> 0.11553048E-03</totfact>
</mgrwt>
</event>
<event>
 6    1  0.1637818E-005  0.3702165E+04  0.7818608E-02  0.8067482E-01
          2   -1    0    0  501    0  0.00000000000E+00  0.00000000000E+00  0.17891235311E+04  0.17891235311E+04  0.00000000000E+00 0. -1.
         -2   -1    0    0    0  501 -0.00000000000E+00 -0.00000000000E+00 -0.19151870392E+04  0.19151870392E+04  0.00000000000E+00 0.  1.
         23    2    1    2    0    0  0.11439456586E+04  0.14539061594E+04 -0.55628896799E+02  0.18529824458E+04  0.89412416368E+02 0.  0.
         13    1    3    3    0    0  0.88436136407E+03  0.11147043676E+04 -0.54790584184E+01  0.14229163256E+04  0.00000000000E+00 0.  1.
        -13    1    3    3    0    0  0.25958429454E+03  0.33920179174E+03 -0.50149838381E+02  0.43006612024E+03  0.00000000000E+00 0. -1.
         22    1    1    2    0    0 -0.11439456586E+04 -0.14539061594E+04 -0.70434611219E+02  0.18513281245E+04  0.00000000000E+00 0. -1.
<mgrwt>
<rscale>  0 0.37021649E+04</rscale>
<asrwt>0</asrwt>
<pdfrwt beam="1">  1        2 0.27524977E+00 0.37021649E+04</pdfrwt>
<pdfrwt beam="2">  1       -2 0.29464416E+00 0.37021649E+04</pdfrwt>
<totfact> 0.24238258E-01</totfact>
</mgrwt>
</event>
<event>
 6    1  0.1637818E-005  0.1683814E+04  0.7818608E-02  0.8770650E-01
         -1   -1    0    0    0  501 -0.00000000000E+00  0.00000000000E+00  0.47389352692E+03  0.47389352692E+03  0.00000000000E+00 0.  1.
          1   -1    0    0  501    0  0.00000000000E+00 -0.00000000000E+00 -0.14957096196E+04  0.14957096196E+04  0.00000000000E+00 0. -1.
         23    2    1    2    0    0 -0.65299946943E+03  0.10733526569E+03  0.91586926889E+02  0.67438291415E+03  0.92059672952E+02 0.  0.
         11    1    3    3    0    0 -0.23318020802E+03  0.82623254326E+02  0.25894910187E+02  0.24873712619E+03  0.00000000000E+00 0. -1.
        -11    1    3    3    0    0 -0.41981926141E+03  0.24712011361E+02  0.65692016702E+02  0.42564578796E+03  0.00000000000E+00 0.  1.
         22    1    1    2    0    0  0.65299946943E+03 -0.10733526569E+03 -0.11134030195E+04  0.12952202323E+04  0.00000000000E+00 0. -1.
<mgrwt>
<rscale>  0 0.16838137E+04</rscale>
<asrwt>0</asrwt>
<pdfrwt beam="1">  1        1 0.23010917E+00 0.16838137E+04</pdfrwt>
<pdfrwt beam="2">  1       -1 0.72906697E-01 0.16838137E+04</pdfrwt>
<totfact> 0.11904183E+01</totfact>
</mgrwt>
</event>
<event>
 6    1  0.1637818E-005  0.2327342E+04  0.7818608E-02  0.8467218E-01
         -2   -1    0    0    0  501 -0.00000000000E+00  0.00000000000E+00  0.16666888351E+04  0.16666888351E+04  0.00000000000E+00 0.  1.
          2   -1    0    0  501    0  0.00000000000E+00 -0.00000000000E+00 -0.81246721744E+03  0.81246721744E+03  0.00000000000E+00 0. -1.
         23    2    1    2    0    0 -0.75695364452E+03  0.77233546756E+03  0.88073084180E+03  0.13974057887E+04  0.87035786665E+02 0.  0.
         13    1    3    3    0    0 -0.17328066877E+03  0.20732217009E+03  0.18080836572E+03  0.32511588318E+03  0.00000000000E+00 0. -1.
        -13    1    3    3    0    0 -0.58367297575E+03  0.56501329747E+03  0.69992247607E+03  0.10722899055E+04  0.00000000000E+00 0.  1.
         22    1    1    2    0    0  0.75695364452E+03 -0.77233546756E+03 -0.26509224114E+02  0.10817502639E+04  0.00000000000E+00 0. -1.
<mgrwt>
<rscale>  0 0.23273419E+04</rscale>
<asrwt>0</asrwt>
<pdfrwt beam="1">  1        2 0.12499496E+00 0.23273419E+04</pdfrwt>
<pdfrwt beam="2">  1       -2 0.25641367E+00 0.23273419E+04</pdfrwt>
<totfact> 0.17910421E+00</totfact>
</mgrwt>
</event>
<event>
 6    1  0.1682157E-005  0.2256270E+04  0.7818608E-02  0.8495365E-01
         -1   -1    0    0    0  501 -0.00000000000E+00  0.00000000000E+00  0.91671305802E+03  0.91671305802E+03  0.00000000000E+00 0.  1.
          1   -1    0    0  501    0  0.00000000000E+00 -0.00000000000E+00 -0.13883178892E+04  0.13883178892E+04  0.00000000000E+00 0. -1.
         23    2    1    2    0    0  0.88111400421E+03 -0.86338879415E+02  0.47507094053E+03  0.10088784457E+04  0.91252556634E+02 0.  0.
         11    1    3    3    0    0  0.47097683516E+03 -0.66548672027E+02  0.30098352657E+03  0.56288452481E+03  0.00000000000E+00 0. -1.
        -11    1    3    3    0    0  0.41013716905E+03 -0.19790207388E+02  0.17408741396E+03  0.44599392086E+03  0.00000000000E+00 0.  1.
         22    1    1    2    0    0 -0.88111400421E+03  0.86338879415E+02 -0.94667577169E+03  0.12961525015E+04  0.00000000000E+00 0. -1.
<mgrwt>
<rscale>  0 0.22562705E+04</rscale>
<asrwt>0</asrwt>
<pdfrwt beam="1">  1        1 0.21358737E+00 0.22562705E+04</pdfrwt>
<pdfrwt beam="2">  1       -1 0.14103278E+00 0.22562705E+04</pdfrwt>
<totfact> 0.29209507E+00</totfact>
</mgrwt>
</event>
<event>
 6    1  0.1637818E-005  0.2270942E+04  0.7818608E-02  0.8489467E-01
         -1   -1    0    0    0  501 -0.00000000000E+00  0.00000000000E+00  0.73573911202E+03  0.73573911202E+03  0.00000000000E+00 0.  1.
          1   -1    0    0  501    0  0.00000000000E+00 -0.00000000000E+00 -0.17523793975E+04  0.17523793975E+04  0.00000000000E+00 0. -1.
         23    2    1    2    0    0  0.39501874677E+03  0.53198643688E+03  0.49864429713E+03  0.83429362592E+03  0.91380194012E+02 0.  0.
         13    1    3    3    0    0  0.37864499878E+02  0.40873939725E+02  0.76873394173E+02  0.94941655933E+02  0.00000000000E+00 0.  1.
        -13    1    3    3    0    0  0.35715424690E+03  0.49111249715E+03  0.42177090296E+03  0.73935196998E+03  0.00000000000E+00 0. -1.
         22    1    1    2    0    0 -0.39501874677E+03 -0.53198643688E+03 -0.15152845826E+04  0.16538248836E+04  0.00000000000E+00 0. -1.
<mgrwt>
<rscale>  0 0.22709417E+04</rscale>
<asrwt>0</asrwt>
<pdfrwt beam="1">  1        1 0.26959683E+00 0.22709417E+04</pdfrwt>
<pdfrwt beam="2">  1       -1 0.11319063E+00 0.22709417E+04</pdfrwt>
<totfact> 0.28357857E+00</totfact>
</mgrwt>
</event>
<event>
 6    1  0.1637818E-005  0.3007495E+04  0.7818608E-02  0.8241594E-01
          1   -1    0    0  501    0  0.00000000000E+00  0.00000000000E+00  0.17801468071E+04  0.17801468071E+04  0.00000000000E+00 0. -1.
         -1   -1    0    0    0  501 -0.00000000000E+00 -0.00000000000E+00 -0.12702640118E+04  0.12702640118E+04  0.00000000000E+00 0.  1.
         23    2    1    2    0    0 -0.14227220783E+04  0.53800838849E+02  0.74148709761E+03  0.16079569392E+04  0.93218883701E+02 0.  0.
         13    1    3    3    0    0 -0.39149716545E+03  0.13334907289E+02  0.25163349439E+03  0.46558271640E+03  0.00000000000E+00 0. -1.
        -13    1    3    3    0    0 -0.10312249128E+04  0.40465931560E+02  0.48985360322E+03  0.11423742228E+04  0.00000000000E+00 0.  1.
         22    1    1    2    0    0  0.14227220783E+04 -0.53800838849E+02 -0.23160430230E+03  0.14424538797E+04  0.00000000000E+00 0.  1.
<mgrwt>
<rscale>  0 0.30074949E+04</rscale>
<asrwt>0</asrwt>
<pdfrwt beam="1">  1        1 0.27386874E+00 0.30074949E+04</pdfrwt>
<pdfrwt beam="2">  1       -1 0.19542523E+00 0.30074949E+04</pdfrwt>
<totfact> 0.57876980E-01</totfact>
</mgrwt>
</event>
<event>
 6    1  0.1637818E-005  0.2164219E+04  0.7818608E-02  0.8533470E-01
          2   -1    0    0  501    0  0.00000000000E+00  0.00000000000E+00  0.14972334964E+04  0.14972334964E+04  0.00000000000E+00 0. -1.
         -2   -1    0    0    0  501 -0.00000000000E+00 -0.00000000000E+00 -0.78208288886E+03  0.78208288886E+03  0.00000000000E+00 0.  1.
         23    2    1    2    0    0 -0.49522073824E+03  0.88749187929E+03 -0.25894013077E+02  0.10215276331E+04  0.99813775780E+02 0.  0.
         13    1    3    3    0    0 -0.11541059909E+03  0.30197606314E+03 -0.65356013278E+01  0.32334480539E+03  0.00000000000E+00 0. -1.
        -13    1    3    3    0    0 -0.37981013915E+03  0.58551581615E+03 -0.19358411749E+02  0.69818282768E+03  0.00000000000E+00 0.  1.
         22    1    1    2    0    0  0.49522073824E+03 -0.88749187929E+03  0.74104462060E+03  0.12577887522E+04  0.00000000000E+00 0. -1.
<mgrwt>
<rscale>  0 0.21642187E+04</rscale>
<asrwt>0</asrwt>
<pdfrwt beam="1">  1        2 0.23034362E+00 0.21642187E+04</pdfrwt>
<pdfrwt beam="2">  1       -2 0.12032044E+00 0.21642187E+04</pdfrwt>
<totfact> 0.61614436E+00</totfact>
</mgrwt>
</event>
<event>
 6    1  0.1637818E-005  0.8894928E+03  0.7818608E-02  0.9438812E-01
          1   -1    0    0  501    0  0.00000000000E+00  0.00000000000E+00  0.35922476831E+03  0.35922476831E+03  0.00000000000E+00 0. -1.
         -1   -1    0    0    0  501 -0.00000000000E+00 -0.00000000000E+00 -0.55062835066E+03  0.55062835066E+03  0.00000000000E+00 0.  1.
         23    2    1    2    0    0  0.68166421432E+02 -0.53178439033E+02 -0.53836161033E+03  0.55228566999E+03  0.87815889306E+02 0.  0.
         13    1    3    3    0    0  0.65637740020E+02 -0.63202747438E+02 -0.29609471862E+03  0.30979829340E+03  0.00000000000E+00 0. -1.
        -13    1    3    3    0    0  0.25286814121E+01  0.10024308405E+02 -0.24226689171E+03  0.24248737659E+03  0.00000000000E+00 0.  1.
         22    1    1    2    0    0 -0.68166421432E+02  0.53178439033E+02  0.34695802798E+03  0.35756744898E+03  0.00000000000E+00 0. -1.
<mgrwt>
<rscale>  0 0.88949276E+03</rscale>
<asrwt>0</asrwt>
<pdfrwt beam="1">  1        1 0.55265349E-01 0.88949276E+03</pdfrwt>
<pdfrwt beam="2">  1       -1 0.84712054E-01 0.88949276E+03</pdfrwt>
<totfact> 0.96304785E+01</totfact>
</mgrwt>
</event>
<event>
 6    1  0.1637818E-005  0.1278625E+04  0.7818608E-02  0.9046689E-01
         -1   -1    0    0    0  501 -0.00000000000E+00  0.00000000000E+00  0.36520090866E+03  0.36520090866E+03  0.00000000000E+00 0.  1.
          1   -1    0    0  501    0  0.00000000000E+00 -0.00000000000E+00 -0.11191668740E+04  0.11191668740E+04  0.00000000000E+00 0. -1.
         23    2    1    2    0    0  0.15793788521E+03 -0.28660761565E+03 -0.10120124322E+04  0.10676229207E+04  0.92526953061E+02 0.  0.
         13    1    3    3    0    0 -0.74492857825E+01 -0.54850315753E+02 -0.16565950952E+03  0.17466288126E+03  0.00000000000E+00 0. -1.
        -13    1    3    3    0    0  0.16538717099E+03 -0.23175729990E+03 -0.84635292264E+03  0.89296003944E+03  0.00000000000E+00 0.  1.
         22    1    1    2    0    0 -0.15793788521E+03  0.28660761565E+03  0.25804646681E+03  0.41674486196E+03  0.00000000000E+00 0.  1.
<mgrwt>
<rscale>  0 0.12786254E+04</rscale>
<asrwt>0</asrwt>
<pdfrwt beam="1">  1        1 0.17217952E+00 0.12786254E+04</pdfrwt>
<pdfrwt beam="2">  1       -1 0.56184756E-01 0.12786254E+04</pdfrwt>
<totfact> 0.38682067E+01</totfact>
</mgrwt>
</event>
<event>
 6    1  0.1637818E-005  0.4462191E+04  0.7818608E-02  0.7917290E-01
         -1   -1    0    0    0  501 -0.00000000000E+00  0.00000000000E+00  0.18869019441E+04  0.18869019441E+04  0.00000000000E+00 0.  1.
          1   -1    0    0  501    0  0.00000000000E+00 -0.00000000000E+00 -0.26380739902E+04  0.26380739902E+04  0.00000000000E+00 0. -1.
         23    2    1    2    0    0  0.19081531621E+04  0.28148580112E+03 -0.15110787215E+04  0.24518765875E+04  0.89761637530E+02 0.  0.
         13    1    3    3    0    0  0.15613847201E+04  0.19530334363E+03 -0.12359367331E+04  0.20009011091E+04  0.00000000000E+00 0.  1.
        -13    1    3    3    0    0  0.34676844197E+03  0.86182457484E+02 -0.27514198837E+03  0.45097547837E+03  0.00000000000E+00 0. -1.
         22    1    1    2    0    0 -0.19081531621E+04 -0.28148580112E+03  0.75990667540E+03  0.20730993468E+04  0.00000000000E+00 0.  1.
<mgrwt>
<rscale>  0 0.44621909E+04</rscale>
<asrwt>0</asrwt>
<pdfrwt beam="1">  1        1 0.40585753E+00 0.44621909E+04</pdfrwt>
<pdfrwt beam="2">  1       -1 0.29029261E+00 0.44621909E+04</pdfrwt>
<totfact> 0.31221547E-02</totfact>
</mgrwt>
</event>
<event>
 6    1  0.1637818E-005  0.2767476E+04  0.7818608E-02  0.8313437E-01
         -2   -1    0    0    0  501 -0.00000000000E+00  0.00000000000E+00  0.58969302168E+03  0.58969302168E+03  0.00000000000E+00 0.  1.
          2   -1    0    0  501    0  0.00000000000E+00 -0.00000000000E+00 -0.32469964267E+04  0.32469964267E+04  0.00000000000E+00 0. -1.
         23    2    1    2    0    0  0.68768370135E+03 -0.89859622234E+02  0.32760746074E+03  0.77226837722E+03  0.89934272170E+02 0.  0.
         11    1    3    3    0    0  0.51828379045E+03 -0.65712213566E+02  0.20253207667E+03  0.56031725347E+03  0.00000000000E+00 0.  1.
        -11    1    3    3    0    0  0.16939991090E+03 -0.24147408667E+02  0.12507538407E+03  0.21195112375E+03  0.00000000000E+00 0. -1.
         22    1    1    2    0    0 -0.68768370135E+03  0.89859622234E+02 -0.29849108657E+04  0.30644210711E+04  0.00000000000E+00 0. -1.
<mgrwt>
<rscale>  0 0.27674762E+04</rscale>
<asrwt>0</asrwt>
<pdfrwt beam="1">  1        2 0.49953791E+00 0.27674762E+04</pdfrwt>
<pdfrwt beam="2">  1       -2 0.90722004E-01 0.27674762E+04</pdfrwt>
<totfact> 0.10929801E+00</totfact>
</mgrwt>
</event>
<event>
 6    1  0.1637818E-005  0.5284614E+04  0.7818608E-02  0.7786042E-01
          2   -1    0    0  501    0  0.00000000000E+00  0.00000000000E+00  0.37183734290E+04  0.37183734290E+04  0.00000000000E+00 0.  1.
         -2   -1    0    0    0  501 -0.00000000000E+00 -0.00000000000E+00 -0.18776453824E+04  0.18776453824E+04  0.00000000000E+00 0. -1.
         23    2    1    2    0    0 -0.12692635484E+04  0.64704825728E+03  0.32761251594E+04  0.35736275847E+04  0.90092463690E+02 0.  0.
         13    1    3    3    0    0 -0.87097013947E+03  0.41720710436E+03  0.21309110630E+04  0.23395368581E+04  0.00000000000E+00 0.  1.
        -13    1    3    3    0    0 -0.39829340897E+03  0.22984115293E+03  0.11452140963E+04  0.12340907267E+04  0.00000000000E+00 0. -1.
         22    1    1    2    0    0  0.12692635484E+04 -0.64704825728E+03 -0.14353971127E+04  0.20223912267E+04  0.00000000000E+00 0. -1.
<mgrwt>
<rscale>  0 0.52846142E+04</rscale>
<asrwt>0</asrwt>
<pdfrwt beam="1">  1        2 0.57205745E+00 0.52846142E+04</pdfrwt>
<pdfrwt beam="2">  1       -2 0.28886852E+00 0.52846142E+04</pdfrwt>
<totfact> 0.14923167E-02</totfact>
</mgrwt>
</event>
<event>
 6    1  0.1637818E-005  0.2977937E+04  0.7818608E-02  0.8250059E-01
         -1   -1    0    0    0  501 -0.00000000000E+00  0.00000000000E+00  0.20989072783E+04  0.20989072783E+04  0.00000000000E+00 0.  1.
          1   -1    0    0  501    0  0.00000000000E+00 -0.00000000000E+00 -0.10562770749E+04  0.10562770749E+04  0.00000000000E+00 0. -1.
         23    2    1    2    0    0 -0.12010301728E+04  0.73479314546E+03  0.13261899257E+02  0.14110531803E+04  0.92199550235E+02 0.  0.
         11    1    3    3    0    0 -0.61421495312E+03  0.41985642538E+03  0.33549284784E+02  0.74475833737E+03  0.00000000000E+00 0.  1.
        -11    1    3    3    0    0 -0.58681521968E+03  0.31493672008E+03 -0.20287385527E+02  0.66629484292E+03  0.00000000000E+00 0. -1.
         22    1    1    2    0    0  0.12010301728E+04 -0.73479314546E+03  0.10293683042E+04  0.17441311729E+04  0.00000000000E+00 0. -1.
<mgrwt>
<rscale>  0 0.29779373E+04</rscale>
<asrwt>0</asrwt>
<pdfrwt beam="1">  1        1 0.16250417E+00 0.29779373E+04</pdfrwt>
<pdfrwt beam="2">  1       -1 0.32290881E+00 0.29779373E+04</pdfrwt>
<totfact> 0.27335371E-01</totfact>
</mgrwt>
</event>
<event>
 6    1  0.1875865E-005  0.3787137E+04  0.7818608E-02  0.8048921E-01
         -2   -1    0    0    0  501 -0.00000000000E+00  0.00000000000E+00  0.16448611850E+04  0.16448611850E+04  0.00000000000E+00 0.  1.
          2   -1    0    0  501    0  0.00000000000E+00 -0.00000000000E+00 -0.21798814371E+04  0.21798814371E+04  0.00000000000E+00 0. -1.
         23    2    1    2    0    0  0.25005530970E+03 -0.10089861255E+04  0.13294788834E+04  0.16900441222E+04  0.90301574299E+02 0.  0.
         13    1    3    3    0    0  0.10443251671E+03 -0.58957597006E+03  0.79387050709E+03  0.99435222987E+03  0.00000000000E+00 0.  1.
        -13    1    3    3    0    0  0.14562279299E+03 -0.41941015546E+03  0.53560837629E+03  0.69569189236E+03  0.00000000000E+00 0. -1.
         22    1    1    2    0    0 -0.25005530970E+03  0.10089861255E+04 -0.18644991354E+04  0.21346984999E+04  0.00000000000E+00 0. -1.
<mgrwt>
<rscale>  0 0.37871374E+04</rscale>
<asrwt>0</asrwt>
<pdfrwt beam="1">  1        2 0.33536637E+00 0.37871374E+04</pdfrwt>
<pdfrwt beam="2">  1       -2 0.25305557E+00 0.37871374E+04</pdfrwt>
<totfact> 0.26182462E-01</totfact>
</mgrwt>
</event>
<event>
 6    1  0.1637818E-005  0.1078524E+04  0.7818608E-02  0.9226381E-01
          1   -1    0    0  501    0  0.00000000000E+00  0.00000000000E+00  0.12948444800E+04  0.12948444800E+04  0.00000000000E+00 0. -1.
         -1   -1    0    0    0  501 -0.00000000000E+00 -0.00000000000E+00 -0.22458552757E+03  0.22458552757E+03  0.00000000000E+00 0.  1.
         23    2    1    2    0    0  0.10304249279E+03 -0.52560817248E+03  0.53277620486E+03  0.76063529867E+03  0.88509134111E+02 0.  0.
         13    1    3    3    0    0  0.31018065900E+02 -0.21082974967E+03  0.15414109049E+03  0.26300338313E+03  0.00000000000E+00 0. -1.
        -13    1    3    3    0    0  0.72024426890E+02 -0.31477842281E+03  0.37863511437E+03  0.49763191554E+03  0.00000000000E+00 0.  1.
         22    1    1    2    0    0 -0.10304249279E+03  0.52560817248E+03  0.53748274756E+03  0.75879470888E+03  0.00000000000E+00 0. -1.
<mgrwt>
<rscale>  0 0.10785237E+04</rscale>
<asrwt>0</asrwt>
<pdfrwt beam="1">  1        1 0.19920684E+00 0.10785237E+04</pdfrwt>
<pdfrwt beam="2">  1       -1 0.34551620E-01 0.10785237E+04</pdfrwt>
<totfact> 0.72238805E+01</totfact>
</mgrwt>
</event>
<event>
 6    1  0.1637818E-005  0.2652088E+04  0.7818608E-02  0.8350720E-01
         -2   -1    0    0    0  501 -0.00000000000E+00  0.00000000000E+00  0.10657741429E+04  0.10657741429E+04  0.00000000000E+00 0. -1.
          2   -1    0    0  501    0  0.00000000000E+00 -0.00000000000E+00 -0.16498734297E+04  0.16498734297E+04  0.00000000000E+00 0.  1.
         23    2    1    2    0    0 -0.11372821046E+04  0.66907073324E+03 -0.17531863412E+03  0.13342830829E+04  0.92241477754E+02 0.  0.
         11    1    3    3    0    0 -0.60312931970E+03  0.30963940514E+03 -0.11481271096E+03  0.68762162277E+03  0.00000000000E+00 0.  1.
        -11    1    3    3    0    0 -0.53415278491E+03  0.35943132810E+03 -0.60505923163E+02  0.64666146010E+03  0.00000000000E+00 0. -1.
         22    1    1    2    0    0  0.11372821046E+04 -0.66907073324E+03 -0.40878065268E+03  0.13813644897E+04  0.00000000000E+00 0. -1.
<mgrwt>
<rscale>  0 0.26520878E+04</rscale>
<asrwt>0</asrwt>
<pdfrwt beam="1">  1        2 0.25382668E+00 0.26520878E+04</pdfrwt>
<pdfrwt beam="2">  1       -2 0.16396525E+00 0.26520878E+04</pdfrwt>
<totfact> 0.21702487E+00</totfact>
</mgrwt>
</event>
<event>
 6    1  0.1637818E-005  0.1861040E+04  0.7818608E-02  0.8674496E-01
         -1   -1    0    0    0  501 -0.00000000000E+00  0.00000000000E+00  0.43090812130E+03  0.43090812130E+03  0.00000000000E+00 0.  1.
          1   -1    0    0  501    0  0.00000000000E+00 -0.00000000000E+00 -0.20094014908E+04  0.20094014908E+04  0.00000000000E+00 0. -1.
         23    2    1    2    0    0 -0.73145282102E+03 -0.39709846001E+03 -0.13304646915E+04  0.15718462326E+04  0.88622047549E+02 0.  0.
         11    1    3    3    0    0 -0.32693102185E+03 -0.19925327158E+03 -0.53711120154E+03  0.65960154799E+03  0.00000000000E+00 0.  1.
        -11    1    3    3    0    0 -0.40452179917E+03 -0.19784518842E+03 -0.79335349000E+03  0.91224468465E+03  0.00000000000E+00 0. -1.
         22    1    1    2    0    0  0.73145282102E+03  0.39709846001E+03 -0.24802867791E+03  0.86846337941E+03  0.00000000000E+00 0.  1.
<mgrwt>
<rscale>  0 0.18610399E+04</rscale>
<asrwt>0</asrwt>
<pdfrwt beam="1">  1        1 0.30913870E+00 0.18610399E+04</pdfrwt>
<pdfrwt beam="2">  1       -1 0.66293556E-01 0.18610399E+04</pdfrwt>
<totfact> 0.63564399E+00</totfact>
</mgrwt>
</event>
<event>
 6    1  0.1637818E-005  0.5190077E+04  0.7818608E-02  0.7799837E-01
         -1   -1    0    0    0  501 -0.00000000000E+00  0.00000000000E+00  0.17583319988E+04  0.17583319988E+04  0.00000000000E+00 0.  1.
          1   -1    0    0  501    0  0.00000000000E+00 -0.00000000000E+00 -0.38298941465E+04  0.38298941465E+04  0.00000000000E+00 0. -1.
         23    2    1    2    0    0  0.61779940963E+03  0.17503624395E+04 -0.29873322557E+04  0.35184243019E+04  0.98543301950E+02 0.  0.
         11    1    3    3    0    0  0.29346328099E+03  0.69085975388E+03 -0.11834297219E+04  0.14013970899E+04  0.00000000000E+00 0.  1.
        -11    1    3    3    0    0  0.32433612863E+03  0.10595026856E+04 -0.18039025338E+04  0.21170272121E+04  0.00000000000E+00 0. -1.
         22    1    1    2    0    0 -0.61779940963E+03 -0.17503624395E+04  0.91577010791E+03  0.20698018433E+04  0.00000000000E+00 0.  1.
<mgrwt>
<rscale>  0 0.51900772E+04</rscale>
<asrwt>0</asrwt>
<pdfrwt beam="1">  1        1 0.58921448E+00 0.51900772E+04</pdfrwt>
<pdfrwt beam="2">  1       -1 0.27051262E+00 0.51900772E+04</pdfrwt>
<totfact> 0.48927184E-03</totfact>
</mgrwt>
</event>
<event>
 6    1  0.1637818E-005  0.1142022E+04  0.7818608E-02  0.9165175E-01
          1   -1    0    0  501    0  0.00000000000E+00  0.00000000000E+00  0.13704086179E+04  0.13704086179E+04  0.00000000000E+00 0. -1.
         -1   -1    0    0    0  501 -0.00000000000E+00 -0.00000000000E+00 -0.23792433509E+03  0.23792433509E+03  0.00000000000E+00 0.  1.
         23    2    1    2    0    0 -0.27362336539E+03 -0.93095527720E+02  0.12573792813E+04  0.12934753915E+04  0.92408916873E+02 0.  0.
         11    1    3    3    0    0 -0.49014771141E+02 -0.23598554864E+02  0.11587170536E+03  0.12800621737E+03  0.00000000000E+00 0.  1.
        -11    1    3    3    0    0 -0.22460859425E+03 -0.69496972857E+02  0.11415075759E+04  0.11654691741E+04  0.00000000000E+00 0. -1.
         22    1    1    2    0    0  0.27362336539E+03  0.93095527720E+02 -0.12489499853E+03  0.31485756149E+03  0.00000000000E+00 0.  1.
<mgrwt>
<rscale>  0 0.11420220E+04</rscale>
<asrwt>0</asrwt>
<pdfrwt beam="1">  1        1 0.21083209E+00 0.11420220E+04</pdfrwt>
<pdfrwt beam="2">  1       -1 0.36603745E-01 0.11420220E+04</pdfrwt>
<totfact> 0.57309179E+01</totfact>
</mgrwt>
</event>
<event>
 6    1  0.1637818E-005  0.4968899E+04  0.7818608E-02  0.7833323E-01
          2   -1    0    0  501    0  0.00000000000E+00  0.00000000000E+00  0.27165080084E+04  0.27165080084E+04  0.00000000000E+00 0.  1.
         -2   -1    0    0    0  501 -0.00000000000E+00 -0.00000000000E+00 -0.22722149545E+04  0.22722149545E+04  0.00000000000E+00 0. -1.
         23    2    1    2    0    0  0.22858668186E+04  0.64786620778E+03  0.94865566878E+03  0.25598756266E+04  0.89988390529E+02 0.  0.
         13    1    3    3    0    0  0.13700469241E+04  0.41449221401E+03  0.53240274183E+03  0.15271820616E+04  0.00000000000E+00 0. -1.
        -13    1    3    3    0    0  0.91581989451E+03  0.23337399377E+03  0.41625292695E+03  0.10326935651E+04  0.00000000000E+00 0.  1.
         22    1    1    2    0    0 -0.22858668186E+04 -0.64786620778E+03 -0.50436261496E+03  0.24288473363E+04  0.00000000000E+00 0. -1.
<mgrwt>
<rscale>  0 0.49688993E+04</rscale>
<asrwt>0</asrwt>
<pdfrwt beam="1">  1        2 0.41792431E+00 0.49688993E+04</pdfrwt>
<pdfrwt beam="2">  1       -2 0.34957153E+00 0.49688993E+04</pdfrwt>
<totfact> 0.29659345E-02</totfact>
</mgrwt>
</event>
<event>
 6    1  0.2113352E-005  0.3328403E+04  0.7818608E-02  0.8155706E-01
          2   -1    0    0  501    0  0.00000000000E+00  0.00000000000E+00  0.25088318808E+04  0.25088318808E+04  0.00000000000E+00 0. -1.
         -2   -1    0    0    0  501 -0.00000000000E+00 -0.00000000000E+00 -0.11039268284E+04  0.11039268284E+04  0.00000000000E+00 0.  1.
         23    2    1    2    0    0  0.11018491292E+01  0.81697497496E+03  0.22751594394E+04  0.24191121862E+04  0.91126125478E+02 0.  0.
         11    1    3    3    0    0  0.44381441078E+02  0.30891814153E+03  0.87747988993E+03  0.93132759420E+03  0.00000000000E+00 0. -1.
        -11    1    3    3    0    0 -0.43279591949E+02  0.50805683343E+03  0.13976795495E+04  0.14877845920E+04  0.00000000000E+00 0.  1.
         22    1    1    2    0    0 -0.11018491292E+01 -0.81697497496E+03 -0.87025438701E+03  0.11936465230E+04  0.00000000000E+00 0.  1.
<mgrwt>
<rscale>  0 0.33284031E+04</rscale>
<asrwt>0</asrwt>
<pdfrwt beam="1">  1        2 0.38597413E+00 0.33284031E+04</pdfrwt>
<pdfrwt beam="2">  1       -2 0.16983490E+00 0.33284031E+04</pdfrwt>
<totfact> 0.61254434E-01</totfact>
</mgrwt>
</event>
<event>
 6    1  0.1637818E-005  0.2459899E+04  0.7818608E-02  0.8417413E-01
         -1   -1    0    0    0  501 -0.00000000000E+00  0.00000000000E+00  0.15316233513E+04  0.15316233513E+04  0.00000000000E+00 0.  1.
          1   -1    0    0  501    0  0.00000000000E+00 -0.00000000000E+00 -0.98769437037E+03  0.98769437037E+03  0.00000000000E+00 0. -1.
         23    2    1    2    0    0 -0.84319076719E+03 -0.74785029806E+03  0.77252257080E+03  0.13693152140E+04  0.89343688833E+02 0.  0.
         11    1    3    3    0    0 -0.32942593524E+03 -0.34419922694E+03  0.30069084741E+03  0.56339110780E+03  0.00000000000E+00 0. -1.
        -11    1    3    3    0    0 -0.51376483195E+03 -0.40365107112E+03  0.47183172340E+03  0.80592410621E+03  0.00000000000E+00 0.  1.
         22    1    1    2    0    0  0.84319076719E+03  0.74785029806E+03 -0.22859358992E+03  0.11500025076E+04  0.00000000000E+00 0. -1.
<mgrwt>
<rscale>  0 0.24598990E+04</rscale>
<asrwt>0</asrwt>
<pdfrwt beam="1">  1        1 0.15195298E+00 0.24598990E+04</pdfrwt>
<pdfrwt beam="2">  1       -1 0.23563436E+00 0.24598990E+04</pdfrwt>
<totfact> 0.11947165E+00</totfact>
</mgrwt>
</event>
<event>
 6    1  0.1637818E-005  0.4230226E+04  0.7818608E-02  0.7959647E-01
         -2   -1    0    0    0  501 -0.00000000000E+00  0.00000000000E+00  0.35822894555E+04  0.35822894555E+04  0.00000000000E+00 0.  1.
          2   -1    0    0  501    0  0.00000000000E+00 -0.00000000000E+00 -0.12488393039E+04  0.12488393039E+04  0.00000000000E+00 0. -1.
         23    2    1    2    0    0 -0.15827606883E+04  0.72985901177E+03 -0.19919901615E+03  0.17566959044E+04  0.92058019564E+02 0.  0.
         11    1    3    3    0    0 -0.14210572109E+04  0.66980655622E+03 -0.15500058591E+03  0.15786290258E+04  0.00000000000E+00 0.  1.
        -11    1    3    3    0    0 -0.16170347734E+03  0.60052455549E+02 -0.44198430243E+02  0.17806687855E+03  0.00000000000E+00 0. -1.
         22    1    1    2    0    0  0.15827606883E+04 -0.72985901177E+03  0.25326491677E+04  0.30744328551E+04  0.00000000000E+00 0.  1.
<mgrwt>
<rscale>  0 0.42302264E+04</rscale>
<asrwt>0</asrwt>
<pdfrwt beam="1">  1        2 0.19212913E+00 0.42302264E+04</pdfrwt>
<pdfrwt beam="2">  1       -2 0.55112145E+00 0.42302264E+04</pdfrwt>
<totfact> 0.11591555E-02</totfact>
</mgrwt>
</event>
<event>
 6    1  0.1637818E-005  0.3984489E+04  0.7818608E-02  0.8007683E-01
         -2   -1    0    0    0  501 -0.00000000000E+00  0.00000000000E+00  0.14024666043E+04  0.14024666043E+04  0.00000000000E+00 0.  1.
          2   -1    0    0  501    0  0.00000000000E+00 -0.00000000000E+00 -0.28300414570E+04  0.28300414570E+04  0.00000000000E+00 0. -1.
         23    2    1    2    0    0 -0.10630334438E+04  0.15282993626E+04  0.36386621545E+02  0.18641917306E+04  0.90265043000E+02 0.  0.
         11    1    3    3    0    0 -0.95024227808E+02  0.18362285759E+03 -0.49503175475E+01  0.20681262859E+03  0.00000000000E+00 0.  1.
        -11    1    3    3    0    0 -0.96800921602E+03  0.13446765050E+04  0.41336939093E+02  0.16573791020E+04  0.00000000000E+00 0. -1.
         22    1    1    2    0    0  0.10630334438E+04 -0.15282993626E+04 -0.14639614742E+04  0.23683163307E+04  0.00000000000E+00 0. -1.
<mgrwt>
<rscale>  0 0.39844892E+04</rscale>
<asrwt>0</asrwt>
<pdfrwt beam="1">  1        2 0.43539099E+00 0.39844892E+04</pdfrwt>
<pdfrwt beam="2">  1       -2 0.21576409E+00 0.39844892E+04</pdfrwt>
<totfact> 0.18411952E-01</totfact>
</mgrwt>
</event>
<event>
 6    1  0.1637818E-005  0.1789603E+04  0.7818608E-02  0.8711848E-01
         -2   -1    0    0    0  501 -0.00000000000E+00  0.00000000000E+00  0.31300470125E+03  0.31300470125E+03  0.00000000000E+00 0. -1.
          2   -1    0    0  501    0  0.00000000000E+00 -0.00000000000E+00 -0.25580131674E+04  0.25580131674E+04  0.00000000000E+00 0.  1.
         23    2    1    2    0    0 -0.88933152571E+03  0.48186775368E+02 -0.12157940253E+04  0.15099466386E+04  0.92472761301E+02 0.  0.
         11    1    3    3    0    0 -0.35175117517E+03 -0.19149404085E+02 -0.52024798321E+03  0.62829416116E+03  0.00000000000E+00 0.  1.
        -11    1    3    3    0    0 -0.53758035054E+03  0.67336179453E+02 -0.69554604212E+03  0.88165247749E+03  0.00000000000E+00 0. -1.
         22    1    1    2    0    0  0.88933152571E+03 -0.48186775368E+02 -0.10292144408E+04  0.13610712300E+04  0.00000000000E+00 0.  1.
<mgrwt>
<rscale>  0 0.17896035E+04</rscale>
<asrwt>0</asrwt>
<pdfrwt beam="1">  1        2 0.39354048E+00 0.17896035E+04</pdfrwt>
<pdfrwt beam="2">  1       -2 0.48154571E-01 0.17896035E+04</pdfrwt>
<totfact> 0.12449997E+01</totfact>
</mgrwt>
</event>
<event>
 6    1  0.1637818E-005  0.7370660E+03  0.7818608E-02  0.9655863E-01
          1   -1    0    0  501    0  0.00000000000E+00  0.00000000000E+00  0.10297301558E+04  0.10297301558E+04  0.00000000000E+00 0. -1.
         -1   -1    0    0    0  501 -0.00000000000E+00 -0.00000000000E+00 -0.13189531959E+03  0.13189531959E+03  0.00000000000E+00 0.  1.
         23    2    1    2    0    0 -0.30440127793E+03  0.14407600555E+03  0.24563874597E+03  0.42761064344E+03  0.95364749676E+02 0.  0.
         11    1    3    3    0    0 -0.19790172303E+03  0.54124058948E+02  0.10864302582E+03  0.23215902479E+03  0.00000000000E+00 0. -1.
        -11    1    3    3    0    0 -0.10649955491E+03  0.89951946597E+02  0.13699572016E+03  0.19545161865E+03  0.00000000000E+00 0.  1.
         22    1    1    2    0    0  0.30440127793E+03 -0.14407600555E+03  0.65219609020E+03  0.73401483191E+03  0.00000000000E+00 0. -1.
<mgrwt>
<rscale>  0 0.73706604E+03</rscale>
<asrwt>0</asrwt>
<pdfrwt beam="1">  1        1 0.15842002E+00 0.73706604E+03</pdfrwt>
<pdfrwt beam="2">  1       -1 0.20291588E-01 0.73706604E+03</pdfrwt>
<totfact> 0.28977492E+02</totfact>
</mgrwt>
</event>
<event>
 6    1  0.1637818E-005  0.4880650E+03  0.7818608E-02  0.1016942E+00
         -1   -1    0    0    0  501 -0.00000000000E+00  0.00000000000E+00  0.25252591977E+02  0.25252591977E+02  0.00000000000E+00 0.  1.
          1   -1    0    0  501    0  0.00000000000E+00 -0.00000000000E+00 -0.23582474343E+04  0.23582474343E+04  0.00000000000E+00 0. -1.
         23    2    1    2    0    0  0.15338175156E+03 -0.28334626719E+02 -0.20697056735E+04  0.20774771527E+04  0.88887186518E+02 0.  0.
         11    1    3    3    0    0  0.74222259240E+02 -0.52119946154E+02 -0.80974241609E+03  0.81480562895E+03  0.00000000000E+00 0. -1.
        -11    1    3    3    0    0  0.79159492322E+02  0.23785319435E+02 -0.12599632574E+04  0.12626715237E+04  0.00000000000E+00 0.  1.
         22    1    1    2    0    0 -0.15338175156E+03  0.28334626719E+02 -0.26328916879E+03  0.30602287363E+03  0.00000000000E+00 0.  1.
<mgrwt>
<rscale>  0 0.48806500E+03</rscale>
<asrwt>0</asrwt>
<pdfrwt beam="1">  1        1 0.36280745E+00 0.48806500E+03</pdfrwt>
<pdfrwt beam="2">  1       -1 0.38850125E-02 0.48806500E+03</pdfrwt>
<totfact> 0.49191330E+02</totfact>
</mgrwt>
</event>
<event>
 6    1  0.1637818E-005  0.2140468E+04  0.7818608E-02  0.8543623E-01
          1   -1    0    0  501    0  0.00000000000E+00  0.00000000000E+00  0.73424647941E+03  0.73424647941E+03  0.00000000000E+00 0. -1.
         -1   -1    0    0    0  501 -0.00000000000E+00 -0.00000000000E+00 -0.15599679134E+04  0.15599679134E+04  0.00000000000E+00 0.  1.
         23    2    1    2    0    0  0.19171412184E+03 -0.10472867839E+04 -0.50783764004E+03  0.11830825291E+04  0.90671328227E+02 0.  0.
         11    1    3    3    0    0  0.15353968161E+03 -0.59340652407E+03 -0.29981597559E+03  0.68234548131E+03  0.00000000000E+00 0. -1.
        -11    1    3    3    0    0  0.38174440235E+02 -0.45388025979E+03 -0.20802166445E+03  0.50073704776E+03  0.00000000000E+00 0.  1.
         22    1    1    2    0    0 -0.19171412184E+03  0.10472867839E+04 -0.31788379394E+03  0.11111318637E+04  0.00000000000E+00 0. -1.
<mgrwt>
<rscale>  0 0.21404681E+04</rscale>
<asrwt>0</asrwt>
<pdfrwt beam="1">  1        1 0.11296100E+00 0.21404681E+04</pdfrwt>
<pdfrwt beam="2">  1       -1 0.23999506E+00 0.21404681E+04</pdfrwt>
<totfact> 0.18809708E+00</totfact>
</mgrwt>
</event>
<event>
 6    1  0.1637818E-005  0.7937146E+03  0.7818608E-02  0.9569160E-01
         -1   -1    0    0    0  501 -0.00000000000E+00  0.00000000000E+00  0.19502804338E+03  0.19502804338E+03  0.00000000000E+00 0.  1.
          1   -1    0    0  501    0  0.00000000000E+00 -0.00000000000E+00 -0.80755426726E+03  0.80755426726E+03  0.00000000000E+00 0. -1.
         23    2    1    2    0    0  0.24353596309E+03 -0.19045345376E+03 -0.61401100288E+03  0.69341489977E+03  0.90732729486E+02 0.  0.
         13    1    3    3    0    0  0.12269569210E+03 -0.11005348745E+03 -0.23057070709E+03  0.28342345338E+03  0.00000000000E+00 0. -1.
        -13    1    3    3    0    0  0.12084027099E+03 -0.80399966312E+02 -0.38344029579E+03  0.40999144639E+03  0.00000000000E+00 0.  1.
         22    1    1    2    0    0 -0.24353596309E+03  0.19045345376E+03  0.14847790005E+01  0.30916741086E+03  0.00000000000E+00 0.  1.
<mgrwt>
<rscale>  0 0.79371463E+03</rscale>
<asrwt>0</asrwt>
<pdfrwt beam="1">  1        1 0.12423912E+00 0.79371463E+03</pdfrwt>
<pdfrwt beam="2">  1       -1 0.30004314E-01 0.79371463E+03</pdfrwt>
<totfact> 0.22433836E+02</totfact>
</mgrwt>
</event>
<event>
 6    1  0.1637818E-005  0.3067059E+04  0.7818608E-02  0.8224837E-01
         -2   -1    0    0    0  501 -0.00000000000E+00  0.00000000000E+00  0.79619057625E+03  0.79619057625E+03  0.00000000000E+00 0.  1.
          2   -1    0    0  501    0  0.00000000000E+00 -0.00000000000E+00 -0.29537062570E+04  0.29537062570E+04  0.00000000000E+00 0. -1.
         23    2    1    2    0    0  0.45036551802E+03 -0.14182106461E+04 -0.15262688328E+04  0.21335357599E+04  0.91256518044E+02 0.  0.
         13    1    3    3    0    0  0.30463331546E+03 -0.81104168267E+03 -0.89223341121E+03  0.12436520928E+04  0.00000000000E+00 0. -1.
        -13    1    3    3    0    0  0.14573220255E+03 -0.60716896344E+03 -0.63403542160E+03  0.88988366704E+03  0.00000000000E+00 0.  1.
         22    1    1    2    0    0 -0.45036551802E+03  0.14182106461E+04 -0.63124684795E+03  0.16163610734E+04  0.00000000000E+00 0.  1.
<mgrwt>
<rscale>  0 0.30670592E+04</rscale>
<asrwt>0</asrwt>
<pdfrwt beam="1">  1        2 0.45441634E+00 0.30670592E+04</pdfrwt>
<pdfrwt beam="2">  1       -2 0.12249086E+00 0.30670592E+04</pdfrwt>
<totfact> 0.79877609E-01</totfact>
</mgrwt>
</event>
<event>
 6    1  0.1637818E-005  0.9155523E+03  0.7818608E-02  0.9406346E-01
         -1   -1    0    0    0  501 -0.00000000000E+00  0.00000000000E+00  0.78601307405E+02  0.78601307405E+02  0.00000000000E+00 0.  1.
          1   -1    0    0  501    0  0.00000000000E+00 -0.00000000000E+00 -0.26661008701E+04  0.26661008701E+04  0.00000000000E+00 0. -1.
         23    2    1    2    0    0 -0.39743891860E+03  0.96423873776E+02 -0.18923772088E+04  0.19381971594E+04  0.90892632206E+02 0.  0.
         13    1    3    3    0    0 -0.24914599382E+03  0.17839727827E+02 -0.12065113637E+04  0.12320964463E+04  0.00000000000E+00 0. -1.
        -13    1    3    3    0    0 -0.14829292478E+03  0.78584145949E+02 -0.68586584514E+03  0.70610071312E+03  0.00000000000E+00 0.  1.
         22    1    1    2    0    0  0.39743891860E+03 -0.96423873776E+02 -0.69512235385E+03  0.80650501813E+03  0.00000000000E+00 0.  1.
<mgrwt>
<rscale>  0 0.91555232E+03</rscale>
<asrwt>0</asrwt>
<pdfrwt beam="1">  1        1 0.41016934E+00 0.91555232E+03</pdfrwt>
<pdfrwt beam="2">  1       -1 0.12092510E-01 0.91555232E+03</pdfrwt>
<totfact> 0.49695228E+01</totfact>
</mgrwt>
</event>
<event>
 6    1  0.1637818E-005  0.2060739E+04  0.7818608E-02  0.8578738E-01
          1   -1    0    0  501    0  0.00000000000E+00  0.00000000000E+00  0.99544765343E+03  0.99544765343E+03  0.00000000000E+00 0. -1.
         -1   -1    0    0    0  501 -0.00000000000E+00 -0.00000000000E+00 -0.10665161444E+04  0.10665161444E+04  0.00000000000E+00 0.  1.
         23    2    1    2    0    0  0.71149870061E+03 -0.18806653353E+03 -0.75434023868E+03  0.10577428545E+04  0.90505958439E+02 0.  0.
         11    1    3    3    0    0  0.54626104914E+03 -0.18251062435E+03 -0.57565274543E+03  0.81430175311E+03  0.00000000000E+00 0. -1.
        -11    1    3    3    0    0  0.16523765147E+03 -0.55559091825E+01 -0.17868749325E+03  0.24344110137E+03  0.00000000000E+00 0.  1.
         22    1    1    2    0    0 -0.71149870061E+03  0.18806653353E+03  0.68327174766E+03  0.10042209434E+04  0.00000000000E+00 0. -1.
<mgrwt>
<rscale>  0 0.20607387E+04</rscale>
<asrwt>0</asrwt>
<pdfrwt beam="1">  1        1 0.15314579E+00 0.20607387E+04</pdfrwt>
<pdfrwt beam="2">  1       -1 0.16407941E+00 0.20607387E+04</pdfrwt>
<totfact> 0.38332045E+00</totfact>
</mgrwt>
</event>
<event>
 6    1  0.1637818E-005  0.1737622E+04  0.7818608E-02  0.8740193E-01
         -1   -1    0    0    0  501 -0.00000000000E+00  0.00000000000E+00  0.65144327686E+03  0.65144327686E+03  0.00000000000E+00 0.  1.
          1   -1    0    0  501    0  0.00000000000E+00 -0.00000000000E+00 -0.11587081851E+04  0.11587081851E+04  0.00000000000E+00 0. -1.
         23    2    1    2    0    0 -0.52453288588E+03 -0.47053824579E+02  0.46257684719E+03  0.70654743815E+03  0.88787003696E+02 0.  0.
         11    1    3    3    0    0 -0.38969087689E+03 -0.68255707569E+02  0.31673005296E+03  0.50678964827E+03  0.00000000000E+00 0. -1.
        -11    1    3    3    0    0 -0.13484200899E+03  0.21201882990E+02  0.14584679423E+03  0.19975778988E+03  0.00000000000E+00 0.  1.
         22    1    1    2    0    0  0.52453288588E+03  0.47053824579E+02 -0.96984175548E+03  0.11036040238E+04  0.00000000000E+00 0. -1.
<mgrwt>
<rscale>  0 0.17376221E+04</rscale>
<asrwt>0</asrwt>
<pdfrwt beam="1">  1        1 0.17826280E+00 0.17376221E+04</pdfrwt>
<pdfrwt beam="2">  1       -1 0.10022204E+00 0.17376221E+04</pdfrwt>
<totfact> 0.10310825E+01</totfact>
</mgrwt>
</event>
<event>
 6    1  0.1637818E-005  0.2575374E+04  0.7818608E-02  0.8376614E-01
          2   -1    0    0  501    0  0.00000000000E+00  0.00000000000E+00  0.24955954423E+04  0.24955954423E+04  0.00000000000E+00 0. -1.
         -2   -1    0    0    0  501 -0.00000000000E+00 -0.00000000000E+00 -0.66442597472E+03  0.66442597472E+03  0.00000000000E+00 0.  1.
         23    2    1    2    0    0  0.40029625969E+03 -0.10574618046E+04  0.16515589494E+03  0.11465508342E+04  0.94020115323E+02 0.  0.
         13    1    3    3    0    0  0.72140489155E+02 -0.30105273472E+03  0.30053170724E+02  0.31103085431E+03  0.00000000000E+00 0.  1.
        -13    1    3    3    0    0  0.32815577054E+03 -0.75640906985E+03  0.13510272421E+03  0.83551997988E+03  0.00000000000E+00 0. -1.
         22    1    1    2    0    0 -0.40029625969E+03  0.10574618046E+04  0.16660135726E+04  0.20134705828E+04  0.00000000000E+00 0. -1.
<mgrwt>
<rscale>  0 0.25753745E+04</rscale>
<asrwt>0</asrwt>
<pdfrwt beam="1">  1        2 0.38393776E+00 0.25753745E+04</pdfrwt>
<pdfrwt beam="2">  1       -2 0.10221938E+00 0.25753745E+04</pdfrwt>
<totfact> 0.24325383E+00</totfact>
</mgrwt>
</event>
<event>
 6    1  0.1715112E-005  0.4360956E+04  0.7818608E-02  0.7935442E-01
          2   -1    0    0  501    0  0.00000000000E+00  0.00000000000E+00  0.23445602855E+04  0.23445602855E+04  0.00000000000E+00 0. -1.
         -2   -1    0    0    0  501 -0.00000000000E+00 -0.00000000000E+00 -0.20278785787E+04  0.20278785787E+04  0.00000000000E+00 0.  1.
         23    2    1    2    0    0  0.17949840668E+04 -0.26618715541E+03 -0.10520428776E+04  0.20995045515E+04  0.91113904442E+02 0.  0.
         13    1    3    3    0    0  0.80942137549E+03 -0.16241268274E+03 -0.49816958650E+03  0.96421666627E+03  0.00000000000E+00 0. -1.
        -13    1    3    3    0    0  0.98556269130E+03 -0.10377447266E+03 -0.55387329113E+03  0.11352878852E+04  0.00000000000E+00 0.  1.
         22    1    1    2    0    0 -0.17949840668E+04  0.26618715541E+03  0.13687245845E+04  0.22729343127E+04  0.00000000000E+00 0.  1.
<mgrwt>
<rscale>  0 0.43609557E+04</rscale>
<asrwt>0</asrwt>
<pdfrwt beam="1">  1        2 0.36070158E+00 0.43609557E+04</pdfrwt>
<pdfrwt beam="2">  1       -2 0.31198132E+00 0.43609557E+04</pdfrwt>
<totfact> 0.87926061E-02</totfact>
</mgrwt>
</event>
<event>
 6    1  0.1637818E-005  0.2546833E+04  0.7818608E-02  0.8386488E-01
         -1   -1    0    0    0  501 -0.00000000000E+00  0.00000000000E+00  0.93053411619E+03  0.93053411619E+03  0.00000000000E+00 0.  1.
          1   -1    0    0  501    0  0.00000000000E+00 -0.00000000000E+00 -0.17426443385E+04  0.17426443385E+04  0.00000000000E+00 0. -1.
         23    2    1    2    0    0  0.10046626857E+04 -0.24441758982E+03 -0.11837513603E+04  0.15744500052E+04  0.92403817656E+02 0.  0.
         11    1    3    3    0    0  0.72569779145E+03 -0.21339309631E+03 -0.83245542465E+03  0.11247915061E+04  0.00000000000E+00 0.  1.
        -11    1    3    3    0    0  0.27896489427E+03 -0.31024493511E+02 -0.35129593564E+03  0.44965849912E+03  0.00000000000E+00 0. -1.
         22    1    1    2    0    0 -0.10046626857E+04  0.24441758982E+03  0.37164113799E+03  0.10987284495E+04  0.00000000000E+00 0. -1.
<mgrwt>
<rscale>  0 0.25468333E+04</rscale>
<asrwt>0</asrwt>
<pdfrwt beam="1">  1        1 0.26809913E+00 0.25468333E+04</pdfrwt>
<pdfrwt beam="2">  1       -1 0.14315910E+00 0.25468333E+04</pdfrwt>
<totfact> 0.15587393E+00</totfact>
</mgrwt>
</event>
<event>
 6    1  0.1637818E-005  0.1725497E+04  0.7818608E-02  0.8746955E-01
          2   -1    0    0  501    0  0.00000000000E+00  0.00000000000E+00  0.75616187220E+03  0.75616187220E+03  0.00000000000E+00 0. -1.
         -2   -1    0    0    0  501 -0.00000000000E+00 -0.00000000000E+00 -0.98435929837E+03  0.98435929837E+03  0.00000000000E+00 0.  1.
         23    2    1    2    0    0  0.48980748384E+03 -0.51244185609E+03 -0.60618285240E+03  0.93716507921E+03  0.91174053658E+02 0.  0.
         11    1    3    3    0    0  0.33698457619E+03 -0.28890161340E+03 -0.37065711631E+03  0.57828145802E+03  0.00000000000E+00 0. -1.
        -11    1    3    3    0    0  0.15282290765E+03 -0.22354024269E+03 -0.23552573608E+03  0.35888362119E+03  0.00000000000E+00 0.  1.
         22    1    1    2    0    0 -0.48980748384E+03  0.51244185609E+03  0.37798542622E+03  0.80335609136E+03  0.00000000000E+00 0. -1.
<mgrwt>
<rscale>  0 0.17254970E+04</rscale>
<asrwt>0</asrwt>
<pdfrwt beam="1">  1        2 0.11633260E+00 0.17254970E+04</pdfrwt>
<pdfrwt beam="2">  1       -2 0.15143989E+00 0.17254970E+04</pdfrwt>
<totfact> 0.10287353E+01</totfact>
</mgrwt>
</event>
<event>
 6    1  0.1637818E-005  0.3438565E+04  0.7818608E-02  0.8128506E-01
         -2   -1    0    0    0  501 -0.00000000000E+00  0.00000000000E+00  0.10726531705E+04  0.10726531705E+04  0.00000000000E+00 0. -1.
          2   -1    0    0  501    0  0.00000000000E+00 -0.00000000000E+00 -0.27557200103E+04  0.27557200103E+04  0.00000000000E+00 0.  1.
         23    2    1    2    0    0  0.23421498725E+03 -0.17020174439E+04 -0.85479958096E+03  0.19210853966E+04  0.90370005718E+02 0.  0.
         11    1    3    3    0    0  0.20063723534E+03 -0.11913451582E+04 -0.57842886296E+03  0.13394545664E+04  0.00000000000E+00 0. -1.
        -11    1    3    3    0    0  0.33577751912E+02 -0.51067228574E+03 -0.27637071800E+03  0.58163083018E+03  0.00000000000E+00 0.  1.
         22    1    1    2    0    0 -0.23421498725E+03  0.17020174439E+04 -0.82826725886E+03  0.19072877842E+04  0.00000000000E+00 0. -1.
<mgrwt>
<rscale>  0 0.34385647E+04</rscale>
<asrwt>0</asrwt>
<pdfrwt beam="1">  1        2 0.42395692E+00 0.34385647E+04</pdfrwt>
<pdfrwt beam="2">  1       -2 0.16502357E+00 0.34385647E+04</pdfrwt>
<totfact> 0.46981436E-01</totfact>
</mgrwt>
</event>
<event>
 6    1  0.1637818E-005  0.1319460E+04  0.7818608E-02  0.9014274E-01
         -2   -1    0    0    0  501 -0.00000000000E+00  0.00000000000E+00  0.62014577202E+03  0.62014577202E+03  0.00000000000E+00 0.  1.
          2   -1    0    0  501    0  0.00000000000E+00 -0.00000000000E+00 -0.70184112967E+03  0.70184112967E+03  0.00000000000E+00 0. -1.
         23    2    1    2    0    0  0.32730643286E+02  0.13001350913E+03 -0.68504586869E+03  0.70392003901E+03  0.90778695496E+02 0.  0.
         11    1    3    3    0    0  0.27260447855E+02  0.51417872704E+02 -0.49179187308E+03  0.49522335979E+03  0.00000000000E+00 0.  1.
        -11    1    3    3    0    0  0.54701954310E+01  0.78595636424E+02 -0.19325399561E+03  0.20869667923E+03  0.00000000000E+00 0. -1.
         22    1    1    2    0    0 -0.32730643286E+02 -0.13001350913E+03  0.60335051104E+03  0.61806686268E+03  0.00000000000E+00 0.  1.
<mgrwt>
<rscale>  0 0.13194602E+04</rscale>
<asrwt>0</asrwt>
<pdfrwt beam="1">  1        2 0.10797556E+00 0.13194602E+04</pdfrwt>
<pdfrwt beam="2">  1       -2 0.95407042E-01 0.13194602E+04</pdfrwt>
<totfact> 0.36896102E+01</totfact>
</mgrwt>
</event>
<event>
 6    1  0.1637818E-005  0.1952587E+04  0.7818608E-02  0.8629115E-01
         -1   -1    0    0    0  501 -0.00000000000E+00  0.00000000000E+00  0.55280269118E+03  0.55280269118E+03  0.00000000000E+00 0.  1.
          1   -1    0    0  501    0  0.00000000000E+00 -0.00000000000E+00 -0.17242110783E+04  0.17242110783E+04  0.00000000000E+00 0. -1.
         23    2    1    2    0    0 -0.92487350414E+03  0.11553777185E+03 -0.91729978564E+03  0.13109334640E+04  0.91474995426E+02 0.  0.
         13    1    3    3    0    0 -0.69654685587E+03  0.68429424790E+02 -0.63726835336E+03  0.94655747992E+03  0.00000000000E+00 0.  1.
        -13    1    3    3    0    0 -0.22832664827E+03  0.47108347065E+02 -0.28003143229E+03  0.36437598404E+03  0.00000000000E+00 0. -1.
         22    1    1    2    0    0  0.92487350414E+03 -0.11553777185E+03 -0.25410860148E+03  0.96608030553E+03  0.00000000000E+00 0.  1.
<mgrwt>
<rscale>  0 0.19525865E+04</rscale>
<asrwt>0</asrwt>
<pdfrwt beam="1">  1        1 0.26526324E+00 0.19525865E+04</pdfrwt>
<pdfrwt beam="2">  1       -1 0.85046570E-01 0.19525865E+04</pdfrwt>
<totfact> 0.58432342E+00</totfact>
</mgrwt>
</event>
<event>
 6    1  0.1637818E-005  0.2259110E+04  0.7818608E-02  0.8494220E-01
          2   -1    0    0  501    0  0.00000000000E+00  0.00000000000E+00  0.28783410149E+04  0.28783410149E+04  0.00000000000E+00 0. -1.
         -2   -1    0    0    0  501 -0.00000000000E+00 -0.00000000000E+00 -0.44327418800E+03  0.44327418800E+03  0.00000000000E+00 0.  1.
         23    2    1    2    0    0  0.71571657235E+03  0.10074205960E+03 -0.53580819084E+02  0.73013564861E+03  0.88475910160E+02 0.  0.
         13    1    3    3    0    0  0.51711025087E+03  0.66634188809E+02  0.90189521259E+00  0.52138655533E+03  0.00000000000E+00 0.  1.
        -13    1    3    3    0    0  0.19860632149E+03  0.34107870788E+02 -0.54482714297E+02  0.20874909327E+03  0.00000000000E+00 0. -1.
         22    1    1    2    0    0 -0.71571657235E+03 -0.10074205960E+03  0.24886476460E+04  0.25914795543E+04  0.00000000000E+00 0. -1.
<mgrwt>
<rscale>  0 0.22591098E+04</rscale>
<asrwt>0</asrwt>
<pdfrwt beam="1">  1        2 0.44282168E+00 0.22591098E+04</pdfrwt>
<pdfrwt beam="2">  1       -2 0.68196031E-01 0.22591098E+04</pdfrwt>
<totfact> 0.37106110E+00</totfact>
</mgrwt>
</event>
<event>
 6    1  0.1637818E-005  0.2581012E+04  0.7818608E-02  0.8374680E-01
          1   -1    0    0  501    0  0.00000000000E+00  0.00000000000E+00  0.25461739635E+04  0.25461739635E+04  0.00000000000E+00 0. -1.
         -1   -1    0    0    0  501 -0.00000000000E+00 -0.00000000000E+00 -0.65408179282E+03  0.65408179282E+03  0.00000000000E+00 0.  1.
         23    2    1    2    0    0 -0.71234087272E+03 -0.35411391131E+03 -0.30925085317E+03  0.85958549125E+03  0.10210262221E+03 0.  0.
         13    1    3    3    0    0 -0.57139494489E+03 -0.28346358204E+03 -0.20262654288E+03  0.66925428745E+03  0.00000000000E+00 0. -1.
        -13    1    3    3    0    0 -0.14094592782E+03 -0.70650329266E+02 -0.10662431029E+03  0.19033120380E+03  0.00000000000E+00 0.  1.
         22    1    1    2    0    0  0.71234087272E+03  0.35411391131E+03  0.22013430239E+04  0.23406702651E+04  0.00000000000E+00 0. -1.
<mgrwt>
<rscale>  0 0.25810122E+04</rscale>
<asrwt>0</asrwt>
<pdfrwt beam="1">  1        1 0.39171907E+00 0.25810122E+04</pdfrwt>
<pdfrwt beam="2">  1       -1 0.10062797E+00 0.25810122E+04</pdfrwt>
<totfact> 0.10424158E+00</totfact>
</mgrwt>
</event>
<event>
 6    1  0.1637818E-005  0.3130356E+04  0.7818608E-02  0.8207456E-01
          2   -1    0    0  501    0  0.00000000000E+00  0.00000000000E+00  0.12807677787E+04  0.12807677787E+04  0.00000000000E+00 0. -1.
         -2   -1    0    0    0  501 -0.00000000000E+00 -0.00000000000E+00 -0.19127454003E+04  0.19127454003E+04  0.00000000000E+00 0.  1.
         23    2    1    2    0    0  0.91685445585E+03  0.97896774364E+03 -0.11368723977E+04  0.17603632667E+04  0.86023520121E+02 0.  0.
         13    1    3    3    0    0  0.40656039612E+03  0.41815074133E+03 -0.54855643255E+03  0.80065945187E+03  0.00000000000E+00 0. -1.
        -13    1    3    3    0    0  0.51029405972E+03  0.56081700231E+03 -0.58831596511E+03  0.95970381487E+03  0.00000000000E+00 0.  1.
         22    1    1    2    0    0 -0.91685445585E+03 -0.97896774364E+03  0.50489477604E+03  0.14331499123E+04  0.00000000000E+00 0. -1.
<mgrwt>
<rscale>  0 0.31303563E+04</rscale>
<asrwt>0</asrwt>
<pdfrwt beam="1">  1        2 0.19704120E+00 0.31303563E+04</pdfrwt>
<pdfrwt beam="2">  1       -2 0.29426852E+00 0.31303563E+04</pdfrwt>
<totfact> 0.49502992E-01</totfact>
</mgrwt>
</event>
<event>
 6    1  0.1637818E-005  0.1997329E+04  0.7818608E-02  0.8607870E-01
         -2   -1    0    0    0  501 -0.00000000000E+00  0.00000000000E+00  0.60375912463E+03  0.60375912463E+03  0.00000000000E+00 0.  1.
          2   -1    0    0  501    0  0.00000000000E+00 -0.00000000000E+00 -0.16518693584E+04  0.16518693584E+04  0.00000000000E+00 0. -1.
         23    2    1    2    0    0 -0.70518143051E+03 -0.65732486843E+03 -0.80753182105E+03  0.12620315802E+04  0.10610954183E+03 0.  0.
         13    1    3    3    0    0 -0.54180303730E+03 -0.47907018478E+03 -0.54861836358E+03  0.90776697562E+03  0.00000000000E+00 0. -1.
        -13    1    3    3    0    0 -0.16337839321E+03 -0.17825468365E+03 -0.25891345747E+03  0.35426460460E+03  0.00000000000E+00 0.  1.
         22    1    1    2    0    0  0.70518143051E+03  0.65732486843E+03 -0.24057841272E+03  0.99359690280E+03  0.00000000000E+00 0.  1.
<mgrwt>
<rscale>  0 0.19973294E+04</rscale>
<asrwt>0</asrwt>
<pdfrwt beam="1">  1        2 0.25413374E+00 0.19973294E+04</pdfrwt>
<pdfrwt beam="2">  1       -2 0.92886021E-01 0.19973294E+04</pdfrwt>
<totfact> 0.95219336E+00</totfact>
</mgrwt>
</event>
<event>
 6    1  0.1637818E-005  0.2787824E+04  0.7818608E-02  0.8307059E-01
          2   -1    0    0  501    0  0.00000000000E+00  0.00000000000E+00  0.16109207404E+04  0.16109207404E+04  0.00000000000E+00 0.  1.
         -2   -1    0    0    0  501 -0.00000000000E+00 -0.00000000000E+00 -0.12061363028E+04  0.12061363028E+04  0.00000000000E+00 0. -1.
         23    2    1    2    0    0 -0.77150678702E+03 -0.25060052635E+03 -0.94096332979E+03  0.12457326338E+04  0.91730369702E+02 0.  0.
         13    1    3    3    0    0 -0.50295295079E+03 -0.12385928720E+03 -0.56231165728E+03  0.76452416159E+03  0.00000000000E+00 0. -1.
        -13    1    3    3    0    0 -0.26855383623E+03 -0.12674123915E+03 -0.37865167250E+03  0.48120847223E+03  0.00000000000E+00 0.  1.
         22    1    1    2    0    0  0.77150678702E+03  0.25060052635E+03  0.13457477674E+04  0.15713244094E+04  0.00000000000E+00 0.  1.
<mgrwt>
<rscale>  0 0.27878235E+04</rscale>
<asrwt>0</asrwt>
<pdfrwt beam="1">  1        2 0.24783396E+00 0.27878235E+04</pdfrwt>
<pdfrwt beam="2">  1       -2 0.18555943E+00 0.27878235E+04</pdfrwt>
<totfact> 0.15909997E+00</totfact>
</mgrwt>
</event>
<event>
 6    1  0.1637818E-005  0.1498783E+04  0.7818608E-02  0.8885262E-01
          1   -1    0    0  501    0  0.00000000000E+00  0.00000000000E+00  0.13409130680E+04  0.13409130680E+04  0.00000000000E+00 0. -1.
         -1   -1    0    0    0  501 -0.00000000000E+00 -0.00000000000E+00 -0.41881013397E+03  0.41881013397E+03  0.00000000000E+00 0.  1.
         23    2    1    2    0    0 -0.48930177492E+03 -0.10951658771E+03  0.11122279555E+04  0.12234791963E+04  0.91870609466E+02 0.  0.
         13    1    3    3    0    0 -0.24688111691E+03 -0.56587375474E+02  0.67184334767E+03  0.71800132365E+03  0.00000000000E+00 0.  1.
        -13    1    3    3    0    0 -0.24242065801E+03 -0.52929212238E+02  0.44038460780E+03  0.50547787263E+03  0.00000000000E+00 0. -1.
         22    1    1    2    0    0  0.48930177492E+03  0.10951658771E+03 -0.19012502140E+03  0.53624400573E+03  0.00000000000E+00 0.  1.
<mgrwt>
<rscale>  0 0.14987835E+04</rscale>
<asrwt>0</asrwt>
<pdfrwt beam="1">  1        1 0.20629432E+00 0.14987835E+04</pdfrwt>
<pdfrwt beam="2">  1       -1 0.64432329E-01 0.14987835E+04</pdfrwt>
<totfact> 0.19986005E+01</totfact>
</mgrwt>
</event>
<event>
 6    1  0.1637818E-005  0.2936664E+04  0.7818608E-02  0.8262052E-01
         -2   -1    0    0    0  501 -0.00000000000E+00  0.00000000000E+00  0.39390934275E+03  0.39390934275E+03  0.00000000000E+00 0.  1.
          2   -1    0    0  501    0  0.00000000000E+00 -0.00000000000E+00 -0.54733361851E+04  0.54733361851E+04  0.00000000000E+00 0. -1.
         23    2    1    2    0    0  0.21524780976E+03 -0.22101109489E+03 -0.54074540695E+04  0.54169352066E+04  0.86313351460E+02 0.  0.
         13    1    3    3    0    0  0.72060284946E+02 -0.53775988641E+02 -0.10178830385E+04  0.10218465744E+04  0.00000000000E+00 0.  1.
        -13    1    3    3    0    0  0.14318752482E+03 -0.16723510625E+03 -0.43895710311E+04  0.43950886322E+04  0.00000000000E+00 0. -1.
         22    1    1    2    0    0 -0.21524780976E+03  0.22101109489E+03  0.32802722717E+03  0.45031032127E+03  0.00000000000E+00 0.  1.
<mgrwt>
<rscale>  0 0.29366636E+04</rscale>
<asrwt>0</asrwt>
<pdfrwt beam="1">  1        2 0.84205171E+00 0.29366636E+04</pdfrwt>
<pdfrwt beam="2">  1       -2 0.60601438E-01 0.29366636E+04</pdfrwt>
<totfact> 0.14636045E-02</totfact>
</mgrwt>
</event>
<event>
 6    1  0.1637818E-005  0.2545456E+04  0.7818608E-02  0.8386968E-01
          2   -1    0    0  501    0  0.00000000000E+00  0.00000000000E+00  0.10748408674E+04  0.10748408674E+04  0.00000000000E+00 0. -1.
         -2   -1    0    0    0  501 -0.00000000000E+00 -0.00000000000E+00 -0.15070475439E+04  0.15070475439E+04  0.00000000000E+00 0.  1.
         23    2    1    2    0    0 -0.10574034579E+04  0.22736337106E+02 -0.93146690626E+03  0.14123244794E+04  0.91710543724E+02 0.  0.
         13    1    3    3    0    0 -0.75200724143E+03  0.74403135023E+01 -0.60669263292E+03  0.96625369353E+03  0.00000000000E+00 0.  1.
        -13    1    3    3    0    0 -0.30539621644E+03  0.15296023604E+02 -0.32477427334E+03  0.44607078584E+03  0.00000000000E+00 0. -1.
         22    1    1    2    0    0  0.10574034579E+04 -0.22736337106E+02  0.49926022982E+03  0.11695639319E+04  0.00000000000E+00 0. -1.
<mgrwt>
<rscale>  0 0.25454558E+04</rscale>
<asrwt>0</asrwt>
<pdfrwt beam="1">  1        2 0.16536013E+00 0.25454558E+04</pdfrwt>
<pdfrwt beam="2">  1       -2 0.23185347E+00 0.25454558E+04</pdfrwt>
<totfact> 0.16703124E+00</totfact>
</mgrwt>
</event>
<event>
 6    1  0.1637818E-005  0.2715907E+04  0.7818608E-02  0.8329862E-01
          1   -1    0    0  501    0  0.00000000000E+00  0.00000000000E+00  0.18150296587E+04  0.18150296587E+04  0.00000000000E+00 0. -1.
         -1   -1    0    0    0  501 -0.00000000000E+00 -0.00000000000E+00 -0.10159822727E+04  0.10159822727E+04  0.00000000000E+00 0.  1.
         23    2    1    2    0    0 -0.35109005699E+03 -0.87701458966E+03 -0.61462953195E+03  0.11307468795E+04  0.91652742740E+02 0.  0.
         13    1    3    3    0    0 -0.11289569798E+03 -0.33231589974E+03 -0.18093004474E+03  0.39486070574E+03  0.00000000000E+00 0. -1.
        -13    1    3    3    0    0 -0.23819435901E+03 -0.54469868992E+03 -0.43369948721E+03  0.73588617372E+03  0.00000000000E+00 0.  1.
         22    1    1    2    0    0  0.35109005699E+03  0.87701458966E+03  0.14136769180E+04  0.17002650520E+04  0.00000000000E+00 0. -1.
<mgrwt>
<rscale>  0 0.27159072E+04</rscale>
<asrwt>0</asrwt>
<pdfrwt beam="1">  1        1 0.27923533E+00 0.27159072E+04</pdfrwt>
<pdfrwt beam="2">  1       -1 0.15630497E+00 0.27159072E+04</pdfrwt>
<totfact> 0.10819950E+00</totfact>
</mgrwt>
</event>
<event>
 6    1  0.1637818E-005  0.3360863E+04  0.7818608E-02  0.8147579E-01
         -1   -1    0    0    0  501 -0.00000000000E+00  0.00000000000E+00  0.30588758492E+04  0.30588758492E+04  0.00000000000E+00 0.  1.
          1   -1    0    0  501    0  0.00000000000E+00 -0.00000000000E+00 -0.92316596707E+03  0.92316596707E+03  0.00000000000E+00 0. -1.
         23    2    1    2    0    0 -0.32939079316E+03 -0.74939738137E+03 -0.66830573199E+03  0.10609806574E+04  0.94618571419E+02 0.  0.
         11    1    3    3    0    0 -0.18356315288E+03 -0.38396339130E+03 -0.40541640371E+03  0.58778038190E+03  0.00000000000E+00 0. -1.
        -11    1    3    3    0    0 -0.14582764028E+03 -0.36543399007E+03 -0.26288932828E+03  0.47320027546E+03  0.00000000000E+00 0.  1.
         22    1    1    2    0    0  0.32939079316E+03  0.74939738137E+03  0.28040156141E+04  0.29210611589E+04  0.00000000000E+00 0.  1.
<mgrwt>
<rscale>  0 0.33608630E+04</rscale>
<asrwt>0</asrwt>
<pdfrwt beam="1">  1        1 0.14202554E+00 0.33608630E+04</pdfrwt>
<pdfrwt beam="2">  1       -1 0.47059628E+00 0.33608630E+04</pdfrwt>
<totfact> 0.33581158E-02</totfact>
</mgrwt>
</event>
<event>
 6    1  0.1637818E-005  0.2684312E+04  0.7818608E-02  0.8340113E-01
          2   -1    0    0  501    0  0.00000000000E+00  0.00000000000E+00  0.16004983229E+04  0.16004983229E+04  0.00000000000E+00 0. -1.
         -2   -1    0    0    0  501 -0.00000000000E+00 -0.00000000000E+00 -0.11255138978E+04  0.11255138978E+04  0.00000000000E+00 0.  1.
         23    2    1    2    0    0 -0.12675163458E+04 -0.13854186295E+03  0.65806627671E+03  0.14378699540E+04  0.92882966811E+02 0.  0.
         13    1    3    3    0    0 -0.63635534350E+03 -0.10381815422E+03  0.29678203388E+03  0.70979286273E+03  0.00000000000E+00 0.  1.
        -13    1    3    3    0    0 -0.63116100229E+03 -0.34723708725E+02  0.36128424283E+03  0.72807709130E+03  0.00000000000E+00 0. -1.
         22    1    1    2    0    0  0.12675163458E+04  0.13854186295E+03 -0.18308185162E+03  0.12881422666E+04  0.00000000000E+00 0.  1.
<mgrwt>
<rscale>  0 0.26843123E+04</rscale>
<asrwt>0</asrwt>
<pdfrwt beam="1">  1        2 0.24623051E+00 0.26843123E+04</pdfrwt>
<pdfrwt beam="2">  1       -2 0.17315598E+00 0.26843123E+04</pdfrwt>
<totfact> 0.19821959E+00</totfact>
</mgrwt>
</event>
<event>
 6    1  0.1637818E-005  0.8381805E+03  0.7818608E-02  0.9506339E-01
         -1   -1    0    0    0  501 -0.00000000000E+00  0.00000000000E+00  0.31975627532E+03  0.31975627532E+03  0.00000000000E+00 0.  1.
          1   -1    0    0  501    0  0.00000000000E+00 -0.00000000000E+00 -0.54928283622E+03  0.54928283622E+03  0.00000000000E+00 0. -1.
         23    2    1    2    0    0  0.30240559152E+03  0.24000225032E+03 -0.27034491987E+03  0.48081706120E+03  0.95123334146E+02 0.  0.
         11    1    3    3    0    0  0.65300137750E+02  0.87301589938E+02 -0.11652667585E+03  0.15957487828E+03  0.00000000000E+00 0. -1.
        -11    1    3    3    0    0  0.23710545377E+03  0.15270066039E+03 -0.15381824402E+03  0.32124218292E+03  0.00000000000E+00 0.  1.
         22    1    1    2    0    0 -0.30240559152E+03 -0.24000225032E+03  0.40818358959E+02  0.38822205034E+03  0.00000000000E+00 0.  1.
<mgrwt>
<rscale>  0 0.83818049E+03</rscale>
<asrwt>0</asrwt>
<pdfrwt beam="1">  1        1 0.84505052E-01 0.83818049E+03</pdfrwt>
<pdfrwt beam="2">  1       -1 0.49193273E-01 0.83818049E+03</pdfrwt>
<totfact> 0.16252399E+02</totfact>
</mgrwt>
</event>
<event>
 6    1  0.1637818E-005  0.4374290E+04  0.7818608E-02  0.7933022E-01
         -2   -1    0    0    0  501 -0.00000000000E+00  0.00000000000E+00  0.12849196185E+04  0.12849196185E+04  0.00000000000E+00 0. -1.
          2   -1    0    0  501    0  0.00000000000E+00 -0.00000000000E+00 -0.37228809626E+04  0.37228809626E+04  0.00000000000E+00 0.  1.
         23    2    1    2    0    0 -0.15704130951E+04 -0.13496011932E+04 -0.20223678300E+04  0.28958491993E+04  0.91379841950E+02 0.  0.
         13    1    3    3    0    0 -0.39366776474E+03 -0.39054180494E+03 -0.52971623322E+03  0.76687449960E+03  0.00000000000E+00 0. -1.
        -13    1    3    3    0    0 -0.11767453304E+04 -0.95905938826E+03 -0.14926515968E+04  0.21289746997E+04  0.00000000000E+00 0.  1.
         22    1    1    2    0    0  0.15704130951E+04  0.13496011932E+04 -0.41559351417E+03  0.21119513818E+04  0.00000000000E+00 0. -1.
<mgrwt>
<rscale>  0 0.43742898E+04</rscale>
<asrwt>0</asrwt>
<pdfrwt beam="1">  1        2 0.57275091E+00 0.43742898E+04</pdfrwt>
<pdfrwt beam="2">  1       -2 0.19767994E+00 0.43742898E+04</pdfrwt>
<totfact> 0.59030441E-02</totfact>
</mgrwt>
</event>
<event>
 6    1  0.1637818E-005  0.1199168E+04  0.7818608E-02  0.9113585E-01
          2   -1    0    0  501    0  0.00000000000E+00  0.00000000000E+00  0.15044842410E+04  0.15044842410E+04  0.00000000000E+00 0. -1.
         -2   -1    0    0    0  501 -0.00000000000E+00 -0.00000000000E+00 -0.23895301478E+03  0.23895301478E+03  0.00000000000E+00 0.  1.
         23    2    1    2    0    0 -0.25556866650E+03 -0.15578863749E+03 -0.11272039439E+03  0.33306036552E+03  0.92940179131E+02 0.  0.
         13    1    3    3    0    0 -0.14543790193E+03 -0.61716931865E+02 -0.10150448338E+03  0.18778797390E+03  0.00000000000E+00 0. -1.
        -13    1    3    3    0    0 -0.11013076457E+03 -0.94071705629E+02 -0.11215911011E+02  0.14527239161E+03  0.00000000000E+00 0.  1.
         22    1    1    2    0    0  0.25556866650E+03  0.15578863749E+03  0.13782516206E+04  0.14103768902E+04  0.00000000000E+00 0. -1.
<mgrwt>
<rscale>  0 0.11991681E+04</rscale>
<asrwt>0</asrwt>
<pdfrwt beam="1">  1        2 0.23145911E+00 0.11991681E+04</pdfrwt>
<pdfrwt beam="2">  1       -2 0.36762003E-01 0.11991681E+04</pdfrwt>
<totfact> 0.86752246E+01</totfact>
</mgrwt>
</event>
<event>
 6    1  0.1637818E-005  0.5076654E+04  0.7818608E-02  0.7816790E-01
          1   -1    0    0  501    0  0.00000000000E+00  0.00000000000E+00  0.30122997034E+04  0.30122997034E+04  0.00000000000E+00 0. -1.
         -1   -1    0    0    0  501 -0.00000000000E+00 -0.00000000000E+00 -0.21389317001E+04  0.21389317001E+04  0.00000000000E+00 0.  1.
         23    2    1    2    0    0 -0.22560981809E+04 -0.87948954412E+03 -0.33299576874E+03  0.24459043603E+04  0.89894924014E+02 0.  0.
         13    1    3    3    0    0 -0.59363961241E+02 -0.27126241200E+02  0.51086266377E+01  0.65467632629E+02  0.00000000000E+00 0. -1.
        -13    1    3    3    0    0 -0.21967342197E+04 -0.85236330292E+03 -0.33810439538E+03  0.23804367276E+04  0.00000000000E+00 0.  1.
         22    1    1    2    0    0  0.22560981809E+04  0.87948954412E+03  0.12063637720E+04  0.27053270432E+04  0.00000000000E+00 0. -1.
<mgrwt>
<rscale>  0 0.50766538E+04</rscale>
<asrwt>0</asrwt>
<pdfrwt beam="1">  1        1 0.46343073E+00 0.50766538E+04</pdfrwt>
<pdfrwt beam="2">  1       -1 0.32906641E+00 0.50766538E+04</pdfrwt>
<totfact> 0.89696011E-03</totfact>
</mgrwt>
</event>
<event>
 6    1  0.1637818E-005  0.2526160E+04  0.7818608E-02  0.8393725E-01
          2   -1    0    0  501    0  0.00000000000E+00  0.00000000000E+00  0.33295704734E+04  0.33295704734E+04  0.00000000000E+00 0. -1.
         -2   -1    0    0    0  501 -0.00000000000E+00 -0.00000000000E+00 -0.47915216123E+03  0.47915216123E+03  0.00000000000E+00 0.  1.
         23    2    1    2    0    0  0.10685261523E+04  0.44266935373E+03  0.66778285388E+03  0.13385805661E+04  0.90331042539E+02 0.  0.
         13    1    3    3    0    0  0.33503383726E+03  0.16673848292E+03  0.25486977376E+03  0.45277808623E+03  0.00000000000E+00 0. -1.
        -13    1    3    3    0    0  0.73349231501E+03  0.27593087081E+03  0.41291308012E+03  0.88580247989E+03  0.00000000000E+00 0.  1.
         22    1    1    2    0    0 -0.10685261523E+04 -0.44266935373E+03  0.21826354583E+04  0.24701420685E+04  0.00000000000E+00 0. -1.
<mgrwt>
<rscale>  0 0.25261598E+04</rscale>
<asrwt>0</asrwt>
<pdfrwt beam="1">  1        2 0.51224160E+00 0.25261598E+04</pdfrwt>
<pdfrwt beam="2">  1       -2 0.73715719E-01 0.25261598E+04</pdfrwt>
<totfact> 0.15723755E+00</totfact>
</mgrwt>
</event>
<event>
 6    1  0.1637818E-005  0.1933210E+04  0.7818608E-02  0.8638500E-01
          2   -1    0    0  501    0  0.00000000000E+00  0.00000000000E+00  0.17366007386E+04  0.17366007386E+04  0.00000000000E+00 0. -1.
         -2   -1    0    0    0  501 -0.00000000000E+00 -0.00000000000E+00 -0.53801977298E+03  0.53801977298E+03  0.00000000000E+00 0.  1.
         23    2    1    2    0    0 -0.50031177936E+03  0.79530155581E+03  0.34391358359E+03  0.10044737582E+04  0.88738586162E+02 0.  0.
         11    1    3    3    0    0 -0.34537268936E+03  0.59050745569E+03  0.21466637939E+03  0.71698187162E+03  0.00000000000E+00 0.  1.
        -11    1    3    3    0    0 -0.15493908999E+03  0.20479410012E+03  0.12924720420E+03  0.28749188658E+03  0.00000000000E+00 0. -1.
         22    1    1    2    0    0  0.50031177936E+03 -0.79530155581E+03  0.85466738203E+03  0.12701467534E+04  0.00000000000E+00 0. -1.
<mgrwt>
<rscale>  0 0.19332103E+04</rscale>
<asrwt>0</asrwt>
<pdfrwt beam="1">  1        2 0.26716934E+00 0.19332103E+04</pdfrwt>
<pdfrwt beam="2">  1       -2 0.82772273E-01 0.19332103E+04</pdfrwt>
<totfact> 0.11186596E+01</totfact>
</mgrwt>
</event>
<event>
 6    1  0.1637818E-005  0.2380885E+04  0.7818608E-02  0.8446695E-01
          2   -1    0    0  501    0  0.00000000000E+00  0.00000000000E+00  0.36316383085E+04  0.36316383085E+04  0.00000000000E+00 0. -1.
         -2   -1    0    0    0  501 -0.00000000000E+00 -0.00000000000E+00 -0.39022421522E+03  0.39022421522E+03  0.00000000000E+00 0.  1.
         23    2    1    2    0    0  0.83339447979E+03  0.34328898243E+03  0.29321646119E+04  0.30689570058E+04  0.92271922132E+02 0.  0.
         13    1    3    3    0    0  0.30299134342E+03  0.17227067888E+03  0.11602233966E+04  0.12114451168E+04  0.00000000000E+00 0.  1.
        -13    1    3    3    0    0  0.53040313637E+03  0.17101830355E+03  0.17719412152E+04  0.18575118889E+04  0.00000000000E+00 0. -1.
         22    1    1    2    0    0 -0.83339447979E+03 -0.34328898243E+03  0.30924948139E+03  0.95290551796E+03  0.00000000000E+00 0.  1.
<mgrwt>
<rscale>  0 0.23808849E+04</rscale>
<asrwt>0</asrwt>
<pdfrwt beam="1">  1        2 0.55871356E+00 0.23808849E+04</pdfrwt>
<pdfrwt beam="2">  1       -2 0.60034497E-01 0.23808849E+04</pdfrwt>
<totfact> 0.15301395E+00</totfact>
</mgrwt>
</event>
<event>
 6    1  0.1637818E-005  0.2362939E+04  0.7818608E-02  0.8453510E-01
          1   -1    0    0  501    0  0.00000000000E+00  0.00000000000E+00  0.11221075768E+04  0.11221075768E+04  0.00000000000E+00 0. -1.
         -1   -1    0    0    0  501 -0.00000000000E+00 -0.00000000000E+00 -0.12439715835E+04  0.12439715835E+04  0.00000000000E+00 0.  1.
         23    2    1    2    0    0 -0.10394464542E+04  0.55806470712E+03 -0.71361780253E+02  0.11852169230E+04  0.88099389281E+02 0.  0.
         13    1    3    3    0    0 -0.34520004686E+03  0.14122324869E+03 -0.96733842216E+01  0.37309603681E+03  0.00000000000E+00 0.  1.
        -13    1    3    3    0    0 -0.69424640736E+03  0.41684145843E+03 -0.61688396031E+02  0.81212088620E+03  0.00000000000E+00 0. -1.
         22    1    1    2    0    0  0.10394464542E+04 -0.55806470712E+03 -0.50502226498E+02  0.11808622373E+04  0.00000000000E+00 0. -1.
<mgrwt>
<rscale>  0 0.23629388E+04</rscale>
<asrwt>0</asrwt>
<pdfrwt beam="1">  1        1 0.17263194E+00 0.23629388E+04</pdfrwt>
<pdfrwt beam="2">  1       -1 0.19138024E+00 0.23629388E+04</pdfrwt>
<totfact> 0.18957430E+00</totfact>
</mgrwt>
</event>
<event>
 6    1  0.1637818E-005  0.1343261E+04  0.7818608E-02  0.8995945E-01
          1   -1    0    0  501    0  0.00000000000E+00  0.00000000000E+00  0.56982180228E+03  0.56982180228E+03  0.00000000000E+00 0. -1.
         -1   -1    0    0    0  501 -0.00000000000E+00 -0.00000000000E+00 -0.79162908217E+03  0.79162908217E+03  0.00000000000E+00 0.  1.
         23    2    1    2    0    0 -0.36265101779E+03  0.39594444902E+03  0.29238840088E+03  0.61802303621E+03  0.90408677169E+02 0.  0.
         11    1    3    3    0    0 -0.15265342334E+03  0.18853226765E+03  0.18049281732E+03  0.30236590533E+03  0.00000000000E+00 0.  1.
        -11    1    3    3    0    0 -0.20999759445E+03  0.20741218137E+03  0.11189558355E+03  0.31565713088E+03  0.00000000000E+00 0. -1.
         22    1    1    2    0    0  0.36265101779E+03 -0.39594444902E+03 -0.51419568077E+03  0.74342784824E+03  0.00000000000E+00 0.  1.
<mgrwt>
<rscale>  0 0.13432610E+04</rscale>
<asrwt>0</asrwt>
<pdfrwt beam="1">  1        1 0.87664894E-01 0.13432610E+04</pdfrwt>
<pdfrwt beam="2">  1       -1 0.12178909E+00 0.13432610E+04</pdfrwt>
<totfact> 0.21571835E+01</totfact>
</mgrwt>
</event>
<event>
 6    1  0.1637818E-005  0.6437400E+03  0.7818608E-02  0.9818597E-01
         -2   -1    0    0    0  501 -0.00000000000E+00  0.00000000000E+00  0.95909910210E+02  0.95909910210E+02  0.00000000000E+00 0.  1.
          2   -1    0    0  501    0  0.00000000000E+00 -0.00000000000E+00 -0.10801834722E+04  0.10801834722E+04  0.00000000000E+00 0. -1.
         23    2    1    2    0    0 -0.57690422424E+02  0.30326286742E+03 -0.62109253372E+03  0.69944150641E+03  0.90365556768E+02 0.  0.
         11    1    3    3    0    0 -0.81389275456E+02  0.25015804398E+03 -0.49405126699E+03  0.55972307041E+03  0.00000000000E+00 0.  1.
        -11    1    3    3    0    0  0.23698853033E+02  0.53104823441E+02 -0.12704126673E+03  0.13971843600E+03  0.00000000000E+00 0. -1.
         22    1    1    2    0    0  0.57690422424E+02 -0.30326286742E+03 -0.36318102823E+03  0.47665187596E+03  0.00000000000E+00 0.  1.
<mgrwt>
<rscale>  0 0.64374001E+03</rscale>
<asrwt>0</asrwt>
<pdfrwt beam="1">  1        2 0.16618207E+00 0.64374001E+03</pdfrwt>
<pdfrwt beam="2">  1       -2 0.14755371E-01 0.64374001E+03</pdfrwt>
<totfact> 0.81454946E+02</totfact>
</mgrwt>
</event>
<event>
 6    1  0.1637818E-005  0.9201482E+03  0.7818608E-02  0.9400740E-01
         -2   -1    0    0    0  501 -0.00000000000E+00  0.00000000000E+00  0.34629934559E+03  0.34629934559E+03  0.00000000000E+00 0.  1.
          2   -1    0    0  501    0  0.00000000000E+00 -0.00000000000E+00 -0.61122892468E+03  0.61122892468E+03  0.00000000000E+00 0. -1.
         23    2    1    2    0    0  0.16759321047E+03  0.51335790354E+01 -0.57449292300E+03  0.60547244839E+03  0.91874530495E+02 0.  0.
         11    1    3    3    0    0  0.62114431744E+02  0.35754048300E+02 -0.13957642437E+03  0.15690166615E+03  0.00000000000E+00 0. -1.
        -11    1    3    3    0    0  0.10547877873E+03 -0.30620469264E+02 -0.43491649863E+03  0.44857078224E+03  0.00000000000E+00 0.  1.
         22    1    1    2    0    0 -0.16759321047E+03 -0.51335790354E+01  0.30956334390E+03  0.35205582188E+03  0.00000000000E+00 0.  1.
<mgrwt>
<rscale>  0 0.92014820E+03</rscale>
<asrwt>0</asrwt>
<pdfrwt beam="1">  1        2 0.94035218E-01 0.92014820E+03</pdfrwt>
<pdfrwt beam="2">  1       -2 0.53276823E-01 0.92014820E+03</pdfrwt>
<totfact> 0.16147837E+02</totfact>
</mgrwt>
</event>
<event>
 6    1  0.1637818E-005  0.8559978E+03  0.7818608E-02  0.9482322E-01
         -1   -1    0    0    0  501 -0.00000000000E+00  0.00000000000E+00  0.75608223598E+02  0.75608223598E+02  0.00000000000E+00 0.  1.
          1   -1    0    0  501    0  0.00000000000E+00 -0.00000000000E+00 -0.24227926626E+04  0.24227926626E+04  0.00000000000E+00 0. -1.
         23    2    1    2    0    0  0.13327426979E+03 -0.35061188673E+03 -0.61351877447E+03  0.72462317677E+03  0.89346155929E+02 0.  0.
         11    1    3    3    0    0  0.10278836960E+03 -0.15094686448E+03 -0.26558813208E+03  0.32231577796E+03  0.00000000000E+00 0.  1.
        -11    1    3    3    0    0  0.30485900190E+02 -0.19966502225E+03 -0.34793064240E+03  0.40230739881E+03  0.00000000000E+00 0. -1.
         22    1    1    2    0    0 -0.13327426979E+03  0.35061188673E+03 -0.17336656646E+04  0.17737777095E+04  0.00000000000E+00 0. -1.
<mgrwt>
<rscale>  0 0.85599778E+03</rscale>
<asrwt>0</asrwt>
<pdfrwt beam="1">  1        1 0.37273733E+00 0.85599778E+03</pdfrwt>
<pdfrwt beam="2">  1       -1 0.11632035E-01 0.85599778E+03</pdfrwt>
<totfact> 0.78210562E+01</totfact>
</mgrwt>
</event>
<event>
 6    1  0.1637818E-005  0.1033479E+04  0.7818608E-02  0.9272569E-01
          2   -1    0    0  501    0  0.00000000000E+00  0.00000000000E+00  0.68071072667E+03  0.68071072667E+03  0.00000000000E+00 0. -1.
         -2   -1    0    0    0  501 -0.00000000000E+00 -0.00000000000E+00 -0.39226579536E+03  0.39226579536E+03  0.00000000000E+00 0.  1.
         23    2    1    2    0    0 -0.12428419930E+03 -0.26388106162E+03  0.58366704022E+03  0.65796342529E+03  0.84669228743E+02 0.  0.
         11    1    3    3    0    0 -0.25745693448E+02 -0.44224302276E+02  0.45797080650E+02  0.68673155155E+02  0.00000000000E+00 0.  1.
        -11    1    3    3    0    0 -0.98538505848E+02 -0.21965675934E+03  0.53786995957E+03  0.58929027013E+03  0.00000000000E+00 0. -1.
         22    1    1    2    0    0  0.12428419930E+03  0.26388106162E+03 -0.29522210892E+03  0.41501309674E+03  0.00000000000E+00 0.  1.
<mgrwt>
<rscale>  0 0.10334787E+04</rscale>
<asrwt>0</asrwt>
<pdfrwt beam="1">  1        2 0.10472473E+00 0.10334787E+04</pdfrwt>
<pdfrwt beam="2">  1       -2 0.60348584E-01 0.10334787E+04</pdfrwt>
<totfact> 0.10827792E+02</totfact>
</mgrwt>
</event>
<event>
 6    1  0.1637818E-005  0.1195391E+04  0.7818608E-02  0.9116900E-01
         -2   -1    0    0    0  501 -0.00000000000E+00  0.00000000000E+00  0.44664821095E+03  0.44664821095E+03  0.00000000000E+00 0.  1.
          2   -1    0    0  501    0  0.00000000000E+00 -0.00000000000E+00 -0.79982418176E+03  0.79982418176E+03  0.00000000000E+00 0. -1.
         23    2    1    2    0    0  0.85888342449E+02  0.50143257379E+03 -0.49724692421E+03  0.71773060976E+03  0.95243325848E+02 0.  0.
         13    1    3    3    0    0 -0.39691294245E+01  0.22247550244E+03 -0.18370845056E+03  0.28854791280E+03  0.00000000000E+00 0. -1.
        -13    1    3    3    0    0  0.89857471874E+02  0.27895707135E+03 -0.31353847365E+03  0.42918269695E+03  0.00000000000E+00 0.  1.
         22    1    1    2    0    0 -0.85888342449E+02 -0.50143257379E+03  0.14407095340E+03  0.52874178295E+03  0.00000000000E+00 0.  1.
<mgrwt>
<rscale>  0 0.11953912E+04</rscale>
<asrwt>0</asrwt>
<pdfrwt beam="1">  1        2 0.12304987E+00 0.11953912E+04</pdfrwt>
<pdfrwt beam="2">  1       -2 0.68715110E-01 0.11953912E+04</pdfrwt>
<totfact> 0.65858108E+01</totfact>
</mgrwt>
</event>
<event>
 6    1  0.1637818E-005  0.1672697E+04  0.7818608E-02  0.8777091E-01
          1   -1    0    0  501    0  0.00000000000E+00  0.00000000000E+00  0.12216710593E+04  0.12216710593E+04  0.00000000000E+00 0. -1.
         -1   -1    0    0    0  501 -0.00000000000E+00 -0.00000000000E+00 -0.57255892163E+03  0.57255892163E+03  0.00000000000E+00 0.  1.
         23    2    1    2    0    0 -0.25831752085E+03  0.42258618479E+03  0.10450696781E+04  0.11601247854E+04  0.91716194938E+02 0.  0.
         11    1    3    3    0    0 -0.89854408763E+02  0.12000820847E+03  0.23015698886E+03  0.27467803770E+03  0.00000000000E+00 0. -1.
        -11    1    3    3    0    0 -0.16846311208E+03  0.30257797632E+03  0.81491268925E+03  0.88544674768E+03  0.00000000000E+00 0.  1.
         22    1    1    2    0    0  0.25831752085E+03 -0.42258618479E+03 -0.39595754045E+03  0.63410519552E+03  0.00000000000E+00 0.  1.
<mgrwt>
<rscale>  0 0.16726968E+04</rscale>
<asrwt>0</asrwt>
<pdfrwt beam="1">  1        1 0.18794939E+00 0.16726968E+04</pdfrwt>
<pdfrwt beam="2">  1       -1 0.88085988E-01 0.16726968E+04</pdfrwt>
<totfact> 0.12447385E+01</totfact>
</mgrwt>
</event>
<event>
 6    1  0.1637818E-005  0.4008833E+04  0.7818608E-02  0.8002767E-01
         -2   -1    0    0    0  501 -0.00000000000E+00  0.00000000000E+00  0.11784414561E+04  0.11784414561E+04  0.00000000000E+00 0.  1.
          2   -1    0    0  501    0  0.00000000000E+00 -0.00000000000E+00 -0.34093204325E+04  0.34093204325E+04  0.00000000000E+00 0. -1.
         23    2    1    2    0    0 -0.15926732753E+04 -0.10089378933E+02 -0.25067386032E+04  0.29713434740E+04  0.91834952705E+02 0.  0.
         11    1    3    3    0    0 -0.14580200211E+04  0.13689523153E+02 -0.23125759956E+04  0.27338649419E+04  0.00000000000E+00 0. -1.
        -11    1    3    3    0    0 -0.13465325419E+03 -0.23778902087E+02 -0.19416260755E+03  0.23747853212E+03  0.00000000000E+00 0.  1.
         22    1    1    2    0    0  0.15926732753E+04  0.10089378933E+02  0.27585962685E+03  0.16164184146E+04  0.00000000000E+00 0.  1.
<mgrwt>
<rscale>  0 0.40088325E+04</rscale>
<asrwt>0</asrwt>
<pdfrwt beam="1">  1        2 0.52451083E+00 0.40088325E+04</pdfrwt>
<pdfrwt beam="2">  1       -2 0.18129869E+00 0.40088325E+04</pdfrwt>
<totfact> 0.13134875E-01</totfact>
</mgrwt>
</event>
<event>
 6    1  0.1637818E-005  0.1440691E+04  0.7818608E-02  0.8924880E-01
         -1   -1    0    0    0  501 -0.00000000000E+00  0.00000000000E+00  0.26051319314E+03  0.26051319314E+03  0.00000000000E+00 0.  1.
          1   -1    0    0  501    0  0.00000000000E+00 -0.00000000000E+00 -0.19918282576E+04  0.19918282576E+04  0.00000000000E+00 0. -1.
         23    2    1    2    0    0 -0.24783055291E+03  0.65802816589E+03 -0.64598743145E+03  0.95914497648E+03  0.90764939532E+02 0.  0.
         11    1    3    3    0    0 -0.46075577401E+02  0.11330229405E+03 -0.69161206402E+02  0.14051206760E+03  0.00000000000E+00 0. -1.
        -11    1    3    3    0    0 -0.20175497551E+03  0.54472587184E+03 -0.57682622505E+03  0.81863290888E+03  0.00000000000E+00 0.  1.
         22    1    1    2    0    0  0.24783055291E+03 -0.65802816589E+03 -0.10853276330E+04  0.12931964742E+04  0.00000000000E+00 0. -1.
<mgrwt>
<rscale>  0 0.14406909E+04</rscale>
<asrwt>0</asrwt>
<pdfrwt beam="1">  1        1 0.30643511E+00 0.14406909E+04</pdfrwt>
<pdfrwt beam="2">  1       -1 0.40078953E-01 0.14406909E+04</pdfrwt>
<totfact> 0.17817796E+01</totfact>
</mgrwt>
</event>
<event>
 6    1  0.1637818E-005  0.4090328E+04  0.7818608E-02  0.7986568E-01
          2   -1    0    0  501    0  0.00000000000E+00  0.00000000000E+00  0.25988022308E+04  0.25988022308E+04  0.00000000000E+00 0. -1.
         -2   -1    0    0    0  501 -0.00000000000E+00 -0.00000000000E+00 -0.16094707590E+04  0.16094707590E+04  0.00000000000E+00 0.  1.
         23    2    1    2    0    0  0.18442104274E+04  0.92318806692E+02 -0.40726207236E+03  0.18930822006E+04  0.90900825572E+02 0.  0.
         13    1    3    3    0    0  0.13635814175E+04  0.10353261857E+03 -0.32039122741E+03  0.14045368716E+04  0.00000000000E+00 0. -1.
        -13    1    3    3    0    0  0.48062900995E+03 -0.11213811880E+02 -0.86870844944E+02  0.48854532900E+03  0.00000000000E+00 0.  1.
         22    1    1    2    0    0 -0.18442104274E+04 -0.92318806692E+02  0.13965935442E+04  0.23151907892E+04  0.00000000000E+00 0.  1.
<mgrwt>
<rscale>  0 0.40903282E+04</rscale>
<asrwt>0</asrwt>
<pdfrwt beam="1">  1        2 0.39981573E+00 0.40903282E+04</pdfrwt>
<pdfrwt beam="2">  1       -2 0.24761089E+00 0.40903282E+04</pdfrwt>
<totfact> 0.15868505E-01</totfact>
</mgrwt>
</event>
<event>
 6    1  0.1637818E-005  0.1920160E+04  0.7818608E-02  0.8644886E-01
          2   -1    0    0  501    0  0.00000000000E+00  0.00000000000E+00  0.12243376203E+04  0.12243376203E+04  0.00000000000E+00 0. -1.
         -2   -1    0    0    0  501 -0.00000000000E+00 -0.00000000000E+00 -0.75285907177E+03  0.75285907177E+03  0.00000000000E+00 0.  1.
         23    2    1    2    0    0  0.42296667266E+03  0.73004428463E+03 -0.23071658398E+03  0.87949752206E+03  0.91762113550E+02 0.  0.
         11    1    3    3    0    0  0.16680300900E+03  0.20471766700E+03 -0.63619760080E+02  0.27162481637E+03  0.00000000000E+00 0. -1.
        -11    1    3    3    0    0  0.25616366366E+03  0.52532661763E+03 -0.16709682390E+03  0.60787270569E+03  0.00000000000E+00 0.  1.
         22    1    1    2    0    0 -0.42296667266E+03 -0.73004428463E+03  0.70219513248E+03  0.10976991700E+04  0.00000000000E+00 0. -1.
<mgrwt>
<rscale>  0 0.19201601E+04</rscale>
<asrwt>0</asrwt>
<pdfrwt beam="1">  1        2 0.18835963E+00 0.19201601E+04</pdfrwt>
<pdfrwt beam="2">  1       -2 0.11582447E+00 0.19201601E+04</pdfrwt>
<totfact> 0.99265167E+00</totfact>
</mgrwt>
</event>
<event>
 6    1  0.1637818E-005  0.3141356E+04  0.7818608E-02  0.8204479E-01
          2   -1    0    0  501    0  0.00000000000E+00  0.00000000000E+00  0.99679293195E+03  0.99679293195E+03  0.00000000000E+00 0. -1.
         -2   -1    0    0    0  501 -0.00000000000E+00 -0.00000000000E+00 -0.24749663009E+04  0.24749663009E+04  0.00000000000E+00 0.  1.
         23    2    1    2    0    0  0.12419317903E+04 -0.92951899001E+03 -0.10022362567E+04  0.18491328867E+04  0.91732184847E+02 0.  0.
         13    1    3    3    0    0  0.10900343198E+04 -0.78045944673E+03 -0.88111423828E+03  0.16042612216E+04  0.00000000000E+00 0.  1.
        -13    1    3    3    0    0  0.15189747049E+03 -0.14905954328E+03 -0.12112201843E+03  0.24487166503E+03  0.00000000000E+00 0. -1.
         22    1    1    2    0    0 -0.12419317903E+04  0.92951899001E+03 -0.47593711229E+03  0.16226263462E+04  0.00000000000E+00 0. -1.
<mgrwt>
<rscale>  0 0.31413557E+04</rscale>
<asrwt>0</asrwt>
<pdfrwt beam="1">  1        2 0.15335276E+00 0.31413557E+04</pdfrwt>
<pdfrwt beam="2">  1       -2 0.38076405E+00 0.31413557E+04</pdfrwt>
<totfact> 0.21184930E-01</totfact>
</mgrwt>
</event>
<event>
 6    1  0.1637818E-005  0.1529095E+04  0.7818608E-02  0.8865332E-01
         -2   -1    0    0    0  501 -0.00000000000E+00  0.00000000000E+00  0.49078664790E+03  0.49078664790E+03  0.00000000000E+00 0.  1.
          2   -1    0    0  501    0  0.00000000000E+00 -0.00000000000E+00 -0.11910119798E+04  0.11910119798E+04  0.00000000000E+00 0. -1.
         23    2    1    2    0    0 -0.50533853069E+03 -0.32693338979E+03  0.16229149684E+03  0.63004402144E+03  0.91457460364E+02 0.  0.
         13    1    3    3    0    0 -0.85003892549E+02 -0.20119454855E+02  0.36401501093E+02  0.94633627712E+02  0.00000000000E+00 0. -1.
        -13    1    3    3    0    0 -0.42033463814E+03 -0.30681393493E+03  0.12588999575E+03  0.53541039373E+03  0.00000000000E+00 0.  1.
         22    1    1    2    0    0  0.50533853069E+03  0.32693338979E+03 -0.86251682877E+03  0.10517546063E+04  0.00000000000E+00 0. -1.
<mgrwt>
<rscale>  0 0.15290949E+04</rscale>
<asrwt>0</asrwt>
<pdfrwt beam="1">  1        2 0.18323261E+00 0.15290949E+04</pdfrwt>
<pdfrwt beam="2">  1       -2 0.75505638E-01 0.15290949E+04</pdfrwt>
<totfact> 0.29088778E+01</totfact>
</mgrwt>
</event>
<event>
 6    1  0.1637818E-005  0.2139770E+04  0.7818608E-02  0.8543924E-01
         -2   -1    0    0    0  501 -0.00000000000E+00  0.00000000000E+00  0.11065099529E+04  0.11065099529E+04  0.00000000000E+00 0.  1.
          2   -1    0    0  501    0  0.00000000000E+00 -0.00000000000E+00 -0.10344721585E+04  0.10344721585E+04  0.00000000000E+00 0. -1.
         23    2    1    2    0    0  0.65904445354E+03  0.78987856940E+03  0.32296961727E+03  0.10821079329E+04  0.91654015383E+02 0.  0.
         11    1    3    3    0    0  0.55748521647E+03  0.71039449447E+03  0.26833688708E+03  0.94204818843E+03  0.00000000000E+00 0. -1.
        -11    1    3    3    0    0  0.10155923707E+03  0.79484074932E+02  0.54632730183E+02  0.14005974443E+03  0.00000000000E+00 0.  1.
         22    1    1    2    0    0 -0.65904445354E+03 -0.78987856940E+03 -0.25093182287E+03  0.10588741785E+04  0.00000000000E+00 0. -1.
<mgrwt>
<rscale>  0 0.21397698E+04</rscale>
<asrwt>0</asrwt>
<pdfrwt beam="1">  1        2 0.15914956E+00 0.21397698E+04</pdfrwt>
<pdfrwt beam="2">  1       -2 0.17023230E+00 0.21397698E+04</pdfrwt>
<totfact> 0.46690537E+00</totfact>
</mgrwt>
</event>
<event>
 6    1  0.1637818E-005  0.2084417E+04  0.7818608E-02  0.8568139E-01
         -2   -1    0    0    0  501 -0.00000000000E+00  0.00000000000E+00  0.43410016771E+03  0.43410016771E+03  0.00000000000E+00 0.  1.
          2   -1    0    0  501    0  0.00000000000E+00 -0.00000000000E+00 -0.25021837268E+04  0.25021837268E+04  0.00000000000E+00 0. -1.
         23    2    1    2    0    0 -0.46545409169E+03  0.53502757068E+03  0.35318180192E+02  0.71655398083E+03  0.96437652021E+02 0.  0.
         13    1    3    3    0    0 -0.12049510955E+03  0.96834855003E+02 -0.21135000673E+02  0.15602162934E+03  0.00000000000E+00 0. -1.
        -13    1    3    3    0    0 -0.34495898214E+03  0.43819271568E+03  0.56453180865E+02  0.56053235149E+03  0.00000000000E+00 0.  1.
         22    1    1    2    0    0  0.46545409169E+03 -0.53502757068E+03 -0.21034017393E+04  0.22197299137E+04  0.00000000000E+00 0. -1.
<mgrwt>
<rscale>  0 0.20844168E+04</rscale>
<asrwt>0</asrwt>
<pdfrwt beam="1">  1        2 0.38495134E+00 0.20844168E+04</pdfrwt>
<pdfrwt beam="2">  1       -2 0.66784642E-01 0.20844168E+04</pdfrwt>
<totfact> 0.65972488E+00</totfact>
</mgrwt>
</event>
<event>
 6    1  0.1637818E-005  0.3425933E+04  0.7818608E-02  0.8131571E-01
         -2   -1    0    0    0  501 -0.00000000000E+00  0.00000000000E+00  0.17350312604E+04  0.17350312604E+04  0.00000000000E+00 0.  1.
          2   -1    0    0  501    0  0.00000000000E+00 -0.00000000000E+00 -0.16911825210E+04  0.16911825210E+04  0.00000000000E+00 0. -1.
         23    2    1    2    0    0 -0.83206561359E+03 -0.11584669213E+04 -0.92439660927E+03  0.17023002544E+04  0.94542434610E+02 0.  0.
         11    1    3    3    0    0 -0.23844617494E+03 -0.26705166055E+03 -0.25025469427E+03  0.43680725698E+03  0.00000000000E+00 0. -1.
        -11    1    3    3    0    0 -0.59361943866E+03 -0.89141526073E+03 -0.67414191501E+03  0.12654929974E+04  0.00000000000E+00 0.  1.
         22    1    1    2    0    0  0.83206561359E+03  0.11584669213E+04  0.96824534874E+03  0.17239135269E+04  0.00000000000E+00 0.  1.
<mgrwt>
<rscale>  0 0.34259332E+04</rscale>
<asrwt>0</asrwt>
<pdfrwt beam="1">  1        2 0.26018193E+00 0.34259332E+04</pdfrwt>
<pdfrwt beam="2">  1       -2 0.26692789E+00 0.34259332E+04</pdfrwt>
<totfact> 0.41496231E-01</totfact>
</mgrwt>
</event>
<event>
 6    1  0.1637818E-005  0.1522879E+04  0.7818608E-02  0.8869380E-01
          1   -1    0    0  501    0  0.00000000000E+00  0.00000000000E+00  0.20147454380E+04  0.20147454380E+04  0.00000000000E+00 0. -1.
         -1   -1    0    0    0  501 -0.00000000000E+00 -0.00000000000E+00 -0.28777344449E+03  0.28777344449E+03  0.00000000000E+00 0.  1.
         23    2    1    2    0    0 -0.47185109543E+03  0.59357476751E+03  0.82477776506E+03  0.11239906110E+04  0.90122533046E+02 0.  0.
         13    1    3    3    0    0 -0.14265792248E+03  0.11847663965E+03  0.21046631000E+03  0.28050679962E+03  0.00000000000E+00 0. -1.
        -13    1    3    3    0    0 -0.32919317294E+03  0.47509812786E+03  0.61431145506E+03  0.84348381136E+03  0.00000000000E+00 0.  1.
         22    1    1    2    0    0  0.47185109543E+03 -0.59357476751E+03  0.90219422844E+03  0.11785282715E+04  0.00000000000E+00 0. -1.
<mgrwt>
<rscale>  0 0.15228792E+04</rscale>
<asrwt>0</asrwt>
<pdfrwt beam="1">  1        1 0.30996083E+00 0.15228792E+04</pdfrwt>
<pdfrwt beam="2">  1       -1 0.44272839E-01 0.15228792E+04</pdfrwt>
<totfact> 0.14204584E+01</totfact>
</mgrwt>
</event>
<event>
 6    1  0.1637818E-005  0.1401711E+04  0.7818608E-02  0.8952581E-01
          1   -1    0    0  501    0  0.00000000000E+00  0.00000000000E+00  0.10138170340E+04  0.10138170340E+04  0.00000000000E+00 0. -1.
         -1   -1    0    0    0  501 -0.00000000000E+00 -0.00000000000E+00 -0.48450383277E+03  0.48450383277E+03  0.00000000000E+00 0.  1.
         23    2    1    2    0    0 -0.63319085620E+03 -0.29002886040E+03  0.31316472967E+03  0.76909692172E+03  0.91599819039E+02 0.  0.
         13    1    3    3    0    0 -0.31979456959E+03 -0.13891989294E+03  0.10716884916E+03  0.36476357497E+03  0.00000000000E+00 0. -1.
        -13    1    3    3    0    0 -0.31339628661E+03 -0.15110896746E+03  0.20599588050E+03  0.40433334675E+03  0.00000000000E+00 0.  1.
         22    1    1    2    0    0  0.63319085620E+03  0.29002886040E+03  0.21614847152E+03  0.72922394501E+03  0.00000000000E+00 0.  1.
<mgrwt>
<rscale>  0 0.14017107E+04</rscale>
<asrwt>0</asrwt>
<pdfrwt beam="1">  1        1 0.15597185E+00 0.14017107E+04</pdfrwt>
<pdfrwt beam="2">  1       -1 0.74539052E-01 0.14017107E+04</pdfrwt>
<totfact> 0.26066864E+01</totfact>
</mgrwt>
</event>
<event>
 6    1  0.1637818E-005  0.2029994E+04  0.7818608E-02  0.8592725E-01
         -2   -1    0    0    0  501 -0.00000000000E+00  0.00000000000E+00  0.50444464088E+03  0.50444464088E+03  0.00000000000E+00 0.  1.
          2   -1    0    0  501    0  0.00000000000E+00 -0.00000000000E+00 -0.20422832151E+04  0.20422832151E+04  0.00000000000E+00 0. -1.
         23    2    1    2    0    0 -0.37261135966E+02 -0.30484318572E+03 -0.19814358811E+04  0.20071944179E+04  0.91779737816E+02 0.  0.
         13    1    3    3    0    0 -0.66384456733E+02 -0.21080909197E+03 -0.14442778795E+04  0.14610906757E+04  0.00000000000E+00 0. -1.
        -13    1    3    3    0    0  0.29123320767E+02 -0.94034093742E+02 -0.53715800156E+03  0.54610374220E+03  0.00000000000E+00 0.  1.
         22    1    1    2    0    0  0.37261135966E+02  0.30484318572E+03  0.44359730688E+03  0.53953343807E+03  0.00000000000E+00 0.  1.
<mgrwt>
<rscale>  0 0.20299939E+04</rscale>
<asrwt>0</asrwt>
<pdfrwt beam="1">  1        2 0.31419741E+00 0.20299939E+04</pdfrwt>
<pdfrwt beam="2">  1       -2 0.77606869E-01 0.20299939E+04</pdfrwt>
<totfact> 0.86785899E+00</totfact>
</mgrwt>
</event>
<event>
 6    1  0.1637818E-005  0.1611010E+04  0.7818608E-02  0.8813812E-01
          1   -1    0    0  501    0  0.00000000000E+00  0.00000000000E+00  0.30720873630E+04  0.30720873630E+04  0.00000000000E+00 0. -1.
         -1   -1    0    0    0  501 -0.00000000000E+00 -0.00000000000E+00 -0.21120445102E+03  0.21120445102E+03  0.00000000000E+00 0.  1.
         23    2    1    2    0    0  0.34003758835E+03 -0.24041246205E+03  0.28340121019E+04  0.28659840693E+04  0.93895570237E+02 0.  0.
         11    1    3    3    0    0  0.89639312977E+02 -0.68894414320E+02  0.10805624177E+04  0.10864606690E+04  0.00000000000E+00 0.  1.
        -11    1    3    3    0    0  0.25039827537E+03 -0.17151804773E+03  0.17534496842E+04  0.17795234002E+04  0.00000000000E+00 0. -1.
         22    1    1    2    0    0 -0.34003758835E+03  0.24041246205E+03  0.26870810061E+02  0.41730774475E+03  0.00000000000E+00 0.  1.
<mgrwt>
<rscale>  0 0.16110103E+04</rscale>
<asrwt>0</asrwt>
<pdfrwt beam="1">  1        1 0.47262879E+00 0.16110103E+04</pdfrwt>
<pdfrwt beam="2">  1       -1 0.32492995E-01 0.16110103E+04</pdfrwt>
<totfact> 0.45200241E+00</totfact>
</mgrwt>
</event>
<event>
 6    1  0.1637818E-005  0.1953000E+04  0.7818608E-02  0.8628915E-01
         -2   -1    0    0    0  501 -0.00000000000E+00  0.00000000000E+00  0.30078403456E+03  0.30078403456E+03  0.00000000000E+00 0.  1.
          2   -1    0    0  501    0  0.00000000000E+00 -0.00000000000E+00 -0.31702235419E+04  0.31702235419E+04  0.00000000000E+00 0. -1.
         23    2    1    2    0    0 -0.12992279342E+03  0.95748142847E+03 -0.12134456531E+04  0.15537266207E+04  0.89249317573E+02 0.  0.
         13    1    3    3    0    0 -0.11432199473E+03  0.54762176808E+03 -0.66910741107E+03  0.87216044791E+03  0.00000000000E+00 0.  1.
        -13    1    3    3    0    0 -0.15600798690E+02  0.40985966039E+03 -0.54433824199E+03  0.68156617274E+03  0.00000000000E+00 0. -1.
         22    1    1    2    0    0  0.12992279342E+03 -0.95748142847E+03 -0.16559938543E+04  0.19172809558E+04  0.00000000000E+00 0.  1.
<mgrwt>
<rscale>  0 0.19530004E+04</rscale>
<asrwt>0</asrwt>
<pdfrwt beam="1">  1        2 0.48772673E+00 0.19530004E+04</pdfrwt>
<pdfrwt beam="2">  1       -2 0.46274464E-01 0.19530004E+04</pdfrwt>
<totfact> 0.56199913E+00</totfact>
</mgrwt>
</event>
<event>
 6    1  0.1637818E-005  0.1764427E+04  0.7818608E-02  0.8725449E-01
          3   -1    0    0  501    0  0.00000000000E+00  0.00000000000E+00  0.10817121542E+04  0.10817121542E+04  0.00000000000E+00 0. -1.
         -3   -1    0    0    0  501 -0.00000000000E+00 -0.00000000000E+00 -0.71950809154E+03  0.71950809154E+03  0.00000000000E+00 0.  1.
         23    2    1    2    0    0  0.35732956073E+03 -0.79182255107E+03  0.38460489204E+02  0.87414027686E+03  0.89300879321E+02 0.  0.
         11    1    3    3    0    0  0.19592963853E+03 -0.53024841158E+03  0.88803134306E+01  0.56535887824E+03  0.00000000000E+00 0. -1.
        -11    1    3    3    0    0  0.16139992220E+03 -0.26157413949E+03  0.29580175774E+02  0.30878139862E+03  0.00000000000E+00 0.  1.
         22    1    1    2    0    0 -0.35732956073E+03  0.79182255107E+03  0.32374357347E+03  0.92707996889E+03  0.00000000000E+00 0. -1.
<mgrwt>
<rscale>  0 0.17644270E+04</rscale>
<asrwt>0</asrwt>
<pdfrwt beam="1">  1        3 0.16641725E+00 0.17644270E+04</pdfrwt>
<pdfrwt beam="2">  1       -3 0.11069355E+00 0.17644270E+04</pdfrwt>
<totfact> 0.41850485E-01</totfact>
</mgrwt>
</event>
<event>
 6    1  0.1637818E-005  0.2615154E+04  0.7818608E-02  0.8363072E-01
          2   -1    0    0  501    0  0.00000000000E+00  0.00000000000E+00  0.13337828811E+04  0.13337828811E+04  0.00000000000E+00 0. -1.
         -2   -1    0    0    0  501 -0.00000000000E+00 -0.00000000000E+00 -0.12818855840E+04  0.12818855840E+04  0.00000000000E+00 0.  1.
         23    2    1    2    0    0  0.10932301506E+04  0.14814548737E+03  0.72498138637E+03  0.13233289436E+04  0.92207563753E+02 0.  0.
         11    1    3    3    0    0  0.24870681857E+03  0.68175284783E+02  0.14693396261E+03  0.29680387536E+03  0.00000000000E+00 0. -1.
        -11    1    3    3    0    0  0.84452333206E+03  0.79970202591E+02  0.57804742375E+03  0.10265250683E+04  0.00000000000E+00 0.  1.
         22    1    1    2    0    0 -0.10932301506E+04 -0.14814548737E+03 -0.67308408922E+03  0.12923395215E+04  0.00000000000E+00 0.  1.
<mgrwt>
<rscale>  0 0.26151536E+04</rscale>
<asrwt>0</asrwt>
<pdfrwt beam="1">  1        2 0.20519737E+00 0.26151536E+04</pdfrwt>
<pdfrwt beam="2">  1       -2 0.19721317E+00 0.26151536E+04</pdfrwt>
<totfact> 0.19368234E+00</totfact>
</mgrwt>
</event>
<event>
 6    1  0.1637818E-005  0.2950389E+04  0.7818608E-02  0.8258041E-01
         -1   -1    0    0    0  501 -0.00000000000E+00  0.00000000000E+00  0.16029508866E+04  0.16029508866E+04  0.00000000000E+00 0.  1.
          1   -1    0    0  501    0  0.00000000000E+00 -0.00000000000E+00 -0.13576206854E+04  0.13576206854E+04  0.00000000000E+00 0. -1.
         23    2    1    2    0    0  0.71891679932E+03 -0.11414528182E+04 -0.47257079264E+03  0.14324558246E+04  0.94077812016E+02 0.  0.
         13    1    3    3    0    0  0.19126403242E+03 -0.38392306411E+03 -0.15980112955E+03  0.45772835859E+03  0.00000000000E+00 0.  1.
        -13    1    3    3    0    0  0.52765276690E+03 -0.75752975412E+03 -0.31276966308E+03  0.97472746598E+03  0.00000000000E+00 0. -1.
         22    1    1    2    0    0 -0.71891679932E+03  0.11414528182E+04  0.71790099390E+03  0.15281157475E+04  0.00000000000E+00 0.  1.
<mgrwt>
<rscale>  0 0.29503893E+04</rscale>
<asrwt>0</asrwt>
<pdfrwt beam="1">  1        1 0.20886472E+00 0.29503893E+04</pdfrwt>
<pdfrwt beam="2">  1       -1 0.24660783E+00 0.29503893E+04</pdfrwt>
<totfact> 0.51613846E-01</totfact>
</mgrwt>
</event>
<event>
 6    1  0.1637818E-005  0.1820935E+04  0.7818608E-02  0.8695245E-01
          2   -1    0    0  501    0  0.00000000000E+00  0.00000000000E+00  0.14378833216E+04  0.14378833216E+04  0.00000000000E+00 0. -1.
         -2   -1    0    0    0  501 -0.00000000000E+00 -0.00000000000E+00 -0.57650764060E+03  0.57650764060E+03  0.00000000000E+00 0.  1.
         23    2    1    2    0    0  0.64086873781E+03  0.63805478338E+03  0.33863949335E+03  0.96984332445E+03  0.89959556646E+02 0.  0.
         11    1    3    3    0    0  0.35251079490E+03  0.29596212220E+03  0.19566179754E+03  0.50014095744E+03  0.00000000000E+00 0.  1.
        -11    1    3    3    0    0  0.28835794292E+03  0.34209266118E+03  0.14297769581E+03  0.46970236701E+03  0.00000000000E+00 0. -1.
         22    1    1    2    0    0 -0.64086873781E+03 -0.63805478338E+03  0.52273618770E+03  0.10445476378E+04  0.00000000000E+00 0. -1.
<mgrwt>
<rscale>  0 0.18209346E+04</rscale>
<asrwt>0</asrwt>
<pdfrwt beam="1">  1        2 0.22121282E+00 0.18209346E+04</pdfrwt>
<pdfrwt beam="2">  1       -2 0.88693483E-01 0.18209346E+04</pdfrwt>
<totfact> 0.14183617E+01</totfact>
</mgrwt>
</event>
<event>
 6    1  0.1637818E-005  0.1658698E+04  0.7818608E-02  0.8785277E-01
         -1   -1    0    0    0  501 -0.00000000000E+00  0.00000000000E+00  0.22614489808E+04  0.22614489808E+04  0.00000000000E+00 0.  1.
          1   -1    0    0  501    0  0.00000000000E+00 -0.00000000000E+00 -0.30415000304E+03  0.30415000304E+03  0.00000000000E+00 0. -1.
         23    2    1    2    0    0 -0.68959044394E+03  0.32472176975E+03  0.48564218639E+03  0.90826590937E+03  0.90107828692E+02 0.  0.
         13    1    3    3    0    0 -0.27995637868E+03  0.10953659617E+03  0.14549788780E+03  0.33398124980E+03  0.00000000000E+00 0. -1.
        -13    1    3    3    0    0 -0.40963406527E+03  0.21518517358E+03  0.34014429859E+03  0.57428465957E+03  0.00000000000E+00 0.  1.
         22    1    1    2    0    0  0.68959044394E+03 -0.32472176975E+03  0.14716567913E+04  0.16573330744E+04  0.00000000000E+00 0.  1.
<mgrwt>
<rscale>  0 0.16586979E+04</rscale>
<asrwt>0</asrwt>
<pdfrwt beam="1">  1        1 0.46792310E-01 0.16586979E+04</pdfrwt>
<pdfrwt beam="2">  1       -1 0.34791522E+00 0.16586979E+04</pdfrwt>
<totfact> 0.13234948E+00</totfact>
</mgrwt>
</event>
<event>
 6    1  0.1637818E-005  0.3298064E+04  0.7818608E-02  0.8163388E-01
         -1   -1    0    0    0  501 -0.00000000000E+00  0.00000000000E+00  0.31436418628E+04  0.31436418628E+04  0.00000000000E+00 0.  1.
          1   -1    0    0  501    0  0.00000000000E+00 -0.00000000000E+00 -0.86501786993E+03  0.86501786993E+03  0.00000000000E+00 0. -1.
         23    2    1    2    0    0  0.11010914675E+04 -0.46204167451E+03  0.25203219682E+04  0.27903400539E+04  0.89943672786E+02 0.  0.
         11    1    3    3    0    0  0.78382566151E+03 -0.28906190251E+03  0.17149134910E+04  0.19075816451E+04  0.00000000000E+00 0.  1.
        -11    1    3    3    0    0  0.31726580599E+03 -0.17297977200E+03  0.80540847717E+03  0.88275840878E+03  0.00000000000E+00 0. -1.
         22    1    1    2    0    0 -0.11010914675E+04  0.46204167451E+03 -0.24169797524E+03  0.12183196789E+04  0.00000000000E+00 0. -1.
<mgrwt>
<rscale>  0 0.32980639E+04</rscale>
<asrwt>0</asrwt>
<pdfrwt beam="1">  1        1 0.13307967E+00 0.32980639E+04</pdfrwt>
<pdfrwt beam="2">  1       -1 0.48363720E+00 0.32980639E+04</pdfrwt>
<totfact> 0.30778312E-02</totfact>
</mgrwt>
</event>
<event>
 6    1  0.1637818E-005  0.1791749E+04  0.7818608E-02  0.8710700E-01
          1   -1    0    0  501    0  0.00000000000E+00  0.00000000000E+00  0.35321516743E+03  0.35321516743E+03  0.00000000000E+00 0. -1.
         -1   -1    0    0    0  501 -0.00000000000E+00 -0.00000000000E+00 -0.22722442497E+04  0.22722442497E+04  0.00000000000E+00 0.  1.
         23    2    1    2    0    0 -0.82826200785E+03  0.26641800369E+03 -0.66498708412E+03  0.10991508509E+04  0.94489494523E+02 0.  0.
         13    1    3    3    0    0 -0.49117601214E+03  0.12090490381E+03 -0.34676708439E+03  0.61328564429E+03  0.00000000000E+00 0.  1.
        -13    1    3    3    0    0 -0.33708599571E+03  0.14551309988E+03 -0.31821999973E+03  0.48586520658E+03  0.00000000000E+00 0. -1.
         22    1    1    2    0    0  0.82826200785E+03 -0.26641800369E+03 -0.12540419982E+04  0.15263085663E+04  0.00000000000E+00 0.  1.
<mgrwt>
<rscale>  0 0.17917490E+04</rscale>
<asrwt>0</asrwt>
<pdfrwt beam="1">  1        1 0.54340797E-01 0.17917490E+04</pdfrwt>
<pdfrwt beam="2">  1       -1 0.34957602E+00 0.17917490E+04</pdfrwt>
<totfact> 0.10475823E+00</totfact>
</mgrwt>
</event>
<event>
 6    1  0.1637818E-005  0.1174996E+04  0.7818608E-02  0.9135029E-01
          1   -1    0    0  501    0  0.00000000000E+00  0.00000000000E+00  0.67466584428E+03  0.67466584428E+03  0.00000000000E+00 0. -1.
         -1   -1    0    0    0  501 -0.00000000000E+00 -0.00000000000E+00 -0.51159195836E+03  0.51159195836E+03  0.00000000000E+00 0.  1.
         23    2    1    2    0    0  0.43905398168E+03 -0.35971922033E+01  0.47074656734E+03  0.65011993091E+03  0.90951939410E+02 0.  0.
         13    1    3    3    0    0  0.13781987565E+03 -0.15421778785E+02  0.20930539029E+03  0.25107946111E+03  0.00000000000E+00 0. -1.
        -13    1    3    3    0    0  0.30123410602E+03  0.11824586582E+02  0.26144117705E+03  0.39904046980E+03  0.00000000000E+00 0.  1.
         22    1    1    2    0    0 -0.43905398168E+03  0.35971922033E+01 -0.30767268142E+03  0.53613787173E+03  0.00000000000E+00 0.  1.
<mgrwt>
<rscale>  0 0.11749955E+04</rscale>
<asrwt>0</asrwt>
<pdfrwt beam="1">  1        1 0.10379475E+00 0.11749955E+04</pdfrwt>
<pdfrwt beam="2">  1       -1 0.78706455E-01 0.11749955E+04</pdfrwt>
<totfact> 0.46148421E+01</totfact>
</mgrwt>
</event>
<event>
 6    1  0.1637818E-005  0.9907270E+03  0.7818608E-02  0.9318774E-01
         -1   -1    0    0    0  501 -0.00000000000E+00  0.00000000000E+00  0.18114415520E+03  0.18114415520E+03  0.00000000000E+00 0.  1.
          1   -1    0    0  501    0  0.00000000000E+00 -0.00000000000E+00 -0.13546392775E+04  0.13546392775E+04  0.00000000000E+00 0. -1.
         23    2    1    2    0    0  0.12674267402E+03 -0.42426589687E+03 -0.92103694651E+03  0.10260772554E+04  0.91979457026E+02 0.  0.
         11    1    3    3    0    0  0.10462502470E+03 -0.19050177087E+03 -0.45326099728E+03  0.50267569282E+03  0.00000000000E+00 0. -1.
        -11    1    3    3    0    0  0.22117649327E+02 -0.23376412600E+03 -0.46777594923E+03  0.52340156257E+03  0.00000000000E+00 0.  1.
         22    1    1    2    0    0 -0.12674267402E+03  0.42426589687E+03 -0.25245817578E+03  0.50970617730E+03  0.00000000000E+00 0.  1.
<mgrwt>
<rscale>  0 0.99072698E+03</rscale>
<asrwt>0</asrwt>
<pdfrwt beam="1">  1        1 0.20840605E+00 0.99072698E+03</pdfrwt>
<pdfrwt beam="2">  1       -1 0.27868331E-01 0.99072698E+03</pdfrwt>
<totfact> 0.96243574E+01</totfact>
</mgrwt>
</event>
<event>
 6    1  0.1637818E-005  0.4395141E+04  0.7818608E-02  0.7929256E-01
          1   -1    0    0  501    0  0.00000000000E+00  0.00000000000E+00  0.31611071882E+04  0.31611071882E+04  0.00000000000E+00 0. -1.
         -1   -1    0    0    0  501 -0.00000000000E+00 -0.00000000000E+00 -0.15277295050E+04  0.15277295050E+04  0.00000000000E+00 0.  1.
         23    2    1    2    0    0  0.14340404099E+04  0.13628689654E+04 -0.20109155537E+03  0.19908446432E+04  0.95607874071E+02 0.  0.
         13    1    3    3    0    0  0.51297347326E+03  0.46032424403E+03 -0.28819011382E+02  0.68983384182E+03  0.00000000000E+00 0. -1.
        -13    1    3    3    0    0  0.92106693663E+03  0.90254472140E+03 -0.17227254399E+03  0.13010108014E+04  0.00000000000E+00 0.  1.
         22    1    1    2    0    0 -0.14340404099E+04 -0.13628689654E+04  0.18344692386E+04  0.26979920499E+04  0.00000000000E+00 0.  1.
<mgrwt>
<rscale>  0 0.43951413E+04</rscale>
<asrwt>0</asrwt>
<pdfrwt beam="1">  1        1 0.48632418E+00 0.43951413E+04</pdfrwt>
<pdfrwt beam="2">  1       -1 0.23503531E+00 0.43951413E+04</pdfrwt>
<totfact> 0.30096652E-02</totfact>
</mgrwt>
</event>
<event>
 6    1  0.1637818E-005  0.2318468E+04  0.7818608E-02  0.8470675E-01
         -2   -1    0    0    0  501 -0.00000000000E+00  0.00000000000E+00  0.75643679082E+03  0.75643679082E+03  0.00000000000E+00 0.  1.
          2   -1    0    0  501    0  0.00000000000E+00 -0.00000000000E+00 -0.17765172397E+04  0.17765172397E+04  0.00000000000E+00 0. -1.
         23    2    1    2    0    0  0.10257229946E+04  0.58792095859E+02 -0.10930178149E+04  0.15029617821E+04  0.92962372676E+02 0.  0.
         13    1    3    3    0    0  0.57527882401E+03  0.39354116265E+02 -0.67943673215E+03  0.89113901543E+03  0.00000000000E+00 0. -1.
        -13    1    3    3    0    0  0.45044417063E+03  0.19437979594E+02 -0.41358108271E+03  0.61182276672E+03  0.00000000000E+00 0.  1.
         22    1    1    2    0    0 -0.10257229946E+04 -0.58792095859E+02  0.72937366010E+02  0.10299922483E+04  0.00000000000E+00 0.  1.
<mgrwt>
<rscale>  0 0.23184676E+04</rscale>
<asrwt>0</asrwt>
<pdfrwt beam="1">  1        2 0.27331034E+00 0.23184676E+04</pdfrwt>
<pdfrwt beam="2">  1       -2 0.11637489E+00 0.23184676E+04</pdfrwt>
<totfact> 0.46105867E+00</totfact>
</mgrwt>
</event>
<event>
 6    1  0.1637818E-005  0.2269593E+04  0.7818608E-02  0.8490008E-01
          1   -1    0    0  501    0  0.00000000000E+00  0.00000000000E+00  0.14599555366E+04  0.14599555366E+04  0.00000000000E+00 0. -1.
         -1   -1    0    0    0  501 -0.00000000000E+00 -0.00000000000E+00 -0.88205647191E+03  0.88205647191E+03  0.00000000000E+00 0.  1.
         23    2    1    2    0    0  0.62649628942E+02  0.36973412558E+03  0.13926470760E+04  0.14451047549E+04  0.90739046593E+02 0.  0.
         13    1    3    3    0    0  0.86320646981E+02  0.28521461029E+03  0.10866543107E+04  0.11267724788E+04  0.00000000000E+00 0. -1.
        -13    1    3    3    0    0 -0.23671018039E+02  0.84519515294E+02  0.30599276528E+03  0.31833227604E+03  0.00000000000E+00 0.  1.
         22    1    1    2    0    0 -0.62649628942E+02 -0.36973412558E+03 -0.81474801134E+03  0.89690725363E+03  0.00000000000E+00 0.  1.
<mgrwt>
<rscale>  0 0.22695931E+04</rscale>
<asrwt>0</asrwt>
<pdfrwt beam="1">  1        1 0.22460854E+00 0.22695931E+04</pdfrwt>
<pdfrwt beam="2">  1       -1 0.13570100E+00 0.22695931E+04</pdfrwt>
<totfact> 0.28733659E+00</totfact>
</mgrwt>
</event>
<event>
 6    1  0.1637818E-005  0.1970304E+04  0.7818608E-02  0.8620632E-01
          2   -1    0    0  501    0  0.00000000000E+00  0.00000000000E+00  0.10976090560E+04  0.10976090560E+04  0.00000000000E+00 0.  1.
         -2   -1    0    0    0  501 -0.00000000000E+00 -0.00000000000E+00 -0.88421685792E+03  0.88421685792E+03  0.00000000000E+00 0. -1.
         23    2    1    2    0    0 -0.39768936612E+03 -0.54024504145E+03 -0.61589849549E+03  0.91517480359E+03  0.90512030445E+02 0.  0.
         13    1    3    3    0    0 -0.32272371105E+03 -0.37215172648E+03 -0.45976442081E+03  0.67381809403E+03  0.00000000000E+00 0.  1.
        -13    1    3    3    0    0 -0.74965655070E+02 -0.16809331497E+03 -0.15613407467E+03  0.24135670956E+03  0.00000000000E+00 0. -1.
         22    1    1    2    0    0  0.39768936612E+03  0.54024504145E+03  0.82929069361E+03  0.10666511104E+04  0.00000000000E+00 0.  1.
<mgrwt>
<rscale>  0 0.19703040E+04</rscale>
<asrwt>0</asrwt>
<pdfrwt beam="1">  1        2 0.16886293E+00 0.19703040E+04</pdfrwt>
<pdfrwt beam="2">  1       -2 0.13603336E+00 0.19703040E+04</pdfrwt>
<totfact> 0.78768234E+00</totfact>
</mgrwt>
</event>
<event>
 6    1  0.1637818E-005  0.1987575E+04  0.7818608E-02  0.8612452E-01
          2   -1    0    0  501    0  0.00000000000E+00  0.00000000000E+00  0.62616646746E+03  0.62616646746E+03  0.00000000000E+00 0. -1.
         -2   -1    0    0    0  501 -0.00000000000E+00 -0.00000000000E+00 -0.15772384637E+04  0.15772384637E+04  0.00000000000E+00 0.  1.
         23    2    1    2    0    0  0.12416003408E+03  0.81686987490E+03 -0.10843093481E+04  0.13664794275E+04  0.94059326777E+02 0.  0.
         13    1    3    3    0    0  0.55313089077E+02  0.50082872371E+03 -0.72661169534E+03  0.88422480407E+03  0.00000000000E+00 0. -1.
        -13    1    3    3    0    0  0.68846945007E+02  0.31604115119E+03 -0.35769765275E+03  0.48225462348E+03  0.00000000000E+00 0.  1.
         22    1    1    2    0    0 -0.12416003408E+03 -0.81686987490E+03  0.13323735189E+03  0.83692550357E+03  0.00000000000E+00 0. -1.
<mgrwt>
<rscale>  0 0.19875752E+04</rscale>
<asrwt>0</asrwt>
<pdfrwt beam="1">  1        2 0.96333302E-01 0.19875752E+04</pdfrwt>
<pdfrwt beam="2">  1       -2 0.24265207E+00 0.19875752E+04</pdfrwt>
<totfact> 0.31221905E+00</totfact>
</mgrwt>
</event>
<event>
 6    1  0.1637818E-005  0.1451853E+04  0.7818608E-02  0.8917117E-01
         -2   -1    0    0    0  501 -0.00000000000E+00  0.00000000000E+00  0.43660310685E+03  0.43660310685E+03  0.00000000000E+00 0.  1.
          2   -1    0    0  501    0  0.00000000000E+00 -0.00000000000E+00 -0.12069749618E+04  0.12069749618E+04  0.00000000000E+00 0. -1.
         23    2    1    2    0    0  0.29463985545E+03  0.51207329038E+03  0.86476781025E+02  0.60279889701E+03  0.82804453040E+02 0.  0.
         13    1    3    3    0    0  0.15270737118E+03  0.22213320032E+03  0.74912535875E+02  0.27977596025E+03  0.00000000000E+00 0.  1.
        -13    1    3    3    0    0  0.14193248426E+03  0.28994009006E+03  0.11564245150E+02  0.32302293677E+03  0.00000000000E+00 0. -1.
         22    1    1    2    0    0 -0.29463985545E+03 -0.51207329038E+03 -0.85684863601E+03  0.10407791717E+04  0.00000000000E+00 0. -1.
<mgrwt>
<rscale>  0 0.14518526E+04</rscale>
<asrwt>0</asrwt>
<pdfrwt beam="1">  1        2 0.18568845E+00 0.14518526E+04</pdfrwt>
<pdfrwt beam="2">  1       -2 0.67169710E-01 0.14518526E+04</pdfrwt>
<totfact> 0.36995650E+01</totfact>
</mgrwt>
</event>
<event>
 6    1  0.1637818E-005  0.2778402E+04  0.7818608E-02  0.8310005E-01
         -2   -1    0    0    0  501 -0.00000000000E+00  0.00000000000E+00  0.76375393510E+03  0.76375393510E+03  0.00000000000E+00 0.  1.
          2   -1    0    0  501    0  0.00000000000E+00 -0.00000000000E+00 -0.25268349023E+04  0.25268349023E+04  0.00000000000E+00 0. -1.
         23    2    1    2    0    0 -0.53813469903E+03 -0.11653076033E+04 -0.25774570632E+03  0.13123155973E+04  0.90601397457E+02 0.  0.
         11    1    3    3    0    0 -0.13760597262E+03 -0.22947668247E+03 -0.77213441351E+02  0.27849033561E+03  0.00000000000E+00 0. -1.
        -11    1    3    3    0    0 -0.40052872641E+03 -0.93583092086E+03 -0.18053226497E+03  0.10338252617E+04  0.00000000000E+00 0.  1.
         22    1    1    2    0    0  0.53813469903E+03  0.11653076033E+04 -0.15053352609E+04  0.19782732400E+04  0.00000000000E+00 0.  1.
<mgrwt>
<rscale>  0 0.27784025E+04</rscale>
<asrwt>0</asrwt>
<pdfrwt beam="1">  1        2 0.38874382E+00 0.27784025E+04</pdfrwt>
<pdfrwt beam="2">  1       -2 0.11750061E+00 0.27784025E+04</pdfrwt>
<totfact> 0.16371841E+00</totfact>
</mgrwt>
</event>
<event>
 6    1  0.1637818E-005  0.2302896E+04  0.7818608E-02  0.8476780E-01
          2   -1    0    0  501    0  0.00000000000E+00  0.00000000000E+00  0.22734552716E+04  0.22734552716E+04  0.00000000000E+00 0.  1.
         -2   -1    0    0    0  501 -0.00000000000E+00 -0.00000000000E+00 -0.58317951111E+03  0.58317951111E+03  0.00000000000E+00 0. -1.
         23    2    1    2    0    0 -0.81097193430E+03 -0.67900597931E+03  0.14052289267E+04  0.17612004873E+04  0.91838019621E+02 0.  0.
         13    1    3    3    0    0 -0.35454639157E+03 -0.25189718770E+03  0.62538834377E+03  0.76175187395E+03  0.00000000000E+00 0. -1.
        -13    1    3    3    0    0 -0.45642554273E+03 -0.42710879160E+03  0.77984058296E+03  0.99944861336E+03  0.00000000000E+00 0.  1.
         22    1    1    2    0    0  0.81097193430E+03  0.67900597931E+03  0.28504683379E+03  0.10954342954E+04  0.00000000000E+00 0. -1.
<mgrwt>
<rscale>  0 0.23028960E+04</rscale>
<asrwt>0</asrwt>
<pdfrwt beam="1">  1        2 0.34976235E+00 0.23028960E+04</pdfrwt>
<pdfrwt beam="2">  1       -2 0.89719926E-01 0.23028960E+04</pdfrwt>
<totfact> 0.45277338E+00</totfact>
</mgrwt>
</event>
<event>
 6    1  0.2159257E-005  0.2081411E+04  0.7818608E-02  0.8569476E-01
          2   -1    0    0  501    0  0.00000000000E+00  0.00000000000E+00  0.90682302346E+03  0.90682302346E+03  0.00000000000E+00 0. -1.
         -2   -1    0    0    0  501 -0.00000000000E+00 -0.00000000000E+00 -0.11943542254E+04  0.11943542254E+04  0.00000000000E+00 0.  1.
         23    2    1    2    0    0 -0.56684277634E+02  0.26272191941E+03 -0.11571837006E+04  0.11909402563E+04  0.83837120533E+02 0.  0.
         11    1    3    3    0    0 -0.31627563715E+02  0.18972616068E+03 -0.64810141205E+03  0.67604124071E+03  0.00000000000E+00 0. -1.
        -11    1    3    3    0    0 -0.25056713920E+02  0.72995758735E+02 -0.50908228859E+03  0.51489901559E+03  0.00000000000E+00 0.  1.
         22    1    1    2    0    0  0.56684277634E+02 -0.26272191941E+03  0.86965249866E+03  0.91023699260E+03  0.00000000000E+00 0. -1.
<mgrwt>
<rscale>  0 0.20814110E+04</rscale>
<asrwt>0</asrwt>
<pdfrwt beam="1">  1        2 0.13951124E+00 0.20814110E+04</pdfrwt>
<pdfrwt beam="2">  1       -2 0.18374680E+00 0.20814110E+04</pdfrwt>
<totfact> 0.45740266E+00</totfact>
</mgrwt>
</event>
<event>
 6    1  0.1637818E-005  0.1593672E+04  0.7818608E-02  0.8824445E-01
         -1   -1    0    0    0  501 -0.00000000000E+00  0.00000000000E+00  0.34763199678E+03  0.34763199678E+03  0.00000000000E+00 0.  1.
          1   -1    0    0  501    0  0.00000000000E+00 -0.00000000000E+00 -0.18264937509E+04  0.18264937509E+04  0.00000000000E+00 0. -1.
         23    2    1    2    0    0  0.57996320004E+03 -0.82555532801E+02 -0.14734592470E+04  0.15882913713E+04  0.91731120041E+02 0.  0.
         13    1    3    3    0    0  0.97559961231E+02 -0.43309897334E+02 -0.21689629843E+03  0.24173890360E+03  0.00000000000E+00 0.  1.
        -13    1    3    3    0    0  0.48240323881E+03 -0.39245635468E+02 -0.12565629485E+04  0.13465524677E+04  0.00000000000E+00 0. -1.
         22    1    1    2    0    0 -0.57996320004E+03  0.82555532801E+02 -0.54025071202E+01  0.58583437632E+03  0.00000000000E+00 0.  1.
<mgrwt>
<rscale>  0 0.15936721E+04</rscale>
<asrwt>0</asrwt>
<pdfrwt beam="1">  1        1 0.28099904E+00 0.15936721E+04</pdfrwt>
<pdfrwt beam="2">  1       -1 0.53481845E-01 0.15936721E+04</pdfrwt>
<totfact> 0.13237548E+01</totfact>
</mgrwt>
</event>
<event>
 6    1  0.1637818E-005  0.2907081E+04  0.7818608E-02  0.8270774E-01
          2   -1    0    0  501    0  0.00000000000E+00  0.00000000000E+00  0.28079556774E+04  0.28079556774E+04  0.00000000000E+00 0. -1.
         -2   -1    0    0    0  501 -0.00000000000E+00 -0.00000000000E+00 -0.75242634030E+03  0.75242634030E+03  0.00000000000E+00 0.  1.
         23    2    1    2    0    0  0.29379421464E+01  0.68526961554E+03 -0.53908397732E+03  0.87679834491E+03  0.92524188987E+02 0.  0.
         11    1    3    3    0    0 -0.81943908131E+01  0.45526609199E+03 -0.41047546148E+03  0.61304524061E+03  0.00000000000E+00 0. -1.
        -11    1    3    3    0    0  0.11132332959E+02  0.23000352354E+03 -0.12860851584E+03  0.26375310430E+03  0.00000000000E+00 0.  1.
         22    1    1    2    0    0 -0.29379421464E+01 -0.68526961554E+03  0.25946133144E+04  0.26835836728E+04  0.00000000000E+00 0. -1.
<mgrwt>
<rscale>  0 0.29070809E+04</rscale>
<asrwt>0</asrwt>
<pdfrwt beam="1">  1        2 0.43199318E+00 0.29070809E+04</pdfrwt>
<pdfrwt beam="2">  1       -2 0.11575790E+00 0.29070809E+04</pdfrwt>
<totfact> 0.11441094E+00</totfact>
</mgrwt>
</event>
<event>
 6    1  0.1637818E-005  0.1002967E+04  0.7818608E-02  0.9305296E-01
         -2   -1    0    0    0  501 -0.00000000000E+00  0.00000000000E+00  0.12198393896E+03  0.12198393896E+03  0.00000000000E+00 0.  1.
          2   -1    0    0  501    0  0.00000000000E+00 -0.00000000000E+00 -0.20616306448E+04  0.20616306448E+04  0.00000000000E+00 0. -1.
         23    2    1    2    0    0 -0.22021058785E+03  0.19974068754E+03 -0.18458632857E+04  0.18718704978E+04  0.91098001127E+02 0.  0.
         11    1    3    3    0    0 -0.22167964535E+03  0.20224427517E+03 -0.17203979010E+04  0.17463715383E+04  0.00000000000E+00 0. -1.
        -11    1    3    3    0    0  0.14690574979E+01 -0.25035876343E+01 -0.12546538468E+03  0.12549895950E+03  0.00000000000E+00 0.  1.
         22    1    1    2    0    0  0.22021058785E+03 -0.19974068754E+03 -0.93783420193E+02  0.31174408601E+03  0.00000000000E+00 0.  1.
<mgrwt>
<rscale>  0 0.10029673E+04</rscale>
<asrwt>0</asrwt>
<pdfrwt beam="1">  1        2 0.31717392E+00 0.10029673E+04</pdfrwt>
<pdfrwt beam="2">  1       -2 0.18766761E-01 0.10029673E+04</pdfrwt>
<totfact> 0.14791295E+02</totfact>
</mgrwt>
</event>
<event>
 6    1  0.1637818E-005  0.2095133E+04  0.7818608E-02  0.8563390E-01
         -2   -1    0    0    0  501 -0.00000000000E+00  0.00000000000E+00  0.32633742039E+04  0.32633742039E+04  0.00000000000E+00 0. -1.
          2   -1    0    0  501    0  0.00000000000E+00 -0.00000000000E+00 -0.33627650846E+03  0.33627650846E+03  0.00000000000E+00 0.  1.
         23    2    1    2    0    0  0.10387792346E+04 -0.11504615490E+03  0.14119418281E+04  0.17589999529E+04  0.90571477331E+02 0.  0.
         11    1    3    3    0    0  0.87605940122E+03 -0.11624444245E+03  0.12348153924E+04  0.15184735422E+04  0.00000000000E+00 0. -1.
        -11    1    3    3    0    0  0.16271983334E+03  0.11982875553E+01  0.17712643564E+03  0.24052641073E+03  0.00000000000E+00 0.  1.
         22    1    1    2    0    0 -0.10387792346E+04  0.11504615490E+03  0.15151558674E+04  0.18406507595E+04  0.00000000000E+00 0.  1.
<mgrwt>
<rscale>  0 0.20951335E+04</rscale>
<asrwt>0</asrwt>
<pdfrwt beam="1">  1        2 0.51734850E-01 0.20951335E+04</pdfrwt>
<pdfrwt beam="2">  1       -2 0.50205755E+00 0.20951335E+04</pdfrwt>
<totfact> 0.14216756E-01</totfact>
</mgrwt>
</event>
<event>
 6    1  0.2205015E-005  0.1860371E+04  0.7818608E-02  0.8674837E-01
         -1   -1    0    0    0  501 -0.00000000000E+00  0.00000000000E+00  0.10573240026E+04  0.10573240026E+04  0.00000000000E+00 0.  1.
          1   -1    0    0  501    0  0.00000000000E+00 -0.00000000000E+00 -0.81833514582E+03  0.81833514582E+03  0.00000000000E+00 0. -1.
         23    2    1    2    0    0  0.54036639280E+03 -0.71113260777E+02 -0.63741045815E+03  0.84360842607E+03  0.91269655706E+02 0.  0.
         13    1    3    3    0    0  0.24362337698E+03  0.79011921714E+01 -0.24868653419E+03  0.34822373689E+03  0.00000000000E+00 0.  1.
        -13    1    3    3    0    0  0.29674301582E+03 -0.79014452949E+02 -0.38872392395E+03  0.49538468917E+03  0.00000000000E+00 0. -1.
         22    1    1    2    0    0 -0.54036639280E+03  0.71113260777E+02  0.87639931492E+03  0.10320507224E+04  0.00000000000E+00 0.  1.
<mgrwt>
<rscale>  0 0.18603714E+04</rscale>
<asrwt>0</asrwt>
<pdfrwt beam="1">  1        1 0.12589771E+00 0.18603714E+04</pdfrwt>
<pdfrwt beam="2">  1       -1 0.16266523E+00 0.18603714E+04</pdfrwt>
<totfact> 0.55826719E+00</totfact>
</mgrwt>
</event>
<event>
 6    1  0.1637818E-005  0.7333494E+03  0.7818608E-02  0.9661841E-01
         -1   -1    0    0    0  501 -0.00000000000E+00  0.00000000000E+00  0.67873247017E+02  0.67873247017E+02  0.00000000000E+00 0.  1.
          1   -1    0    0  501    0  0.00000000000E+00 -0.00000000000E+00 -0.19809031771E+04  0.19809031771E+04  0.00000000000E+00 0. -1.
         23    2    1    2    0    0 -0.14661128852E+03 -0.23815520734E+03 -0.33272987885E+03  0.44392097124E+03  0.90243469128E+02 0.  0.
         13    1    3    3    0    0 -0.18395869244E+02 -0.93961667159E+02 -0.73196356920E+02  0.12051933275E+03  0.00000000000E+00 0.  1.
        -13    1    3    3    0    0 -0.12821541927E+03 -0.14419354019E+03 -0.25953352193E+03  0.32340163849E+03  0.00000000000E+00 0. -1.
         22    1    1    2    0    0  0.14661128852E+03  0.23815520734E+03 -0.15803000512E+04  0.16048554529E+04  0.00000000000E+00 0. -1.
<mgrwt>
<rscale>  0 0.73334939E+03</rscale>
<asrwt>0</asrwt>
<pdfrwt beam="1">  1        1 0.30475426E+00 0.73334939E+03</pdfrwt>
<pdfrwt beam="2">  1       -1 0.10442040E-01 0.73334939E+03</pdfrwt>
<totfact> 0.18636444E+02</totfact>
</mgrwt>
</event>
<event>
 6    1  0.1637818E-005  0.2520555E+04  0.7818608E-02  0.8395699E-01
          2   -1    0    0  501    0  0.00000000000E+00  0.00000000000E+00  0.13868504557E+04  0.13868504557E+04  0.00000000000E+00 0. -1.
         -2   -1    0    0    0  501 -0.00000000000E+00 -0.00000000000E+00 -0.11452565290E+04  0.11452565290E+04  0.00000000000E+00 0.  1.
         23    2    1    2    0    0  0.70976338210E+03  0.10340008276E+04  0.14436088796E+02  0.12575394293E+04  0.90968377312E+02 0.  0.
         13    1    3    3    0    0  0.37316452192E+03  0.47877869449E+03  0.33796826744E+02  0.60796630187E+03  0.00000000000E+00 0.  1.
        -13    1    3    3    0    0  0.33659886018E+03  0.55522213308E+03 -0.19360737948E+02  0.64957312745E+03  0.00000000000E+00 0. -1.
         22    1    1    2    0    0 -0.70976338210E+03 -0.10340008276E+04  0.22715783783E+03  0.12745675554E+04  0.00000000000E+00 0.  1.
<mgrwt>
<rscale>  0 0.25205551E+04</rscale>
<asrwt>0</asrwt>
<pdfrwt beam="1">  1        2 0.21336161E+00 0.25205551E+04</pdfrwt>
<pdfrwt beam="2">  1       -2 0.17619331E+00 0.25205551E+04</pdfrwt>
<totfact> 0.25269635E+00</totfact>
</mgrwt>
</event>
<event>
 6    1  0.1637818E-005  0.1619027E+04  0.7818608E-02  0.8808944E-01
         -2   -1    0    0    0  501 -0.00000000000E+00  0.00000000000E+00  0.47938520016E+03  0.47938520016E+03  0.00000000000E+00 0.  1.
          2   -1    0    0  501    0  0.00000000000E+00 -0.00000000000E+00 -0.13669837338E+04  0.13669837338E+04  0.00000000000E+00 0. -1.
         23    2    1    2    0    0  0.61858621589E+03  0.51774598394E+03 -0.41526651922E+03  0.91159230704E+03  0.88568853996E+02 0.  0.
         11    1    3    3    0    0  0.11967299331E+03  0.11023479667E+03 -0.12422900212E+03  0.20470999168E+03  0.00000000000E+00 0. -1.
        -11    1    3    3    0    0  0.49891322259E+03  0.40751118726E+03 -0.29103751710E+03  0.70688231536E+03  0.00000000000E+00 0.  1.
         22    1    1    2    0    0 -0.61858621589E+03 -0.51774598394E+03 -0.47233201439E+03  0.93477662690E+03  0.00000000000E+00 0.  1.
<mgrwt>
<rscale>  0 0.16190266E+04</rscale>
<asrwt>0</asrwt>
<pdfrwt beam="1">  1        2 0.21030519E+00 0.16190266E+04</pdfrwt>
<pdfrwt beam="2">  1       -2 0.73751571E-01 0.16190266E+04</pdfrwt>
<totfact> 0.23989624E+01</totfact>
</mgrwt>
</event>
<event>
 6    1  0.1637818E-005  0.3723085E+04  0.7818608E-02  0.8062865E-01
         -2   -1    0    0    0  501 -0.00000000000E+00  0.00000000000E+00  0.33406552303E+04  0.33406552303E+04  0.00000000000E+00 0.  1.
          2   -1    0    0  501    0  0.00000000000E+00 -0.00000000000E+00 -0.10373238640E+04  0.10373238640E+04  0.00000000000E+00 0. -1.
         23    2    1    2    0    0 -0.49272490513E+03 -0.47918465111E+03 -0.88048583262E+03  0.11208196388E+04  0.92658508825E+02 0.  0.
         13    1    3    3    0    0 -0.27212023811E+03 -0.32410628993E+03 -0.51351767696E+03  0.66542821980E+03  0.00000000000E+00 0. -1.
        -13    1    3    3    0    0 -0.22060466702E+03 -0.15507836118E+03 -0.36696815566E+03  0.45539141899E+03  0.00000000000E+00 0.  1.
         22    1    1    2    0    0  0.49272490513E+03  0.47918465111E+03  0.31838171989E+04  0.32571594554E+04  0.00000000000E+00 0.  1.
<mgrwt>
<rscale>  0 0.37230855E+04</rscale>
<asrwt>0</asrwt>
<pdfrwt beam="1">  1        2 0.15958829E+00 0.37230855E+04</pdfrwt>
<pdfrwt beam="2">  1       -2 0.51394695E+00 0.37230855E+04</pdfrwt>
<totfact> 0.26088066E-02</totfact>
</mgrwt>
</event>
<event>
 6    1  0.1637818E-005  0.2459317E+04  0.7818608E-02  0.8417624E-01
         -1   -1    0    0    0  501 -0.00000000000E+00  0.00000000000E+00  0.77800135454E+03  0.77800135454E+03  0.00000000000E+00 0.  1.
          1   -1    0    0  501    0  0.00000000000E+00 -0.00000000000E+00 -0.19435182039E+04  0.19435182039E+04  0.00000000000E+00 0. -1.
         23    2    1    2    0    0  0.51494297743E+03  0.56637896913E+03 -0.16461066740E+04  0.18176844041E+04  0.91422121202E+02 0.  0.
         11    1    3    3    0    0  0.34457234932E+03  0.31909496028E+03 -0.10485964047E+04  0.11489587101E+04  0.00000000000E+00 0. -1.
        -11    1    3    3    0    0  0.17037062811E+03  0.24728400885E+03 -0.59751026930E+03  0.66872569404E+03  0.00000000000E+00 0.  1.
         22    1    1    2    0    0 -0.51494297743E+03 -0.56637896913E+03  0.48058982460E+03  0.90383515432E+03  0.00000000000E+00 0.  1.
<mgrwt>
<rscale>  0 0.24593168E+04</rscale>
<asrwt>0</asrwt>
<pdfrwt beam="1">  1        1 0.29900280E+00 0.24593168E+04</pdfrwt>
<pdfrwt beam="2">  1       -1 0.11969252E+00 0.24593168E+04</pdfrwt>
<totfact> 0.18076276E+00</totfact>
</mgrwt>
</event>
<event>
 6    1  0.1637818E-005  0.1603364E+04  0.7818608E-02  0.8818484E-01
          1   -1    0    0  501    0  0.00000000000E+00  0.00000000000E+00  0.10110463227E+04  0.10110463227E+04  0.00000000000E+00 0. -1.
         -1   -1    0    0    0  501 -0.00000000000E+00 -0.00000000000E+00 -0.63567214555E+03  0.63567214555E+03  0.00000000000E+00 0.  1.
         23    2    1    2    0    0 -0.59941571521E+03  0.95346583145E+02 -0.34528638060E+03  0.70451795348E+03  0.93448871570E+02 0.  0.
         13    1    3    3    0    0 -0.42222446093E+03  0.64889539739E+02 -0.29037861896E+03  0.51653062845E+03  0.00000000000E+00 0. -1.
        -13    1    3    3    0    0 -0.17719125428E+03  0.30457043406E+02 -0.54907761635E+02  0.18798732504E+03  0.00000000000E+00 0.  1.
         22    1    1    2    0    0  0.59941571521E+03 -0.95346583145E+02  0.72066055775E+03  0.94220051478E+03  0.00000000000E+00 0. -1.
<mgrwt>
<rscale>  0 0.16033639E+04</rscale>
<asrwt>0</asrwt>
<pdfrwt beam="1">  1        1 0.15554559E+00 0.16033639E+04</pdfrwt>
<pdfrwt beam="2">  1       -1 0.97795714E-01 0.16033639E+04</pdfrwt>
<totfact> 0.14272500E+01</totfact>
</mgrwt>
</event>
<event>
 6    1  0.1637818E-005  0.2232374E+04  0.7818608E-02  0.8505073E-01
          1   -1    0    0  501    0  0.00000000000E+00  0.00000000000E+00  0.12755768634E+04  0.12755768634E+04  0.00000000000E+00 0. -1.
         -1   -1    0    0    0  501 -0.00000000000E+00 -0.00000000000E+00 -0.97671372023E+03  0.97671372023E+03  0.00000000000E+00 0.  1.
         23    2    1    2    0    0 -0.57686497704E+03 -0.19329039899E+03 -0.79204842493E+03  0.10032019441E+04  0.94546565704E+02 0.  0.
         11    1    3    3    0    0 -0.31754068859E+03 -0.10564472690E+03 -0.51138362908E+03  0.61115146512E+03  0.00000000000E+00 0.  1.
        -11    1    3    3    0    0 -0.25932428846E+03 -0.87645672091E+02 -0.28066479585E+03  0.39205047895E+03  0.00000000000E+00 0. -1.
         22    1    1    2    0    0  0.57686497704E+03  0.19329039899E+03  0.10909115681E+04  0.12490886396E+04  0.00000000000E+00 0. -1.
<mgrwt>
<rscale>  0 0.22323740E+04</rscale>
<asrwt>0</asrwt>
<pdfrwt beam="1">  1        1 0.19624259E+00 0.22323740E+04</pdfrwt>
<pdfrwt beam="2">  1       -1 0.15026365E+00 0.22323740E+04</pdfrwt>
<totfact> 0.29735841E+00</totfact>
</mgrwt>
</event>
<event>
 6    1  0.1637818E-005  0.1772449E+04  0.7818608E-02  0.8721090E-01
          2   -1    0    0  501    0  0.00000000000E+00  0.00000000000E+00  0.73655257074E+03  0.73655257074E+03  0.00000000000E+00 0. -1.
         -2   -1    0    0    0  501 -0.00000000000E+00 -0.00000000000E+00 -0.10663103755E+04  0.10663103755E+04  0.00000000000E+00 0.  1.
         23    2    1    2    0    0  0.67207968359E+03  0.54090037746E+03 -0.36089843171E+03  0.93959354560E+03  0.91236141334E+02 0.  0.
         13    1    3    3    0    0  0.33824957873E+03  0.21749071563E+03 -0.15024339326E+03  0.42928785927E+03  0.00000000000E+00 0.  1.
        -13    1    3    3    0    0  0.33383010486E+03  0.32340966183E+03 -0.21065503844E+03  0.51030568633E+03  0.00000000000E+00 0. -1.
         22    1    1    2    0    0 -0.67207968359E+03 -0.54090037746E+03  0.31140626937E+02  0.86326940064E+03  0.00000000000E+00 0. -1.
<mgrwt>
<rscale>  0 0.17724488E+04</rscale>
<asrwt>0</asrwt>
<pdfrwt beam="1">  1        2 0.11331578E+00 0.17724488E+04</pdfrwt>
<pdfrwt beam="2">  1       -2 0.16404775E+00 0.17724488E+04</pdfrwt>
<totfact> 0.85390699E+00</totfact>
</mgrwt>
</event>
<event>
 6    1  0.1637818E-005  0.1661735E+04  0.7818608E-02  0.8783494E-01
         -2   -1    0    0    0  501 -0.00000000000E+00  0.00000000000E+00  0.83395929914E+03  0.83395929914E+03  0.00000000000E+00 0.  1.
          2   -1    0    0  501    0  0.00000000000E+00 -0.00000000000E+00 -0.82778755368E+03  0.82778755368E+03  0.00000000000E+00 0. -1.
         23    2    1    2    0    0 -0.10911885496E+03  0.62635046070E+03 -0.52793830599E+03  0.83138827293E+03  0.90916342427E+02 0.  0.
         11    1    3    3    0    0 -0.12041489746E+03  0.50009051880E+03 -0.44243759261E+03  0.67848455980E+03  0.00000000000E+00 0. -1.
        -11    1    3    3    0    0  0.11296042501E+02  0.12625994189E+03 -0.85500713372E+02  0.15290371313E+03  0.00000000000E+00 0.  1.
         22    1    1    2    0    0  0.10911885496E+03 -0.62635046070E+03  0.53411005145E+03  0.83035857988E+03  0.00000000000E+00 0.  1.
<mgrwt>
<rscale>  0 0.16617354E+04</rscale>
<asrwt>0</asrwt>
<pdfrwt beam="1">  1        2 0.12735193E+00 0.16617354E+04</pdfrwt>
<pdfrwt beam="2">  1       -2 0.12830143E+00 0.16617354E+04</pdfrwt>
<totfact> 0.14097495E+01</totfact>
</mgrwt>
</event>
<event>
 6    1  0.1637818E-005  0.1265142E+04  0.7818608E-02  0.9057674E-01
          1   -1    0    0  501    0  0.00000000000E+00  0.00000000000E+00  0.98893636997E+03  0.98893636997E+03  0.00000000000E+00 0. -1.
         -1   -1    0    0    0  501 -0.00000000000E+00 -0.00000000000E+00 -0.40462260267E+03  0.40462260267E+03  0.00000000000E+00 0.  1.
         23    2    1    2    0    0  0.49621714557E+03 -0.33856969120E+03  0.50021688766E+03  0.78698401724E+03  0.90917640381E+02 0.  0.
         11    1    3    3    0    0  0.26520336905E+03 -0.22733471358E+03  0.31859329531E+03  0.47277435080E+03  0.00000000000E+00 0. -1.
        -11    1    3    3    0    0  0.23101377652E+03 -0.11123497762E+03  0.18162359235E+03  0.31420966644E+03  0.00000000000E+00 0.  1.
         22    1    1    2    0    0 -0.49621714557E+03  0.33856969120E+03  0.84096879639E+02  0.60657495540E+03  0.00000000000E+00 0. -1.
<mgrwt>
<rscale>  0 0.12651419E+04</rscale>
<asrwt>0</asrwt>
<pdfrwt beam="1">  1        1 0.15214406E+00 0.12651419E+04</pdfrwt>
<pdfrwt beam="2">  1       -1 0.62249632E-01 0.12651419E+04</pdfrwt>
<totfact> 0.39803826E+01</totfact>
</mgrwt>
</event>
<event>
 6    1  0.1637818E-005  0.1308456E+04  0.7818608E-02  0.9022886E-01
         -1   -1    0    0    0  501 -0.00000000000E+00  0.00000000000E+00  0.25302502230E+03  0.25302502230E+03  0.00000000000E+00 0.  1.
          1   -1    0    0  501    0  0.00000000000E+00 -0.00000000000E+00 -0.16915880984E+04  0.16915880984E+04  0.00000000000E+00 0. -1.
         23    2    1    2    0    0 -0.73318074266E+02 -0.27168117198E+03  0.15006622656E+03  0.33125350161E+03  0.89570144320E+02 0.  0.
         11    1    3    3    0    0 -0.46640000995E+02 -0.15308999315E+03  0.34884681229E+02  0.16379492263E+03  0.00000000000E+00 0. -1.
        -11    1    3    3    0    0 -0.26678073271E+02 -0.11859117884E+03  0.11518154533E+03  0.16745857899E+03  0.00000000000E+00 0.  1.
         22    1    1    2    0    0  0.73318074266E+02  0.27168117198E+03 -0.15886293027E+04  0.16133596191E+04  0.00000000000E+00 0. -1.
<mgrwt>
<rscale>  0 0.13084558E+04</rscale>
<asrwt>0</asrwt>
<pdfrwt beam="1">  1        1 0.26024432E+00 0.13084558E+04</pdfrwt>
<pdfrwt beam="2">  1       -1 0.38926926E-01 0.13084558E+04</pdfrwt>
<totfact> 0.30361659E+01</totfact>
</mgrwt>
</event>
<event>
 6    1  0.1637818E-005  0.1904933E+04  0.7818608E-02  0.8652405E-01
         -1   -1    0    0    0  501 -0.00000000000E+00  0.00000000000E+00  0.12185511985E+04  0.12185511985E+04  0.00000000000E+00 0.  1.
          1   -1    0    0  501    0  0.00000000000E+00 -0.00000000000E+00 -0.74448421906E+03  0.74448421906E+03  0.00000000000E+00 0. -1.
         23    2    1    2    0    0  0.58587590358E+03  0.60898336222E+03 -0.21036934724E+03  0.87557765050E+03  0.90937615627E+02 0.  0.
         13    1    3    3    0    0  0.52331898245E+03  0.51922647282E+03 -0.15648608832E+03  0.75362244083E+03  0.00000000000E+00 0. -1.
        -13    1    3    3    0    0  0.62556921127E+02  0.89756889397E+02 -0.53883258911E+02  0.12195520967E+03  0.00000000000E+00 0.  1.
         22    1    1    2    0    0 -0.58587590358E+03 -0.60898336222E+03  0.68443632666E+03  0.10874577670E+04  0.00000000000E+00 0.  1.
<mgrwt>
<rscale>  0 0.19049327E+04</rscale>
<asrwt>0</asrwt>
<pdfrwt beam="1">  1        1 0.11453603E+00 0.19049327E+04</pdfrwt>
<pdfrwt beam="2">  1       -1 0.18746941E+00 0.19049327E+04</pdfrwt>
<totfact> 0.42655319E+00</totfact>
</mgrwt>
</event>
<event>
 6    1  0.1637818E-005  0.1592216E+04  0.7818608E-02  0.8825344E-01
         -1   -1    0    0    0  501 -0.00000000000E+00  0.00000000000E+00  0.31154850956E+03  0.31154850956E+03  0.00000000000E+00 0. -1.
          1   -1    0    0  501    0  0.00000000000E+00 -0.00000000000E+00 -0.20343151659E+04  0.20343151659E+04  0.00000000000E+00 0.  1.
         23    2    1    2    0    0  0.32135511377E+03  0.19724395489E+03 -0.18928135169E+04  0.19322331379E+04  0.92777164836E+02 0.  0.
         11    1    3    3    0    0  0.14372550108E+02 -0.35581649538E+01 -0.17849178582E+03  0.17910485292E+03  0.00000000000E+00 0. -1.
        -11    1    3    3    0    0  0.30698256366E+03  0.20080211985E+03 -0.17143217311E+04  0.17531282849E+04  0.00000000000E+00 0.  1.
         22    1    1    2    0    0 -0.32135511377E+03 -0.19724395489E+03  0.17004686054E+03  0.41363053764E+03  0.00000000000E+00 0. -1.
<mgrwt>
<rscale>  0 0.15922159E+04</rscale>
<asrwt>0</asrwt>
<pdfrwt beam="1">  1        1 0.31297157E+00 0.15922159E+04</pdfrwt>
<pdfrwt beam="2">  1       -1 0.47930539E-01 0.15922159E+04</pdfrwt>
<totfact> 0.11800662E+01</totfact>
</mgrwt>
</event>
<event>
 6    1  0.1637818E-005  0.1565640E+04  0.7818608E-02  0.8841939E-01
          2   -1    0    0  501    0  0.00000000000E+00  0.00000000000E+00  0.65676516194E+03  0.65676516194E+03  0.00000000000E+00 0.  1.
         -2   -1    0    0    0  501 -0.00000000000E+00 -0.00000000000E+00 -0.93306855017E+03  0.93306855017E+03  0.00000000000E+00 0. -1.
         23    2    1    2    0    0  0.52662220475E+03 -0.48991597722E+03  0.16795194826E+03  0.74442764680E+03  0.92822697281E+02 0.  0.
         13    1    3    3    0    0  0.68920623118E+02 -0.73508123380E+02  0.57037575833E+02  0.11578765716E+03  0.00000000000E+00 0.  1.
        -13    1    3    3    0    0  0.45770158163E+03 -0.41640785384E+03  0.11091437243E+03  0.62863998964E+03  0.00000000000E+00 0. -1.
         22    1    1    2    0    0 -0.52662220475E+03  0.48991597722E+03 -0.44425533649E+03  0.84540606532E+03  0.00000000000E+00 0. -1.
<mgrwt>
<rscale>  0 0.15656397E+04</rscale>
<asrwt>0</asrwt>
<pdfrwt beam="1">  1        2 0.10104079E+00 0.15656397E+04</pdfrwt>
<pdfrwt beam="2">  1       -2 0.14354901E+00 0.15656397E+04</pdfrwt>
<totfact> 0.14350140E+01</totfact>
</mgrwt>
</event>
<event>
 6    1  0.1637818E-005  0.2856637E+04  0.7818608E-02  0.8285897E-01
          2   -1    0    0  501    0  0.00000000000E+00  0.00000000000E+00  0.50074854186E+04  0.50074854186E+04  0.00000000000E+00 0.  1.
         -2   -1    0    0    0  501 -0.00000000000E+00 -0.00000000000E+00 -0.40740896424E+03  0.40740896424E+03  0.00000000000E+00 0. -1.
         23    2    1    2    0    0  0.15574713330E+03 -0.13975290459E+04  0.27616250697E+04  0.31003213991E+04  0.89861828277E+02 0.  0.
         11    1    3    3    0    0  0.11729099734E+03 -0.86625998517E+03  0.16304483558E+04  0.18500068597E+04  0.00000000000E+00 0.  1.
        -11    1    3    3    0    0  0.38456135961E+02 -0.53126906070E+03  0.11311767139E+04  0.12503145394E+04  0.00000000000E+00 0. -1.
         22    1    1    2    0    0 -0.15574713330E+03  0.13975290459E+04  0.18384513847E+04  0.23145729838E+04  0.00000000000E+00 0. -1.
<mgrwt>
<rscale>  0 0.28566375E+04</rscale>
<asrwt>0</asrwt>
<pdfrwt beam="1">  1        2 0.77038233E+00 0.28566375E+04</pdfrwt>
<pdfrwt beam="2">  1       -2 0.62678306E-01 0.28566375E+04</pdfrwt>
<totfact> 0.68802310E-02</totfact>
</mgrwt>
</event>
<event>
 6    1  0.1637818E-005  0.2727923E+04  0.7818608E-02  0.8326001E-01
         -2   -1    0    0    0  501 -0.00000000000E+00  0.00000000000E+00  0.80993045352E+03  0.80993045352E+03  0.00000000000E+00 0.  1.
          2   -1    0    0  501    0  0.00000000000E+00 -0.00000000000E+00 -0.22969762379E+04  0.22969762379E+04  0.00000000000E+00 0. -1.
         23    2    1    2    0    0 -0.91480524131E+03 -0.93695832060E+03 -0.11728248696E+04  0.17602462638E+04  0.90494255702E+02 0.  0.
         13    1    3    3    0    0 -0.16277009326E+03 -0.15428735086E+03 -0.24683508867E+03  0.33350599829E+03  0.00000000000E+00 0.  1.
        -13    1    3    3    0    0 -0.75203514805E+03 -0.78267096974E+03 -0.92598978091E+03  0.14267402655E+04  0.00000000000E+00 0. -1.
         22    1    1    2    0    0  0.91480524131E+03  0.93695832060E+03 -0.31422091477E+03  0.13466604276E+04  0.00000000000E+00 0.  1.
<mgrwt>
<rscale>  0 0.27279230E+04</rscale>
<asrwt>0</asrwt>
<pdfrwt beam="1">  1        2 0.35338097E+00 0.27279230E+04</pdfrwt>
<pdfrwt beam="2">  1       -2 0.12460468E+00 0.27279230E+04</pdfrwt>
<totfact> 0.19252503E+00</totfact>
</mgrwt>
</event>
<event>
 6    1  0.1637818E-005  0.4625062E+04  0.7818608E-02  0.7889101E-01
         -2   -1    0    0    0  501 -0.00000000000E+00  0.00000000000E+00  0.29031475935E+04  0.29031475935E+04  0.00000000000E+00 0.  1.
          2   -1    0    0  501    0  0.00000000000E+00 -0.00000000000E+00 -0.18420697495E+04  0.18420697495E+04  0.00000000000E+00 0. -1.
         23    2    1    2    0    0 -0.20162504813E+04  0.84679493537E+03  0.12991931026E+04  0.25454385946E+04  0.95011868038E+02 0.  0.
         11    1    3    3    0    0 -0.11552011415E+04  0.50959726878E+03  0.79768295576E+03  0.14934782059E+04  0.00000000000E+00 0.  1.
        -11    1    3    3    0    0 -0.86104933982E+03  0.33719766660E+03  0.50151014680E+03  0.10519603887E+04  0.00000000000E+00 0. -1.
         22    1    1    2    0    0  0.20162504813E+04 -0.84679493537E+03 -0.23811525849E+03  0.21997787485E+04  0.00000000000E+00 0. -1.
<mgrwt>
<rscale>  0 0.46250623E+04</rscale>
<asrwt>0</asrwt>
<pdfrwt beam="1">  1        2 0.28339535E+00 0.46250623E+04</pdfrwt>
<pdfrwt beam="2">  1       -2 0.44663809E+00 0.46250623E+04</pdfrwt>
<totfact> 0.22441815E-02</totfact>
</mgrwt>
</event>
<event>
 6    1  0.1637818E-005  0.4520073E+04  0.7818608E-02  0.7907132E-01
          2   -1    0    0  501    0  0.00000000000E+00  0.00000000000E+00  0.30143460289E+04  0.30143460289E+04  0.00000000000E+00 0. -1.
         -2   -1    0    0    0  501 -0.00000000000E+00 -0.00000000000E+00 -0.16944849426E+04  0.16944849426E+04  0.00000000000E+00 0.  1.
         23    2    1    2    0    0 -0.10316629833E+04  0.15653060536E+04  0.19734637511E+04  0.27234574561E+04  0.90276162103E+02 0.  0.
         11    1    3    3    0    0 -0.39549173637E+03  0.66500166240E+03  0.85234420109E+03  0.11511435886E+04  0.00000000000E+00 0. -1.
        -11    1    3    3    0    0 -0.63617124690E+03  0.90030439119E+03  0.11211195500E+04  0.15723138674E+04  0.00000000000E+00 0.  1.
         22    1    1    2    0    0  0.10316629833E+04 -0.15653060536E+04 -0.65360266483E+03  0.19853735155E+04  0.00000000000E+00 0.  1.
<mgrwt>
<rscale>  0 0.45200725E+04</rscale>
<asrwt>0</asrwt>
<pdfrwt beam="1">  1        2 0.46374554E+00 0.45200725E+04</pdfrwt>
<pdfrwt beam="2">  1       -2 0.26068999E+00 0.45200725E+04</pdfrwt>
<totfact> 0.71241878E-02</totfact>
</mgrwt>
</event>
<event>
 6    1  0.1637818E-005  0.3441716E+04  0.7818608E-02  0.8127743E-01
         -1   -1    0    0    0  501 -0.00000000000E+00  0.00000000000E+00  0.16197856791E+04  0.16197856791E+04  0.00000000000E+00 0.  1.
          1   -1    0    0  501    0  0.00000000000E+00 -0.00000000000E+00 -0.18282372087E+04  0.18282372087E+04  0.00000000000E+00 0. -1.
         23    2    1    2    0    0 -0.10053746865E+04  0.11822714388E+04  0.63781549506E+03  0.16803374258E+04  0.90450226398E+02 0.  0.
         13    1    3    3    0    0 -0.45019592391E+03  0.54583977931E+03  0.24353213198E+03  0.74828158729E+03  0.00000000000E+00 0. -1.
        -13    1    3    3    0    0 -0.55517876262E+03  0.63643165948E+03  0.39428336308E+03  0.93205583849E+03  0.00000000000E+00 0.  1.
         22    1    1    2    0    0  0.10053746865E+04 -0.11822714388E+04 -0.84626702467E+03  0.17676854619E+04  0.00000000000E+00 0. -1.
<mgrwt>
<rscale>  0 0.34417161E+04</rscale>
<asrwt>0</asrwt>
<pdfrwt beam="1">  1        1 0.28126726E+00 0.34417161E+04</pdfrwt>
<pdfrwt beam="2">  1       -1 0.24919780E+00 0.34417161E+04</pdfrwt>
<totfact> 0.22551231E-01</totfact>
</mgrwt>
</event>
<event>
 6    1  0.1637818E-005  0.9195443E+03  0.7818608E-02  0.9401475E-01
         -1   -1    0    0    0  501 -0.00000000000E+00  0.00000000000E+00  0.16167599560E+03  0.16167599560E+03  0.00000000000E+00 0.  1.
          1   -1    0    0  501    0  0.00000000000E+00 -0.00000000000E+00 -0.13074943331E+04  0.13074943331E+04  0.00000000000E+00 0. -1.
         23    2    1    2    0    0 -0.19345857270E+03 -0.30686177699E+03 -0.13730592969E+03  0.39740186199E+03  0.86515617414E+02 0.  0.
         13    1    3    3    0    0 -0.68318549316E+02 -0.62532507929E+02 -0.66162034408E+02  0.11382070781E+03  0.00000000000E+00 0.  1.
        -13    1    3    3    0    0 -0.12514002338E+03 -0.24432926906E+03 -0.71143895281E+02  0.28358115418E+03  0.00000000000E+00 0. -1.
         22    1    1    2    0    0  0.19345857270E+03  0.30686177699E+03 -0.10085124079E+04  0.10717684667E+04  0.00000000000E+00 0. -1.
<mgrwt>
<rscale>  0 0.91954434E+03</rscale>
<asrwt>0</asrwt>
<pdfrwt beam="1">  1        1 0.20115297E+00 0.91954434E+03</pdfrwt>
<pdfrwt beam="2">  1       -1 0.24873230E-01 0.91954434E+03</pdfrwt>
<totfact> 0.12702333E+02</totfact>
</mgrwt>
</event>
<event>
 6    1  0.1637818E-005  0.2489142E+04  0.7818608E-02  0.8406864E-01
          2   -1    0    0  501    0  0.00000000000E+00  0.00000000000E+00  0.25198229971E+04  0.25198229971E+04  0.00000000000E+00 0. -1.
         -2   -1    0    0    0  501 -0.00000000000E+00 -0.00000000000E+00 -0.61470859449E+03  0.61470859449E+03  0.00000000000E+00 0.  1.
         23    2    1    2    0    0  0.79458363867E+03  0.94630355676E+03  0.78619000050E+03  0.14675446696E+04  0.93482939758E+02 0.  0.
         13    1    3    3    0    0  0.49645733438E+03  0.53160080528E+03  0.43164572089E+03  0.84580572793E+03  0.00000000000E+00 0. -1.
        -13    1    3    3    0    0  0.29812630429E+03  0.41470275148E+03  0.35454427961E+03  0.62173894167E+03  0.00000000000E+00 0.  1.
         22    1    1    2    0    0 -0.79458363867E+03 -0.94630355676E+03  0.11189244021E+04  0.16669869219E+04  0.00000000000E+00 0. -1.
<mgrwt>
<rscale>  0 0.24891419E+04</rscale>
<asrwt>0</asrwt>
<pdfrwt beam="1">  1        2 0.38766507E+00 0.24891419E+04</pdfrwt>
<pdfrwt beam="2">  1       -2 0.94570554E-01 0.24891419E+04</pdfrwt>
<totfact> 0.28500153E+00</totfact>
</mgrwt>
</event>
<event>
 6    1  0.1637818E-005  0.2786160E+04  0.7818608E-02  0.8307578E-01
         -2   -1    0    0    0  501 -0.00000000000E+00  0.00000000000E+00  0.57221634703E+03  0.57221634703E+03  0.00000000000E+00 0.  1.
          2   -1    0    0  501    0  0.00000000000E+00 -0.00000000000E+00 -0.33915010527E+04  0.33915010527E+04  0.00000000000E+00 0. -1.
         23    2    1    2    0    0 -0.44082631246E+03  0.44141214199E+03  0.35853017672E+03  0.72524863447E+03  0.90935017062E+02 0.  0.
         11    1    3    3    0    0 -0.15918368350E+03  0.21815433610E+03  0.13394120809E+03  0.30144818241E+03  0.00000000000E+00 0. -1.
        -11    1    3    3    0    0 -0.28164262896E+03  0.22325780589E+03  0.22458896862E+03  0.42380045206E+03  0.00000000000E+00 0.  1.
         22    1    1    2    0    0  0.44082631246E+03 -0.44141214199E+03 -0.31778148824E+04  0.32384687653E+04  0.00000000000E+00 0. -1.
<mgrwt>
<rscale>  0 0.27861603E+04</rscale>
<asrwt>0</asrwt>
<pdfrwt beam="1">  1        2 0.52176940E+00 0.27861603E+04</pdfrwt>
<pdfrwt beam="2">  1       -2 0.88033282E-01 0.27861603E+04</pdfrwt>
<totfact> 0.93577598E-01</totfact>
</mgrwt>
</event>
<event>
 6    1  0.1637818E-005  0.1566221E+04  0.7818608E-02  0.8841573E-01
          2   -1    0    0  501    0  0.00000000000E+00  0.00000000000E+00  0.92687896088E+03  0.92687896088E+03  0.00000000000E+00 0. -1.
         -2   -1    0    0    0  501 -0.00000000000E+00 -0.00000000000E+00 -0.66164222579E+03  0.66164222579E+03  0.00000000000E+00 0.  1.
         23    2    1    2    0    0  0.19989414895E+03  0.34509659024E+02 -0.63175958357E+03  0.66887398091E+03  0.84401679806E+02 0.  0.
         11    1    3    3    0    0  0.21404777597E+01 -0.99825723646E+01 -0.78929307679E+01  0.12904718213E+02  0.00000000000E+00 0. -1.
        -11    1    3    3    0    0  0.19775367119E+03  0.44492231388E+02 -0.62386665281E+03  0.65596926270E+03  0.00000000000E+00 0.  1.
         22    1    1    2    0    0 -0.19989414895E+03 -0.34509659024E+02  0.89699631866E+03  0.91964720575E+03  0.00000000000E+00 0. -1.
<mgrwt>
<rscale>  0 0.15662213E+04</rscale>
<asrwt>0</asrwt>
<pdfrwt beam="1">  1        2 0.14259676E+00 0.15662213E+04</pdfrwt>
<pdfrwt beam="2">  1       -2 0.10179111E+00 0.15662213E+04</pdfrwt>
<totfact> 0.21414790E+01</totfact>
</mgrwt>
</event>
<event>
 6    1  0.1637818E-005  0.3108674E+04  0.7818608E-02  0.8213361E-01
          1   -1    0    0  501    0  0.00000000000E+00  0.00000000000E+00  0.20563989195E+04  0.20563989195E+04  0.00000000000E+00 0. -1.
         -1   -1    0    0    0  501 -0.00000000000E+00 -0.00000000000E+00 -0.11748518329E+04  0.11748518329E+04  0.00000000000E+00 0.  1.
         23    2    1    2    0    0  0.12699245988E+04  0.96651509468E+02 -0.48267583125E+03  0.13649297268E+04  0.89482959511E+02 0.  0.
         13    1    3    3    0    0  0.89566549921E+03  0.58916925530E+02 -0.29714351512E+03  0.94550629780E+03  0.00000000000E+00 0. -1.
        -13    1    3    3    0    0  0.37425909960E+03  0.37734583938E+02 -0.18553231613E+03  0.41942342899E+03  0.00000000000E+00 0.  1.
         22    1    1    2    0    0 -0.12699245988E+04 -0.96651509468E+02  0.13642229179E+04  0.18663210256E+04  0.00000000000E+00 0. -1.
<mgrwt>
<rscale>  0 0.31086743E+04</rscale>
<asrwt>0</asrwt>
<pdfrwt beam="1">  1        1 0.31636907E+00 0.31086743E+04</pdfrwt>
<pdfrwt beam="2">  1       -1 0.18074644E+00 0.31086743E+04</pdfrwt>
<totfact> 0.47290003E-01</totfact>
</mgrwt>
</event>
<event>
 6    1  0.1637818E-005  0.2147010E+04  0.7818608E-02  0.8540813E-01
         -2   -1    0    0    0  501 -0.00000000000E+00  0.00000000000E+00  0.42443992081E+03  0.42443992081E+03  0.00000000000E+00 0.  1.
          2   -1    0    0  501    0  0.00000000000E+00 -0.00000000000E+00 -0.27151372215E+04  0.27151372215E+04  0.00000000000E+00 0. -1.
         23    2    1    2    0    0 -0.10607302595E+04  0.10590197504E+03 -0.12995190900E+04  0.16839679375E+04  0.10312243935E+03 0.  0.
         13    1    3    3    0    0 -0.14090963632E+03  0.12178484716E+02 -0.23204884964E+03  0.27175450267E+03  0.00000000000E+00 0. -1.
        -13    1    3    3    0    0 -0.91982062318E+03  0.93723490325E+02 -0.10674702404E+04  0.14122134348E+04  0.00000000000E+00 0.  1.
         22    1    1    2    0    0  0.10607302595E+04 -0.10590197504E+03 -0.99117821064E+03  0.14556092048E+04  0.00000000000E+00 0.  1.
<mgrwt>
<rscale>  0 0.21470097E+04</rscale>
<asrwt>0</asrwt>
<pdfrwt beam="1">  1        2 0.41771342E+00 0.21470097E+04</pdfrwt>
<pdfrwt beam="2">  1       -2 0.65298450E-01 0.21470097E+04</pdfrwt>
<totfact> 0.51646364E+00</totfact>
</mgrwt>
</event>
<event>
 6    1  0.1637818E-005  0.1683460E+04  0.7818608E-02  0.8770855E-01
          2   -1    0    0  501    0  0.00000000000E+00  0.00000000000E+00  0.88826382902E+03  0.88826382902E+03  0.00000000000E+00 0. -1.
         -2   -1    0    0    0  501 -0.00000000000E+00 -0.00000000000E+00 -0.79763359556E+03  0.79763359556E+03  0.00000000000E+00 0.  1.
         23    2    1    2    0    0 -0.50881070441E+03  0.31320211328E+03 -0.54477922755E+03  0.81369958016E+03  0.91316500702E+02 0.  0.
         13    1    3    3    0    0 -0.25427814924E+03  0.17631603731E+03 -0.22441356502E+03  0.38223836851E+03  0.00000000000E+00 0. -1.
        -13    1    3    3    0    0 -0.25453255518E+03  0.13688607597E+03 -0.32036566252E+03  0.43146121165E+03  0.00000000000E+00 0.  1.
         22    1    1    2    0    0  0.50881070441E+03 -0.31320211328E+03  0.63540946100E+03  0.87219784443E+03  0.00000000000E+00 0. -1.
<mgrwt>
<rscale>  0 0.16834596E+04</rscale>
<asrwt>0</asrwt>
<pdfrwt beam="1">  1        2 0.13665597E+00 0.16834596E+04</pdfrwt>
<pdfrwt beam="2">  1       -2 0.12271286E+00 0.16834596E+04</pdfrwt>
<totfact> 0.14289695E+01</totfact>
</mgrwt>
</event>
<event>
 6    1  0.1637818E-005  0.1773673E+04  0.7818608E-02  0.8720426E-01
          2   -1    0    0  501    0  0.00000000000E+00  0.00000000000E+00  0.86633924966E+03  0.86633924966E+03  0.00000000000E+00 0. -1.
         -2   -1    0    0    0  501 -0.00000000000E+00 -0.00000000000E+00 -0.90781906171E+03  0.90781906171E+03  0.00000000000E+00 0.  1.
         23    2    1    2    0    0 -0.40859434210E+03  0.48079106069E+03 -0.64079744957E+03  0.90393362137E+03  0.91461686174E+02 0.  0.
         11    1    3    3    0    0 -0.22323128174E+03  0.23339665889E+03 -0.26830424072E+03  0.41987304166E+03  0.00000000000E+00 0. -1.
        -11    1    3    3    0    0 -0.18536306036E+03  0.24739440179E+03 -0.37249320885E+03  0.48406057971E+03  0.00000000000E+00 0.  1.
         22    1    1    2    0    0  0.40859434210E+03 -0.48079106069E+03  0.59931763753E+03  0.87022469000E+03  0.00000000000E+00 0. -1.
<mgrwt>
<rscale>  0 0.17736733E+04</rscale>
<asrwt>0</asrwt>
<pdfrwt beam="1">  1        2 0.13328296E+00 0.17736733E+04</pdfrwt>
<pdfrwt beam="2">  1       -2 0.13966447E+00 0.17736733E+04</pdfrwt>
<totfact> 0.10569375E+01</totfact>
</mgrwt>
</event>
<event>
 6    1  0.1637818E-005  0.4712325E+04  0.7818608E-02  0.7874484E-01
         -1   -1    0    0    0  501 -0.00000000000E+00  0.00000000000E+00  0.18257055534E+04  0.18257055534E+04  0.00000000000E+00 0.  1.
          1   -1    0    0  501    0  0.00000000000E+00 -0.00000000000E+00 -0.30407430909E+04  0.30407430909E+04  0.00000000000E+00 0. -1.
         23    2    1    2    0    0 -0.16859390125E+04  0.69684710582E+02  0.10891924445E+04  0.20104510739E+04  0.91252543838E+02 0.  0.
         11    1    3    3    0    0 -0.80198954859E+03 -0.12443229768E+02  0.51835695290E+03  0.95500575948E+03  0.00000000000E+00 0. -1.
        -11    1    3    3    0    0 -0.88394946389E+03  0.82127940350E+02  0.57083549157E+03  0.10554453144E+04  0.00000000000E+00 0.  1.
         22    1    1    2    0    0  0.16859390125E+04 -0.69684710582E+02 -0.23042299820E+04  0.28559975705E+04  0.00000000000E+00 0. -1.
<mgrwt>
<rscale>  0 0.47123249E+04</rscale>
<asrwt>0</asrwt>
<pdfrwt beam="1">  1        1 0.46780662E+00 0.47123249E+04</pdfrwt>
<pdfrwt beam="2">  1       -1 0.28087778E+00 0.47123249E+04</pdfrwt>
<totfact> 0.18102541E-02</totfact>
</mgrwt>
</event>
<event>
 6    1  0.1637818E-005  0.1529128E+04  0.7818608E-02  0.8865311E-01
         -2   -1    0    0    0  501 -0.00000000000E+00  0.00000000000E+00  0.66657647148E+03  0.66657647148E+03  0.00000000000E+00 0.  1.
          2   -1    0    0  501    0  0.00000000000E+00 -0.00000000000E+00 -0.87695587110E+03  0.87695587110E+03  0.00000000000E+00 0. -1.
         23    2    1    2    0    0 -0.68173117578E+03 -0.28522315404E+03 -0.29027475176E+03  0.80023367386E+03  0.10002428529E+03 0.  0.
         13    1    3    3    0    0 -0.26645115289E+03 -0.80673035588E+02 -0.67331928435E+02  0.28642266694E+03  0.00000000000E+00 0.  1.
        -13    1    3    3    0    0 -0.41528002289E+03 -0.20455011845E+03 -0.22294282333E+03  0.51381100693E+03  0.00000000000E+00 0. -1.
         22    1    1    2    0    0  0.68173117578E+03  0.28522315404E+03  0.79895352141E+02  0.74329866872E+03  0.00000000000E+00 0.  1.
<mgrwt>
<rscale>  0 0.15291281E+04</rscale>
<asrwt>0</asrwt>
<pdfrwt beam="1">  1        2 0.13491629E+00 0.15291281E+04</pdfrwt>
<pdfrwt beam="2">  1       -2 0.10255023E+00 0.15291281E+04</pdfrwt>
<totfact> 0.22804440E+01</totfact>
</mgrwt>
</event>
<event>
 6    1  0.1637818E-005  0.2066640E+04  0.7818608E-02  0.8576083E-01
          2   -1    0    0  501    0  0.00000000000E+00  0.00000000000E+00  0.10295525511E+04  0.10295525511E+04  0.00000000000E+00 0. -1.
         -2   -1    0    0    0  501 -0.00000000000E+00 -0.00000000000E+00 -0.10371010731E+04  0.10371010731E+04  0.00000000000E+00 0.  1.
         23    2    1    2    0    0  0.58729310257E+03 -0.50215549649E+03 -0.68652559890E+03  0.10380219107E+04  0.95387411051E+02 0.  0.
         11    1    3    3    0    0  0.16037339856E+03 -0.13880383996E+03 -0.24759975354E+03  0.32602418761E+03  0.00000000000E+00 0.  1.
        -11    1    3    3    0    0  0.42691970401E+03 -0.36335165653E+03 -0.43892584536E+03  0.71199772310E+03  0.00000000000E+00 0. -1.
         22    1    1    2    0    0 -0.58729310257E+03  0.50215549649E+03  0.67897707697E+03  0.10286317135E+04  0.00000000000E+00 0. -1.
<mgrwt>
<rscale>  0 0.20666398E+04</rscale>
<asrwt>0</asrwt>
<pdfrwt beam="1">  1        2 0.15839270E+00 0.20666398E+04</pdfrwt>
<pdfrwt beam="2">  1       -2 0.15955401E+00 0.20666398E+04</pdfrwt>
<totfact> 0.56555051E+00</totfact>
</mgrwt>
</event>
<event>
 6    1  0.1637818E-005  0.1470898E+04  0.7818608E-02  0.8904039E-01
         -2   -1    0    0    0  501 -0.00000000000E+00  0.00000000000E+00  0.77843649116E+03  0.77843649116E+03  0.00000000000E+00 0.  1.
          2   -1    0    0  501    0  0.00000000000E+00 -0.00000000000E+00 -0.69483568017E+03  0.69483568017E+03  0.00000000000E+00 0. -1.
         23    2    1    2    0    0 -0.47649662840E+03  0.43414616008E+03 -0.30651063303E+03  0.71980096156E+03  0.92912490591E+02 0.  0.
         11    1    3    3    0    0 -0.31861882774E+03  0.30400191030E+03 -0.16167096948E+03  0.46911898408E+03  0.00000000000E+00 0.  1.
        -11    1    3    3    0    0 -0.15787780066E+03  0.13014424978E+03 -0.14483966355E+03  0.25068197747E+03  0.00000000000E+00 0. -1.
         22    1    1    2    0    0  0.47649662840E+03 -0.43414616008E+03  0.39011144403E+03  0.75347120977E+03  0.00000000000E+00 0.  1.
<mgrwt>
<rscale>  0 0.14708983E+04</rscale>
<asrwt>0</asrwt>
<pdfrwt beam="1">  1        2 0.10689780E+00 0.14708983E+04</pdfrwt>
<pdfrwt beam="2">  1       -2 0.11975946E+00 0.14708983E+04</pdfrwt>
<totfact> 0.21368951E+01</totfact>
</mgrwt>
</event>
<event>
 6    1  0.1637818E-005  0.1192408E+04  0.7818608E-02  0.9119528E-01
         -1   -1    0    0    0  501 -0.00000000000E+00  0.00000000000E+00  0.19720582927E+03  0.19720582927E+03  0.00000000000E+00 0.  1.
          1   -1    0    0  501    0  0.00000000000E+00 -0.00000000000E+00 -0.18024777201E+04  0.18024777201E+04  0.00000000000E+00 0. -1.
         23    2    1    2    0    0 -0.11614496323E+02  0.13552101968E+03 -0.17749220463E+04  0.17822392611E+04  0.86762147642E+02 0.  0.
         13    1    3    3    0    0 -0.40952532537E+01  0.11959175466E+03 -0.10024963602E+04  0.10096127530E+04  0.00000000000E+00 0. -1.
        -13    1    3    3    0    0 -0.75192430696E+01  0.15929265021E+02 -0.77242568605E+03  0.77262650807E+03  0.00000000000E+00 0.  1.
         22    1    1    2    0    0  0.11614496323E+02 -0.13552101968E+03  0.16965015538E+03  0.21744428831E+03  0.00000000000E+00 0.  1.
<mgrwt>
<rscale>  0 0.11924078E+04</rscale>
<asrwt>0</asrwt>
<pdfrwt beam="1">  1        1 0.27730425E+00 0.11924078E+04</pdfrwt>
<pdfrwt beam="2">  1       -1 0.30339360E-01 0.11924078E+04</pdfrwt>
<totfact> 0.40235173E+01</totfact>
</mgrwt>
</event>
<event>
 6    1  0.1637818E-005  0.1999224E+03  0.7818608E-02  0.1149804E+00
          1   -1    0    0  501    0  0.00000000000E+00  0.00000000000E+00  0.60931486329E+03  0.60931486329E+03  0.00000000000E+00 0. -1.
         -1   -1    0    0    0  501 -0.00000000000E+00 -0.00000000000E+00 -0.16399148345E+02  0.16399148345E+02  0.00000000000E+00 0.  1.
         23    2    1    2    0    0  0.39183734408E+02  0.66190532487E+02  0.41905672106E+03  0.43559956876E+03  0.90674677883E+02 0.  0.
         13    1    3    3    0    0  0.27813925922E+02  0.15618793293E-01  0.30474992540E+02  0.41259421827E+02  0.00000000000E+00 0. -1.
        -13    1    3    3    0    0  0.11369808486E+02  0.66174913694E+02  0.38858172852E+03  0.39434014694E+03  0.00000000000E+00 0.  1.
         22    1    1    2    0    0 -0.39183734408E+02 -0.66190532487E+02  0.17385899389E+03  0.19011444287E+03  0.00000000000E+00 0.  1.
<mgrwt>
<rscale>  0 0.19992243E+03</rscale>
<asrwt>0</asrwt>
<pdfrwt beam="1">  1        1 0.93740731E-01 0.19992243E+03</pdfrwt>
<pdfrwt beam="2">  1       -1 0.25229464E-02 0.19992243E+03</pdfrwt>
<totfact> 0.16361982E+04</totfact>
</mgrwt>
</event>
<event>
 6    1  0.1637818E-005  0.1850396E+04  0.7818608E-02  0.8679949E-01
         -2   -1    0    0    0  501 -0.00000000000E+00  0.00000000000E+00  0.11125783465E+04  0.11125783465E+04  0.00000000000E+00 0.  1.
          2   -1    0    0  501    0  0.00000000000E+00 -0.00000000000E+00 -0.76937585156E+03  0.76937585156E+03  0.00000000000E+00 0. -1.
         23    2    1    2    0    0  0.34277189336E+03 -0.62819454450E+03 -0.42126727309E+03  0.83479853493E+03  0.85448943349E+02 0.  0.
         13    1    3    3    0    0  0.67339748293E+02 -0.12879131047E+03 -0.47442638336E+02  0.15288115412E+03  0.00000000000E+00 0.  1.
        -13    1    3    3    0    0  0.27543214507E+03 -0.49940323403E+03 -0.37382463475E+03  0.68191738081E+03  0.00000000000E+00 0. -1.
         22    1    1    2    0    0 -0.34277189336E+03  0.62819454450E+03  0.76446976805E+03  0.10471556632E+04  0.00000000000E+00 0.  1.
<mgrwt>
<rscale>  0 0.18503955E+04</rscale>
<asrwt>0</asrwt>
<pdfrwt beam="1">  1        2 0.11836552E+00 0.18503955E+04</pdfrwt>
<pdfrwt beam="2">  1       -2 0.17116590E+00 0.18503955E+04</pdfrwt>
<totfact> 0.71276125E+00</totfact>
</mgrwt>
</event>
<event>
 6    1  0.1637818E-005  0.1852959E+04  0.7818608E-02  0.8678632E-01
          2   -1    0    0  501    0  0.00000000000E+00  0.00000000000E+00  0.17976730819E+04  0.17976730819E+04  0.00000000000E+00 0. -1.
         -2   -1    0    0    0  501 -0.00000000000E+00 -0.00000000000E+00 -0.47748648436E+03  0.47748648436E+03  0.00000000000E+00 0.  1.
         23    2    1    2    0    0 -0.65833253439E+03  0.25365718801E+03 -0.71550058364E+02  0.71481517664E+03  0.89986838117E+02 0.  0.
         11    1    3    3    0    0 -0.18984374518E+03  0.11490329529E+03 -0.37196608663E+02  0.22500445006E+03  0.00000000000E+00 0.  1.
        -11    1    3    3    0    0 -0.46848878921E+03  0.13875389272E+03 -0.34353449701E+02  0.48981072657E+03  0.00000000000E+00 0. -1.
         22    1    1    2    0    0  0.65833253439E+03 -0.25365718801E+03  0.13917366559E+04  0.15603443896E+04  0.00000000000E+00 0. -1.
<mgrwt>
<rscale>  0 0.18529594E+04</rscale>
<asrwt>0</asrwt>
<pdfrwt beam="1">  1        2 0.27656508E+00 0.18529594E+04</pdfrwt>
<pdfrwt beam="2">  1       -2 0.73459460E-01 0.18529594E+04</pdfrwt>
<totfact> 0.13601188E+01</totfact>
</mgrwt>
</event>
<event>
 6    1  0.1637818E-005  0.1021038E+04  0.7818608E-02  0.9285767E-01
         -1   -1    0    0    0  501 -0.00000000000E+00  0.00000000000E+00  0.43744182422E+03  0.43744182422E+03  0.00000000000E+00 0.  1.
          1   -1    0    0  501    0  0.00000000000E+00 -0.00000000000E+00 -0.59580450445E+03  0.59580450445E+03  0.00000000000E+00 0. -1.
         23    2    1    2    0    0  0.17036989788E+03 -0.45455103519E+03 -0.22580477131E+03  0.54315349935E+03  0.91571739128E+02 0.  0.
         11    1    3    3    0    0  0.48583669740E+02 -0.16238056188E+03 -0.12619921982E+03  0.21131507974E+03  0.00000000000E+00 0.  1.
        -11    1    3    3    0    0  0.12178622814E+03 -0.29217047331E+03 -0.99605551495E+02  0.33183841961E+03  0.00000000000E+00 0. -1.
         22    1    1    2    0    0 -0.17036989788E+03  0.45455103519E+03  0.67442091091E+02  0.49009282932E+03  0.00000000000E+00 0.  1.
<mgrwt>
<rscale>  0 0.10210383E+04</rscale>
<asrwt>0</asrwt>
<pdfrwt beam="1">  1        1 0.91662231E-01 0.10210383E+04</pdfrwt>
<pdfrwt beam="2">  1       -1 0.67298742E-01 0.10210383E+04</pdfrwt>
<totfact> 0.77509490E+01</totfact>
</mgrwt>
</event>
<event>
 6    1  0.1637818E-005  0.1352532E+04  0.7818608E-02  0.8988914E-01
          1   -1    0    0  501    0  0.00000000000E+00  0.00000000000E+00  0.75439984705E+03  0.75439984705E+03  0.00000000000E+00 0. -1.
         -1   -1    0    0    0  501 -0.00000000000E+00 -0.00000000000E+00 -0.60622460130E+03  0.60622460130E+03  0.00000000000E+00 0.  1.
         23    2    1    2    0    0 -0.13648011731E+02 -0.57771032801E+03  0.42212146818E+03  0.72110742426E+03  0.88734954250E+02 0.  0.
         11    1    3    3    0    0 -0.46034859542E+02 -0.20996249603E+03  0.14072043696E+03  0.25691574379E+03  0.00000000000E+00 0.  1.
        -11    1    3    3    0    0  0.32386847811E+02 -0.36774783199E+03  0.28140103122E+03  0.46419168046E+03  0.00000000000E+00 0. -1.
         22    1    1    2    0    0  0.13648011731E+02  0.57771032801E+03 -0.27394622243E+03  0.63951702409E+03  0.00000000000E+00 0.  1.
<mgrwt>
<rscale>  0 0.13525321E+04</rscale>
<asrwt>0</asrwt>
<pdfrwt beam="1">  1        1 0.11606152E+00 0.13525321E+04</pdfrwt>
<pdfrwt beam="2">  1       -1 0.93265323E-01 0.13525321E+04</pdfrwt>
<totfact> 0.26516525E+01</totfact>
</mgrwt>
</event>
<event>
 6    1  0.1637818E-005  0.2113792E+04  0.7818608E-02  0.8555192E-01
          2   -1    0    0  501    0  0.00000000000E+00  0.00000000000E+00  0.40301919919E+03  0.40301919919E+03  0.00000000000E+00 0. -1.
         -2   -1    0    0    0  501 -0.00000000000E+00 -0.00000000000E+00 -0.27716517911E+04  0.27716517911E+04  0.00000000000E+00 0.  1.
         23    2    1    2    0    0 -0.10042130190E+04  0.32310788572E+03 -0.11797772278E+04  0.15852624304E+04  0.91324547039E+02 0.  0.
         11    1    3    3    0    0 -0.87151153697E+03  0.30340492139E+03 -0.10600374408E+04  0.14054416677E+04  0.00000000000E+00 0. -1.
        -11    1    3    3    0    0 -0.13270148199E+03  0.19702964335E+02 -0.11973978697E+03  0.17982076274E+03  0.00000000000E+00 0.  1.
         22    1    1    2    0    0  0.10042130190E+04 -0.32310788572E+03 -0.11888553641E+04  0.15894085598E+04  0.00000000000E+00 0.  1.
<mgrwt>
<rscale>  0 0.21137917E+04</rscale>
<asrwt>0</asrwt>
<pdfrwt beam="1">  1        2 0.62002953E-01 0.21137917E+04</pdfrwt>
<pdfrwt beam="2">  1       -2 0.42640797E+00 0.21137917E+04</pdfrwt>
<totfact> 0.36157924E-01</totfact>
</mgrwt>
</event>
<event>
 6    1  0.1637818E-005  0.3001392E+04  0.7818608E-02  0.8243333E-01
         -2   -1    0    0    0  501 -0.00000000000E+00  0.00000000000E+00  0.16188963845E+04  0.16188963845E+04  0.00000000000E+00 0. -1.
          2   -1    0    0  501    0  0.00000000000E+00 -0.00000000000E+00 -0.13911258109E+04  0.13911258109E+04  0.00000000000E+00 0.  1.
         23    2    1    2    0    0 -0.38337475400E+02 -0.14521953232E+04  0.48607170513E+03  0.15345356678E+04  0.90515161793E+02 0.  0.
         11    1    3    3    0    0  0.50814419705E+01 -0.38020885151E+03  0.16639593479E+03  0.41505686229E+03  0.00000000000E+00 0.  1.
        -11    1    3    3    0    0 -0.43418917370E+02 -0.10719864717E+04  0.31967577034E+03  0.11194788055E+04  0.00000000000E+00 0. -1.
         22    1    1    2    0    0  0.38337475400E+02  0.14521953232E+04 -0.25830113149E+03  0.14754865276E+04  0.00000000000E+00 0. -1.
<mgrwt>
<rscale>  0 0.30013920E+04</rscale>
<asrwt>0</asrwt>
<pdfrwt beam="1">  1        2 0.21401935E+00 0.30013920E+04</pdfrwt>
<pdfrwt beam="2">  1       -2 0.24906098E+00 0.30013920E+04</pdfrwt>
<totfact> 0.81611478E-01</totfact>
</mgrwt>
</event>
<event>
 6    1  0.1637818E-005  0.5156462E+03  0.7818608E-02  0.1009774E+00
         -1   -1    0    0    0  501 -0.00000000000E+00  0.00000000000E+00  0.41428617875E+02  0.41428617875E+02  0.00000000000E+00 0.  1.
          1   -1    0    0  501    0  0.00000000000E+00 -0.00000000000E+00 -0.16045130196E+04  0.16045130196E+04  0.00000000000E+00 0. -1.
         23    2    1    2    0    0 -0.23810576877E+03  0.74262277750E+02 -0.77382531447E+03  0.81821031039E+03  0.91941566777E+02 0.  0.
         13    1    3    3    0    0 -0.16813964148E+03  0.67717082810E+02 -0.41954377009E+03  0.45702682346E+03  0.00000000000E+00 0.  1.
        -13    1    3    3    0    0 -0.69966127294E+02  0.65451949402E+01 -0.35428154438E+03  0.36118348694E+03  0.00000000000E+00 0. -1.
         22    1    1    2    0    0  0.23810576877E+03 -0.74262277750E+02 -0.78925908730E+03  0.82773132713E+03  0.00000000000E+00 0.  1.
<mgrwt>
<rscale>  0 0.51564622E+03</rscale>
<asrwt>0</asrwt>
<pdfrwt beam="1">  1        1 0.24684820E+00 0.51564622E+03</pdfrwt>
<pdfrwt beam="2">  1       -1 0.63736325E-02 0.51564622E+03</pdfrwt>
<totfact> 0.73084086E+02</totfact>
</mgrwt>
</event>
<event>
 6    1  0.1637818E-005  0.2758133E+04  0.7818608E-02  0.8316385E-01
          2   -1    0    0  501    0  0.00000000000E+00  0.00000000000E+00  0.20394929578E+04  0.20394929578E+04  0.00000000000E+00 0. -1.
         -2   -1    0    0    0  501 -0.00000000000E+00 -0.00000000000E+00 -0.93249869831E+03  0.93249869831E+03  0.00000000000E+00 0.  1.
         23    2    1    2    0    0 -0.13681591248E+04  0.57688300992E+02  0.71539898304E+03  0.15477254620E+04  0.92038415511E+02 0.  0.
         11    1    3    3    0    0 -0.10654635253E+04  0.19398674496E+02  0.58787386115E+03  0.12170392389E+04  0.00000000000E+00 0. -1.
        -11    1    3    3    0    0 -0.30269559953E+03  0.38289626496E+02  0.12752512189E+03  0.33068622315E+03  0.00000000000E+00 0.  1.
         22    1    1    2    0    0  0.13681591248E+04 -0.57688300992E+02  0.39159527642E+03  0.14242661940E+04  0.00000000000E+00 0.  1.
<mgrwt>
<rscale>  0 0.27581331E+04</rscale>
<asrwt>0</asrwt>
<pdfrwt beam="1">  1        2 0.31376815E+00 0.27581331E+04</pdfrwt>
<pdfrwt beam="2">  1       -2 0.14346134E+00 0.27581331E+04</pdfrwt>
<totfact> 0.18687880E+00</totfact>
</mgrwt>
</event>
<event>
 6    1  0.1637818E-005  0.9192493E+03  0.7818608E-02  0.9401834E-01
          1   -1    0    0  501    0  0.00000000000E+00  0.00000000000E+00  0.63880458051E+03  0.63880458051E+03  0.00000000000E+00 0. -1.
         -1   -1    0    0    0  501 -0.00000000000E+00 -0.00000000000E+00 -0.33070336530E+03  0.33070336530E+03  0.00000000000E+00 0.  1.
         23    2    1    2    0    0  0.27423482601E+03 -0.27260400238E+03 -0.96770400432E+02  0.40965197588E+03  0.94512163402E+02 0.  0.
         13    1    3    3    0    0  0.94592282441E+02 -0.15771256640E+03 -0.31001255063E+02  0.18649941370E+03  0.00000000000E+00 0. -1.
        -13    1    3    3    0    0  0.17964254357E+03 -0.11489143598E+03 -0.65769145370E+02  0.22315256217E+03  0.00000000000E+00 0.  1.
         22    1    1    2    0    0 -0.27423482601E+03  0.27260400238E+03  0.40487161564E+03  0.55985596993E+03  0.00000000000E+00 0. -1.
<mgrwt>
<rscale>  0 0.91924931E+03</rscale>
<asrwt>0</asrwt>
<pdfrwt beam="1">  1        1 0.98277627E-01 0.91924931E+03</pdfrwt>
<pdfrwt beam="2">  1       -1 0.50877441E-01 0.91924931E+03</pdfrwt>
<totfact> 0.12214246E+02</totfact>
</mgrwt>
</event>
<event>
 6    1  0.1637818E-005  0.1519045E+04  0.7818608E-02  0.8871886E-01
         -1   -1    0    0    0  501 -0.00000000000E+00  0.00000000000E+00  0.63910450698E+03  0.63910450698E+03  0.00000000000E+00 0.  1.
          1   -1    0    0  501    0  0.00000000000E+00 -0.00000000000E+00 -0.90262873937E+03  0.90262873937E+03  0.00000000000E+00 0. -1.
         23    2    1    2    0    0 -0.42445136507E+03  0.96324433852E+01  0.50423562568E+03  0.66440380713E+03  0.83229246348E+02 0.  0.
         13    1    3    3    0    0 -0.56817328517E+02  0.25706308184E+01  0.29955140577E+02  0.64281625754E+02  0.00000000000E+00 0. -1.
        -13    1    3    3    0    0 -0.36763403655E+03  0.70618125668E+01  0.47428048510E+03  0.60012218137E+03  0.00000000000E+00 0.  1.
         22    1    1    2    0    0  0.42445136507E+03 -0.96324433852E+01 -0.76775985807E+03  0.87732943923E+03  0.00000000000E+00 0. -1.
<mgrwt>
<rscale>  0 0.15190446E+04</rscale>
<asrwt>0</asrwt>
<pdfrwt beam="1">  1        1 0.13886596E+00 0.15190446E+04</pdfrwt>
<pdfrwt beam="2">  1       -1 0.98323771E-01 0.15190446E+04</pdfrwt>
<totfact> 0.17329572E+01</totfact>
</mgrwt>
</event>
<event>
 6    1  0.1637818E-005  0.5435101E+03  0.7818608E-02  0.1003007E+00
         -2   -1    0    0    0  501 -0.00000000000E+00  0.00000000000E+00  0.27847605943E+03  0.27847605943E+03  0.00000000000E+00 0. -1.
          2   -1    0    0  501    0  0.00000000000E+00 -0.00000000000E+00 -0.26519622552E+03  0.26519622552E+03  0.00000000000E+00 0.  1.
         23    2    1    2    0    0 -0.16221982431E+03  0.12987068426E+03  0.17127344439E+03  0.28262890353E+03  0.85806982971E+02 0.  0.
         13    1    3    3    0    0 -0.10279837467E+03  0.12871796581E+03  0.13517988028E+03  0.21309486289E+03  0.00000000000E+00 0.  1.
        -13    1    3    3    0    0 -0.59421449639E+02  0.11527184461E+01  0.36093564110E+02  0.69534040636E+02  0.00000000000E+00 0. -1.
         22    1    1    2    0    0  0.16221982431E+03 -0.12987068426E+03 -0.15799361048E+03  0.26104338142E+03  0.00000000000E+00 0.  1.
<mgrwt>
<rscale>  0 0.54351007E+03</rscale>
<asrwt>0</asrwt>
<pdfrwt beam="1">  1        2 0.40799419E-01 0.54351007E+03</pdfrwt>
<pdfrwt beam="2">  1       -2 0.42842471E-01 0.54351007E+03</pdfrwt>
<totfact> 0.65480041E+02</totfact>
</mgrwt>
</event>
<event>
 6    1  0.1637818E-005  0.1170815E+04  0.7818608E-02  0.9138793E-01
          2   -1    0    0  501    0  0.00000000000E+00  0.00000000000E+00  0.49595558920E+03  0.49595558920E+03  0.00000000000E+00 0. -1.
         -2   -1    0    0    0  501 -0.00000000000E+00 -0.00000000000E+00 -0.69099273444E+03  0.69099273444E+03  0.00000000000E+00 0.  1.
         23    2    1    2    0    0  0.39707243129E+03 -0.17422618448E+03 -0.49385636710E+03  0.66034201300E+03  0.64313169502E+02 0.  0.
         11    1    3    3    0    0  0.36968165282E+03 -0.17372526389E+03 -0.44297586659E+03  0.60255506813E+03  0.00000000000E+00 0.  1.
        -11    1    3    3    0    0  0.27390778466E+02 -0.50092058752E+00 -0.50880500502E+02  0.57786944873E+02  0.00000000000E+00 0. -1.
         22    1    1    2    0    0 -0.39707243129E+03  0.17422618448E+03  0.29881922186E+03  0.52660631063E+03  0.00000000000E+00 0. -1.
<mgrwt>
<rscale>  0 0.11708146E+04</rscale>
<asrwt>0</asrwt>
<pdfrwt beam="1">  1        2 0.76300860E-01 0.11708146E+04</pdfrwt>
<pdfrwt beam="2">  1       -2 0.10630657E+00 0.11708146E+04</pdfrwt>
<totfact> 0.43853906E+01</totfact>
</mgrwt>
</event>
<event>
 6    1  0.1637818E-005  0.2241026E+04  0.7818608E-02  0.8501543E-01
          3   -1    0    0  501    0  0.00000000000E+00  0.00000000000E+00  0.70902799937E+03  0.70902799937E+03  0.00000000000E+00 0. -1.
         -3   -1    0    0    0  501 -0.00000000000E+00 -0.00000000000E+00 -0.17708042488E+04  0.17708042488E+04  0.00000000000E+00 0.  1.
         23    2    1    2    0    0  0.10369537844E+04 -0.36764287351E+03 -0.30826654488E+03  0.11463363508E+04  0.92867288029E+02 0.  0.
         11    1    3    3    0    0  0.54504929679E+03 -0.21460352530E+03 -0.12063036298E+03  0.59806780007E+03  0.00000000000E+00 0.  1.
        -11    1    3    3    0    0  0.49190448758E+03 -0.15303934821E+03 -0.18763618191E+03  0.54826855077E+03  0.00000000000E+00 0. -1.
         22    1    1    2    0    0 -0.10369537844E+04  0.36764287351E+03 -0.75350970457E+03  0.13334958974E+04  0.00000000000E+00 0. -1.
<mgrwt>
<rscale>  0 0.22410264E+04</rscale>
<asrwt>0</asrwt>
<pdfrwt beam="1">  1        3 0.10908123E+00 0.22410264E+04</pdfrwt>
<pdfrwt beam="2">  1       -3 0.27243142E+00 0.22410264E+04</pdfrwt>
<totfact> 0.92067887E-02</totfact>
</mgrwt>
</event>
<event>
 6    1  0.1637818E-005  0.2170322E+04  0.7818608E-02  0.8530883E-01
         -1   -1    0    0    0  501 -0.00000000000E+00  0.00000000000E+00  0.53559012110E+03  0.53559012110E+03  0.00000000000E+00 0.  1.
          1   -1    0    0  501    0  0.00000000000E+00 -0.00000000000E+00 -0.21986476962E+04  0.21986476962E+04  0.00000000000E+00 0. -1.
         23    2    1    2    0    0 -0.90379001251E+03 -0.65131597114E+02 -0.15808554587E+04  0.18243830489E+04  0.90504233219E+02 0.  0.
         11    1    3    3    0    0 -0.43811704273E+03  0.13328530201E+02 -0.74845352759E+03  0.86735625657E+03  0.00000000000E+00 0. -1.
        -11    1    3    3    0    0 -0.46567296979E+03 -0.78460127316E+02 -0.83240193113E+03  0.95702679237E+03  0.00000000000E+00 0.  1.
         22    1    1    2    0    0  0.90379001251E+03  0.65131597114E+02 -0.82202116427E+02  0.90985476841E+03  0.00000000000E+00 0.  1.
<mgrwt>
<rscale>  0 0.21703216E+04</rscale>
<asrwt>0</asrwt>
<pdfrwt beam="1">  1        1 0.33825349E+00 0.21703216E+04</pdfrwt>
<pdfrwt beam="2">  1       -1 0.82398481E-01 0.21703216E+04</pdfrwt>
<totfact> 0.29216716E+00</totfact>
</mgrwt>
</event>
<event>
 6    1  0.1637818E-005  0.1037802E+04  0.7818608E-02  0.9268029E-01
          1   -1    0    0  501    0  0.00000000000E+00  0.00000000000E+00  0.97282920511E+03  0.97282920511E+03  0.00000000000E+00 0. -1.
         -1   -1    0    0    0  501 -0.00000000000E+00 -0.00000000000E+00 -0.27677844040E+03  0.27677844040E+03  0.00000000000E+00 0.  1.
         23    2    1    2    0    0 -0.37382181452E+02 -0.29500546321E+03  0.85705034581E+03  0.91145602874E+03  0.88267470016E+02 0.  0.
         13    1    3    3    0    0 -0.32086845161E+02 -0.15604981135E+03  0.57977166538E+03  0.60126224997E+03  0.00000000000E+00 0.  1.
        -13    1    3    3    0    0 -0.52953362910E+01 -0.13895565187E+03  0.27727868042E+03  0.31019377877E+03  0.00000000000E+00 0. -1.
         22    1    1    2    0    0  0.37382181452E+02  0.29500546321E+03 -0.16099958109E+03  0.33815161677E+03  0.00000000000E+00 0.  1.
<mgrwt>
<rscale>  0 0.10378018E+04</rscale>
<asrwt>0</asrwt>
<pdfrwt beam="1">  1        1 0.14966603E+00 0.10378018E+04</pdfrwt>
<pdfrwt beam="2">  1       -1 0.42581299E-01 0.10378018E+04</pdfrwt>
<totfact> 0.86244247E+01</totfact>
</mgrwt>
</event>
<event>
 6    1  0.1637818E-005  0.2775756E+04  0.7818608E-02  0.8310835E-01
          2   -1    0    0  501    0  0.00000000000E+00  0.00000000000E+00  0.17842640998E+04  0.17842640998E+04  0.00000000000E+00 0. -1.
         -2   -1    0    0    0  501 -0.00000000000E+00 -0.00000000000E+00 -0.10795517438E+04  0.10795517438E+04  0.00000000000E+00 0.  1.
         23    2    1    2    0    0  0.87669728044E+03  0.26949608197E+03  0.14253204437E+04  0.16974101356E+04  0.91850647119E+02 0.  0.
         11    1    3    3    0    0  0.21772525075E+03  0.72580758539E+02  0.28739258588E+03  0.36778628270E+03  0.00000000000E+00 0. -1.
        -11    1    3    3    0    0  0.65897202970E+03  0.19691532343E+03  0.11379278578E+04  0.13296238529E+04  0.00000000000E+00 0.  1.
         22    1    1    2    0    0 -0.87669728044E+03 -0.26949608197E+03 -0.72060808773E+03  0.11664057081E+04  0.00000000000E+00 0.  1.
<mgrwt>
<rscale>  0 0.27757561E+04</rscale>
<asrwt>0</asrwt>
<pdfrwt beam="1">  1        2 0.27450217E+00 0.27757561E+04</pdfrwt>
<pdfrwt beam="2">  1       -2 0.16608488E+00 0.27757561E+04</pdfrwt>
<totfact> 0.17455840E+00</totfact>
</mgrwt>
</event>
<event>
 6    1  0.1637818E-005  0.3754471E+04  0.7818608E-02  0.8055996E-01
          2   -1    0    0  501    0  0.00000000000E+00  0.00000000000E+00  0.28671662817E+04  0.28671662817E+04  0.00000000000E+00 0.  1.
         -2   -1    0    0    0  501 -0.00000000000E+00 -0.00000000000E+00 -0.12290930161E+04  0.12290930161E+04  0.00000000000E+00 0. -1.
         23    2    1    2    0    0 -0.15930450393E+04 -0.21072928346E+03  0.18760635154E+04  0.24718090255E+04  0.89589155445E+02 0.  0.
         13    1    3    3    0    0 -0.87520255039E+03 -0.15121779550E+03  0.99375434031E+03  0.13328143212E+04  0.00000000000E+00 0.  1.
        -13    1    3    3    0    0 -0.71784248888E+03 -0.59511487959E+02  0.88230917512E+03  0.11389947044E+04  0.00000000000E+00 0. -1.
         22    1    1    2    0    0  0.15930450393E+04  0.21072928346E+03 -0.23799024982E+03  0.16244502723E+04  0.00000000000E+00 0. -1.
<mgrwt>
<rscale>  0 0.37544715E+04</rscale>
<asrwt>0</asrwt>
<pdfrwt beam="1">  1        2 0.44110250E+00 0.37544715E+04</pdfrwt>
<pdfrwt beam="2">  1       -2 0.18909123E+00 0.37544715E+04</pdfrwt>
<totfact> 0.26613703E-01</totfact>
</mgrwt>
</event>
<event>
 6    1  0.1637818E-005  0.2390177E+04  0.7818608E-02  0.8443190E-01
          2   -1    0    0  501    0  0.00000000000E+00  0.00000000000E+00  0.11560259489E+04  0.11560259489E+04  0.00000000000E+00 0. -1.
         -2   -1    0    0    0  501 -0.00000000000E+00 -0.00000000000E+00 -0.12354712797E+04  0.12354712797E+04  0.00000000000E+00 0.  1.
         23    2    1    2    0    0 -0.33018426241E+03  0.10434427378E+04  0.43656220368E+03  0.11815145138E+04  0.87152707268E+02 0.  0.
         11    1    3    3    0    0 -0.21352128571E+03  0.76894575696E+03  0.28909444860E+03  0.84879003105E+03  0.00000000000E+00 0.  1.
        -11    1    3    3    0    0 -0.11666297670E+03  0.27449698089E+03  0.14746775508E+03  0.33272448278E+03  0.00000000000E+00 0. -1.
         22    1    1    2    0    0  0.33018426241E+03 -0.10434427378E+04 -0.51600753448E+03  0.12099827147E+04  0.00000000000E+00 0.  1.
<mgrwt>
<rscale>  0 0.23901773E+04</rscale>
<asrwt>0</asrwt>
<pdfrwt beam="1">  1        2 0.17785015E+00 0.23901773E+04</pdfrwt>
<pdfrwt beam="2">  1       -2 0.19007250E+00 0.23901773E+04</pdfrwt>
<totfact> 0.28050032E+00</totfact>
</mgrwt>
</event>
<event>
 6    1  0.1637818E-005  0.6640169E+03  0.7818608E-02  0.9780827E-01
          2   -1    0    0  501    0  0.00000000000E+00  0.00000000000E+00  0.20811103295E+04  0.20811103295E+04  0.00000000000E+00 0.  1.
         -2   -1    0    0    0  501 -0.00000000000E+00 -0.00000000000E+00 -0.52966731730E+02  0.52966731730E+02  0.00000000000E+00 0. -1.
         23    2    1    2    0    0 -0.96923245514E+01  0.18524887271E+03  0.18938103139E+04  0.19050431835E+04  0.90889713199E+02 0.  0.
         11    1    3    3    0    0 -0.12207765258E+02  0.18847355293E+03  0.15860567982E+04  0.15972624946E+04  0.00000000000E+00 0. -1.
        -11    1    3    3    0    0  0.25154407071E+01 -0.32246802232E+01  0.30775351575E+03  0.30778068890E+03  0.00000000000E+00 0.  1.
         22    1    1    2    0    0  0.96923245514E+01 -0.18524887271E+03  0.13433328387E+03  0.22903387773E+03  0.00000000000E+00 0. -1.
<mgrwt>
<rscale>  0 0.66401690E+03</rscale>
<asrwt>0</asrwt>
<pdfrwt beam="1">  1        2 0.32017076E+00 0.66401690E+03</pdfrwt>
<pdfrwt beam="2">  1       -2 0.81487295E-02 0.66401690E+03</pdfrwt>
<totfact> 0.59356773E+02</totfact>
</mgrwt>
</event>
<event>
 6    1  0.1637818E-005  0.2750075E+04  0.7818608E-02  0.8318938E-01
         -2   -1    0    0    0  501 -0.00000000000E+00  0.00000000000E+00  0.61878455684E+03  0.61878455684E+03  0.00000000000E+00 0.  1.
          2   -1    0    0  501    0  0.00000000000E+00 -0.00000000000E+00 -0.30555507372E+04  0.30555507372E+04  0.00000000000E+00 0. -1.
         23    2    1    2    0    0  0.13246905669E+04  0.31568612958E+03 -0.14591563688E+04  0.19979750183E+04  0.91126474912E+02 0.  0.
         11    1    3    3    0    0  0.44870586066E+03  0.15032242621E+03 -0.52056671684E+03  0.70350798709E+03  0.00000000000E+00 0. -1.
        -11    1    3    3    0    0  0.87598470627E+03  0.16536370337E+03 -0.93858965199E+03  0.12944670312E+04  0.00000000000E+00 0.  1.
         22    1    1    2    0    0 -0.13246905669E+04 -0.31568612958E+03 -0.97760981150E+03  0.16763602757E+04  0.00000000000E+00 0. -1.
<mgrwt>
<rscale>  0 0.27500746E+04</rscale>
<asrwt>0</asrwt>
<pdfrwt beam="1">  1        2 0.47008472E+00 0.27500746E+04</pdfrwt>
<pdfrwt beam="2">  1       -2 0.95197625E-01 0.27500746E+04</pdfrwt>
<totfact> 0.13011665E+00</totfact>
</mgrwt>
</event>
<event>
 6    1  0.1637818E-005  0.7028640E+04  0.7818608E-02  0.7574489E-01
         -2   -1    0    0    0  501 -0.00000000000E+00  0.00000000000E+00  0.31194391717E+04  0.31194391717E+04  0.00000000000E+00 0.  1.
          2   -1    0    0  501    0  0.00000000000E+00 -0.00000000000E+00 -0.39591872627E+04  0.39591872627E+04  0.00000000000E+00 0. -1.
         23    2    1    2    0    0  0.11460481980E+04 -0.24183812286E+04 -0.27130949965E+04  0.38119120503E+04  0.88288051938E+02 0.  0.
         13    1    3    3    0    0  0.62292791992E+03 -0.12640998437E+04 -0.13737189455E+04  0.19680171111E+04  0.00000000000E+00 0. -1.
        -13    1    3    3    0    0  0.52312027809E+03 -0.11542813849E+04 -0.13393760510E+04  0.18438949392E+04  0.00000000000E+00 0.  1.
         22    1    1    2    0    0 -0.11460481980E+04  0.24183812286E+04  0.18733469055E+04  0.32667143841E+04  0.00000000000E+00 0.  1.
<mgrwt>
<rscale>  0 0.70286397E+04</rscale>
<asrwt>0</asrwt>
<pdfrwt beam="1">  1        2 0.60910573E+00 0.70286397E+04</pdfrwt>
<pdfrwt beam="2">  1       -2 0.47991372E+00 0.70286397E+04</pdfrwt>
<totfact> 0.51052788E-04</totfact>
</mgrwt>
</event>
<event>
 6    1  0.1637818E-005  0.3137119E+04  0.7818608E-02  0.8205624E-01
         -2   -1    0    0    0  501 -0.00000000000E+00  0.00000000000E+00  0.11435456891E+04  0.11435456891E+04  0.00000000000E+00 0.  1.
          2   -1    0    0  501    0  0.00000000000E+00 -0.00000000000E+00 -0.21515353999E+04  0.21515353999E+04  0.00000000000E+00 0. -1.
         23    2    1    2    0    0  0.15727002260E+03 -0.49162097985E+03 -0.20587048870E+04  0.21244285234E+04  0.92226305982E+02 0.  0.
         13    1    3    3    0    0  0.83892635083E+02 -0.19213951060E+03 -0.99974105342E+03  0.10214880027E+04  0.00000000000E+00 0. -1.
        -13    1    3    3    0    0  0.73377387517E+02 -0.29948146925E+03 -0.10589638336E+04  0.11029405207E+04  0.00000000000E+00 0.  1.
         22    1    1    2    0    0 -0.15727002260E+03  0.49162097985E+03  0.10507151762E+04  0.11706525656E+04  0.00000000000E+00 0.  1.
<mgrwt>
<rscale>  0 0.31371191E+04</rscale>
<asrwt>0</asrwt>
<pdfrwt beam="1">  1        2 0.33100544E+00 0.31371191E+04</pdfrwt>
<pdfrwt beam="2">  1       -2 0.17593011E+00 0.31371191E+04</pdfrwt>
<totfact> 0.90073759E-01</totfact>
</mgrwt>
</event>
<event>
 6    1  0.1637818E-005  0.2845044E+04  0.7818608E-02  0.8289419E-01
         -2   -1    0    0    0  501 -0.00000000000E+00  0.00000000000E+00  0.72724883272E+03  0.72724883272E+03  0.00000000000E+00 0.  1.
          2   -1    0    0  501    0  0.00000000000E+00 -0.00000000000E+00 -0.27824991432E+04  0.27824991432E+04  0.00000000000E+00 0. -1.
         23    2    1    2    0    0  0.41579427892E+03  0.37413287810E+03 -0.26402455676E+04  0.27003780088E+04  0.91018903128E+02 0.  0.
         11    1    3    3    0    0  0.15117894206E+03  0.80555276592E+02 -0.76898372316E+03  0.78783259110E+03  0.00000000000E+00 0. -1.
        -11    1    3    3    0    0  0.26461533687E+03  0.29357760151E+03 -0.18712618444E+04  0.19125454177E+04  0.00000000000E+00 0.  1.
         22    1    1    2    0    0 -0.41579427892E+03 -0.37413287810E+03  0.58499525706E+03  0.80936996710E+03  0.00000000000E+00 0.  1.
<mgrwt>
<rscale>  0 0.28450443E+04</rscale>
<asrwt>0</asrwt>
<pdfrwt beam="1">  1        2 0.42807679E+00 0.28450443E+04</pdfrwt>
<pdfrwt beam="2">  1       -2 0.11188444E+00 0.28450443E+04</pdfrwt>
<totfact> 0.12946267E+00</totfact>
</mgrwt>
</event>
<event>
 6    1  0.1637818E-005  0.2903054E+04  0.7818608E-02  0.8271969E-01
         -1   -1    0    0    0  501 -0.00000000000E+00  0.00000000000E+00  0.81952136699E+03  0.81952136699E+03  0.00000000000E+00 0.  1.
          1   -1    0    0  501    0  0.00000000000E+00 -0.00000000000E+00 -0.25709287547E+04  0.25709287547E+04  0.00000000000E+00 0. -1.
         23    2    1    2    0    0 -0.36781584631E+03  0.13922367554E+04 -0.10758694606E+04  0.17998643268E+04  0.91677800096E+02 0.  0.
         13    1    3    3    0    0 -0.13262494253E+03  0.61619116149E+03 -0.51421095294E+03  0.81344565092E+03  0.00000000000E+00 0. -1.
        -13    1    3    3    0    0 -0.23519090378E+03  0.77604559387E+03 -0.56165850763E+03  0.98641867591E+03  0.00000000000E+00 0.  1.
         22    1    1    2    0    0  0.36781584631E+03 -0.13922367554E+04 -0.67553792714E+03  0.15905857949E+04  0.00000000000E+00 0. -1.
<mgrwt>
<rscale>  0 0.29030543E+04</rscale>
<asrwt>0</asrwt>
<pdfrwt beam="1">  1        1 0.39552750E+00 0.29030543E+04</pdfrwt>
<pdfrwt beam="2">  1       -1 0.12608021E+00 0.29030543E+04</pdfrwt>
<totfact> 0.56805940E-01</totfact>
</mgrwt>
</event>
<event>
 6    1  0.1637818E-005  0.1898635E+04  0.7818608E-02  0.8655536E-01
         -2   -1    0    0    0  501 -0.00000000000E+00  0.00000000000E+00  0.40133738677E+03  0.40133738677E+03  0.00000000000E+00 0.  1.
          2   -1    0    0  501    0  0.00000000000E+00 -0.00000000000E+00 -0.22455020081E+04  0.22455020081E+04  0.00000000000E+00 0. -1.
         23    2    1    2    0    0 -0.32930162424E+02  0.26516653062E+03 -0.21909337424E+04  0.22090649005E+04  0.91538989326E+02 0.  0.
         11    1    3    3    0    0 -0.19352223219E+02  0.20588341826E+03 -0.19343370616E+04  0.19453591850E+04  0.00000000000E+00 0. -1.
        -11    1    3    3    0    0 -0.13577939205E+02  0.59283112358E+02 -0.25659668072E+03  0.26370571552E+03  0.00000000000E+00 0.  1.
         22    1    1    2    0    0  0.32930162424E+02 -0.26516653062E+03  0.34676912108E+03  0.43777449433E+03  0.00000000000E+00 0.  1.
<mgrwt>
<rscale>  0 0.18986352E+04</rscale>
<asrwt>0</asrwt>
<pdfrwt beam="1">  1        2 0.34546184E+00 0.18986352E+04</pdfrwt>
<pdfrwt beam="2">  1       -2 0.61744215E-01 0.18986352E+04</pdfrwt>
<totfact> 0.11113494E+01</totfact>
</mgrwt>
</event>
<event>
 6    1  0.1637818E-005  0.3677671E+04  0.7818608E-02  0.8072928E-01
         -1   -1    0    0    0  501 -0.00000000000E+00  0.00000000000E+00  0.86076660409E+03  0.86076660409E+03  0.00000000000E+00 0.  1.
          1   -1    0    0  501    0  0.00000000000E+00 -0.00000000000E+00 -0.39282605304E+04  0.39282605304E+04  0.00000000000E+00 0. -1.
         23    2    1    2    0    0 -0.92564769767E+03 -0.41159784361E+03  0.46203759418E+03  0.11169937469E+04  0.89217975748E+02 0.  0.
         11    1    3    3    0    0 -0.67878038726E+03 -0.29120645561E+03  0.29375550797E+03  0.79488131968E+03  0.00000000000E+00 0. -1.
        -11    1    3    3    0    0 -0.24686731042E+03 -0.12039138801E+03  0.16828208621E+03  0.32211242726E+03  0.00000000000E+00 0.  1.
         22    1    1    2    0    0  0.92564769767E+03  0.41159784361E+03 -0.35295315204E+04  0.36720333875E+04  0.00000000000E+00 0. -1.
<mgrwt>
<rscale>  0 0.36776707E+04</rscale>
<asrwt>0</asrwt>
<pdfrwt beam="1">  1        1 0.60434779E+00 0.36776707E+04</pdfrwt>
<pdfrwt beam="2">  1       -1 0.13242563E+00 0.36776707E+04</pdfrwt>
<totfact> 0.42994680E-02</totfact>
</mgrwt>
</event>
<event>
 6    1  0.1637818E-005  0.2389108E+04  0.7818608E-02  0.8443593E-01
          2   -1    0    0  501    0  0.00000000000E+00  0.00000000000E+00  0.26575273872E+04  0.26575273872E+04  0.00000000000E+00 0.  1.
         -2   -1    0    0    0  501 -0.00000000000E+00 -0.00000000000E+00 -0.53694997093E+03  0.53694997093E+03  0.00000000000E+00 0. -1.
         23    2    1    2    0    0  0.53455231336E+02 -0.75423961183E+03 -0.17170707617E+03  0.78070374652E+03  0.90995417572E+02 0.  0.
         13    1    3    3    0    0 -0.46154024652E+00 -0.43713123197E+03 -0.65789202055E+02  0.44205446055E+03  0.00000000000E+00 0. -1.
        -13    1    3    3    0    0  0.53916771583E+02 -0.31710837986E+03 -0.10591787411E+03  0.33864928597E+03  0.00000000000E+00 0.  1.
         22    1    1    2    0    0 -0.53455231336E+02  0.75423961183E+03  0.22922844924E+04  0.24137736116E+04  0.00000000000E+00 0.  1.
<mgrwt>
<rscale>  0 0.23891080E+04</rscale>
<asrwt>0</asrwt>
<pdfrwt beam="1">  1        2 0.40885036E+00 0.23891080E+04</pdfrwt>
<pdfrwt beam="2">  1       -2 0.82607690E-01 0.23891080E+04</pdfrwt>
<totfact> 0.32567289E+00</totfact>
</mgrwt>
</event>
<event>
 6    1  0.1637818E-005  0.2271818E+04  0.7818608E-02  0.8489116E-01
          1   -1    0    0  501    0  0.00000000000E+00  0.00000000000E+00  0.18059184206E+04  0.18059184206E+04  0.00000000000E+00 0. -1.
         -1   -1    0    0    0  501 -0.00000000000E+00 -0.00000000000E+00 -0.71447825508E+03  0.71447825508E+03  0.00000000000E+00 0.  1.
         23    2    1    2    0    0 -0.10620731989E+04 -0.37529231392E+03  0.69267329069E+03  0.13254662087E+04  0.90667425555E+02 0.  0.
         13    1    3    3    0    0 -0.77586556310E+03 -0.31402671442E+03  0.52805269170E+03  0.98965640229E+03  0.00000000000E+00 0. -1.
        -13    1    3    3    0    0 -0.28620763575E+03 -0.61265599495E+02  0.16462059899E+03  0.33580980637E+03  0.00000000000E+00 0.  1.
         22    1    1    2    0    0  0.10620731989E+04  0.37529231392E+03  0.39876687487E+03  0.11949304671E+04  0.00000000000E+00 0.  1.
<mgrwt>
<rscale>  0 0.22718182E+04</rscale>
<asrwt>0</asrwt>
<pdfrwt beam="1">  1        1 0.27783360E+00 0.22718182E+04</pdfrwt>
<pdfrwt beam="2">  1       -1 0.10991973E+00 0.22718182E+04</pdfrwt>
<totfact> 0.27956882E+00</totfact>
</mgrwt>
</event>
<event>
 6    1  0.1637818E-005  0.1146708E+04  0.7818608E-02  0.9160826E-01
         -1   -1    0    0    0  501 -0.00000000000E+00  0.00000000000E+00  0.64862369882E+03  0.64862369882E+03  0.00000000000E+00 0.  1.
          1   -1    0    0  501    0  0.00000000000E+00 -0.00000000000E+00 -0.50681898488E+03  0.50681898488E+03  0.00000000000E+00 0. -1.
         23    2    1    2    0    0 -0.75888248361E+02  0.28152544311E+03 -0.42163606666E+03  0.52102869063E+03  0.93157513873E+02 0.  0.
         11    1    3    3    0    0 -0.71030243170E+02  0.19211209173E+03 -0.35333146848E+03  0.40840602084E+03  0.00000000000E+00 0.  1.
        -11    1    3    3    0    0 -0.48580051909E+01  0.89413351378E+02 -0.68304598179E+02  0.11262266979E+03  0.00000000000E+00 0. -1.
         22    1    1    2    0    0  0.75888248361E+02 -0.28152544311E+03  0.56344078060E+03  0.63441399307E+03  0.00000000000E+00 0.  1.
<mgrwt>
<rscale>  0 0.11467080E+04</rscale>
<asrwt>0</asrwt>
<pdfrwt beam="1">  1        1 0.77972151E-01 0.11467080E+04</pdfrwt>
<pdfrwt beam="2">  1       -1 0.99788262E-01 0.11467080E+04</pdfrwt>
<totfact> 0.41409024E+01</totfact>
</mgrwt>
</event>
<event>
 6    1  0.1637818E-005  0.1262025E+04  0.7818608E-02  0.9060234E-01
         -2   -1    0    0    0  501 -0.00000000000E+00  0.00000000000E+00  0.31651526363E+03  0.31651526363E+03  0.00000000000E+00 0.  1.
          2   -1    0    0  501    0  0.00000000000E+00 -0.00000000000E+00 -0.12580013048E+04  0.12580013048E+04  0.00000000000E+00 0. -1.
         23    2    1    2    0    0 -0.40789916074E+03 -0.77328524602E+02 -0.10605585117E+04  0.11426141729E+04  0.91767996390E+02 0.  0.
         13    1    3    3    0    0 -0.22357033441E+03 -0.48831285703E+02 -0.46033677248E+03  0.51407988970E+03  0.00000000000E+00 0. -1.
        -13    1    3    3    0    0 -0.18432882633E+03 -0.28497238899E+02 -0.60022173926E+03  0.62853428317E+03  0.00000000000E+00 0.  1.
         22    1    1    2    0    0  0.40789916074E+03  0.77328524602E+02  0.11907247057E+03  0.43190239557E+03  0.00000000000E+00 0.  1.
<mgrwt>
<rscale>  0 0.12620247E+04</rscale>
<asrwt>0</asrwt>
<pdfrwt beam="1">  1        2 0.19353866E+00 0.12620247E+04</pdfrwt>
<pdfrwt beam="2">  1       -2 0.48694656E-01 0.12620247E+04</pdfrwt>
<totfact> 0.68648384E+01</totfact>
</mgrwt>
</event>
<event>
 6    1  0.1637818E-005  0.1860354E+04  0.7818608E-02  0.8674846E-01
         -2   -1    0    0    0  501 -0.00000000000E+00  0.00000000000E+00  0.32529201301E+03  0.32529201301E+03  0.00000000000E+00 0.  1.
          2   -1    0    0  501    0  0.00000000000E+00 -0.00000000000E+00 -0.26598530984E+04  0.26598530984E+04  0.00000000000E+00 0. -1.
         23    2    1    2    0    0 -0.58208047932E+03  0.95706468750E+02 -0.23194943977E+04  0.23950566286E+04  0.90909739163E+02 0.  0.
         11    1    3    3    0    0 -0.24431473251E+03  0.85278436708E+02 -0.97823847681E+03  0.10118856743E+04  0.00000000000E+00 0. -1.
        -11    1    3    3    0    0 -0.33776574681E+03  0.10428032042E+02 -0.13412559208E+04  0.13831709543E+04  0.00000000000E+00 0.  1.
         22    1    1    2    0    0  0.58208047932E+03 -0.95706468750E+02 -0.15066687787E+02  0.59008848290E+03  0.00000000000E+00 0.  1.
<mgrwt>
<rscale>  0 0.18603537E+04</rscale>
<asrwt>0</asrwt>
<pdfrwt beam="1">  1        2 0.40920818E+00 0.18603537E+04</pdfrwt>
<pdfrwt beam="2">  1       -2 0.50044924E-01 0.18603537E+04</pdfrwt>
<totfact> 0.99720257E+00</totfact>
</mgrwt>
</event>
<event>
 6    1  0.1637818E-005  0.2705209E+04  0.7818608E-02  0.8333317E-01
          2   -1    0    0  501    0  0.00000000000E+00  0.00000000000E+00  0.19434656694E+04  0.19434656694E+04  0.00000000000E+00 0. -1.
         -2   -1    0    0    0  501 -0.00000000000E+00 -0.00000000000E+00 -0.94137935672E+03  0.94137935672E+03  0.00000000000E+00 0.  1.
         23    2    1    2    0    0 -0.10116972974E+03 -0.13165105142E+04  0.19644343493E+03  0.13380755880E+04  0.91766049471E+02 0.  0.
         11    1    3    3    0    0 -0.10000042171E+03 -0.71104328117E+03  0.11332626221E+03  0.72692879551E+03  0.00000000000E+00 0. -1.
        -11    1    3    3    0    0 -0.11693080215E+01 -0.60546723303E+03  0.83117172719E+02  0.61114679248E+03  0.00000000000E+00 0.  1.
         22    1    1    2    0    0  0.10116972974E+03  0.13165105142E+04  0.80564287773E+03  0.15467694381E+04  0.00000000000E+00 0. -1.
<mgrwt>
<rscale>  0 0.27052087E+04</rscale>
<asrwt>0</asrwt>
<pdfrwt beam="1">  1        2 0.29899472E+00 0.27052087E+04</pdfrwt>
<pdfrwt beam="2">  1       -2 0.14482759E+00 0.27052087E+04</pdfrwt>
<totfact> 0.20706136E+00</totfact>
</mgrwt>
</event>
<event>
 6    1  0.1637818E-005  0.1916121E+04  0.7818608E-02  0.8646873E-01
          2   -1    0    0  501    0  0.00000000000E+00  0.00000000000E+00  0.11328439927E+04  0.11328439927E+04  0.00000000000E+00 0. -1.
         -2   -1    0    0    0  501 -0.00000000000E+00 -0.00000000000E+00 -0.81024359839E+03  0.81024359839E+03  0.00000000000E+00 0.  1.
         23    2    1    2    0    0 -0.79196021983E+03 -0.47080240616E+03 -0.96619551560E+02  0.93086169810E+03  0.91171639295E+02 0.  0.
         13    1    3    3    0    0 -0.61979041709E+03 -0.32364007990E+03 -0.79900960525E+02  0.70375224755E+03  0.00000000000E+00 0.  1.
        -13    1    3    3    0    0 -0.17216980274E+03 -0.14716232626E+03 -0.16718591034E+02  0.22710945056E+03  0.00000000000E+00 0. -1.
         22    1    1    2    0    0  0.79196021983E+03  0.47080240616E+03  0.41921994588E+03  0.10122258930E+04  0.00000000000E+00 0. -1.
<mgrwt>
<rscale>  0 0.19161207E+04</rscale>
<asrwt>0</asrwt>
<pdfrwt beam="1">  1        2 0.17428369E+00 0.19161207E+04</pdfrwt>
<pdfrwt beam="2">  1       -2 0.12465286E+00 0.19161207E+04</pdfrwt>
<totfact> 0.93936517E+00</totfact>
</mgrwt>
</event>
<event>
 6    1  0.1637818E-005  0.2637640E+04  0.7818608E-02  0.8355527E-01
          2   -1    0    0  501    0  0.00000000000E+00  0.00000000000E+00  0.16090910360E+04  0.16090910360E+04  0.00000000000E+00 0. -1.
         -2   -1    0    0    0  501 -0.00000000000E+00 -0.00000000000E+00 -0.10809123233E+04  0.10809123233E+04  0.00000000000E+00 0.  1.
         23    2    1    2    0    0 -0.24226692230E+03 -0.12928469111E+04  0.33477198451E+03  0.13605100123E+04  0.93641950418E+02 0.  0.
         13    1    3    3    0    0 -0.13695488322E+03 -0.58060437171E+03  0.11304014613E+03  0.60715414116E+03  0.00000000000E+00 0.  1.
        -13    1    3    3    0    0 -0.10531203908E+03 -0.71224253936E+03  0.22173183838E+03  0.75335587115E+03  0.00000000000E+00 0. -1.
         22    1    1    2    0    0  0.24226692230E+03  0.12928469111E+04  0.19340672827E+03  0.13294933470E+04  0.00000000000E+00 0.  1.
<mgrwt>
<rscale>  0 0.26376401E+04</rscale>
<asrwt>0</asrwt>
<pdfrwt beam="1">  1        2 0.24755247E+00 0.26376401E+04</pdfrwt>
<pdfrwt beam="2">  1       -2 0.16629420E+00 0.26376401E+04</pdfrwt>
<totfact> 0.22025680E+00</totfact>
</mgrwt>
</event>
<event>
 6    1  0.1637818E-005  0.3775878E+04  0.7818608E-02  0.8051351E-01
         -1   -1    0    0    0  501 -0.00000000000E+00  0.00000000000E+00  0.16120175343E+04  0.16120175343E+04  0.00000000000E+00 0.  1.
          1   -1    0    0  501    0  0.00000000000E+00 -0.00000000000E+00 -0.22110882185E+04  0.22110882185E+04  0.00000000000E+00 0. -1.
         23    2    1    2    0    0  0.95797508134E+03  0.11257132738E+04  0.88758938879E+03  0.17266552278E+04  0.92610589004E+02 0.  0.
         11    1    3    3    0    0  0.48592957765E+03  0.53258357953E+03  0.47818578195E+03  0.86512106996E+03  0.00000000000E+00 0. -1.
        -11    1    3    3    0    0  0.47204550369E+03  0.59312969429E+03  0.40940360684E+03  0.86153415782E+03  0.00000000000E+00 0.  1.
         22    1    1    2    0    0 -0.95797508134E+03 -0.11257132738E+04 -0.14866600730E+04  0.20964505251E+04  0.00000000000E+00 0. -1.
<mgrwt>
<rscale>  0 0.37758776E+04</rscale>
<asrwt>0</asrwt>
<pdfrwt beam="1">  1        1 0.34016742E+00 0.37758776E+04</pdfrwt>
<pdfrwt beam="2">  1       -1 0.24800270E+00 0.37758776E+04</pdfrwt>
<totfact> 0.12264572E-01</totfact>
</mgrwt>
</event>
<event>
 6    1  0.1637818E-005  0.2589195E+04  0.7818608E-02  0.8371881E-01
         -2   -1    0    0    0  501 -0.00000000000E+00  0.00000000000E+00  0.66960062749E+03  0.66960062749E+03  0.00000000000E+00 0. -1.
          2   -1    0    0  501    0  0.00000000000E+00 -0.00000000000E+00 -0.25029594483E+04  0.25029594483E+04  0.00000000000E+00 0.  1.
         23    2    1    2    0    0 -0.34870945741E+03 -0.11274085405E+04 -0.15650629504E+04  0.19623406837E+04  0.93330688907E+02 0.  0.
         11    1    3    3    0    0 -0.11171331278E+03 -0.24535164411E+03 -0.38871101263E+03  0.47304708524E+03  0.00000000000E+00 0. -1.
        -11    1    3    3    0    0 -0.23699614463E+03 -0.88205689639E+03 -0.11763519377E+04  0.14892935985E+04  0.00000000000E+00 0.  1.
         22    1    1    2    0    0  0.34870945741E+03  0.11274085405E+04 -0.26829587045E+03  0.12102193921E+04  0.00000000000E+00 0.  1.
<mgrwt>
<rscale>  0 0.25891954E+04</rscale>
<asrwt>0</asrwt>
<pdfrwt beam="1">  1        2 0.38507068E+00 0.25891954E+04</pdfrwt>
<pdfrwt beam="2">  1       -2 0.10301548E+00 0.25891954E+04</pdfrwt>
<totfact> 0.23617433E+00</totfact>
</mgrwt>
</event>
<event>
 6    1  0.1637818E-005  0.3462974E+04  0.7818608E-02  0.8122621E-01
         -2   -1    0    0    0  501 -0.00000000000E+00  0.00000000000E+00  0.10264104318E+04  0.10264104318E+04  0.00000000000E+00 0.  1.
          2   -1    0    0  501    0  0.00000000000E+00 -0.00000000000E+00 -0.29209050911E+04  0.29209050911E+04  0.00000000000E+00 0. -1.
         23    2    1    2    0    0 -0.65554875886E+03 -0.15019523608E+04 -0.31483714142E+03  0.16711514376E+04  0.89552399998E+02 0.  0.
         11    1    3    3    0    0 -0.35770317603E+03 -0.91478943477E+03 -0.21066448930E+03  0.10045749346E+04  0.00000000000E+00 0.  1.
        -11    1    3    3    0    0 -0.29784558284E+03 -0.58716292606E+03 -0.10417265211E+03  0.66657650304E+03  0.00000000000E+00 0. -1.
         22    1    1    2    0    0  0.65554875886E+03  0.15019523608E+04 -0.15796575179E+04  0.22761640853E+04  0.00000000000E+00 0. -1.
<mgrwt>
<rscale>  0 0.34629741E+04</rscale>
<asrwt>0</asrwt>
<pdfrwt beam="1">  1        2 0.44937002E+00 0.34629741E+04</pdfrwt>
<pdfrwt beam="2">  1       -2 0.15790930E+00 0.34629741E+04</pdfrwt>
<totfact> 0.41938311E-01</totfact>
</mgrwt>
</event>
<event>
 6    1  0.1637818E-005  0.2100077E+04  0.7818608E-02  0.8561210E-01
          1   -1    0    0  501    0  0.00000000000E+00  0.00000000000E+00  0.10526194722E+04  0.10526194722E+04  0.00000000000E+00 0. -1.
         -1   -1    0    0    0  501 -0.00000000000E+00 -0.00000000000E+00 -0.10474637226E+04  0.10474637226E+04  0.00000000000E+00 0.  1.
         23    2    1    2    0    0 -0.63871490140E+03 -0.80753438404E+03 -0.19574831676E+03  0.10510689191E+04  0.79749373633E+02 0.  0.
         13    1    3    3    0    0 -0.13326932744E+03 -0.21486675830E+03 -0.29069608154E+02  0.25450634487E+03  0.00000000000E+00 0. -1.
        -13    1    3    3    0    0 -0.50544557396E+03 -0.59266762574E+03 -0.16667870861E+03  0.79656257428E+03  0.00000000000E+00 0.  1.
         22    1    1    2    0    0  0.63871490140E+03  0.80753438404E+03  0.20090406632E+03  0.10490142757E+04  0.00000000000E+00 0. -1.
<mgrwt>
<rscale>  0 0.21000769E+04</rscale>
<asrwt>0</asrwt>
<pdfrwt beam="1">  1        1 0.16194146E+00 0.21000769E+04</pdfrwt>
<pdfrwt beam="2">  1       -1 0.16114826E+00 0.21000769E+04</pdfrwt>
<totfact> 0.36291759E+00</totfact>
</mgrwt>
</event>
<event>
 6    1  0.1637818E-005  0.4026358E+04  0.7818608E-02  0.7999250E-01
          2   -1    0    0  501    0  0.00000000000E+00  0.00000000000E+00  0.13866620763E+04  0.13866620763E+04  0.00000000000E+00 0. -1.
         -2   -1    0    0    0  501 -0.00000000000E+00 -0.00000000000E+00 -0.29227672883E+04  0.29227672883E+04  0.00000000000E+00 0.  1.
         23    2    1    2    0    0  0.41002464197E+03 -0.17147955224E+04 -0.18060463958E+04  0.25257499839E+04  0.94686360198E+02 0.  0.
         11    1    3    3    0    0  0.29654616830E+03 -0.13574525037E+04 -0.14608693903E+04  0.20161240799E+04  0.00000000000E+00 0. -1.
        -11    1    3    3    0    0  0.11347847367E+03 -0.35734301860E+03 -0.34517700555E+03  0.50962590406E+03  0.00000000000E+00 0.  1.
         22    1    1    2    0    0 -0.41002464197E+03  0.17147955224E+04  0.26994118378E+03  0.17836793807E+04  0.00000000000E+00 0. -1.
<mgrwt>
<rscale>  0 0.40263584E+04</rscale>
<asrwt>0</asrwt>
<pdfrwt beam="1">  1        2 0.21333263E+00 0.40263584E+04</pdfrwt>
<pdfrwt beam="2">  1       -2 0.44965651E+00 0.40263584E+04</pdfrwt>
<totfact> 0.40453649E-02</totfact>
</mgrwt>
</event>
<event>
 6    1  0.1637818E-005  0.3404122E+04  0.7818608E-02  0.8136895E-01
         -1   -1    0    0    0  501 -0.00000000000E+00  0.00000000000E+00  0.16231945198E+04  0.16231945198E+04  0.00000000000E+00 0.  1.
          1   -1    0    0  501    0  0.00000000000E+00 -0.00000000000E+00 -0.17847592203E+04  0.17847592203E+04  0.00000000000E+00 0. -1.
         23    2    1    2    0    0 -0.48003291903E+03  0.13588482950E+04 -0.98520167970E+03  0.17480506810E+04  0.90324645072E+02 0.  0.
         11    1    3    3    0    0 -0.24843061344E+03  0.63386908091E+03 -0.51213585519E+03  0.85193363332E+03  0.00000000000E+00 0.  1.
        -11    1    3    3    0    0 -0.23160230559E+03  0.72497921409E+03 -0.47306582451E+03  0.89611704768E+03  0.00000000000E+00 0. -1.
         22    1    1    2    0    0  0.48003291903E+03 -0.13588482950E+04  0.82363697919E+03  0.16599030591E+04  0.00000000000E+00 0.  1.
<mgrwt>
<rscale>  0 0.34041218E+04</rscale>
<asrwt>0</asrwt>
<pdfrwt beam="1">  1        1 0.27457834E+00 0.34041218E+04</pdfrwt>
<pdfrwt beam="2">  1       -1 0.24972223E+00 0.34041218E+04</pdfrwt>
<totfact> 0.24025207E-01</totfact>
</mgrwt>
</event>
<event>
 6    1  0.1637818E-005  0.2150039E+04  0.7818608E-02  0.8539516E-01
          1   -1    0    0  501    0  0.00000000000E+00  0.00000000000E+00  0.82661555941E+03  0.82661555941E+03  0.00000000000E+00 0. -1.
         -1   -1    0    0    0  501 -0.00000000000E+00 -0.00000000000E+00 -0.13980701196E+04  0.13980701196E+04  0.00000000000E+00 0.  1.
         23    2    1    2    0    0  0.97642515787E+03  0.21371534350E+03  0.11797116515E+03  0.10104418124E+04  0.89415453922E+02 0.  0.
         13    1    3    3    0    0  0.24569952226E+03  0.87054965763E+02  0.52819647866E+02  0.26596378984E+03  0.00000000000E+00 0. -1.
        -13    1    3    3    0    0  0.73072563561E+03  0.12666037774E+03  0.65151517287E+02  0.74447802253E+03  0.00000000000E+00 0.  1.
         22    1    1    2    0    0 -0.97642515787E+03 -0.21371534350E+03 -0.68942572538E+03  0.12142438667E+04  0.00000000000E+00 0.  1.
<mgrwt>
<rscale>  0 0.21500386E+04</rscale>
<asrwt>0</asrwt>
<pdfrwt beam="1">  1        1 0.12717163E+00 0.21500386E+04</pdfrwt>
<pdfrwt beam="2">  1       -1 0.21508771E+00 0.21500386E+04</pdfrwt>
<totfact> 0.22797598E+00</totfact>
</mgrwt>
</event>
<event>
 6    1  0.1637818E-005  0.7120705E+03  0.7818608E-02  0.9696810E-01
          1   -1    0    0  501    0  0.00000000000E+00  0.00000000000E+00  0.11068191926E+03  0.11068191926E+03  0.00000000000E+00 0. -1.
         -1   -1    0    0    0  501 -0.00000000000E+00 -0.00000000000E+00 -0.11452737022E+04  0.11452737022E+04  0.00000000000E+00 0.  1.
         23    2    1    2    0    0  0.53789253590E+01  0.34961931752E+03 -0.49578059483E+03  0.61363164055E+03  0.92102074149E+02 0.  0.
         11    1    3    3    0    0 -0.15435385155E+01  0.26783943543E+03 -0.30479956175E+03  0.40576239171E+03  0.00000000000E+00 0. -1.
        -11    1    3    3    0    0  0.69224638745E+01  0.81779882090E+02 -0.19098103308E+03  0.20786924885E+03  0.00000000000E+00 0.  1.
         22    1    1    2    0    0 -0.53789253590E+01 -0.34961931752E+03 -0.53881118814E+03  0.64232398094E+03  0.00000000000E+00 0.  1.
<mgrwt>
<rscale>  0 0.71207048E+03</rscale>
<asrwt>0</asrwt>
<pdfrwt beam="1">  1        1 0.17027988E-01 0.71207048E+03</pdfrwt>
<pdfrwt beam="2">  1       -1 0.17619595E+00 0.71207048E+03</pdfrwt>
<totfact> 0.73681475E+01</totfact>
</mgrwt>
</event>
<event>
 6    1  0.1637818E-005  0.1961496E+04  0.7818608E-02  0.8624837E-01
         -1   -1    0    0    0  501 -0.00000000000E+00  0.00000000000E+00  0.12405456666E+04  0.12405456666E+04  0.00000000000E+00 0.  1.
          1   -1    0    0  501    0  0.00000000000E+00 -0.00000000000E+00 -0.77535806647E+03  0.77535806647E+03  0.00000000000E+00 0. -1.
         23    2    1    2    0    0 -0.44746274139E+03  0.25202151656E+03  0.10893290371E+04  0.12076399871E+04  0.89547962751E+02 0.  0.
         11    1    3    3    0    0 -0.28462078514E+02  0.25864573540E+02  0.40812764519E+02  0.56078051192E+02  0.00000000000E+00 0.  1.
        -11    1    3    3    0    0 -0.41900066288E+03  0.22615694302E+03  0.10485162726E+04  0.11515619359E+04  0.00000000000E+00 0. -1.
         22    1    1    2    0    0  0.44746274139E+03 -0.25202151656E+03 -0.62414143695E+03  0.80826374598E+03  0.00000000000E+00 0. -1.
<mgrwt>
<rscale>  0 0.19614965E+04</rscale>
<asrwt>0</asrwt>
<pdfrwt beam="1">  1        1 0.11928586E+00 0.19614965E+04</pdfrwt>
<pdfrwt beam="2">  1       -1 0.19085318E+00 0.19614965E+04</pdfrwt>
<totfact> 0.37697336E+00</totfact>
</mgrwt>
</event>
<event>
 6    1  0.1637818E-005  0.1188985E+04  0.7818608E-02  0.9122553E-01
         -1   -1    0    0    0  501 -0.00000000000E+00  0.00000000000E+00  0.94820867222E+03  0.94820867222E+03  0.00000000000E+00 0.  1.
          1   -1    0    0  501    0  0.00000000000E+00 -0.00000000000E+00 -0.37272554869E+03  0.37272554869E+03  0.00000000000E+00 0. -1.
         23    2    1    2    0    0 -0.18796645478E+03 -0.54726804306E+03  0.42296047618E+03  0.72252227499E+03  0.91154672753E+02 0.  0.
         13    1    3    3    0    0 -0.44875067952E+02 -0.92329559649E+02  0.11817872587E+03  0.15653986890E+03  0.00000000000E+00 0. -1.
        -13    1    3    3    0    0 -0.14309138683E+03 -0.45493848341E+03  0.30478175032E+03  0.56598240608E+03  0.00000000000E+00 0.  1.
         22    1    1    2    0    0  0.18796645478E+03  0.54726804306E+03  0.15252264735E+03  0.59841194593E+03  0.00000000000E+00 0. -1.
<mgrwt>
<rscale>  0 0.11889854E+04</rscale>
<asrwt>0</asrwt>
<pdfrwt beam="1">  1        1 0.57342392E-01 0.11889854E+04</pdfrwt>
<pdfrwt beam="2">  1       -1 0.14587826E+00 0.11889854E+04</pdfrwt>
<totfact> 0.24546024E+01</totfact>
</mgrwt>
</event>
<event>
 6    1  0.1637818E-005  0.4163344E+03  0.7818608E-02  0.1038266E+00
         -2   -1    0    0    0  501 -0.00000000000E+00  0.00000000000E+00  0.99374028861E+02  0.99374028861E+02  0.00000000000E+00 0.  1.
          2   -1    0    0  501    0  0.00000000000E+00 -0.00000000000E+00 -0.43606554872E+03  0.43606554872E+03  0.00000000000E+00 0. -1.
         23    2    1    2    0    0  0.25581780933E+02 -0.11303042139E+02 -0.42499103360E+03  0.44281673804E+03  0.12119034025E+03 0.  0.
         11    1    3    3    0    0 -0.66613705066E+01 -0.10128480634E+02 -0.40431291923E+03  0.40449461879E+03  0.00000000000E+00 0.  1.
        -11    1    3    3    0    0  0.32243151440E+02 -0.11745615050E+01 -0.20678114371E+02  0.38322119245E+02  0.00000000000E+00 0. -1.
         22    1    1    2    0    0 -0.25581780933E+02  0.11303042139E+02  0.88299513743E+02  0.92622839540E+02  0.00000000000E+00 0.  1.
<mgrwt>
<rscale>  0 0.41633443E+03</rscale>
<asrwt>0</asrwt>
<pdfrwt beam="1">  1        2 0.67087007E-01 0.41633443E+03</pdfrwt>
<pdfrwt beam="2">  1       -2 0.15288312E-01 0.41633443E+03</pdfrwt>
<totfact> 0.24218061E+03</totfact>
</mgrwt>
</event>
<event>
 6    1  0.1990013E-005  0.2290015E+04  0.7818608E-02  0.8481869E-01
         -1   -1    0    0    0  501 -0.00000000000E+00  0.00000000000E+00  0.93358018548E+03  0.93358018548E+03  0.00000000000E+00 0.  1.
          1   -1    0    0  501    0  0.00000000000E+00 -0.00000000000E+00 -0.14043161098E+04  0.14043161098E+04  0.00000000000E+00 0. -1.
         23    2    1    2    0    0 -0.51492997936E+03 -0.98579634505E+03 -0.50593189886E+03  0.12251581975E+04  0.89990027705E+02 0.  0.
         11    1    3    3    0    0 -0.20515952775E+03 -0.35249848229E+03 -0.14278523943E+03  0.43212641257E+03  0.00000000000E+00 0.  1.
        -11    1    3    3    0    0 -0.30977045161E+03 -0.63329786276E+03 -0.36314665943E+03  0.79303178494E+03  0.00000000000E+00 0. -1.
         22    1    1    2    0    0  0.51492997936E+03  0.98579634505E+03  0.35195974545E+02  0.11127380978E+04  0.00000000000E+00 0. -1.
<mgrwt>
<rscale>  0 0.22900146E+04</rscale>
<asrwt>0</asrwt>
<pdfrwt beam="1">  1        1 0.21604863E+00 0.22900146E+04</pdfrwt>
<pdfrwt beam="2">  1       -1 0.14362772E+00 0.22900146E+04</pdfrwt>
<totfact> 0.27046764E+00</totfact>
</mgrwt>
</event>
<event>
 6    1  0.1637818E-005  0.3194458E+04  0.7818608E-02  0.8190282E-01
         -2   -1    0    0    0  501 -0.00000000000E+00  0.00000000000E+00  0.80869180357E+03  0.80869180357E+03  0.00000000000E+00 0.  1.
          2   -1    0    0  501    0  0.00000000000E+00 -0.00000000000E+00 -0.31546519505E+04  0.31546519505E+04  0.00000000000E+00 0. -1.
         23    2    1    2    0    0  0.18204695299E+02 -0.15937349122E+04 -0.10716481036E+04  0.19227081754E+04  0.89747916166E+02 0.  0.
         13    1    3    3    0    0  0.21305709768E+02 -0.99780436490E+03 -0.72151072428E+03  0.12315215017E+04  0.00000000000E+00 0. -1.
        -13    1    3    3    0    0 -0.31010144690E+01 -0.59593054730E+03 -0.35013737933E+03  0.69118667370E+03  0.00000000000E+00 0.  1.
         22    1    1    2    0    0 -0.18204695299E+02  0.15937349122E+04 -0.12743120434E+04  0.20406355787E+04  0.00000000000E+00 0.  1.
<mgrwt>
<rscale>  0 0.31944584E+04</rscale>
<asrwt>0</asrwt>
<pdfrwt beam="1">  1        2 0.48533107E+00 0.31944584E+04</pdfrwt>
<pdfrwt beam="2">  1       -2 0.12441412E+00 0.31944584E+04</pdfrwt>
<totfact> 0.56674419E-01</totfact>
</mgrwt>
</event>
<event>
 6    1  0.1637818E-005  0.1079513E+04  0.7818608E-02  0.9225393E-01
          2   -1    0    0  501    0  0.00000000000E+00  0.00000000000E+00  0.65926867905E+03  0.65926867905E+03  0.00000000000E+00 0. -1.
         -2   -1    0    0    0  501 -0.00000000000E+00 -0.00000000000E+00 -0.44190933128E+03  0.44190933128E+03  0.00000000000E+00 0.  1.
         23    2    1    2    0    0  0.68173947786E+02  0.33969293275E+03  0.52661848575E+03  0.63676419686E+03  0.90014649693E+02 0.  0.
         11    1    3    3    0    0  0.66036270065E+02  0.11871765159E+03  0.17627545534E+03  0.22254821033E+03  0.00000000000E+00 0.  1.
        -11    1    3    3    0    0  0.21376777206E+01  0.22097528116E+03  0.35034303041E+03  0.41421598654E+03  0.00000000000E+00 0. -1.
         22    1    1    2    0    0 -0.68173947786E+02 -0.33969293275E+03 -0.30925913797E+03  0.46441381346E+03  0.00000000000E+00 0.  1.
<mgrwt>
<rscale>  0 0.10795128E+04</rscale>
<asrwt>0</asrwt>
<pdfrwt beam="1">  1        2 0.10142595E+00 0.10795128E+04</pdfrwt>
<pdfrwt beam="2">  1       -2 0.67986051E-01 0.10795128E+04</pdfrwt>
<totfact> 0.87054018E+01</totfact>
</mgrwt>
</event>
<event>
 6    1  0.1637818E-005  0.2332293E+04  0.7818608E-02  0.8465296E-01
          2   -1    0    0  501    0  0.00000000000E+00  0.00000000000E+00  0.30149627705E+04  0.30149627705E+04  0.00000000000E+00 0. -1.
         -2   -1    0    0    0  501 -0.00000000000E+00 -0.00000000000E+00 -0.45104965983E+03  0.45104965983E+03  0.00000000000E+00 0.  1.
         23    2    1    2    0    0  0.27313172692E+03  0.25582815249E+02  0.29655691777E+04  0.29796144278E+04  0.90808425036E+02 0.  0.
         13    1    3    3    0    0  0.13133076183E+03  0.23711952396E+02  0.18950031130E+04  0.18996965084E+04  0.00000000000E+00 0.  1.
        -13    1    3    3    0    0  0.14180096509E+03  0.18708628529E+01  0.10705660647E+04  0.10799179194E+04  0.00000000000E+00 0. -1.
         22    1    1    2    0    0 -0.27313172692E+03 -0.25582815249E+02 -0.40165606701E+03  0.48639800252E+03  0.00000000000E+00 0.  1.
<mgrwt>
<rscale>  0 0.23322932E+04</rscale>
<asrwt>0</asrwt>
<pdfrwt beam="1">  1        2 0.46384041E+00 0.23322932E+04</pdfrwt>
<pdfrwt beam="2">  1       -2 0.69392257E-01 0.23322932E+04</pdfrwt>
<totfact> 0.29212215E+00</totfact>
</mgrwt>
</event>
<event>
 6    1  0.1637818E-005  0.8216450E+03  0.7818608E-02  0.9529205E-01
          2   -1    0    0  501    0  0.00000000000E+00  0.00000000000E+00  0.11211023970E+03  0.11211023970E+03  0.00000000000E+00 0. -1.
         -2   -1    0    0    0  501 -0.00000000000E+00 -0.00000000000E+00 -0.15054388458E+04  0.15054388458E+04  0.00000000000E+00 0.  1.
         23    2    1    2    0    0 -0.20788164906E+03 -0.27748716587E+03 -0.11133886766E+04  0.11719256219E+04  0.11645346988E+03 0.  0.
         13    1    3    3    0    0 -0.98095182092E+02 -0.19398157708E+03 -0.80985573391E+03  0.83852121424E+03  0.00000000000E+00 0.  1.
        -13    1    3    3    0    0 -0.10978646697E+03 -0.83505588791E+02 -0.30353294274E+03  0.33340440761E+03  0.00000000000E+00 0. -1.
         22    1    1    2    0    0  0.20788164906E+03  0.27748716587E+03 -0.27993992944E+03  0.44562346363E+03  0.00000000000E+00 0. -1.
<mgrwt>
<rscale>  0 0.82164496E+03</rscale>
<asrwt>0</asrwt>
<pdfrwt beam="1">  1        2 0.17247730E-01 0.82164496E+03</pdfrwt>
<pdfrwt beam="2">  1       -2 0.23160596E+00 0.82164496E+03</pdfrwt>
<totfact> 0.28808093E+01</totfact>
</mgrwt>
</event>
<event>
 6    1  0.1637818E-005  0.2710742E+04  0.7818608E-02  0.8331528E-01
          2   -1    0    0  501    0  0.00000000000E+00  0.00000000000E+00  0.16662000543E+04  0.16662000543E+04  0.00000000000E+00 0.  1.
         -2   -1    0    0    0  501 -0.00000000000E+00 -0.00000000000E+00 -0.11025273638E+04  0.11025273638E+04  0.00000000000E+00 0. -1.
         23    2    1    2    0    0  0.12549640559E+04 -0.50737039739E+03  0.26296463890E+03  0.13820822457E+04  0.92959297950E+02 0.  0.
         11    1    3    3    0    0  0.47492722777E+03 -0.23533106251E+03  0.12426799375E+03  0.54440712241E+03  0.00000000000E+00 0. -1.
        -11    1    3    3    0    0  0.78003682808E+03 -0.27203933488E+03  0.13869664514E+03  0.83767512334E+03  0.00000000000E+00 0.  1.
         22    1    1    2    0    0 -0.12549640559E+04  0.50737039739E+03  0.30070805163E+03  0.13866451723E+04  0.00000000000E+00 0.  1.
<mgrwt>
<rscale>  0 0.27107424E+04</rscale>
<asrwt>0</asrwt>
<pdfrwt beam="1">  1        2 0.25633847E+00 0.27107424E+04</pdfrwt>
<pdfrwt beam="2">  1       -2 0.16961959E+00 0.27107424E+04</pdfrwt>
<totfact> 0.19255822E+00</totfact>
</mgrwt>
</event>
<event>
 6    1  0.1637818E-005  0.2697207E+04  0.7818608E-02  0.8335912E-01
          2   -1    0    0  501    0  0.00000000000E+00  0.00000000000E+00  0.29847714816E+04  0.29847714816E+04  0.00000000000E+00 0. -1.
         -2   -1    0    0    0  501 -0.00000000000E+00 -0.00000000000E+00 -0.60933698872E+03  0.60933698872E+03  0.00000000000E+00 0.  1.
         23    2    1    2    0    0  0.18821027147E+03  0.12409368203E+04  0.18409056988E+04  0.22298986881E+04  0.90371835430E+02 0.  0.
         13    1    3    3    0    0  0.67574922502E+02  0.74000842365E+03  0.10959215835E+04  0.13240932574E+04  0.00000000000E+00 0.  1.
        -13    1    3    3    0    0  0.12063534897E+03  0.50092839667E+03  0.74498411536E+03  0.90580543063E+03  0.00000000000E+00 0. -1.
         22    1    1    2    0    0 -0.18821027147E+03 -0.12409368203E+04  0.53452879400E+03  0.13642097822E+04  0.00000000000E+00 0. -1.
<mgrwt>
<rscale>  0 0.26972072E+04</rscale>
<asrwt>0</asrwt>
<pdfrwt beam="1">  1        2 0.45919561E+00 0.26972072E+04</pdfrwt>
<pdfrwt beam="2">  1       -2 0.93744153E-01 0.26972072E+04</pdfrwt>
<totfact> 0.15011189E+00</totfact>
</mgrwt>
</event>
<event>
 6    1  0.1637818E-005  0.2462147E+04  0.7818608E-02  0.8416596E-01
          2   -1    0    0  501    0  0.00000000000E+00  0.00000000000E+00  0.10936059048E+04  0.10936059048E+04  0.00000000000E+00 0. -1.
         -2   -1    0    0    0  501 -0.00000000000E+00 -0.00000000000E+00 -0.13858208645E+04  0.13858208645E+04  0.00000000000E+00 0.  1.
         23    2    1    2    0    0  0.11162082608E+04 -0.34242647283E+03  0.24156490929E+03  0.11956441868E+04  0.89636182377E+02 0.  0.
         13    1    3    3    0    0  0.43741273572E+03 -0.10230069022E+03  0.12471911072E+03  0.46620831092E+03  0.00000000000E+00 0.  1.
        -13    1    3    3    0    0  0.67879552508E+03 -0.24012578260E+03  0.11684579856E+03  0.72943587586E+03  0.00000000000E+00 0. -1.
         22    1    1    2    0    0 -0.11162082608E+04  0.34242647283E+03 -0.53377986896E+03  0.12837825826E+04  0.00000000000E+00 0. -1.
<mgrwt>
<rscale>  0 0.24621469E+04</rscale>
<asrwt>0</asrwt>
<pdfrwt beam="1">  1        2 0.16824706E+00 0.24621469E+04</pdfrwt>
<pdfrwt beam="2">  1       -2 0.21320321E+00 0.24621469E+04</pdfrwt>
<totfact> 0.21477603E+00</totfact>
</mgrwt>
</event>
<event>
 6    1  0.1637818E-005  0.3306752E+04  0.7818608E-02  0.8161179E-01
          2   -1    0    0  501    0  0.00000000000E+00  0.00000000000E+00  0.25805638449E+04  0.25805638449E+04  0.00000000000E+00 0. -1.
         -2   -1    0    0    0  501 -0.00000000000E+00 -0.00000000000E+00 -0.10593239187E+04  0.10593239187E+04  0.00000000000E+00 0.  1.
         23    2    1    2    0    0 -0.16144790696E+04  0.28369710848E+03  0.98678154628E+03  0.19157437802E+04  0.96486764560E+02 0.  0.
         11    1    3    3    0    0 -0.11577281628E+04  0.23169775370E+03  0.67105402951E+03  0.13580618021E+04  0.00000000000E+00 0.  1.
        -11    1    3    3    0    0 -0.45675090683E+03  0.51999354778E+02  0.31572751677E+03  0.55768197805E+03  0.00000000000E+00 0. -1.
         22    1    1    2    0    0  0.16144790696E+04 -0.28369710848E+03  0.53445837992E+03  0.17241439834E+04  0.00000000000E+00 0. -1.
<mgrwt>
<rscale>  0 0.33067525E+04</rscale>
<asrwt>0</asrwt>
<pdfrwt beam="1">  1        2 0.39700982E+00 0.33067525E+04</pdfrwt>
<pdfrwt beam="2">  1       -2 0.16297291E+00 0.33067525E+04</pdfrwt>
<totfact> 0.62451512E-01</totfact>
</mgrwt>
</event>
<event>
 6    1  0.1637818E-005  0.5525699E+04  0.7818608E-02  0.7752163E-01
         -2   -1    0    0    0  501 -0.00000000000E+00  0.00000000000E+00  0.18765850455E+04  0.18765850455E+04  0.00000000000E+00 0.  1.
          2   -1    0    0  501    0  0.00000000000E+00 -0.00000000000E+00 -0.40676751386E+04  0.40676751386E+04  0.00000000000E+00 0. -1.
         23    2    1    2    0    0  0.42690399242E+03  0.70289692836E+03  0.17406217009E+04  0.19274618644E+04  0.95048526204E+02 0.  0.
         11    1    3    3    0    0  0.20513228933E+03  0.25328615103E+03  0.65047292876E+03  0.72756316666E+03  0.00000000000E+00 0. -1.
        -11    1    3    3    0    0  0.22177170309E+03  0.44961077732E+03  0.10901487721E+04  0.11998986977E+04  0.00000000000E+00 0.  1.
         22    1    1    2    0    0 -0.42690399242E+03 -0.70289692836E+03 -0.39317117939E+04  0.40167983197E+04  0.00000000000E+00 0. -1.
<mgrwt>
<rscale>  0 0.55256994E+04</rscale>
<asrwt>0</asrwt>
<pdfrwt beam="1">  1        2 0.62579617E+00 0.55256994E+04</pdfrwt>
<pdfrwt beam="2">  1       -2 0.28870539E+00 0.55256994E+04</pdfrwt>
<totfact> 0.77913552E-03</totfact>
</mgrwt>
</event>
<event>
 6    1  0.1637818E-005  0.3264174E+04  0.7818608E-02  0.8172072E-01
          2   -1    0    0  501    0  0.00000000000E+00  0.00000000000E+00  0.16131440136E+04  0.16131440136E+04  0.00000000000E+00 0. -1.
         -2   -1    0    0    0  501 -0.00000000000E+00 -0.00000000000E+00 -0.16512527933E+04  0.16512527933E+04  0.00000000000E+00 0.  1.
         23    2    1    2    0    0  0.11083102995E+04  0.10207016485E+04  0.60505767857E+03  0.16261518104E+04  0.89951879720E+02 0.  0.
         13    1    3    3    0    0  0.81371346370E+03  0.80169144830E+03  0.46083006786E+03  0.12317479981E+04  0.00000000000E+00 0.  1.
        -13    1    3    3    0    0  0.29459683582E+03  0.21901020025E+03  0.14422761071E+03  0.39440381232E+03  0.00000000000E+00 0. -1.
         22    1    1    2    0    0 -0.11083102995E+04 -0.10207016485E+04 -0.64316645829E+03  0.16382449965E+04  0.00000000000E+00 0.  1.
<mgrwt>
<rscale>  0 0.32641744E+04</rscale>
<asrwt>0</asrwt>
<pdfrwt beam="1">  1        2 0.24817600E+00 0.32641744E+04</pdfrwt>
<pdfrwt beam="2">  1       -2 0.25403889E+00 0.32641744E+04</pdfrwt>
<totfact> 0.55742534E-01</totfact>
</mgrwt>
</event>
<event>
 6    1  0.1637818E-005  0.5129417E+03  0.7818608E-02  0.1010455E+00
          2   -1    0    0  501    0  0.00000000000E+00  0.00000000000E+00  0.14203080343E+04  0.14203080343E+04  0.00000000000E+00 0. -1.
         -2   -1    0    0    0  501 -0.00000000000E+00 -0.00000000000E+00 -0.46311986264E+02  0.46311986264E+02  0.00000000000E+00 0.  1.
         23    2    1    2    0    0  0.10326901778E+03  0.54866008553E+02  0.13352372681E+04  0.13434250046E+04  0.90870303681E+02 0.  0.
         11    1    3    3    0    0  0.89946410922E+02  0.10802215419E+02  0.11001105051E+04  0.11038343028E+04  0.00000000000E+00 0.  1.
        -11    1    3    3    0    0  0.13322606856E+02  0.44063793135E+02  0.23512676300E+03  0.23959070182E+03  0.00000000000E+00 0. -1.
         22    1    1    2    0    0 -0.10326901778E+03 -0.54866008553E+02  0.38758779969E+02  0.12319501594E+03  0.00000000000E+00 0.  1.
<mgrwt>
<rscale>  0 0.51294166E+03</rscale>
<asrwt>0</asrwt>
<pdfrwt beam="1">  1        2 0.21850890E+00 0.51294166E+03</pdfrwt>
<pdfrwt beam="2">  1       -2 0.71249220E-02 0.51294166E+03</pdfrwt>
<totfact> 0.16961905E+03</totfact>
</mgrwt>
</event>
<event>
 6    1  0.1637818E-005  0.4218728E+04  0.7818608E-02  0.7961819E-01
         -1   -1    0    0    0  501 -0.00000000000E+00  0.00000000000E+00  0.22030341383E+04  0.22030341383E+04  0.00000000000E+00 0.  1.
          1   -1    0    0  501    0  0.00000000000E+00 -0.00000000000E+00 -0.20196762737E+04  0.20196762737E+04  0.00000000000E+00 0. -1.
         23    2    1    2    0    0 -0.11119522344E+04 -0.16039449520E+04 -0.70656695592E+03  0.20777061307E+04  0.92459296403E+02 0.  0.
         11    1    3    3    0    0 -0.92539491620E+03 -0.13129035605E+04 -0.54585866773E+03  0.16964767005E+04  0.00000000000E+00 0. -1.
        -11    1    3    3    0    0 -0.18655731825E+03 -0.29104139148E+03 -0.16070828819E+03  0.38122943019E+03  0.00000000000E+00 0.  1.
         22    1    1    2    0    0  0.11119522344E+04  0.16039449520E+04  0.88992482044E+03  0.21450042813E+04  0.00000000000E+00 0.  1.
<mgrwt>
<rscale>  0 0.42187277E+04</rscale>
<asrwt>0</asrwt>
<pdfrwt beam="1">  1        1 0.31071943E+00 0.42187277E+04</pdfrwt>
<pdfrwt beam="2">  1       -1 0.33892833E+00 0.42187277E+04</pdfrwt>
<totfact> 0.40851212E-02</totfact>
</mgrwt>
</event>
<event>
 6    1  0.1637818E-005  0.2442899E+04  0.7818608E-02  0.8423615E-01
         -1   -1    0    0    0  501 -0.00000000000E+00  0.00000000000E+00  0.11077107545E+04  0.11077107545E+04  0.00000000000E+00 0.  1.
          1   -1    0    0  501    0  0.00000000000E+00 -0.00000000000E+00 -0.13468664367E+04  0.13468664367E+04  0.00000000000E+00 0. -1.
         23    2    1    2    0    0  0.97887471133E+02 -0.46104294403E+03 -0.12501065176E+04  0.13391561295E+04  0.91816559045E+02 0.  0.
         13    1    3    3    0    0  0.40261884279E+02 -0.13805945643E+03 -0.27495486123E+03  0.31029277876E+03  0.00000000000E+00 0.  1.
        -13    1    3    3    0    0  0.57625586853E+02 -0.32298348760E+03 -0.97515165638E+03  0.10288633507E+04  0.00000000000E+00 0. -1.
         22    1    1    2    0    0 -0.97887471133E+02  0.46104294403E+03  0.10109508355E+04  0.11154210617E+04  0.00000000000E+00 0.  1.
<mgrwt>
<rscale>  0 0.24428986E+04</rscale>
<asrwt>0</asrwt>
<pdfrwt beam="1">  1        1 0.20721022E+00 0.24428986E+04</pdfrwt>
<pdfrwt beam="2">  1       -1 0.17041704E+00 0.24428986E+04</pdfrwt>
<totfact> 0.18273035E+00</totfact>
</mgrwt>
</event>
<event>
 6    1  0.1637818E-005  0.2448796E+04  0.7818608E-02  0.8421458E-01
         -1   -1    0    0    0  501 -0.00000000000E+00  0.00000000000E+00  0.57140021349E+03  0.57140021349E+03  0.00000000000E+00 0.  1.
          1   -1    0    0  501    0  0.00000000000E+00 -0.00000000000E+00 -0.26236427879E+04  0.26236427879E+04  0.00000000000E+00 0. -1.
         23    2    1    2    0    0  0.24915303292E+03  0.29689011791E+03 -0.25405846399E+04  0.25715857463E+04  0.90895334835E+02 0.  0.
         13    1    3    3    0    0  0.39404657901E+02  0.31104828675E+02 -0.56230286558E+03  0.56453941410E+03  0.00000000000E+00 0. -1.
        -13    1    3    3    0    0  0.20974837502E+03  0.26578528923E+03 -0.19782817743E+04  0.20070463322E+04  0.00000000000E+00 0.  1.
         22    1    1    2    0    0 -0.24915303292E+03 -0.29689011791E+03  0.48834206555E+03  0.62345725508E+03  0.00000000000E+00 0.  1.
<mgrwt>
<rscale>  0 0.24487957E+04</rscale>
<asrwt>0</asrwt>
<pdfrwt beam="1">  1        1 0.40363735E+00 0.24487957E+04</pdfrwt>
<pdfrwt beam="2">  1       -1 0.87907725E-01 0.24487957E+04</pdfrwt>
<totfact> 0.12605503E+00</totfact>
</mgrwt>
</event>
<event>
 6    1  0.1637818E-005  0.1991317E+04  0.7818608E-02  0.8610691E-01
          1   -1    0    0  501    0  0.00000000000E+00  0.00000000000E+00  0.22957038657E+04  0.22957038657E+04  0.00000000000E+00 0. -1.
         -1   -1    0    0    0  501 -0.00000000000E+00 -0.00000000000E+00 -0.43182227021E+03  0.43182227021E+03  0.00000000000E+00 0.  1.
         23    2    1    2    0    0  0.46051245731E+02  0.34464305483E+03  0.22086846668E+04  0.22378438812E+04  0.93582727357E+02 0.  0.
         11    1    3    3    0    0  0.24786881454E+02  0.30945251190E+03  0.20714065945E+04  0.20945406481E+04  0.00000000000E+00 0.  1.
        -11    1    3    3    0    0  0.21264364278E+02  0.35190542931E+02  0.13727807228E+03  0.14330323315E+03  0.00000000000E+00 0. -1.
         22    1    1    2    0    0 -0.46051245731E+02 -0.34464305483E+03 -0.34480307138E+03  0.48968225463E+03  0.00000000000E+00 0.  1.
<mgrwt>
<rscale>  0 0.19913172E+04</rscale>
<asrwt>0</asrwt>
<pdfrwt beam="1">  1        1 0.35318520E+00 0.19913172E+04</pdfrwt>
<pdfrwt beam="2">  1       -1 0.66434197E-01 0.19913172E+04</pdfrwt>
<totfact> 0.39945920E+00</totfact>
</mgrwt>
</event>
<event>
 6    1  0.1637818E-005  0.2434682E+04  0.7818608E-02  0.8426632E-01
         -2   -1    0    0    0  501 -0.00000000000E+00  0.00000000000E+00  0.17588890797E+04  0.17588890797E+04  0.00000000000E+00 0.  1.
          2   -1    0    0  501    0  0.00000000000E+00 -0.00000000000E+00 -0.84253118521E+03  0.84253118521E+03  0.00000000000E+00 0. -1.
         23    2    1    2    0    0 -0.48434320877E+03 -0.66483950896E+03 -0.49799155123E+03  0.96527104460E+03  0.84573565010E+02 0.  0.
         13    1    3    3    0    0 -0.19791647933E+03 -0.30368592858E+03 -0.26326486012E+03  0.44800051627E+03  0.00000000000E+00 0.  1.
        -13    1    3    3    0    0 -0.28642672943E+03 -0.36115358038E+03 -0.23472669111E+03  0.51727052833E+03  0.00000000000E+00 0. -1.
         22    1    1    2    0    0  0.48434320877E+03  0.66483950896E+03  0.14143494458E+04  0.16361492204E+04  0.00000000000E+00 0.  1.
<mgrwt>
<rscale>  0 0.24346818E+04</rscale>
<asrwt>0</asrwt>
<pdfrwt beam="1">  1        2 0.12962018E+00 0.24346818E+04</pdfrwt>
<pdfrwt beam="2">  1       -2 0.27059832E+00 0.24346818E+04</pdfrwt>
<totfact> 0.13843298E+00</totfact>
</mgrwt>
</event>
<event>
 6    1  0.1637818E-005  0.2133298E+04  0.7818608E-02  0.8546716E-01
         -1   -1    0    0    0  501 -0.00000000000E+00  0.00000000000E+00  0.81187806930E+03  0.81187806930E+03  0.00000000000E+00 0.  1.
          1   -1    0    0  501    0  0.00000000000E+00 -0.00000000000E+00 -0.14013680045E+04  0.14013680045E+04  0.00000000000E+00 0. -1.
         23    2    1    2    0    0 -0.98921288552E+03  0.45137284215E+02  0.11036065196E+03  0.10006577877E+04  0.92504201009E+02 0.  0.
         11    1    3    3    0    0 -0.67962105021E+03 -0.46971322776E+01  0.51330275115E+02  0.68157291032E+03  0.00000000000E+00 0. -1.
        -11    1    3    3    0    0 -0.30959183531E+03  0.49834416493E+02  0.59030376844E+02  0.31908487734E+03  0.00000000000E+00 0.  1.
         22    1    1    2    0    0  0.98921288552E+03 -0.45137284215E+02 -0.69985058714E+03  0.12125882861E+04  0.00000000000E+00 0.  1.
<mgrwt>
<rscale>  0 0.21332979E+04</rscale>
<asrwt>0</asrwt>
<pdfrwt beam="1">  1        1 0.21559508E+00 0.21332979E+04</pdfrwt>
<pdfrwt beam="2">  1       -1 0.12490432E+00 0.21332979E+04</pdfrwt>
<totfact> 0.39417282E+00</totfact>
</mgrwt>
</event>
<event>
 6    1  0.1637818E-005  0.1281379E+04  0.7818608E-02  0.9044464E-01
          1   -1    0    0  501    0  0.00000000000E+00  0.00000000000E+00  0.28947453827E+04  0.28947453827E+04  0.00000000000E+00 0. -1.
         -1   -1    0    0    0  501 -0.00000000000E+00 -0.00000000000E+00 -0.14180276655E+03  0.14180276655E+03  0.00000000000E+00 0.  1.
         23    2    1    2    0    0  0.12460872426E+03  0.22289984528E+03  0.27674614584E+04  0.27807699798E+04  0.92882084107E+02 0.  0.
         13    1    3    3    0    0  0.76641544923E+02  0.54004890895E+02  0.11466477787E+04  0.11504745035E+04  0.00000000000E+00 0. -1.
        -13    1    3    3    0    0  0.47967179336E+02  0.16889495438E+03  0.16208136796E+04  0.16302954763E+04  0.00000000000E+00 0.  1.
         22    1    1    2    0    0 -0.12460872426E+03 -0.22289984528E+03 -0.14518842264E+02  0.25577816945E+03  0.00000000000E+00 0.  1.
<mgrwt>
<rscale>  0 0.12813788E+04</rscale>
<asrwt>0</asrwt>
<pdfrwt beam="1">  1        1 0.44534540E+00 0.12813788E+04</pdfrwt>
<pdfrwt beam="2">  1       -1 0.21815812E-01 0.12813788E+04</pdfrwt>
<totfact> 0.12504280E+01</totfact>
</mgrwt>
</event>
<event>
 6    1  0.1637818E-005  0.3501503E+04  0.7818608E-02  0.8113434E-01
          2   -1    0    0  501    0  0.00000000000E+00  0.00000000000E+00  0.15564661529E+04  0.15564661529E+04  0.00000000000E+00 0. -1.
         -2   -1    0    0    0  501 -0.00000000000E+00 -0.00000000000E+00 -0.19692889245E+04  0.19692889245E+04  0.00000000000E+00 0.  1.
         23    2    1    2    0    0 -0.81519481294E+03 -0.14525756294E+04  0.33251403303E+03  0.17009138529E+04  0.89575725130E+02 0.  0.
         11    1    3    3    0    0 -0.26293960874E+03 -0.52301100829E+03  0.15096583587E+03  0.60453985496E+03  0.00000000000E+00 0. -1.
        -11    1    3    3    0    0 -0.55225520420E+03 -0.92956462114E+03  0.18154819716E+03  0.10963739979E+04  0.00000000000E+00 0.  1.
         22    1    1    2    0    0  0.81519481294E+03  0.14525756294E+04 -0.74533680461E+03  0.18248412245E+04  0.00000000000E+00 0.  1.
<mgrwt>
<rscale>  0 0.35015034E+04</rscale>
<asrwt>0</asrwt>
<pdfrwt beam="1">  1        2 0.23945633E+00 0.35015034E+04</pdfrwt>
<pdfrwt beam="2">  1       -2 0.30296753E+00 0.35015034E+04</pdfrwt>
<totfact> 0.29540007E-01</totfact>
</mgrwt>
</event>
<event>
 6    1  0.1637818E-005  0.1173736E+04  0.7818608E-02  0.9136162E-01
          2   -1    0    0  501    0  0.00000000000E+00  0.00000000000E+00  0.13304039384E+04  0.13304039384E+04  0.00000000000E+00 0. -1.
         -2   -1    0    0    0  501 -0.00000000000E+00 -0.00000000000E+00 -0.25887910231E+03  0.25887910231E+03  0.00000000000E+00 0.  1.
         23    2    1    2    0    0 -0.64936725229E+02 -0.32468036287E+03 -0.11149958162E+03  0.36079580462E+03  0.90040766414E+02 0.  0.
         13    1    3    3    0    0 -0.77162874533E+02 -0.18208135156E+03 -0.84956128317E+02  0.21523306328E+03  0.00000000000E+00 0.  1.
        -13    1    3    3    0    0  0.12226149304E+02 -0.14259901131E+03 -0.26543453304E+02  0.14556274134E+03  0.00000000000E+00 0. -1.
         22    1    1    2    0    0  0.64936725229E+02  0.32468036287E+03  0.11830244177E+04  0.12284872361E+04  0.00000000000E+00 0. -1.
<mgrwt>
<rscale>  0 0.11737355E+04</rscale>
<asrwt>0</asrwt>
<pdfrwt beam="1">  1        2 0.20467752E+00 0.11737355E+04</pdfrwt>
<pdfrwt beam="2">  1       -2 0.39827555E-01 0.11737355E+04</pdfrwt>
<totfact> 0.93504487E+01</totfact>
</mgrwt>
</event>
<event>
 6    1  0.1637818E-005  0.2695850E+04  0.7818608E-02  0.8336353E-01
         -2   -1    0    0    0  501 -0.00000000000E+00  0.00000000000E+00  0.12174995858E+04  0.12174995858E+04  0.00000000000E+00 0.  1.
          2   -1    0    0  501    0  0.00000000000E+00 -0.00000000000E+00 -0.14923221366E+04  0.14923221366E+04  0.00000000000E+00 0. -1.
         23    2    1    2    0    0  0.60443515139E+03  0.33469824835E+03  0.10240060689E+04  0.12386587291E+04  0.91226358335E+02 0.  0.
         13    1    3    3    0    0  0.56840498576E+03  0.29712720264E+03  0.97578496774E+03  0.11677007774E+04  0.00000000000E+00 0. -1.
        -13    1    3    3    0    0  0.36030165635E+02  0.37571045716E+02  0.48221101139E+02  0.70957951682E+02  0.00000000000E+00 0.  1.
         22    1    1    2    0    0 -0.60443515139E+03 -0.33469824835E+03 -0.12988286196E+04  0.14711629933E+04  0.00000000000E+00 0. -1.
<mgrwt>
<rscale>  0 0.26958498E+04</rscale>
<asrwt>0</asrwt>
<pdfrwt beam="1">  1        2 0.22958802E+00 0.26958498E+04</pdfrwt>
<pdfrwt beam="2">  1       -2 0.18730763E+00 0.26958498E+04</pdfrwt>
<totfact> 0.18187294E+00</totfact>
</mgrwt>
</event>
<event>
 6    1  0.1637818E-005  0.9350882E+03  0.7818608E-02  0.9382752E-01
          1   -1    0    0  501    0  0.00000000000E+00  0.00000000000E+00  0.27259732894E+03  0.27259732894E+03  0.00000000000E+00 0. -1.
         -1   -1    0    0    0  501 -0.00000000000E+00 -0.00000000000E+00 -0.80190614039E+03  0.80190614039E+03  0.00000000000E+00 0.  1.
         23    2    1    2    0    0 -0.22663658875E+03 -0.33060935397E+03 -0.53381597687E+03  0.67364563564E+03  0.90400536353E+02 0.  0.
         13    1    3    3    0    0 -0.73344274262E+02 -0.53577257623E+02 -0.15789859052E+03  0.18215891411E+03  0.00000000000E+00 0.  1.
        -13    1    3    3    0    0 -0.15329231449E+03 -0.27703209635E+03 -0.37591738634E+03  0.49148672153E+03  0.00000000000E+00 0. -1.
         22    1    1    2    0    0  0.22663658875E+03  0.33060935397E+03  0.45071654138E+01  0.40085783369E+03  0.00000000000E+00 0. -1.
<mgrwt>
<rscale>  0 0.93508817E+03</rscale>
<asrwt>0</asrwt>
<pdfrwt beam="1">  1        1 0.41938051E-01 0.93508817E+03</pdfrwt>
<pdfrwt beam="2">  1       -1 0.12337017E+00 0.93508817E+03</pdfrwt>
<totfact> 0.57823448E+01</totfact>
</mgrwt>
</event>
<event>
 6    1  0.1637818E-005  0.3193875E+04  0.7818608E-02  0.8190437E-01
          2   -1    0    0  501    0  0.00000000000E+00  0.00000000000E+00  0.29764198569E+04  0.29764198569E+04  0.00000000000E+00 0. -1.
         -2   -1    0    0    0  501 -0.00000000000E+00 -0.00000000000E+00 -0.85680420550E+03  0.85680420550E+03  0.00000000000E+00 0.  1.
         23    2    1    2    0    0 -0.14008487728E+03 -0.15872867811E+04  0.11649242820E+04  0.19756614904E+04  0.84182203055E+02 0.  0.
         13    1    3    3    0    0 -0.34421685217E+02 -0.51968112144E+03  0.33440984878E+03  0.61893720793E+03  0.00000000000E+00 0.  1.
        -13    1    3    3    0    0 -0.10566319206E+03 -0.10676056597E+04  0.83051443325E+03  0.13567242824E+04  0.00000000000E+00 0. -1.
         22    1    1    2    0    0  0.14008487728E+03  0.15872867811E+04  0.95469136939E+03  0.18575625721E+04  0.00000000000E+00 0.  1.
<mgrwt>
<rscale>  0 0.31938748E+04</rscale>
<asrwt>0</asrwt>
<pdfrwt beam="1">  1        2 0.45791074E+00 0.31938748E+04</pdfrwt>
<pdfrwt beam="2">  1       -2 0.13181603E+00 0.31938748E+04</pdfrwt>
<totfact> 0.63585525E-01</totfact>
</mgrwt>
</event>
<event>
 6    1  0.1637818E-005  0.3400020E+04  0.7818608E-02  0.8137901E-01
         -1   -1    0    0    0  501 -0.00000000000E+00  0.00000000000E+00  0.13458666535E+04  0.13458666535E+04  0.00000000000E+00 0.  1.
          1   -1    0    0  501    0  0.00000000000E+00 -0.00000000000E+00 -0.21473400604E+04  0.21473400604E+04  0.00000000000E+00 0. -1.
         23    2    1    2    0    0 -0.12050114804E+04 -0.54462146645E+03 -0.14964757983E+04  0.19993213321E+04  0.95816304921E+02 0.  0.
         11    1    3    3    0    0 -0.10753639828E+04 -0.51382481968E+03 -0.13248136910E+04  0.17820086859E+04  0.00000000000E+00 0. -1.
        -11    1    3    3    0    0 -0.12964749765E+03 -0.30796646769E+02 -0.17166210738E+03  0.21731264623E+03  0.00000000000E+00 0.  1.
         22    1    1    2    0    0  0.12050114804E+04  0.54462146645E+03  0.69500239147E+03  0.14938853817E+04  0.00000000000E+00 0.  1.
<mgrwt>
<rscale>  0 0.34000196E+04</rscale>
<asrwt>0</asrwt>
<pdfrwt beam="1">  1        1 0.33036001E+00 0.34000196E+04</pdfrwt>
<pdfrwt beam="2">  1       -1 0.20705641E+00 0.34000196E+04</pdfrwt>
<totfact> 0.26208783E-01</totfact>
</mgrwt>
</event>
<event>
 6    1  0.1637818E-005  0.2893915E+04  0.7818608E-02  0.8274690E-01
         -2   -1    0    0    0  501 -0.00000000000E+00  0.00000000000E+00  0.96500950860E+03  0.96500950860E+03  0.00000000000E+00 0. -1.
          2   -1    0    0  501    0  0.00000000000E+00 -0.00000000000E+00 -0.21696008566E+04  0.21696008566E+04  0.00000000000E+00 0.  1.
         23    2    1    2    0    0  0.89004840403E+02 -0.14017878674E+04 -0.23276556839E+03  0.14265774520E+04  0.89511619107E+02 0.  0.
         13    1    3    3    0    0  0.79584354351E+00 -0.71863591988E+03 -0.11935023379E+03  0.72847971627E+03  0.00000000000E+00 0. -1.
        -13    1    3    3    0    0  0.88208996859E+02 -0.68315194750E+03 -0.11341533459E+03  0.69809773572E+03  0.00000000000E+00 0.  1.
         22    1    1    2    0    0 -0.89004840403E+02  0.14017878674E+04 -0.97182577965E+03  0.17080329133E+04  0.00000000000E+00 0.  1.
<mgrwt>
<rscale>  0 0.28939146E+04</rscale>
<asrwt>0</asrwt>
<pdfrwt beam="1">  1        2 0.33378474E+00 0.28939146E+04</pdfrwt>
<pdfrwt beam="2">  1       -2 0.14846300E+00 0.28939146E+04</pdfrwt>
<totfact> 0.14280356E+00</totfact>
</mgrwt>
</event>
<event>
 6    1  0.1637818E-005  0.2350308E+04  0.7818608E-02  0.8458345E-01
          1   -1    0    0  501    0  0.00000000000E+00  0.00000000000E+00  0.22382940387E+04  0.22382940387E+04  0.00000000000E+00 0. -1.
         -1   -1    0    0    0  501 -0.00000000000E+00 -0.00000000000E+00 -0.61698179886E+03  0.61698179886E+03  0.00000000000E+00 0.  1.
         23    2    1    2    0    0  0.34482661425E+03 -0.10306215127E+04  0.13495009473E+04  0.17350225291E+04  0.89801300361E+02 0.  0.
         13    1    3    3    0    0  0.25669892191E+03 -0.86841085454E+03  0.11049199516E+04  0.14285936610E+04  0.00000000000E+00 0.  1.
        -13    1    3    3    0    0  0.88127692340E+02 -0.16221065814E+03  0.24458099567E+03  0.30642886811E+03  0.00000000000E+00 0. -1.
         22    1    1    2    0    0 -0.34482661425E+03  0.10306215127E+04  0.27181129256E+03  0.11202533084E+04  0.00000000000E+00 0.  1.
<mgrwt>
<rscale>  0 0.23503078E+04</rscale>
<asrwt>0</asrwt>
<pdfrwt beam="1">  1        1 0.34435293E+00 0.23503078E+04</pdfrwt>
<pdfrwt beam="2">  1       -1 0.94920278E-01 0.23503078E+04</pdfrwt>
<totfact> 0.19799649E+00</totfact>
</mgrwt>
</event>
<event>
 6    1  0.1637818E-005  0.2654946E+04  0.7818608E-02  0.8349773E-01
         -2   -1    0    0    0  501 -0.00000000000E+00  0.00000000000E+00  0.97428335425E+03  0.97428335425E+03  0.00000000000E+00 0. -1.
          2   -1    0    0  501    0  0.00000000000E+00 -0.00000000000E+00 -0.18086980902E+04  0.18086980902E+04  0.00000000000E+00 0.  1.
         23    2    1    2    0    0  0.60483208072E+03 -0.16562263373E+03 -0.16423940804E+04  0.17601992957E+04  0.87123719124E+02 0.  0.
         11    1    3    3    0    0  0.47540217529E+03 -0.11807614364E+03 -0.11785757858E+04  0.12763189597E+04  0.00000000000E+00 0. -1.
        -11    1    3    3    0    0  0.12942990543E+03 -0.47546490085E+02 -0.46381829462E+03  0.48388033599E+03  0.00000000000E+00 0.  1.
         22    1    1    2    0    0 -0.60483208072E+03  0.16562263373E+03  0.80797934449E+03  0.10227821487E+04  0.00000000000E+00 0. -1.
<mgrwt>
<rscale>  0 0.26549459E+04</rscale>
<asrwt>0</asrwt>
<pdfrwt beam="1">  1        2 0.27826124E+00 0.26549459E+04</pdfrwt>
<pdfrwt beam="2">  1       -2 0.14988975E+00 0.26549459E+04</pdfrwt>
<totfact> 0.22560726E+00</totfact>
</mgrwt>
</event>
<event>
 6    1  0.1637818E-005  0.1634206E+04  0.7818608E-02  0.8799805E-01
         -1   -1    0    0    0  501 -0.00000000000E+00  0.00000000000E+00  0.17318826630E+04  0.17318826630E+04  0.00000000000E+00 0.  1.
          1   -1    0    0  501    0  0.00000000000E+00 -0.00000000000E+00 -0.38550958963E+03  0.38550958963E+03  0.00000000000E+00 0. -1.
         23    2    1    2    0    0  0.72735340802E+03  0.31510989264E+03  0.91855362778E+03  0.12166332934E+04  0.90103157175E+02 0.  0.
         11    1    3    3    0    0  0.36478137937E+03  0.18045859335E+03  0.53194708372E+03  0.66977493124E+03  0.00000000000E+00 0. -1.
        -11    1    3    3    0    0  0.36257202865E+03  0.13465129929E+03  0.38660654407E+03  0.54685836217E+03  0.00000000000E+00 0.  1.
         22    1    1    2    0    0 -0.72735340802E+03 -0.31510989264E+03  0.42781944561E+03  0.90075895923E+03  0.00000000000E+00 0. -1.
<mgrwt>
<rscale>  0 0.16342061E+04</rscale>
<asrwt>0</asrwt>
<pdfrwt beam="1">  1        1 0.59309169E-01 0.16342061E+04</pdfrwt>
<pdfrwt beam="2">  1       -1 0.26644348E+00 0.16342061E+04</pdfrwt>
<totfact> 0.32880711E+00</totfact>
</mgrwt>
</event>
<event>
 6    1  0.1637818E-005  0.3611227E+04  0.7818608E-02  0.8087925E-01
          1   -1    0    0  501    0  0.00000000000E+00  0.00000000000E+00  0.35079372137E+04  0.35079372137E+04  0.00000000000E+00 0. -1.
         -1   -1    0    0    0  501 -0.00000000000E+00 -0.00000000000E+00 -0.92938929113E+03  0.92938929113E+03  0.00000000000E+00 0.  1.
         23    2    1    2    0    0  0.11790287821E+04 -0.12721031721E+04  0.19017786379E+04  0.25755069609E+04  0.90104206587E+02 0.  0.
         13    1    3    3    0    0  0.95502479837E+03 -0.10028574620E+04  0.14708720104E+04  0.20202128416E+04  0.00000000000E+00 0. -1.
        -13    1    3    3    0    0  0.22400398378E+03 -0.26924571016E+03  0.43090662756E+03  0.55529411924E+03  0.00000000000E+00 0.  1.
         22    1    1    2    0    0 -0.11790287821E+04  0.12721031721E+04  0.67676928465E+03  0.18618195440E+04  0.00000000000E+00 0.  1.
<mgrwt>
<rscale>  0 0.36112265E+04</rscale>
<asrwt>0</asrwt>
<pdfrwt beam="1">  1        1 0.53968264E+00 0.36112265E+04</pdfrwt>
<pdfrwt beam="2">  1       -1 0.14298297E+00 0.36112265E+04</pdfrwt>
<totfact> 0.78823913E-02</totfact>
</mgrwt>
</event>
<event>
 6    1  0.1637818E-005  0.1000566E+04  0.7818608E-02  0.9307924E-01
         -2   -1    0    0    0  501 -0.00000000000E+00  0.00000000000E+00  0.19655671941E+03  0.19655671941E+03  0.00000000000E+00 0.  1.
          2   -1    0    0  501    0  0.00000000000E+00 -0.00000000000E+00 -0.12733374323E+04  0.12733374323E+04  0.00000000000E+00 0. -1.
         23    2    1    2    0    0 -0.30847108434E+03 -0.32451933734E+03 -0.85700854919E+03  0.97112866158E+03  0.90332794656E+02 0.  0.
         11    1    3    3    0    0 -0.24758714633E+03 -0.30311010236E+03 -0.71396196577E+03  0.81419703865E+03  0.00000000000E+00 0. -1.
        -11    1    3    3    0    0 -0.60883938006E+02 -0.21409234984E+02 -0.14304658341E+03  0.15693162293E+03  0.00000000000E+00 0.  1.
         22    1    1    2    0    0  0.30847108434E+03  0.32451933734E+03 -0.21977216368E+03  0.49876549010E+03  0.00000000000E+00 0.  1.
<mgrwt>
<rscale>  0 0.10005659E+04</rscale>
<asrwt>0</asrwt>
<pdfrwt beam="1">  1        2 0.19589807E+00 0.10005659E+04</pdfrwt>
<pdfrwt beam="2">  1       -2 0.30239495E-01 0.10005659E+04</pdfrwt>
<totfact> 0.17260533E+02</totfact>
</mgrwt>
</event>
<event>
 6    1  0.1637818E-005  0.2397332E+04  0.7818608E-02  0.8440503E-01
         -1   -1    0    0    0  501 -0.00000000000E+00  0.00000000000E+00  0.12196725121E+04  0.12196725121E+04  0.00000000000E+00 0.  1.
          1   -1    0    0  501    0  0.00000000000E+00 -0.00000000000E+00 -0.11780217485E+04  0.11780217485E+04  0.00000000000E+00 0. -1.
         23    2    1    2    0    0  0.11216442604E+04  0.18815401243E+03  0.39409885736E+03  0.12070190581E+04  0.89962870456E+02 0.  0.
         13    1    3    3    0    0  0.28643974657E+03  0.11549190220E+02  0.83290589135E+02  0.29852710840E+03  0.00000000000E+00 0. -1.
        -13    1    3    3    0    0  0.83520451378E+03  0.17660482221E+03  0.31080826823E+03  0.90849194970E+03  0.00000000000E+00 0.  1.
         22    1    1    2    0    0 -0.11216442604E+04 -0.18815401243E+03 -0.35244809370E+03  0.11906752025E+04  0.00000000000E+00 0. -1.
<mgrwt>
<rscale>  0 0.23973325E+04</rscale>
<asrwt>0</asrwt>
<pdfrwt beam="1">  1        1 0.18123412E+00 0.23973325E+04</pdfrwt>
<pdfrwt beam="2">  1       -1 0.18764192E+00 0.23973325E+04</pdfrwt>
<totfact> 0.18250320E+00</totfact>
</mgrwt>
</event>
<event>
 6    1  0.1637818E-005  0.6318538E+04  0.7818608E-02  0.7652114E-01
         -1   -1    0    0    0  501 -0.00000000000E+00  0.00000000000E+00  0.27739216499E+04  0.27739216499E+04  0.00000000000E+00 0.  1.
          1   -1    0    0  501    0  0.00000000000E+00 -0.00000000000E+00 -0.35981477819E+04  0.35981477819E+04  0.00000000000E+00 0. -1.
         23    2    1    2    0    0  0.20074807806E+04 -0.10862708330E+03 -0.28690432449E+04  0.35044823009E+04  0.90598722603E+02 0.  0.
         11    1    3    3    0    0  0.69293038062E+03 -0.36428401010E+01 -0.94219032729E+03  0.11695676105E+04  0.00000000000E+00 0.  1.
        -11    1    3    3    0    0  0.13145504000E+04 -0.10498424320E+03 -0.19268529176E+04  0.23349146904E+04  0.00000000000E+00 0. -1.
         22    1    1    2    0    0 -0.20074807806E+04  0.10862708330E+03  0.20448171129E+04  0.28675871308E+04  0.00000000000E+00 0.  1.
<mgrwt>
<rscale>  0 0.63185378E+04</rscale>
<asrwt>0</asrwt>
<pdfrwt beam="1">  1        1 0.55356120E+00 0.63185378E+04</pdfrwt>
<pdfrwt beam="2">  1       -1 0.42675718E+00 0.63185378E+04</pdfrwt>
<totfact> 0.63807860E-04</totfact>
</mgrwt>
</event>
<event>
 6    1  0.1637818E-005  0.1397091E+04  0.7818608E-02  0.8955927E-01
         -2   -1    0    0    0  501 -0.00000000000E+00  0.00000000000E+00  0.10898619676E+04  0.10898619676E+04  0.00000000000E+00 0.  1.
          2   -1    0    0  501    0  0.00000000000E+00 -0.00000000000E+00 -0.44773204078E+03  0.44773204078E+03  0.00000000000E+00 0. -1.
         23    2    1    2    0    0 -0.34160652401E+03 -0.64889754764E+02  0.98553655741E+03  0.10488877455E+04  0.89316846941E+02 0.  0.
         11    1    3    3    0    0 -0.11335938732E+03 -0.53530809857E+02  0.43763229741E+03  0.45523392452E+03  0.00000000000E+00 0.  1.
        -11    1    3    3    0    0 -0.22824713669E+03 -0.11358944907E+02  0.54790425999E+03  0.59365382097E+03  0.00000000000E+00 0. -1.
         22    1    1    2    0    0  0.34160652401E+03  0.64889754764E+02 -0.34340663055E+03  0.48870626292E+03  0.00000000000E+00 0. -1.
<mgrwt>
<rscale>  0 0.13970914E+04</rscale>
<asrwt>0</asrwt>
<pdfrwt beam="1">  1        2 0.68881853E-01 0.13970914E+04</pdfrwt>
<pdfrwt beam="2">  1       -2 0.16767107E+00 0.13970914E+04</pdfrwt>
<totfact> 0.15064439E+01</totfact>
</mgrwt>
</event>
<event>
 6    1  0.1637818E-005  0.2386097E+04  0.7818608E-02  0.8444727E-01
         -1   -1    0    0    0  501 -0.00000000000E+00  0.00000000000E+00  0.10426214964E+04  0.10426214964E+04  0.00000000000E+00 0.  1.
          1   -1    0    0  501    0  0.00000000000E+00 -0.00000000000E+00 -0.13651782091E+04  0.13651782091E+04  0.00000000000E+00 0. -1.
         23    2    1    2    0    0  0.40610383999E+02 -0.51583429930E+03 -0.12442957120E+04  0.13507580741E+04  0.92419305802E+02 0.  0.
         13    1    3    3    0    0 -0.15209949548E+02 -0.13529995809E+03 -0.41153473769E+03  0.43347233078E+03  0.00000000000E+00 0. -1.
        -13    1    3    3    0    0  0.55820333547E+02 -0.38053434120E+03 -0.83276097434E+03  0.91728574330E+03  0.00000000000E+00 0.  1.
         22    1    1    2    0    0 -0.40610383999E+02  0.51583429930E+03  0.92173899934E+03  0.10570416314E+04  0.00000000000E+00 0.  1.
<mgrwt>
<rscale>  0 0.23860965E+04</rscale>
<asrwt>0</asrwt>
<pdfrwt beam="1">  1        1 0.21002742E+00 0.23860965E+04</pdfrwt>
<pdfrwt beam="2">  1       -1 0.16040331E+00 0.23860965E+04</pdfrwt>
<totfact> 0.21167849E+00</totfact>
</mgrwt>
</event>
<event>
 6    1  0.1637818E-005  0.2856306E+04  0.7818608E-02  0.8285998E-01
          2   -1    0    0  501    0  0.00000000000E+00  0.00000000000E+00  0.14809176221E+04  0.14809176221E+04  0.00000000000E+00 0. -1.
         -2   -1    0    0    0  501 -0.00000000000E+00 -0.00000000000E+00 -0.13772683528E+04  0.13772683528E+04  0.00000000000E+00 0.  1.
         23    2    1    2    0    0 -0.29657644449E+03  0.10496896127E+04 -0.86833487884E+03  0.13971729514E+04  0.90999581631E+02 0.  0.
         13    1    3    3    0    0 -0.10839373061E+03  0.51258406876E+03 -0.37932149115E+03  0.64682023935E+03  0.00000000000E+00 0. -1.
        -13    1    3    3    0    0 -0.18818271388E+03  0.53710554397E+03 -0.48901338769E+03  0.75035271206E+03  0.00000000000E+00 0.  1.
         22    1    1    2    0    0  0.29657644449E+03 -0.10496896127E+04  0.97198414812E+03  0.14610130235E+04  0.00000000000E+00 0. -1.
<mgrwt>
<rscale>  0 0.28563060E+04</rscale>
<asrwt>0</asrwt>
<pdfrwt beam="1">  1        2 0.22783348E+00 0.28563060E+04</pdfrwt>
<pdfrwt beam="2">  1       -2 0.21188744E+00 0.28563060E+04</pdfrwt>
<totfact> 0.12552066E+00</totfact>
</mgrwt>
</event>
<event>
 6    1  0.1637818E-005  0.2381850E+04  0.7818608E-02  0.8446330E-01
         -2   -1    0    0    0  501 -0.00000000000E+00  0.00000000000E+00  0.94602619044E+03  0.94602619044E+03  0.00000000000E+00 0.  1.
          2   -1    0    0  501    0  0.00000000000E+00 -0.00000000000E+00 -0.14992212273E+04  0.14992212273E+04  0.00000000000E+00 0. -1.
         23    2    1    2    0    0 -0.67863150536E+03 -0.82957844985E+03 -0.80569865042E+03  0.13441120040E+04  0.93518123418E+02 0.  0.
         13    1    3    3    0    0 -0.14948955655E+03 -0.24750134785E+03 -0.20929511244E+03  0.35694325711E+03  0.00000000000E+00 0. -1.
        -13    1    3    3    0    0 -0.52914194881E+03 -0.58207710200E+03 -0.59640353798E+03  0.98716874686E+03  0.00000000000E+00 0.  1.
         22    1    1    2    0    0  0.67863150536E+03  0.82957844985E+03  0.25250361359E+03  0.11011354137E+04  0.00000000000E+00 0. -1.
<mgrwt>
<rscale>  0 0.23818502E+04</rscale>
<asrwt>0</asrwt>
<pdfrwt beam="1">  1        2 0.23064942E+00 0.23818502E+04</pdfrwt>
<pdfrwt beam="2">  1       -2 0.14554249E+00 0.23818502E+04</pdfrwt>
<totfact> 0.37136987E+00</totfact>
</mgrwt>
</event>
<event>
 6    1  0.1637818E-005  0.2186641E+04  0.7818608E-02  0.8524009E-01
         -2   -1    0    0    0  501 -0.00000000000E+00  0.00000000000E+00  0.10498262158E+04  0.10498262158E+04  0.00000000000E+00 0.  1.
          2   -1    0    0  501    0  0.00000000000E+00 -0.00000000000E+00 -0.11386171131E+04  0.11386171131E+04  0.00000000000E+00 0. -1.
         23    2    1    2    0    0 -0.34418902614E+03  0.84699416441E+03 -0.64114170763E+03  0.11202876203E+04  0.90091412485E+02 0.  0.
         11    1    3    3    0    0 -0.10880017233E+03  0.29537639069E+03 -0.27223979369E+03  0.41617207373E+03  0.00000000000E+00 0. -1.
        -11    1    3    3    0    0 -0.23538885381E+03  0.55161777371E+03 -0.36890191394E+03  0.70411554654E+03  0.00000000000E+00 0.  1.
         22    1    1    2    0    0  0.34418902614E+03 -0.84699416441E+03  0.55235081031E+03  0.10681557086E+04  0.00000000000E+00 0.  1.
<mgrwt>
<rscale>  0 0.21866413E+04</rscale>
<asrwt>0</asrwt>
<pdfrwt beam="1">  1        2 0.17517186E+00 0.21866413E+04</pdfrwt>
<pdfrwt beam="2">  1       -2 0.16151173E+00 0.21866413E+04</pdfrwt>
<totfact> 0.46342660E+00</totfact>
</mgrwt>
</event>
<event>
 6    1  0.1637818E-005  0.1183720E+04  0.7818608E-02  0.9127227E-01
          2   -1    0    0  501    0  0.00000000000E+00  0.00000000000E+00  0.41669146163E+03  0.41669146163E+03  0.00000000000E+00 0. -1.
         -2   -1    0    0    0  501 -0.00000000000E+00 -0.00000000000E+00 -0.84066618023E+03  0.84066618023E+03  0.00000000000E+00 0.  1.
         23    2    1    2    0    0 -0.31215477276E+03  0.49562682229E+03 -0.15438934564E+03  0.61256091230E+03  0.91149613865E+02 0.  0.
         11    1    3    3    0    0 -0.26963702627E+03  0.39397320187E+03 -0.15634242911E+03  0.50235641219E+03  0.00000000000E+00 0.  1.
        -11    1    3    3    0    0 -0.42517746485E+02  0.10165362042E+03  0.19530834673E+01  0.11020450011E+03  0.00000000000E+00 0. -1.
         22    1    1    2    0    0  0.31215477276E+03 -0.49562682229E+03 -0.26958537296E+03  0.64479672955E+03  0.00000000000E+00 0.  1.
<mgrwt>
<rscale>  0 0.11837203E+04</rscale>
<asrwt>0</asrwt>
<pdfrwt beam="1">  1        2 0.64106379E-01 0.11837203E+04</pdfrwt>
<pdfrwt beam="2">  1       -2 0.12933326E+00 0.11837203E+04</pdfrwt>
<totfact> 0.32976196E+01</totfact>
</mgrwt>
</event>
<event>
 6    1  0.1637818E-005  0.6468691E+03  0.7818608E-02  0.9812672E-01
          2   -1    0    0  501    0  0.00000000000E+00  0.00000000000E+00  0.48652968338E+03  0.48652968338E+03  0.00000000000E+00 0. -1.
         -2   -1    0    0    0  501 -0.00000000000E+00 -0.00000000000E+00 -0.21501235299E+03  0.21501235299E+03  0.00000000000E+00 0.  1.
         23    2    1    2    0    0 -0.46280994777E+02 -0.30584211436E+03  0.61174268680E+02  0.32747582163E+03  0.88412630379E+02 0.  0.
         11    1    3    3    0    0 -0.70193800057E+02 -0.17279307372E+03  0.33491351732E+02  0.18948954201E+03  0.00000000000E+00 0. -1.
        -11    1    3    3    0    0  0.23912805280E+02 -0.13304904065E+03  0.27682916948E+02  0.13798627962E+03  0.00000000000E+00 0.  1.
         22    1    1    2    0    0  0.46280994777E+02  0.30584211436E+03  0.21034306172E+03  0.37406621474E+03  0.00000000000E+00 0. -1.
<mgrwt>
<rscale>  0 0.64686905E+03</rscale>
<asrwt>0</asrwt>
<pdfrwt beam="1">  1        2 0.74850720E-01 0.64686905E+03</pdfrwt>
<pdfrwt beam="2">  1       -2 0.33078824E-01 0.64686905E+03</pdfrwt>
<totfact> 0.54595065E+02</totfact>
</mgrwt>
</event>
<event>
 6    1  0.1637818E-005  0.1570923E+04  0.7818608E-02  0.8838613E-01
          1   -1    0    0  501    0  0.00000000000E+00  0.00000000000E+00  0.24188532792E+04  0.24188532792E+04  0.00000000000E+00 0. -1.
         -1   -1    0    0    0  501 -0.00000000000E+00 -0.00000000000E+00 -0.25505890126E+03  0.25505890126E+03  0.00000000000E+00 0.  1.
         23    2    1    2    0    0  0.85447103785E+02  0.67365636267E+03  0.42279186113E+03  0.80516825310E+03  0.91808798350E+02 0.  0.
         13    1    3    3    0    0  0.72411493291E+02  0.23027180088E+03  0.15978510757E+03  0.28948196359E+03  0.00000000000E+00 0. -1.
        -13    1    3    3    0    0  0.13035610493E+02  0.44338456180E+03  0.26300675355E+03  0.51568628951E+03  0.00000000000E+00 0.  1.
         22    1    1    2    0    0 -0.85447103785E+02 -0.67365636267E+03  0.17410025168E+04  0.18687439273E+04  0.00000000000E+00 0. -1.
<mgrwt>
<rscale>  0 0.15709234E+04</rscale>
<asrwt>0</asrwt>
<pdfrwt beam="1">  1        1 0.37213126E+00 0.15709234E+04</pdfrwt>
<pdfrwt beam="2">  1       -1 0.39239833E-01 0.15709234E+04</pdfrwt>
<totfact> 0.93723733E+00</totfact>
</mgrwt>
</event>
<event>
 6    1  0.1637818E-005  0.2102644E+04  0.7818608E-02  0.8560080E-01
          1   -1    0    0  501    0  0.00000000000E+00  0.00000000000E+00  0.11913431144E+04  0.11913431144E+04  0.00000000000E+00 0. -1.
         -1   -1    0    0    0  501 -0.00000000000E+00 -0.00000000000E+00 -0.92775780014E+03  0.92775780014E+03  0.00000000000E+00 0.  1.
         23    2    1    2    0    0 -0.85361786154E+03  0.30542794657E+03  0.66406484970E+03  0.11279735047E+04  0.96914491765E+02 0.  0.
         13    1    3    3    0    0 -0.20293449780E+03  0.30195838388E+02  0.15685513415E+03  0.25825904081E+03  0.00000000000E+00 0.  1.
        -13    1    3    3    0    0 -0.65068336374E+03  0.27523210818E+03  0.50720971555E+03  0.86971446393E+03  0.00000000000E+00 0. -1.
         22    1    1    2    0    0  0.85361786154E+03 -0.30542794657E+03 -0.40047953546E+03  0.99112740978E+03  0.00000000000E+00 0.  1.
<mgrwt>
<rscale>  0 0.21026439E+04</rscale>
<asrwt>0</asrwt>
<pdfrwt beam="1">  1        1 0.18328356E+00 0.21026439E+04</pdfrwt>
<pdfrwt beam="2">  1       -1 0.14273197E+00 0.21026439E+04</pdfrwt>
<totfact> 0.39721476E+00</totfact>
</mgrwt>
</event>
<event>
 6    1  0.1637818E-005  0.1975782E+04  0.7818608E-02  0.8618028E-01
         -2   -1    0    0    0  501 -0.00000000000E+00  0.00000000000E+00  0.10855990683E+04  0.10855990683E+04  0.00000000000E+00 0.  1.
          2   -1    0    0  501    0  0.00000000000E+00 -0.00000000000E+00 -0.89897734417E+03  0.89897734417E+03  0.00000000000E+00 0. -1.
         23    2    1    2    0    0 -0.43365013696E+03  0.85426421513E+03 -0.13976433482E+03  0.97247579989E+03  0.91407447961E+02 0.  0.
         13    1    3    3    0    0 -0.33367794274E+03  0.64533772021E+03 -0.14488493844E+03  0.74080590439E+03  0.00000000000E+00 0. -1.
        -13    1    3    3    0    0 -0.99972194224E+02  0.20892649492E+03  0.51206036251E+01  0.23166989550E+03  0.00000000000E+00 0.  1.
         22    1    1    2    0    0  0.43365013696E+03 -0.85426421513E+03  0.32638605898E+03  0.10121006126E+04  0.00000000000E+00 0. -1.
<mgrwt>
<rscale>  0 0.19757823E+04</rscale>
<asrwt>0</asrwt>
<pdfrwt beam="1">  1        2 0.13830421E+00 0.19757823E+04</pdfrwt>
<pdfrwt beam="2">  1       -2 0.16701524E+00 0.19757823E+04</pdfrwt>
<totfact> 0.61186495E+00</totfact>
</mgrwt>
</event>
<event>
 6    1  0.1637818E-005  0.5488762E+04  0.7818608E-02  0.7757237E-01
         -1   -1    0    0    0  501 -0.00000000000E+00  0.00000000000E+00  0.20238614862E+04  0.20238614862E+04  0.00000000000E+00 0.  1.
          1   -1    0    0  501    0  0.00000000000E+00 -0.00000000000E+00 -0.37214144339E+04  0.37214144339E+04  0.00000000000E+00 0. -1.
         23    2    1    2    0    0  0.27575823515E+03 -0.18773836198E+04  0.12248968399E+04  0.22608355602E+04  0.10194754323E+03 0.  0.
         13    1    3    3    0    0  0.22382197217E+03 -0.11868593515E+04  0.77494301281E+03  0.14350150064E+04  0.00000000000E+00 0. -1.
        -13    1    3    3    0    0  0.51936262987E+02 -0.69052426829E+03  0.44995382713E+03  0.82582055379E+03  0.00000000000E+00 0.  1.
         22    1    1    2    0    0 -0.27575823515E+03  0.18773836198E+04 -0.29224497877E+04  0.34844403599E+04  0.00000000000E+00 0. -1.
<mgrwt>
<rscale>  0 0.54887621E+04</rscale>
<asrwt>0</asrwt>
<pdfrwt beam="1">  1        1 0.57252530E+00 0.54887621E+04</pdfrwt>
<pdfrwt beam="2">  1       -1 0.31136331E+00 0.54887621E+04</pdfrwt>
<totfact> 0.32006638E-03</totfact>
</mgrwt>
</event>
<event>
 6    1  0.1987815E-005  0.1806379E+04  0.7818608E-02  0.8702915E-01
         -2   -1    0    0    0  501 -0.00000000000E+00  0.00000000000E+00  0.78892862553E+03  0.78892862553E+03  0.00000000000E+00 0. -1.
          2   -1    0    0  501    0  0.00000000000E+00 -0.00000000000E+00 -0.10339986302E+04  0.10339986302E+04  0.00000000000E+00 0.  1.
         23    2    1    2    0    0 -0.25439722433E+03 -0.46016601418E+03 -0.86096144513E+03  0.10131167996E+04  0.93168295333E+02 0.  0.
         11    1    3    3    0    0 -0.16474569094E+03 -0.23241284375E+03 -0.39820000074E+03  0.48961220697E+03  0.00000000000E+00 0. -1.
        -11    1    3    3    0    0 -0.89651533388E+02 -0.22775317042E+03 -0.46276144439E+03  0.52350459262E+03  0.00000000000E+00 0.  1.
         22    1    1    2    0    0  0.25439722433E+03  0.46016601418E+03  0.61589144049E+03  0.80981045611E+03  0.00000000000E+00 0. -1.
<mgrwt>
<rscale>  0 0.18063788E+04</rscale>
<asrwt>0</asrwt>
<pdfrwt beam="1">  1        2 0.15907671E+00 0.18063788E+04</pdfrwt>
<pdfrwt beam="2">  1       -2 0.12137364E+00 0.18063788E+04</pdfrwt>
<totfact> 0.11670294E+01</totfact>
</mgrwt>
</event>
<event>
 6    1  0.1678990E-005  0.3052948E+04  0.7818608E-02  0.8228771E-01
         -1   -1    0    0    0  501 -0.00000000000E+00  0.00000000000E+00  0.66673845245E+03  0.66673845245E+03  0.00000000000E+00 0.  1.
          1   -1    0    0  501    0  0.00000000000E+00 -0.00000000000E+00 -0.34948080103E+04  0.34948080103E+04  0.00000000000E+00 0. -1.
         23    2    1    2    0    0  0.11839003293E+04 -0.65071049641E+03 -0.23801957280E+04  0.27382983792E+04  0.88894149719E+02 0.  0.
         11    1    3    3    0    0  0.47550143764E+03 -0.22374327464E+03 -0.86832644644E+03  0.10149647717E+04  0.00000000000E+00 0. -1.
        -11    1    3    3    0    0  0.70839889167E+03 -0.42696722178E+03 -0.15118692816E+04  0.17233336075E+04  0.00000000000E+00 0.  1.
         22    1    1    2    0    0 -0.11839003293E+04  0.65071049641E+03 -0.44787382982E+03  0.14232480836E+04  0.00000000000E+00 0.  1.
<mgrwt>
<rscale>  0 0.30529480E+04</rscale>
<asrwt>0</asrwt>
<pdfrwt beam="1">  1        1 0.53766276E+00 0.30529480E+04</pdfrwt>
<pdfrwt beam="2">  1       -1 0.10257515E+00 0.30529480E+04</pdfrwt>
<totfact> 0.19191745E-01</totfact>
</mgrwt>
</event>
<event>
 6    1  0.1637818E-005  0.2485906E+04  0.7818608E-02  0.8408024E-01
         -2   -1    0    0    0  501 -0.00000000000E+00  0.00000000000E+00  0.12901736341E+04  0.12901736341E+04  0.00000000000E+00 0. -1.
          2   -1    0    0  501    0  0.00000000000E+00 -0.00000000000E+00 -0.11974611260E+04  0.11974611260E+04  0.00000000000E+00 0.  1.
         23    2    1    2    0    0  0.97385891746E+03  0.15348774987E+03  0.80109526320E+03  0.12736471951E+04  0.91999327740E+02 0.  0.
         13    1    3    3    0    0  0.58816480696E+03  0.63277407810E+02  0.52376057063E+03  0.79010569283E+03  0.00000000000E+00 0.  1.
        -13    1    3    3    0    0  0.38569411050E+03  0.90210342064E+02  0.27733469257E+03  0.48354150224E+03  0.00000000000E+00 0. -1.
         22    1    1    2    0    0 -0.97385891746E+03 -0.15348774987E+03 -0.70838275507E+03  0.12139875651E+04  0.00000000000E+00 0.  1.
<mgrwt>
<rscale>  0 0.24859065E+04</rscale>
<asrwt>0</asrwt>
<pdfrwt beam="1">  1        2 0.18422479E+00 0.24859065E+04</pdfrwt>
<pdfrwt beam="2">  1       -2 0.19848825E+00 0.24859065E+04</pdfrwt>
<totfact> 0.23095107E+00</totfact>
</mgrwt>
</event>
<event>
 6    1  0.1637818E-005  0.6070203E+04  0.7818608E-02  0.7681758E-01
          2   -1    0    0  501    0  0.00000000000E+00  0.00000000000E+00  0.30557510952E+04  0.30557510952E+04  0.00000000000E+00 0. -1.
         -2   -1    0    0    0  501 -0.00000000000E+00 -0.00000000000E+00 -0.30145913516E+04  0.30145913516E+04  0.00000000000E+00 0.  1.
         23    2    1    2    0    0  0.15558415088E+04  0.13808418705E+04  0.22297612042E+04  0.30508485447E+04  0.92058367854E+02 0.  0.
         11    1    3    3    0    0  0.51343491848E+02  0.64881108133E+02  0.10496110536E+03  0.13365083608E+03  0.00000000000E+00 0. -1.
        -11    1    3    3    0    0  0.15044980169E+04  0.13159607623E+04  0.21248000988E+04  0.29171977086E+04  0.00000000000E+00 0.  1.
         22    1    1    2    0    0 -0.15558415088E+04 -0.13808418705E+04 -0.21886014605E+04  0.30194939021E+04  0.00000000000E+00 0.  1.
<mgrwt>
<rscale>  0 0.60702029E+04</rscale>
<asrwt>0</asrwt>
<pdfrwt beam="1">  1        2 0.47011556E+00 0.60702029E+04</pdfrwt>
<pdfrwt beam="2">  1       -2 0.46378328E+00 0.60702029E+04</pdfrwt>
<totfact> 0.30449878E-03</totfact>
</mgrwt>
</event>
<event>
 6    1  0.1637818E-005  0.1771222E+04  0.7818608E-02  0.8721755E-01
          1   -1    0    0  501    0  0.00000000000E+00  0.00000000000E+00  0.87521193322E+03  0.87521193322E+03  0.00000000000E+00 0.  1.
         -1   -1    0    0    0  501 -0.00000000000E+00 -0.00000000000E+00 -0.89613345681E+03  0.89613345681E+03  0.00000000000E+00 0. -1.
         23    2    1    2    0    0  0.22271312242E+03  0.14817438951E+03  0.83141947175E+03  0.87801344896E+03  0.89958290018E+02 0.  0.
         11    1    3    3    0    0  0.83169225269E+02  0.54211505151E+02  0.45509916724E+03  0.46580173824E+03  0.00000000000E+00 0. -1.
        -11    1    3    3    0    0  0.13954389715E+03  0.93962884360E+02  0.37632030451E+03  0.41221171072E+03  0.00000000000E+00 0.  1.
         22    1    1    2    0    0 -0.22271312242E+03 -0.14817438951E+03 -0.85234099534E+03  0.89333194108E+03  0.00000000000E+00 0. -1.
<mgrwt>
<rscale>  0 0.17712218E+04</rscale>
<asrwt>0</asrwt>
<pdfrwt beam="1">  1        1 0.13464799E+00 0.17712218E+04</pdfrwt>
<pdfrwt beam="2">  1       -1 0.13786669E+00 0.17712218E+04</pdfrwt>
<totfact> 0.78739292E+00</totfact>
</mgrwt>
</event>
<event>
 6    1  0.1637818E-005  0.4689459E+04  0.7818608E-02  0.7878282E-01
         -2   -1    0    0    0  501 -0.00000000000E+00  0.00000000000E+00  0.13064049648E+04  0.13064049648E+04  0.00000000000E+00 0.  1.
          2   -1    0    0  501    0  0.00000000000E+00 -0.00000000000E+00 -0.42083102414E+04  0.42083102414E+04  0.00000000000E+00 0. -1.
         23    2    1    2    0    0  0.21379906406E+04 -0.87982128147E+03 -0.19044796024E+04  0.29967899805E+04  0.92834070885E+02 0.  0.
         13    1    3    3    0    0  0.10043435357E+04 -0.39435406855E+03 -0.94433475927E+03  0.14338721026E+04  0.00000000000E+00 0.  1.
        -13    1    3    3    0    0  0.11336471049E+04 -0.48546721292E+03 -0.96014484314E+03  0.15629178779E+04  0.00000000000E+00 0. -1.
         22    1    1    2    0    0 -0.21379906406E+04  0.87982128147E+03 -0.99742567424E+03  0.25179252257E+04  0.00000000000E+00 0. -1.
<mgrwt>
<rscale>  0 0.46894594E+04</rscale>
<asrwt>0</asrwt>
<pdfrwt beam="1">  1        2 0.64743235E+00 0.46894594E+04</pdfrwt>
<pdfrwt beam="2">  1       -2 0.20098538E+00 0.46894594E+04</pdfrwt>
<totfact> 0.22226612E-02</totfact>
</mgrwt>
</event>
<event>
 6    1  0.1637818E-005  0.2543209E+04  0.7818608E-02  0.8387752E-01
         -1   -1    0    0    0  501 -0.00000000000E+00  0.00000000000E+00  0.17518998665E+04  0.17518998665E+04  0.00000000000E+00 0. -1.
          1   -1    0    0  501    0  0.00000000000E+00 -0.00000000000E+00 -0.92298541443E+03  0.92298541443E+03  0.00000000000E+00 0.  1.
         23    2    1    2    0    0 -0.85246099693E+02  0.10594403228E+04  0.11458535753E+04  0.15657725261E+04  0.94776011733E+02 0.  0.
         13    1    3    3    0    0 -0.17440767704E+01  0.45648135538E+03  0.53735671050E+03  0.70507482151E+03  0.00000000000E+00 0.  1.
        -13    1    3    3    0    0 -0.83502022923E+02  0.60295896741E+03  0.60849686484E+03  0.86069770462E+03  0.00000000000E+00 0. -1.
         22    1    1    2    0    0  0.85246099693E+02 -0.10594403228E+04 -0.31693912323E+03  0.11091127548E+04  0.00000000000E+00 0.  1.
<mgrwt>
<rscale>  0 0.25432090E+04</rscale>
<asrwt>0</asrwt>
<pdfrwt beam="1">  1        1 0.14199776E+00 0.25432090E+04</pdfrwt>
<pdfrwt beam="2">  1       -1 0.26952306E+00 0.25432090E+04</pdfrwt>
<totfact> 0.80263827E-01</totfact>
</mgrwt>
</event>
<event>
 6    1  0.1637818E-005  0.2142918E+04  0.7818608E-02  0.8542570E-01
          2   -1    0    0  501    0  0.00000000000E+00  0.00000000000E+00  0.20228435760E+04  0.20228435760E+04  0.00000000000E+00 0. -1.
         -2   -1    0    0    0  501 -0.00000000000E+00 -0.00000000000E+00 -0.56752973569E+03  0.56752973569E+03  0.00000000000E+00 0.  1.
         23    2    1    2    0    0  0.56058194515E+02 -0.35497878228E+03  0.19466741315E+04  0.19816144163E+04  0.90017017844E+02 0.  0.
         11    1    3    3    0    0  0.72509921889E+02 -0.17206404651E+03  0.10053888975E+04  0.10225803441E+04  0.00000000000E+00 0. -1.
        -11    1    3    3    0    0 -0.16451727373E+02 -0.18291473577E+03  0.94128523397E+03  0.95903407217E+03  0.00000000000E+00 0.  1.
         22    1    1    2    0    0 -0.56058194515E+02  0.35497878228E+03 -0.49136029116E+03  0.60875889544E+03  0.00000000000E+00 0.  1.
<mgrwt>
<rscale>  0 0.21429175E+04</rscale>
<asrwt>0</asrwt>
<pdfrwt beam="1">  1        2 0.31120670E+00 0.21429175E+04</pdfrwt>
<pdfrwt beam="2">  1       -2 0.87312269E-01 0.21429175E+04</pdfrwt>
<totfact> 0.67513729E+00</totfact>
</mgrwt>
</event>
<event>
 6    1  0.1637818E-005  0.1082453E+04  0.7818608E-02  0.9222465E-01
         -2   -1    0    0    0  501 -0.00000000000E+00  0.00000000000E+00  0.23040347415E+03  0.23040347415E+03  0.00000000000E+00 0. -1.
          2   -1    0    0  501    0  0.00000000000E+00 -0.00000000000E+00 -0.12713614449E+04  0.12713614449E+04  0.00000000000E+00 0.  1.
         23    2    1    2    0    0 -0.34267143898E+03  0.16918624229E+03 -0.10483240409E+04  0.11195320598E+04  0.91219726116E+02 0.  0.
         11    1    3    3    0    0 -0.11626509402E+03  0.92393775447E+02 -0.31566957670E+03  0.34885736840E+03  0.00000000000E+00 0.  1.
        -11    1    3    3    0    0 -0.22640634496E+03  0.76792466845E+02 -0.73265446423E+03  0.77067469140E+03  0.00000000000E+00 0. -1.
         22    1    1    2    0    0  0.34267143898E+03 -0.16918624229E+03  0.73660702341E+01  0.38223285921E+03  0.00000000000E+00 0. -1.
<mgrwt>
<rscale>  0 0.10824529E+04</rscale>
<asrwt>0</asrwt>
<pdfrwt beam="1">  1        2 0.19559406E+00 0.10824529E+04</pdfrwt>
<pdfrwt beam="2">  1       -2 0.35446690E-01 0.10824529E+04</pdfrwt>
<totfact> 0.12755336E+02</totfact>
</mgrwt>
</event>
<event>
 6    1  0.1637818E-005  0.1852009E+04  0.7818608E-02  0.8679120E-01
          2   -1    0    0  501    0  0.00000000000E+00  0.00000000000E+00  0.21346542934E+04  0.21346542934E+04  0.00000000000E+00 0. -1.
         -2   -1    0    0    0  501 -0.00000000000E+00 -0.00000000000E+00 -0.40169707205E+03  0.40169707205E+03  0.00000000000E+00 0.  1.
         23    2    1    2    0    0  0.67202280932E+03 -0.61373783231E+03  0.10879781951E+04  0.14208753562E+04  0.83074915524E+02 0.  0.
         13    1    3    3    0    0  0.61215210543E+03 -0.57079503654E+03  0.96393349226E+03  0.12765989783E+04  0.00000000000E+00 0.  1.
        -13    1    3    3    0    0  0.59870703881E+02 -0.42942795766E+02  0.12404470288E+03  0.14427637784E+03  0.00000000000E+00 0. -1.
         22    1    1    2    0    0 -0.67202280932E+03  0.61373783231E+03  0.64497902621E+03  0.11154760093E+04  0.00000000000E+00 0.  1.
<mgrwt>
<rscale>  0 0.18520090E+04</rscale>
<asrwt>0</asrwt>
<pdfrwt beam="1">  1        2 0.32840835E+00 0.18520090E+04</pdfrwt>
<pdfrwt beam="2">  1       -2 0.61799551E-01 0.18520090E+04</pdfrwt>
<totfact> 0.12851376E+01</totfact>
</mgrwt>
</event>
<event>
 6    1  0.1637818E-005  0.4914209E+04  0.7818608E-02  0.7841879E-01
          2   -1    0    0  501    0  0.00000000000E+00  0.00000000000E+00  0.41511464059E+04  0.41511464059E+04  0.00000000000E+00 0. -1.
         -2   -1    0    0    0  501 -0.00000000000E+00 -0.00000000000E+00 -0.14543844352E+04  0.14543844352E+04  0.00000000000E+00 0.  1.
         23    2    1    2    0    0 -0.19833696776E+04  0.90196495673E+03  0.26423506502E+04  0.34260224899E+04  0.91198032065E+02 0.  0.
         13    1    3    3    0    0 -0.10448012525E+04  0.42510543718E+03  0.13692381139E+04  0.17740172780E+04  0.00000000000E+00 0.  1.
        -13    1    3    3    0    0 -0.93856842515E+03  0.47685951955E+03  0.12731125363E+04  0.16520052119E+04  0.00000000000E+00 0. -1.
         22    1    1    2    0    0  0.19833696776E+04 -0.90196495673E+03  0.54411320535E+02  0.21795083512E+04  0.00000000000E+00 0.  1.
<mgrwt>
<rscale>  0 0.49142091E+04</rscale>
<asrwt>0</asrwt>
<pdfrwt beam="1">  1        2 0.63863790E+00 0.49142091E+04</pdfrwt>
<pdfrwt beam="2">  1       -2 0.22375145E+00 0.49142091E+04</pdfrwt>
<totfact> 0.17470922E-02</totfact>
</mgrwt>
</event>
<event>
 6    1  0.1637818E-005  0.6015947E+04  0.7818608E-02  0.7688428E-01
          2   -1    0    0  501    0  0.00000000000E+00  0.00000000000E+00  0.40097760734E+04  0.40097760734E+04  0.00000000000E+00 0. -1.
         -2   -1    0    0    0  501 -0.00000000000E+00 -0.00000000000E+00 -0.22564612184E+04  0.22564612184E+04  0.00000000000E+00 0.  1.
         23    2    1    2    0    0 -0.14421364746E+04 -0.10269938338E+04  0.34090491688E+04  0.38422055131E+04  0.80330713423E+02 0.  0.
         11    1    3    3    0    0 -0.43508513388E+03 -0.31924920434E+03  0.11188100645E+04  0.12421574331E+04  0.00000000000E+00 0. -1.
        -11    1    3    3    0    0 -0.10070513407E+04 -0.70774462951E+03  0.22902391043E+04  0.26000480800E+04  0.00000000000E+00 0.  1.
         22    1    1    2    0    0  0.14421364746E+04  0.10269938338E+04 -0.16557343138E+04  0.24240317787E+04  0.00000000000E+00 0.  1.
<mgrwt>
<rscale>  0 0.60159469E+04</rscale>
<asrwt>0</asrwt>
<pdfrwt beam="1">  1        2 0.61688863E+00 0.60159469E+04</pdfrwt>
<pdfrwt beam="2">  1       -2 0.34714788E+00 0.60159469E+04</pdfrwt>
<totfact> 0.36422691E-03</totfact>
</mgrwt>
</event>
<event>
 6    1  0.1637818E-005  0.2415134E+04  0.7818608E-02  0.8433859E-01
          2   -1    0    0  501    0  0.00000000000E+00  0.00000000000E+00  0.13087378769E+04  0.13087378769E+04  0.00000000000E+00 0. -1.
         -2   -1    0    0    0  501 -0.00000000000E+00 -0.00000000000E+00 -0.11142167725E+04  0.11142167725E+04  0.00000000000E+00 0.  1.
         23    2    1    2    0    0  0.55380420810E+03 -0.32067029498E+03  0.11228075164E+04  0.12954599923E+04  0.89394261079E+02 0.  0.
         11    1    3    3    0    0  0.26135580356E+03 -0.10038230923E+03  0.47817417250E+03  0.55410649094E+03  0.00000000000E+00 0. -1.
        -11    1    3    3    0    0  0.29244840453E+03 -0.22028798575E+03  0.64463334386E+03  0.74135350137E+03  0.00000000000E+00 0.  1.
         22    1    1    2    0    0 -0.55380420810E+03  0.32067029498E+03 -0.92828641194E+03  0.11274946570E+04  0.00000000000E+00 0.  1.
<mgrwt>
<rscale>  0 0.24151337E+04</rscale>
<asrwt>0</asrwt>
<pdfrwt beam="1">  1        2 0.20134429E+00 0.24151337E+04</pdfrwt>
<pdfrwt beam="2">  1       -2 0.17141797E+00 0.24151337E+04</pdfrwt>
<totfact> 0.30560676E+00</totfact>
</mgrwt>
</event>
<event>
 6    1  0.1637818E-005  0.3172438E+04  0.7818608E-02  0.8196134E-01
          2   -1    0    0  501    0  0.00000000000E+00  0.00000000000E+00  0.11036338650E+04  0.11036338650E+04  0.00000000000E+00 0.  1.
         -2   -1    0    0    0  501 -0.00000000000E+00 -0.00000000000E+00 -0.22798241884E+04  0.22798241884E+04  0.00000000000E+00 0. -1.
         23    2    1    2    0    0  0.16591890629E+03  0.75023040133E+03  0.88984500954E+03  0.11791720611E+04  0.90817785653E+02 0.  0.
         13    1    3    3    0    0  0.10677777911E+03  0.43912635842E+03  0.45557742870E+03  0.64170417352E+03  0.00000000000E+00 0.  1.
        -13    1    3    3    0    0  0.59141127174E+02  0.31110404291E+03  0.43426758084E+03  0.53746788760E+03  0.00000000000E+00 0. -1.
         22    1    1    2    0    0 -0.16591890629E+03 -0.75023040133E+03 -0.20660353329E+04  0.22042859922E+04  0.00000000000E+00 0. -1.
<mgrwt>
<rscale>  0 0.31724383E+04</rscale>
<asrwt>0</asrwt>
<pdfrwt beam="1">  1        2 0.16978983E+00 0.31724383E+04</pdfrwt>
<pdfrwt beam="2">  1       -2 0.35074218E+00 0.31724383E+04</pdfrwt>
<totfact> 0.28143142E-01</totfact>
</mgrwt>
</event>
<event>
 6    1  0.1637818E-005  0.2487641E+04  0.7818608E-02  0.8407402E-01
          2   -1    0    0  501    0  0.00000000000E+00  0.00000000000E+00  0.27836476515E+04  0.27836476515E+04  0.00000000000E+00 0. -1.
         -2   -1    0    0    0  501 -0.00000000000E+00 -0.00000000000E+00 -0.55577796064E+03  0.55577796064E+03  0.00000000000E+00 0.  1.
         23    2    1    2    0    0  0.46126616965E+03 -0.50596380119E+03  0.25064213482E+04  0.26002660399E+04  0.10232133785E+03 0.  0.
         11    1    3    3    0    0  0.82202325795E+02 -0.12899658756E+03  0.44072353046E+03  0.46651320696E+03  0.00000000000E+00 0. -1.
        -11    1    3    3    0    0  0.37906384385E+03 -0.37696721363E+03  0.20656978178E+04  0.21337528330E+04  0.00000000000E+00 0.  1.
         22    1    1    2    0    0 -0.46126616965E+03  0.50596380119E+03 -0.27855165737E+03  0.73915957222E+03  0.00000000000E+00 0.  1.
<mgrwt>
<rscale>  0 0.24876415E+04</rscale>
<asrwt>0</asrwt>
<pdfrwt beam="1">  1        2 0.42825348E+00 0.24876415E+04</pdfrwt>
<pdfrwt beam="2">  1       -2 0.85504303E-01 0.24876415E+04</pdfrwt>
<totfact> 0.25106103E+00</totfact>
</mgrwt>
</event>
<event>
 6    1  0.1637818E-005  0.2028240E+04  0.7818608E-02  0.8593530E-01
          1   -1    0    0  501    0  0.00000000000E+00  0.00000000000E+00  0.19872310985E+04  0.19872310985E+04  0.00000000000E+00 0. -1.
         -1   -1    0    0    0  501 -0.00000000000E+00 -0.00000000000E+00 -0.51752388762E+03  0.51752388762E+03  0.00000000000E+00 0.  1.
         23    2    1    2    0    0  0.82453535456E+01 -0.47518680091E+03 -0.36760868848E+03  0.60696674829E+03  0.86034900278E+02 0.  0.
         11    1    3    3    0    0  0.44187531335E+02 -0.18849153139E+03 -0.16027793700E+03  0.25133764625E+03  0.00000000000E+00 0. -1.
        -11    1    3    3    0    0 -0.35942177789E+02 -0.28669526952E+03 -0.20733075147E+03  0.35562910204E+03  0.00000000000E+00 0.  1.
         22    1    1    2    0    0 -0.82453535456E+01  0.47518680091E+03  0.18373158994E+04  0.18977882378E+04  0.00000000000E+00 0. -1.
<mgrwt>
<rscale>  0 0.20282402E+04</rscale>
<asrwt>0</asrwt>
<pdfrwt beam="1">  1        1 0.30572786E+00 0.20282402E+04</pdfrwt>
<pdfrwt beam="2">  1       -1 0.79619060E-01 0.20282402E+04</pdfrwt>
<totfact> 0.44328929E+00</totfact>
</mgrwt>
</event>
<event>
 6    1  0.1637818E-005  0.4655854E+04  0.7818608E-02  0.7883905E-01
         -2   -1    0    0    0  501 -0.00000000000E+00  0.00000000000E+00  0.25646003770E+04  0.25646003770E+04  0.00000000000E+00 0.  1.
          2   -1    0    0  501    0  0.00000000000E+00 -0.00000000000E+00 -0.21130953126E+04  0.21130953126E+04  0.00000000000E+00 0. -1.
         23    2    1    2    0    0 -0.10441928417E+04 -0.12918788565E+04  0.18633362601E+04  0.24976596817E+04  0.83619357665E+02 0.  0.
         13    1    3    3    0    0 -0.76176057517E+03 -0.97188887517E+03  0.13365604493E+04  0.18196815639E+04  0.00000000000E+00 0. -1.
        -13    1    3    3    0    0 -0.28243226655E+03 -0.31998998129E+03  0.52677581077E+03  0.67797811774E+03  0.00000000000E+00 0.  1.
         22    1    1    2    0    0  0.10441928417E+04  0.12918788565E+04 -0.14118311956E+04  0.21800360078E+04  0.00000000000E+00 0. -1.
<mgrwt>
<rscale>  0 0.46558544E+04</rscale>
<asrwt>0</asrwt>
<pdfrwt beam="1">  1        2 0.32509159E+00 0.46558544E+04</pdfrwt>
<pdfrwt beam="2">  1       -2 0.39455390E+00 0.46558544E+04</pdfrwt>
<totfact> 0.34834814E-02</totfact>
</mgrwt>
</event>
<event>
 6    1  0.1637818E-005  0.1284659E+04  0.7818608E-02  0.9041820E-01
          2   -1    0    0  501    0  0.00000000000E+00  0.00000000000E+00  0.35876924793E+03  0.35876924793E+03  0.00000000000E+00 0. -1.
         -2   -1    0    0    0  501 -0.00000000000E+00 -0.00000000000E+00 -0.11500069122E+04  0.11500069122E+04  0.00000000000E+00 0.  1.
         23    2    1    2    0    0  0.13078729915E+03 -0.21973238510E+03  0.29097508829E+03  0.39676353409E+03  0.85832169336E+02 0.  0.
         11    1    3    3    0    0  0.41468963263E+02 -0.13480718822E+03  0.19445265474E+03  0.24021758438E+03  0.00000000000E+00 0. -1.
        -11    1    3    3    0    0  0.89318335883E+02 -0.84925196876E+02  0.96522433553E+02  0.15654594970E+03  0.00000000000E+00 0.  1.
         22    1    1    2    0    0 -0.13078729915E+03  0.21973238510E+03 -0.10822127525E+04  0.11120126260E+04  0.00000000000E+00 0.  1.
<mgrwt>
<rscale>  0 0.12846589E+04</rscale>
<asrwt>0</asrwt>
<pdfrwt beam="1">  1        2 0.55195269E-01 0.12846589E+04</pdfrwt>
<pdfrwt beam="2">  1       -2 0.17692414E+00 0.12846589E+04</pdfrwt>
<totfact> 0.16777914E+01</totfact>
</mgrwt>
</event>
<event>
 6    1  0.1637818E-005  0.2858923E+04  0.7818608E-02  0.8285205E-01
         -1   -1    0    0    0  501 -0.00000000000E+00  0.00000000000E+00  0.16240737083E+04  0.16240737083E+04  0.00000000000E+00 0.  1.
          1   -1    0    0  501    0  0.00000000000E+00 -0.00000000000E+00 -0.12581694296E+04  0.12581694296E+04  0.00000000000E+00 0. -1.
         23    2    1    2    0    0  0.86313963362E+03 -0.58985732569E+03 -0.79756728291E+03  0.13180795383E+04  0.90985749414E+02 0.  0.
         11    1    3    3    0    0  0.14806344204E+03 -0.12352056785E+03 -0.18615388990E+03  0.26801750740E+03  0.00000000000E+00 0. -1.
        -11    1    3    3    0    0  0.71507619158E+03 -0.46633675785E+03 -0.61141339302E+03  0.10500620309E+04  0.00000000000E+00 0.  1.
         22    1    1    2    0    0 -0.86313963362E+03  0.58985732569E+03  0.11634715616E+04  0.15641635996E+04  0.00000000000E+00 0.  1.
<mgrwt>
<rscale>  0 0.28589228E+04</rscale>
<asrwt>0</asrwt>
<pdfrwt beam="1">  1        1 0.19356453E+00 0.28589228E+04</pdfrwt>
<pdfrwt beam="2">  1       -1 0.24985749E+00 0.28589228E+04</pdfrwt>
<totfact> 0.58340776E-01</totfact>
</mgrwt>
</event>
<event>
 6    1  0.1637818E-005  0.3114194E+04  0.7818608E-02  0.8211853E-01
          2   -1    0    0  501    0  0.00000000000E+00  0.00000000000E+00  0.15513796527E+04  0.15513796527E+04  0.00000000000E+00 0. -1.
         -2   -1    0    0    0  501 -0.00000000000E+00 -0.00000000000E+00 -0.15628355983E+04  0.15628355983E+04  0.00000000000E+00 0.  1.
         23    2    1    2    0    0  0.15411644023E+04  0.19458536712E+03  0.80003535894E+02  0.15581252738E+04  0.91118730042E+02 0.  0.
         13    1    3    3    0    0  0.29042220642E+02  0.15554946815E+02  0.70724672944E+01  0.33696093896E+02  0.00000000000E+00 0.  1.
        -13    1    3    3    0    0  0.15121221817E+04  0.17903042030E+03  0.72931068599E+02  0.15244291799E+04  0.00000000000E+00 0. -1.
         22    1    1    2    0    0 -0.15411644023E+04 -0.19458536712E+03 -0.91459481467E+02  0.15560899771E+04  0.00000000000E+00 0. -1.
<mgrwt>
<rscale>  0 0.31141942E+04</rscale>
<asrwt>0</asrwt>
<pdfrwt beam="1">  1        2 0.23867379E+00 0.31141942E+04</pdfrwt>
<pdfrwt beam="2">  1       -2 0.24043625E+00 0.31141942E+04</pdfrwt>
<totfact> 0.74136201E-01</totfact>
</mgrwt>
</event>
<event>
 6    1  0.1637818E-005  0.2521835E+04  0.7818608E-02  0.8395248E-01
         -1   -1    0    0    0  501 -0.00000000000E+00  0.00000000000E+00  0.12482082559E+04  0.12482082559E+04  0.00000000000E+00 0.  1.
          1   -1    0    0  501    0  0.00000000000E+00 -0.00000000000E+00 -0.12737556476E+04  0.12737556476E+04  0.00000000000E+00 0. -1.
         23    2    1    2    0    0 -0.12378926282E+04  0.64335807334E+02  0.20944759740E+03  0.12603221556E+04  0.89590092827E+02 0.  0.
         11    1    3    3    0    0 -0.42597425530E+03 -0.13086376423E+00  0.10883205583E+03  0.43965725250E+03  0.00000000000E+00 0. -1.
        -11    1    3    3    0    0 -0.81191837293E+03  0.64466671098E+02  0.10061554157E+03  0.82066490311E+03  0.00000000000E+00 0.  1.
         22    1    1    2    0    0  0.12378926282E+04 -0.64335807334E+02 -0.23499498915E+03  0.12616417479E+04  0.00000000000E+00 0. -1.
<mgrwt>
<rscale>  0 0.25218345E+04</rscale>
<asrwt>0</asrwt>
<pdfrwt beam="1">  1        1 0.19596241E+00 0.25218345E+04</pdfrwt>
<pdfrwt beam="2">  1       -1 0.19203204E+00 0.25218345E+04</pdfrwt>
<totfact> 0.14324057E+00</totfact>
</mgrwt>
</event>
<event>
 6    1  0.1637818E-005  0.3714545E+04  0.7818608E-02  0.8064746E-01
         -2   -1    0    0    0  501 -0.00000000000E+00  0.00000000000E+00  0.15704912670E+04  0.15704912670E+04  0.00000000000E+00 0.  1.
          2   -1    0    0  501    0  0.00000000000E+00 -0.00000000000E+00 -0.21964214518E+04  0.21964214518E+04  0.00000000000E+00 0. -1.
         23    2    1    2    0    0  0.95136734867E+03  0.55053397213E+03 -0.18299120975E+04  0.21366489570E+04  0.92211682193E+02 0.  0.
         13    1    3    3    0    0  0.81536428582E+03  0.50712873846E+03 -0.15850166727E+04  0.18531800584E+04  0.00000000000E+00 0. -1.
        -13    1    3    3    0    0  0.13600306285E+03  0.43405233670E+02 -0.24489542484E+03  0.28346889868E+03  0.00000000000E+00 0.  1.
         22    1    1    2    0    0 -0.95136734867E+03 -0.55053397213E+03  0.12039819127E+04  0.16302637617E+04  0.00000000000E+00 0.  1.
<mgrwt>
<rscale>  0 0.37145448E+04</rscale>
<asrwt>0</asrwt>
<pdfrwt beam="1">  1        2 0.33791099E+00 0.37145448E+04</pdfrwt>
<pdfrwt beam="2">  1       -2 0.24161404E+00 0.37145448E+04</pdfrwt>
<totfact> 0.30325083E-01</totfact>
</mgrwt>
</event>
<event>
 6    1  0.1637818E-005  0.3859078E+04  0.7818608E-02  0.8033594E-01
          2   -1    0    0  501    0  0.00000000000E+00  0.00000000000E+00  0.38980655828E+04  0.38980655828E+04  0.00000000000E+00 0.  1.
         -2   -1    0    0    0  501 -0.00000000000E+00 -0.00000000000E+00 -0.95512015177E+03  0.95512015177E+03  0.00000000000E+00 0. -1.
         23    2    1    2    0    0 -0.73543230504E+03  0.15873786816E+04  0.45183543094E+03  0.18091323864E+04  0.90404538742E+02 0.  0.
         11    1    3    3    0    0 -0.19013503377E+03  0.37919680623E+03  0.72149485416E+02  0.43028722636E+03  0.00000000000E+00 0. -1.
        -11    1    3    3    0    0 -0.54529727127E+03  0.12081818754E+04  0.37968594553E+03  0.13788451600E+04  0.00000000000E+00 0.  1.
         22    1    1    2    0    0  0.73543230504E+03 -0.15873786816E+04  0.24911100001E+04  0.30440533482E+04  0.00000000000E+00 0.  1.
<mgrwt>
<rscale>  0 0.38590781E+04</rscale>
<asrwt>0</asrwt>
<pdfrwt beam="1">  1        2 0.59970239E+00 0.38590781E+04</pdfrwt>
<pdfrwt beam="2">  1       -2 0.14694156E+00 0.38590781E+04</pdfrwt>
<totfact> 0.10382658E-01</totfact>
</mgrwt>
</event>
<event>
 6    1  0.1637818E-005  0.2540988E+04  0.7818608E-02  0.8388527E-01
         -1   -1    0    0    0  501 -0.00000000000E+00  0.00000000000E+00  0.10946101201E+04  0.10946101201E+04  0.00000000000E+00 0.  1.
          1   -1    0    0  501    0  0.00000000000E+00 -0.00000000000E+00 -0.14746388701E+04  0.14746388701E+04  0.00000000000E+00 0. -1.
         23    2    1    2    0    0 -0.24619281470E+03 -0.92410955908E+03  0.65282684642E+03  0.11616339640E+04  0.92850393902E+02 0.  0.
         13    1    3    3    0    0 -0.99260472161E+02 -0.54288088988E+03  0.39152490425E+03  0.67665652482E+03  0.00000000000E+00 0. -1.
        -13    1    3    3    0    0 -0.14693234254E+03 -0.38122866920E+03  0.26130194217E+03  0.48497743916E+03  0.00000000000E+00 0.  1.
         22    1    1    2    0    0  0.24619281470E+03  0.92410955908E+03 -0.10328555964E+04  0.14076150263E+04  0.00000000000E+00 0. -1.
<mgrwt>
<rscale>  0 0.25409877E+04</rscale>
<asrwt>0</asrwt>
<pdfrwt beam="1">  1        1 0.22686752E+00 0.25409877E+04</pdfrwt>
<pdfrwt beam="2">  1       -1 0.16840156E+00 0.25409877E+04</pdfrwt>
<totfact> 0.15249124E+00</totfact>
</mgrwt>
</event>
<event>
 6    1  0.1637818E-005  0.4125987E+04  0.7818608E-02  0.7979602E-01
         -2   -1    0    0    0  501 -0.00000000000E+00  0.00000000000E+00  0.19797426303E+04  0.19797426303E+04  0.00000000000E+00 0.  1.
          2   -1    0    0  501    0  0.00000000000E+00 -0.00000000000E+00 -0.21497447984E+04  0.21497447984E+04  0.00000000000E+00 0. -1.
         23    2    1    2    0    0  0.16195150310E+04  0.12424686368E+04  0.20710354260E+03  0.20537307073E+04  0.91436816914E+02 0.  0.
         11    1    3    3    0    0  0.15501284470E+04  0.11848583261E+04  0.17912222570E+03  0.19593040159E+04  0.00000000000E+00 0. -1.
        -11    1    3    3    0    0  0.69386584064E+02  0.57610310733E+02  0.27981316895E+02  0.94426691385E+02  0.00000000000E+00 0.  1.
         22    1    1    2    0    0 -0.16195150310E+04 -0.12424686368E+04 -0.37710571070E+03  0.20757567214E+04  0.00000000000E+00 0. -1.
<mgrwt>
<rscale>  0 0.41259866E+04</rscale>
<asrwt>0</asrwt>
<pdfrwt beam="1">  1        2 0.33072997E+00 0.41259866E+04</pdfrwt>
<pdfrwt beam="2">  1       -2 0.30457579E+00 0.41259866E+04</pdfrwt>
<totfact> 0.12822674E-01</totfact>
</mgrwt>
</event>
<event>
 6    1  0.1637818E-005  0.3670276E+04  0.7818608E-02  0.8074581E-01
          1   -1    0    0  501    0  0.00000000000E+00  0.00000000000E+00  0.16173855831E+04  0.16173855831E+04  0.00000000000E+00 0. -1.
         -1   -1    0    0    0  501 -0.00000000000E+00 -0.00000000000E+00 -0.20822069070E+04  0.20822069070E+04  0.00000000000E+00 0.  1.
         23    2    1    2    0    0 -0.16585971481E+04  0.63614975041E+03 -0.69214997191E+03  0.19086962567E+04  0.91754084730E+02 0.  0.
         13    1    3    3    0    0 -0.15077096943E+03  0.30790580938E+02 -0.54595814542E+02  0.16328088701E+03  0.00000000000E+00 0.  1.
        -13    1    3    3    0    0 -0.15078261787E+04  0.60535916947E+03 -0.63755415736E+03  0.17454153697E+04  0.00000000000E+00 0. -1.
         22    1    1    2    0    0  0.16585971481E+04 -0.63614975041E+03  0.22732864797E+03  0.17908962334E+04  0.00000000000E+00 0.  1.
<mgrwt>
<rscale>  0 0.36702760E+04</rscale>
<asrwt>0</asrwt>
<pdfrwt beam="1">  1        1 0.24882855E+00 0.36702760E+04</pdfrwt>
<pdfrwt beam="2">  1       -1 0.32033952E+00 0.36702760E+04</pdfrwt>
<totfact> 0.10630388E-01</totfact>
</mgrwt>
</event>
<event>
 6    1  0.1637818E-005  0.2524247E+04  0.7818608E-02  0.8394398E-01
          2   -1    0    0  501    0  0.00000000000E+00  0.00000000000E+00  0.85192491803E+03  0.85192491803E+03  0.00000000000E+00 0.  1.
         -2   -1    0    0    0  501 -0.00000000000E+00 -0.00000000000E+00 -0.18698315559E+04  0.18698315559E+04  0.00000000000E+00 0. -1.
         23    2    1    2    0    0 -0.65964257445E+03 -0.98997358741E+03 -0.60214068612E+02  0.11945527917E+04  0.90302869741E+02 0.  0.
         13    1    3    3    0    0 -0.28023777525E+03 -0.37140703235E+03  0.11109484937E+02  0.46540285239E+03  0.00000000000E+00 0. -1.
        -13    1    3    3    0    0 -0.37940479920E+03 -0.61856655506E+03 -0.71323553549E+02  0.72914993931E+03  0.00000000000E+00 0.  1.
         22    1    1    2    0    0  0.65964257445E+03  0.98997358741E+03 -0.95769256923E+03  0.15272036822E+04  0.00000000000E+00 0.  1.
<mgrwt>
<rscale>  0 0.25242473E+04</rscale>
<asrwt>0</asrwt>
<pdfrwt beam="1">  1        2 0.13106537E+00 0.25242473E+04</pdfrwt>
<pdfrwt beam="2">  1       -2 0.28766639E+00 0.25242473E+04</pdfrwt>
<totfact> 0.10649538E+00</totfact>
</mgrwt>
</event>
<event>
 6    1  0.1637818E-005  0.3275887E+04  0.7818608E-02  0.8169058E-01
          1   -1    0    0  501    0  0.00000000000E+00  0.00000000000E+00  0.28250732011E+04  0.28250732011E+04  0.00000000000E+00 0. -1.
         -1   -1    0    0    0  501 -0.00000000000E+00 -0.00000000000E+00 -0.94966001737E+03  0.94966001737E+03  0.00000000000E+00 0.  1.
         23    2    1    2    0    0 -0.72221655378E+03 -0.81447347234E+02 -0.75124003504E+03  0.10493823140E+04  0.92796711701E+02 0.  0.
         13    1    3    3    0    0 -0.36249876954E+03 -0.83023265040E+02 -0.35325585143E+03  0.51292096567E+03  0.00000000000E+00 0. -1.
        -13    1    3    3    0    0 -0.35971778424E+03  0.15759178058E+01 -0.39798418361E+03  0.53646134830E+03  0.00000000000E+00 0.  1.
         22    1    1    2    0    0  0.72221655378E+03  0.81447347234E+02  0.26266532188E+04  0.27253509045E+04  0.00000000000E+00 0. -1.
<mgrwt>
<rscale>  0 0.32758871E+04</rscale>
<asrwt>0</asrwt>
<pdfrwt beam="1">  1        1 0.43462664E+00 0.32758871E+04</pdfrwt>
<pdfrwt beam="2">  1       -1 0.14610154E+00 0.32758871E+04</pdfrwt>
<totfact> 0.24877934E-01</totfact>
</mgrwt>
</event>
<event>
 6    1  0.1637818E-005  0.2387379E+04  0.7818608E-02  0.8444244E-01
          2   -1    0    0  501    0  0.00000000000E+00  0.00000000000E+00  0.11264221548E+04  0.11264221548E+04  0.00000000000E+00 0. -1.
         -2   -1    0    0    0  501 -0.00000000000E+00 -0.00000000000E+00 -0.12649739049E+04  0.12649739049E+04  0.00000000000E+00 0.  1.
         23    2    1    2    0    0  0.10010484837E+04 -0.64650702714E+03 -0.35682195437E+02  0.11952975905E+04  0.85986672501E+02 0.  0.
         11    1    3    3    0    0  0.40764786427E+03 -0.24652328374E+03 -0.53997919650E+02  0.47944372558E+03  0.00000000000E+00 0. -1.
        -11    1    3    3    0    0  0.59340061942E+03 -0.39998374340E+03  0.18315724212E+02  0.71585386488E+03  0.00000000000E+00 0.  1.
         22    1    1    2    0    0 -0.10010484837E+04  0.64650702714E+03 -0.10286955466E+03  0.11960984692E+04  0.00000000000E+00 0.  1.
<mgrwt>
<rscale>  0 0.23873790E+04</rscale>
<asrwt>0</asrwt>
<pdfrwt beam="1">  1        2 0.17329572E+00 0.23873790E+04</pdfrwt>
<pdfrwt beam="2">  1       -2 0.19461137E+00 0.23873790E+04</pdfrwt>
<totfact> 0.27271089E+00</totfact>
</mgrwt>
</event>
<event>
 6    1  0.1637818E-005  0.1708861E+04  0.7818608E-02  0.8756327E-01
         -2   -1    0    0    0  501 -0.00000000000E+00  0.00000000000E+00  0.49901061266E+03  0.49901061266E+03  0.00000000000E+00 0.  1.
          2   -1    0    0  501    0  0.00000000000E+00 -0.00000000000E+00 -0.14629979826E+04  0.14629979826E+04  0.00000000000E+00 0. -1.
         23    2    1    2    0    0 -0.50433316211E+03 -0.62538054409E+03 -0.81025042552E+03  0.11440307157E+04  0.82751212553E+02 0.  0.
         13    1    3    3    0    0 -0.91330565056E+02 -0.73017394956E+02 -0.13852572901E+03  0.18127931398E+03  0.00000000000E+00 0.  1.
        -13    1    3    3    0    0 -0.41300259705E+03 -0.55236314913E+03 -0.67172469651E+03  0.96275140176E+03  0.00000000000E+00 0. -1.
         22    1    1    2    0    0  0.50433316211E+03  0.62538054409E+03 -0.15373694445E+03  0.81797787954E+03  0.00000000000E+00 0.  1.
<mgrwt>
<rscale>  0 0.17088610E+04</rscale>
<asrwt>0</asrwt>
<pdfrwt beam="1">  1        2 0.22507661E+00 0.17088610E+04</pdfrwt>
<pdfrwt beam="2">  1       -2 0.76770864E-01 0.17088610E+04</pdfrwt>
<totfact> 0.19203481E+01</totfact>
</mgrwt>
</event>
<event>
 6    1  0.1637818E-005  0.4388257E+04  0.7818608E-02  0.7930497E-01
          1   -1    0    0  501    0  0.00000000000E+00  0.00000000000E+00  0.24946331453E+04  0.24946331453E+04  0.00000000000E+00 0. -1.
         -1   -1    0    0    0  501 -0.00000000000E+00 -0.00000000000E+00 -0.19298229473E+04  0.19298229473E+04  0.00000000000E+00 0.  1.
         23    2    1    2    0    0 -0.17911096246E+04 -0.27368446562E+03 -0.96306485248E+03  0.20543550307E+04  0.99517876831E+02 0.  0.
         13    1    3    3    0    0 -0.92351678743E+03 -0.19044631156E+03 -0.48949211715E+03  0.10624290974E+04  0.00000000000E+00 0.  1.
        -13    1    3    3    0    0 -0.86759283721E+03 -0.83238154063E+02 -0.47357273533E+03  0.99192593329E+03  0.00000000000E+00 0. -1.
         22    1    1    2    0    0  0.17911096246E+04  0.27368446562E+03  0.15278750505E+04  0.23701010620E+04  0.00000000000E+00 0. -1.
<mgrwt>
<rscale>  0 0.43882572E+04</rscale>
<asrwt>0</asrwt>
<pdfrwt beam="1">  1        1 0.38378971E+00 0.43882572E+04</pdfrwt>
<pdfrwt beam="2">  1       -1 0.29689584E+00 0.43882572E+04</pdfrwt>
<totfact> 0.35843199E-02</totfact>
</mgrwt>
</event>
<event>
 6    1  0.1637818E-005  0.1343462E+04  0.7818608E-02  0.8995792E-01
          1   -1    0    0  501    0  0.00000000000E+00  0.00000000000E+00  0.11642051526E+04  0.11642051526E+04  0.00000000000E+00 0. -1.
         -1   -1    0    0    0  501 -0.00000000000E+00 -0.00000000000E+00 -0.38757963727E+03  0.38757963727E+03  0.00000000000E+00 0.  1.
         23    2    1    2    0    0 -0.89511721019E+02  0.27295398897E+03 -0.30777260754E+03  0.42998466633E+03  0.87444879990E+02 0.  0.
         13    1    3    3    0    0 -0.57836133948E+02  0.54834833980E+02 -0.75510024364E+02  0.10978907590E+03  0.00000000000E+00 0.  1.
        -13    1    3    3    0    0 -0.31675587071E+02  0.21811915499E+03 -0.23226258317E+03  0.32019559043E+03  0.00000000000E+00 0. -1.
         22    1    1    2    0    0  0.89511721019E+02 -0.27295398897E+03  0.10843981229E+04  0.11218001236E+04  0.00000000000E+00 0. -1.
<mgrwt>
<rscale>  0 0.13434615E+04</rscale>
<asrwt>0</asrwt>
<pdfrwt beam="1">  1        1 0.17910848E+00 0.13434615E+04</pdfrwt>
<pdfrwt beam="2">  1       -1 0.59627637E-01 0.13434615E+04</pdfrwt>
<totfact> 0.31704106E+01</totfact>
</mgrwt>
</event>
<event>
 6    1  0.1637818E-005  0.6218981E+04  0.7818608E-02  0.7663828E-01
          1   -1    0    0  501    0  0.00000000000E+00  0.00000000000E+00  0.26112166512E+04  0.26112166512E+04  0.00000000000E+00 0. -1.
         -1   -1    0    0    0  501 -0.00000000000E+00 -0.00000000000E+00 -0.37028454095E+04  0.37028454095E+04  0.00000000000E+00 0.  1.
         23    2    1    2    0    0  0.48901806930E+03  0.12572125850E+04  0.22978020540E+04  0.26660539209E+04  0.90703218231E+02 0.  0.
         11    1    3    3    0    0  0.32262785711E+03  0.72721356903E+03  0.14017926613E+04  0.16118160486E+04  0.00000000000E+00 0. -1.
        -11    1    3    3    0    0  0.16639021219E+03  0.52999901599E+03  0.89600939273E+03  0.10542378724E+04  0.00000000000E+00 0.  1.
         22    1    1    2    0    0 -0.48901806930E+03 -0.12572125850E+04 -0.33894308124E+04  0.36480081398E+04  0.00000000000E+00 0.  1.
<mgrwt>
<rscale>  0 0.62189811E+04</rscale>
<asrwt>0</asrwt>
<pdfrwt beam="1">  1        1 0.40172564E+00 0.62189811E+04</pdfrwt>
<pdfrwt beam="2">  1       -1 0.56966853E+00 0.62189811E+04</pdfrwt>
<totfact> 0.45424105E-04</totfact>
</mgrwt>
</event>
<event>
 6    1  0.1637818E-005  0.3893890E+04  0.7818608E-02  0.8026301E-01
         -2   -1    0    0    0  501 -0.00000000000E+00  0.00000000000E+00  0.26868766077E+04  0.26868766077E+04  0.00000000000E+00 0.  1.
          2   -1    0    0  501    0  0.00000000000E+00 -0.00000000000E+00 -0.14107807814E+04  0.14107807814E+04  0.00000000000E+00 0. -1.
         23    2    1    2    0    0 -0.17343233215E+04 -0.34071269379E+03  0.14948851806E+04  0.23166938002E+04  0.91792906976E+02 0.  0.
         11    1    3    3    0    0 -0.98012554229E+03 -0.17413884660E+03  0.89626184185E+03  0.13394983037E+04  0.00000000000E+00 0. -1.
        -11    1    3    3    0    0 -0.75419777923E+03 -0.16657384718E+03  0.59862333871E+03  0.97719549652E+03  0.00000000000E+00 0.  1.
         22    1    1    2    0    0  0.17343233215E+04  0.34071269379E+03 -0.21878935430E+03  0.17809635889E+04  0.00000000000E+00 0. -1.
<mgrwt>
<rscale>  0 0.38938895E+04</rscale>
<asrwt>0</asrwt>
<pdfrwt beam="1">  1        2 0.21704320E+00 0.38938895E+04</pdfrwt>
<pdfrwt beam="2">  1       -2 0.41336563E+00 0.38938895E+04</pdfrwt>
<totfact> 0.68799421E-02</totfact>
</mgrwt>
</event>
<event>
 6    1  0.2334442E-005  0.2179911E+04  0.7818608E-02  0.8526836E-01
          1   -1    0    0  501    0  0.00000000000E+00  0.00000000000E+00  0.16836769957E+04  0.16836769957E+04  0.00000000000E+00 0. -1.
         -1   -1    0    0    0  501 -0.00000000000E+00 -0.00000000000E+00 -0.70560057213E+03  0.70560057213E+03  0.00000000000E+00 0.  1.
         23    2    1    2    0    0  0.60142728568E+03 -0.74366075320E+02  0.14803483848E+04  0.16021802319E+04  0.91132113540E+02 0.  0.
         13    1    3    3    0    0  0.33321326361E+03 -0.52189176353E+02  0.70671467720E+03  0.78307114884E+03  0.00000000000E+00 0.  1.
        -13    1    3    3    0    0  0.26821402207E+03 -0.22176898966E+02  0.77363370758E+03  0.81910908308E+03  0.00000000000E+00 0. -1.
         22    1    1    2    0    0 -0.60142728568E+03  0.74366075320E+02 -0.50227196123E+03  0.78709733588E+03  0.00000000000E+00 0.  1.
<mgrwt>
<rscale>  0 0.21799114E+04</rscale>
<asrwt>0</asrwt>
<pdfrwt beam="1">  1        1 0.25902723E+00 0.21799114E+04</pdfrwt>
<pdfrwt beam="2">  1       -1 0.10855393E+00 0.21799114E+04</pdfrwt>
<totfact> 0.35163677E+00</totfact>
</mgrwt>
</event>
<event>
 6    1  0.2183015E-005  0.2684480E+04  0.7818608E-02  0.8340058E-01
         -2   -1    0    0    0  501 -0.00000000000E+00  0.00000000000E+00  0.82012113257E+03  0.82012113257E+03  0.00000000000E+00 0.  1.
          2   -1    0    0  501    0  0.00000000000E+00 -0.00000000000E+00 -0.21967585414E+04  0.21967585414E+04  0.00000000000E+00 0. -1.
         23    2    1    2    0    0 -0.21363707604E+03  0.11717787842E+04 -0.13809367430E+04  0.18257773259E+04  0.88148944251E+02 0.  0.
         11    1    3    3    0    0 -0.95521259949E+02  0.57533796448E+03 -0.61029316738E+03  0.84415391643E+03  0.00000000000E+00 0. -1.
        -11    1    3    3    0    0 -0.11811581609E+03  0.59644081967E+03 -0.77064357564E+03  0.98162340949E+03  0.00000000000E+00 0.  1.
         22    1    1    2    0    0  0.21363707604E+03 -0.11717787842E+04  0.42993341971E+01  0.11911023480E+04  0.00000000000E+00 0.  1.
<mgrwt>
<rscale>  0 0.26844799E+04</rscale>
<asrwt>0</asrwt>
<pdfrwt beam="1">  1        2 0.33796285E+00 0.26844799E+04</pdfrwt>
<pdfrwt beam="2">  1       -2 0.12617248E+00 0.26844799E+04</pdfrwt>
<totfact> 0.21332109E+00</totfact>
</mgrwt>
</event>
<event>
 6    1  0.1637818E-005  0.4098971E+04  0.7818608E-02  0.7984873E-01
         -1   -1    0    0    0  501 -0.00000000000E+00  0.00000000000E+00  0.30695759090E+04  0.30695759090E+04  0.00000000000E+00 0.  1.
          1   -1    0    0  501    0  0.00000000000E+00 -0.00000000000E+00 -0.13683944995E+04  0.13683944995E+04  0.00000000000E+00 0. -1.
         23    2    1    2    0    0  0.55589650556E+03 -0.19046047802E+04  0.29915245707E+03  0.20085207843E+04  0.90129100595E+02 0.  0.
         11    1    3    3    0    0  0.10994797085E+03 -0.34845072526E+03  0.89705481654E+02  0.37623601325E+03  0.00000000000E+00 0. -1.
        -11    1    3    3    0    0  0.44594853471E+03 -0.15561540549E+04  0.20944697542E+03  0.16322847710E+04  0.00000000000E+00 0.  1.
         22    1    1    2    0    0 -0.55589650556E+03  0.19046047802E+04  0.14020289524E+04  0.24294496243E+04  0.00000000000E+00 0. -1.
<mgrwt>
<rscale>  0 0.40989710E+04</rscale>
<asrwt>0</asrwt>
<pdfrwt beam="1">  1        1 0.21052223E+00 0.40989710E+04</pdfrwt>
<pdfrwt beam="2">  1       -1 0.47224244E+00 0.40989710E+04</pdfrwt>
<totfact> 0.14315240E-02</totfact>
</mgrwt>
</event>
<event>
 6    1  0.1637818E-005  0.1818289E+04  0.7818608E-02  0.8696634E-01
         -1   -1    0    0    0  501 -0.00000000000E+00  0.00000000000E+00  0.10197734270E+04  0.10197734270E+04  0.00000000000E+00 0.  1.
          1   -1    0    0  501    0  0.00000000000E+00 -0.00000000000E+00 -0.81051680365E+03  0.81051680365E+03  0.00000000000E+00 0. -1.
         23    2    1    2    0    0  0.62936835444E+03 -0.65301550215E+03  0.10765168793E+03  0.91768005402E+03  0.89521081408E+02 0.  0.
         13    1    3    3    0    0  0.24763213699E+03 -0.29479326196E+03  0.98303354240E+01  0.38512514598E+03  0.00000000000E+00 0. -1.
        -13    1    3    3    0    0  0.38173621745E+03 -0.35822224019E+03  0.97821352502E+02  0.53255490804E+03  0.00000000000E+00 0.  1.
         22    1    1    2    0    0 -0.62936835444E+03  0.65301550215E+03  0.10160493545E+03  0.91261017665E+03  0.00000000000E+00 0. -1.
<mgrwt>
<rscale>  0 0.18182888E+04</rscale>
<asrwt>0</asrwt>
<pdfrwt beam="1">  1        1 0.12469489E+00 0.18182888E+04</pdfrwt>
<pdfrwt beam="2">  1       -1 0.15688822E+00 0.18182888E+04</pdfrwt>
<totfact> 0.62953164E+00</totfact>
</mgrwt>
</event>
<event>
 6    1  0.1637818E-005  0.4641569E+03  0.7818608E-02  0.1023582E+00
          1   -1    0    0  501    0  0.00000000000E+00  0.00000000000E+00  0.40412365497E+03  0.40412365497E+03  0.00000000000E+00 0. -1.
         -1   -1    0    0    0  501 -0.00000000000E+00 -0.00000000000E+00 -0.13327706608E+03  0.13327706608E+03  0.00000000000E+00 0.  1.
         23    2    1    2    0    0  0.41542724767E+02 -0.20935935696E+03  0.52502193596E+02  0.23206252612E+03  0.74427127920E+02 0.  0.
         11    1    3    3    0    0 -0.11079985413E+02 -0.11921848084E+03  0.43138830480E+02  0.12726653506E+03  0.00000000000E+00 0.  1.
        -11    1    3    3    0    0  0.52622710180E+02 -0.90140876113E+02  0.93633631163E+01  0.10479599106E+03  0.00000000000E+00 0. -1.
         22    1    1    2    0    0 -0.41542724767E+02  0.20935935696E+03  0.21834439529E+03  0.30533819493E+03  0.00000000000E+00 0. -1.
<mgrwt>
<rscale>  0 0.46415693E+03</rscale>
<asrwt>0</asrwt>
<pdfrwt beam="1">  1        1 0.62172869E-01 0.46415693E+03</pdfrwt>
<pdfrwt beam="2">  1       -1 0.20504164E-01 0.46415693E+03</pdfrwt>
<totfact> 0.11612605E+03</totfact>
</mgrwt>
</event>
<event>
 6    1  0.1637818E-005  0.4014507E+04  0.7818608E-02  0.8001626E-01
          2   -1    0    0  501    0  0.00000000000E+00  0.00000000000E+00  0.20191249192E+04  0.20191249192E+04  0.00000000000E+00 0. -1.
         -2   -1    0    0    0  501 -0.00000000000E+00 -0.00000000000E+00 -0.19954514636E+04  0.19954514636E+04  0.00000000000E+00 0.  1.
         23    2    1    2    0    0  0.30290256436E+03 -0.17808014824E+04  0.88486200684E+03  0.20134143194E+04  0.88614710825E+02 0.  0.
         11    1    3    3    0    0  0.26111874954E+03 -0.13194145756E+04  0.64287995392E+03  0.14907489590E+04  0.00000000000E+00 0.  1.
        -11    1    3    3    0    0  0.41783814827E+02 -0.46138690689E+03  0.24198205292E+03  0.52266536040E+03  0.00000000000E+00 0. -1.
         22    1    1    2    0    0 -0.30290256436E+03  0.17808014824E+04 -0.86118855121E+03  0.20011620634E+04  0.00000000000E+00 0.  1.
<mgrwt>
<rscale>  0 0.40145066E+04</rscale>
<asrwt>0</asrwt>
<pdfrwt beam="1">  1        2 0.31063460E+00 0.40145066E+04</pdfrwt>
<pdfrwt beam="2">  1       -2 0.30699253E+00 0.40145066E+04</pdfrwt>
<totfact> 0.14792063E-01</totfact>
</mgrwt>
</event>
<event>
 6    1  0.1637818E-005  0.2725294E+04  0.7818608E-02  0.8326844E-01
          2   -1    0    0  501    0  0.00000000000E+00  0.00000000000E+00  0.21408057628E+04  0.21408057628E+04  0.00000000000E+00 0. -1.
         -2   -1    0    0    0  501 -0.00000000000E+00 -0.00000000000E+00 -0.86733993911E+03  0.86733993911E+03  0.00000000000E+00 0.  1.
         23    2    1    2    0    0  0.12527170451E+04  0.50050555813E+03  0.43750740092E+03  0.14211257608E+04  0.91541757180E+02 0.  0.
         13    1    3    3    0    0  0.68151355773E+03  0.22400206434E+03  0.24133150924E+03  0.75688741009E+03  0.00000000000E+00 0.  1.
        -13    1    3    3    0    0  0.57120348738E+03  0.27650349379E+03  0.19617589168E+03  0.66423835071E+03  0.00000000000E+00 0. -1.
         22    1    1    2    0    0 -0.12527170451E+04 -0.50050555813E+03  0.83595842273E+03  0.15870199411E+04  0.00000000000E+00 0. -1.
<mgrwt>
<rscale>  0 0.27252936E+04</rscale>
<asrwt>0</asrwt>
<pdfrwt beam="1">  1        2 0.32935473E+00 0.27252936E+04</pdfrwt>
<pdfrwt beam="2">  1       -2 0.13343691E+00 0.27252936E+04</pdfrwt>
<totfact> 0.19835441E+00</totfact>
</mgrwt>
</event>
<event>
 6    1  0.1637818E-005  0.3073026E+04  0.7818608E-02  0.8223180E-01
         -2   -1    0    0    0  501 -0.00000000000E+00  0.00000000000E+00  0.18641776175E+04  0.18641776175E+04  0.00000000000E+00 0. -1.
          2   -1    0    0  501    0  0.00000000000E+00 -0.00000000000E+00 -0.12664413838E+04  0.12664413838E+04  0.00000000000E+00 0.  1.
         23    2    1    2    0    0  0.72194442353E+03 -0.58411862510E+03  0.15446463607E+04  0.18043320385E+04  0.85342877774E+02 0.  0.
         13    1    3    3    0    0  0.48280982831E+03 -0.35100271861E+03  0.10418327212E+04  0.12007179759E+04  0.00000000000E+00 0.  1.
        -13    1    3    3    0    0  0.23913459521E+03 -0.23311590648E+03  0.50281363953E+03  0.60361406261E+03  0.00000000000E+00 0. -1.
         22    1    1    2    0    0 -0.72194442353E+03  0.58411862510E+03 -0.94691012707E+03  0.13262869628E+04  0.00000000000E+00 0.  1.
<mgrwt>
<rscale>  0 0.30730257E+04</rscale>
<asrwt>0</asrwt>
<pdfrwt beam="1">  1        2 0.19483714E+00 0.30730257E+04</pdfrwt>
<pdfrwt beam="2">  1       -2 0.28679656E+00 0.30730257E+04</pdfrwt>
<totfact> 0.56333120E-01</totfact>
</mgrwt>
</event>
<event>
 6    1  0.1637818E-005  0.2157645E+04  0.7818608E-02  0.8536267E-01
         -1   -1    0    0    0  501 -0.00000000000E+00  0.00000000000E+00  0.37926845676E+03  0.37926845676E+03  0.00000000000E+00 0.  1.
          1   -1    0    0  501    0  0.00000000000E+00 -0.00000000000E+00 -0.30686913375E+04  0.30686913375E+04  0.00000000000E+00 0. -1.
         23    2    1    2    0    0 -0.52248321395E+03 -0.34623499155E+03  0.52021500990E+02  0.63577475833E+03  0.92929696765E+02 0.  0.
         13    1    3    3    0    0 -0.31212933463E+03 -0.24593670130E+03  0.17981143618E+01  0.39738245532E+03  0.00000000000E+00 0. -1.
        -13    1    3    3    0    0 -0.21035387932E+03 -0.10029829024E+03  0.50223386628E+02  0.23839230301E+03  0.00000000000E+00 0.  1.
         22    1    1    2    0    0  0.52248321395E+03  0.34623499155E+03 -0.27414443818E+04  0.28121850360E+04  0.00000000000E+00 0. -1.
<mgrwt>
<rscale>  0 0.21576449E+04</rscale>
<asrwt>0</asrwt>
<pdfrwt beam="1">  1        1 0.47210636E+00 0.21576449E+04</pdfrwt>
<pdfrwt beam="2">  1       -1 0.58348993E-01 0.21576449E+04</pdfrwt>
<totfact> 0.14515092E+00</totfact>
</mgrwt>
</event>
<event>
 6    1  0.1637818E-005  0.9090287E+03  0.7818608E-02  0.9414365E-01
          1   -1    0    0  501    0  0.00000000000E+00  0.00000000000E+00  0.11777457432E+03  0.11777457432E+03  0.00000000000E+00 0. -1.
         -1   -1    0    0    0  501 -0.00000000000E+00 -0.00000000000E+00 -0.17540567075E+04  0.17540567075E+04  0.00000000000E+00 0.  1.
         23    2    1    2    0    0 -0.28116973583E+03 -0.45685409858E+02 -0.10991764530E+03  0.31911362336E+03  0.92779517372E+02 0.  0.
         13    1    3    3    0    0 -0.14537744289E+03 -0.30955890029E+02 -0.10583063617E+03  0.18246367194E+03  0.00000000000E+00 0.  1.
        -13    1    3    3    0    0 -0.13579229295E+03 -0.14729519829E+02 -0.40870091292E+01  0.13664995142E+03  0.00000000000E+00 0. -1.
         22    1    1    2    0    0  0.28116973583E+03  0.45685409858E+02 -0.15263644878E+04  0.15527176584E+04  0.00000000000E+00 0.  1.
<mgrwt>
<rscale>  0 0.90902867E+03</rscale>
<asrwt>0</asrwt>
<pdfrwt beam="1">  1        1 0.18119166E-01 0.90902867E+03</pdfrwt>
<pdfrwt beam="2">  1       -1 0.26985486E+00 0.90902867E+03</pdfrwt>
<totfact> 0.15804120E+01</totfact>
</mgrwt>
</event>
<event>
 6    1  0.1637818E-005  0.2024240E+04  0.7818608E-02  0.8595371E-01
         -2   -1    0    0    0  501 -0.00000000000E+00  0.00000000000E+00  0.63371103524E+03  0.63371103524E+03  0.00000000000E+00 0. -1.
          2   -1    0    0  501    0  0.00000000000E+00 -0.00000000000E+00 -0.16164885059E+04  0.16164885059E+04  0.00000000000E+00 0.  1.
         23    2    1    2    0    0 -0.32821965503E+03  0.88488284887E+03 -0.93235977573E+02  0.95326859999E+03  0.96344579705E+02 0.  0.
         11    1    3    3    0    0 -0.20445417224E+03  0.62066544824E+03 -0.26746526841E+02  0.65402024730E+03  0.00000000000E+00 0. -1.
        -11    1    3    3    0    0 -0.12376548279E+03  0.26421740063E+03 -0.66489450733E+02  0.29924835269E+03  0.00000000000E+00 0.  1.
         22    1    1    2    0    0  0.32821965503E+03 -0.88488284887E+03 -0.88954149307E+03  0.12969309411E+04  0.00000000000E+00 0.  1.
<mgrwt>
<rscale>  0 0.20242397E+04</rscale>
<asrwt>0</asrwt>
<pdfrwt beam="1">  1        2 0.24869053E+00 0.20242397E+04</pdfrwt>
<pdfrwt beam="2">  1       -2 0.97494008E-01 0.20242397E+04</pdfrwt>
<totfact> 0.88787586E+00</totfact>
</mgrwt>
</event>
<event>
 6    1  0.1637818E-005  0.2741599E+04  0.7818608E-02  0.8321633E-01
          1   -1    0    0  501    0  0.00000000000E+00  0.00000000000E+00  0.10704302039E+04  0.10704302039E+04  0.00000000000E+00 0. -1.
         -1   -1    0    0    0  501 -0.00000000000E+00 -0.00000000000E+00 -0.17554537701E+04  0.17554537701E+04  0.00000000000E+00 0.  1.
         23    2    1    2    0    0 -0.13445628293E+04 -0.14409535028E+03 -0.12075792382E+03  0.13606166308E+04  0.89902545755E+02 0.  0.
         13    1    3    3    0    0 -0.85026736345E+03 -0.56369871606E+02 -0.10236276953E+03  0.85826003540E+03  0.00000000000E+00 0.  1.
        -13    1    3    3    0    0 -0.49429546588E+03 -0.87725478678E+02 -0.18395154287E+02  0.50235659536E+03  0.00000000000E+00 0. -1.
         22    1    1    2    0    0  0.13445628293E+04  0.14409535028E+03 -0.56426564233E+03  0.14652673432E+04  0.00000000000E+00 0. -1.
<mgrwt>
<rscale>  0 0.27415986E+04</rscale>
<asrwt>0</asrwt>
<pdfrwt beam="1">  1        1 0.16468157E+00 0.27415986E+04</pdfrwt>
<pdfrwt beam="2">  1       -1 0.27006981E+00 0.27415986E+04</pdfrwt>
<totfact> 0.59949620E-01</totfact>
</mgrwt>
</event>
<event>
 6    1  0.1637818E-005  0.8490966E+03  0.7818608E-02  0.9491550E-01
         -2   -1    0    0    0  501 -0.00000000000E+00  0.00000000000E+00  0.49322568436E+02  0.49322568436E+02  0.00000000000E+00 0.  1.
          2   -1    0    0  501    0  0.00000000000E+00 -0.00000000000E+00 -0.36543361913E+04  0.36543361913E+04  0.00000000000E+00 0. -1.
         23    2    1    2    0    0 -0.37014943866E+03  0.14562772603E+03 -0.24051355259E+04  0.24395679841E+04  0.92720059757E+02 0.  0.
         11    1    3    3    0    0 -0.22731487176E+03  0.41327660651E+02 -0.14232626592E+04  0.14418934161E+04  0.00000000000E+00 0.  1.
        -11    1    3    3    0    0 -0.14283456689E+03  0.10430006538E+03 -0.98187286674E+03  0.99767456797E+03  0.00000000000E+00 0. -1.
         22    1    1    2    0    0  0.37014943866E+03 -0.14562772603E+03 -0.11998780970E+04  0.12640907757E+04  0.00000000000E+00 0. -1.
<mgrwt>
<rscale>  0 0.84909657E+03</rscale>
<asrwt>0</asrwt>
<pdfrwt beam="1">  1        2 0.56220550E+00 0.84909657E+03</pdfrwt>
<pdfrwt beam="2">  1       -2 0.75880884E-02 0.84909657E+03</pdfrwt>
<totfact> 0.72130021E+01</totfact>
</mgrwt>
</event>
<event>
 6    1  0.1637818E-005  0.2641279E+04  0.7818608E-02  0.8354313E-01
          2   -1    0    0  501    0  0.00000000000E+00  0.00000000000E+00  0.20742375509E+04  0.20742375509E+04  0.00000000000E+00 0.  1.
         -2   -1    0    0    0  501 -0.00000000000E+00 -0.00000000000E+00 -0.84083364571E+03  0.84083364571E+03  0.00000000000E+00 0. -1.
         23    2    1    2    0    0 -0.17147843030E+02  0.67786147607E+03  0.18661766239E+04  0.19876060799E+04  0.90401924572E+02 0.  0.
         11    1    3    3    0    0  0.23500926750E+02  0.53200272703E+03  0.14694790670E+04  0.15629932576E+04  0.00000000000E+00 0. -1.
        -11    1    3    3    0    0 -0.40648769780E+02  0.14585874904E+03  0.39669755696E+03  0.42461282229E+03  0.00000000000E+00 0.  1.
         22    1    1    2    0    0  0.17147843030E+02 -0.67786147607E+03 -0.63277271869E+03  0.92746511675E+03  0.00000000000E+00 0. -1.
<mgrwt>
<rscale>  0 0.26412790E+04</rscale>
<asrwt>0</asrwt>
<pdfrwt beam="1">  1        2 0.31911347E+00 0.26412790E+04</pdfrwt>
<pdfrwt beam="2">  1       -2 0.12935902E+00 0.26412790E+04</pdfrwt>
<totfact> 0.23547355E+00</totfact>
</mgrwt>
</event>
<event>
 6    1  0.1637818E-005  0.9057185E+03  0.7818608E-02  0.9418461E-01
          2   -1    0    0  501    0  0.00000000000E+00  0.00000000000E+00  0.11080780341E+04  0.11080780341E+04  0.00000000000E+00 0. -1.
         -2   -1    0    0    0  501 -0.00000000000E+00 -0.00000000000E+00 -0.18507859041E+03  0.18507859041E+03  0.00000000000E+00 0.  1.
         23    2    1    2    0    0  0.10010274595E+03  0.36530866788E+03  0.80807906336E+03  0.89733131408E+03  0.93491882014E+02 0.  0.
         11    1    3    3    0    0  0.24936471215E+02  0.14282072778E+03  0.21368536242E+03  0.25822668722E+03  0.00000000000E+00 0. -1.
        -11    1    3    3    0    0  0.75166274736E+02  0.22248794010E+03  0.59439370094E+03  0.63910462686E+03  0.00000000000E+00 0.  1.
         22    1    1    2    0    0 -0.10010274595E+03 -0.36530866788E+03  0.11492038036E+03  0.39582531046E+03  0.00000000000E+00 0.  1.
<mgrwt>
<rscale>  0 0.90571854E+03</rscale>
<asrwt>0</asrwt>
<pdfrwt beam="1">  1        2 0.17047354E+00 0.90571854E+03</pdfrwt>
<pdfrwt beam="2">  1       -2 0.28473630E-01 0.90571854E+03</pdfrwt>
<totfact> 0.24359250E+02</totfact>
</mgrwt>
</event>
<event>
 6    1  0.1637818E-005  0.2744008E+04  0.7818608E-02  0.8320865E-01
         -2   -1    0    0    0  501 -0.00000000000E+00  0.00000000000E+00  0.10986638157E+04  0.10986638157E+04  0.00000000000E+00 0.  1.
          2   -1    0    0  501    0  0.00000000000E+00 -0.00000000000E+00 -0.17133497792E+04  0.17133497792E+04  0.00000000000E+00 0. -1.
         23    2    1    2    0    0  0.77854986200E+03 -0.39945464123E+03  0.77326833428E+03  0.11712451679E+04  0.90373826567E+02 0.  0.
         13    1    3    3    0    0  0.19959367278E+03 -0.10093695622E+03  0.25218493797E+03  0.33708032616E+03  0.00000000000E+00 0.  1.
        -13    1    3    3    0    0  0.57895618922E+03 -0.29851768501E+03  0.52108339631E+03  0.83416484175E+03  0.00000000000E+00 0. -1.
         22    1    1    2    0    0 -0.77854986200E+03  0.39945464123E+03 -0.13879542978E+04  0.16407684269E+04  0.00000000000E+00 0. -1.
<mgrwt>
<rscale>  0 0.27440083E+04</rscale>
<asrwt>0</asrwt>
<pdfrwt beam="1">  1        2 0.26359227E+00 0.27440083E+04</pdfrwt>
<pdfrwt beam="2">  1       -2 0.16902520E+00 0.27440083E+04</pdfrwt>
<totfact> 0.18254116E+00</totfact>
</mgrwt>
</event>
<event>
 6    1  0.1637818E-005  0.4735880E+04  0.7818608E-02  0.7870594E-01
          2   -1    0    0  501    0  0.00000000000E+00  0.00000000000E+00  0.24079421966E+04  0.24079421966E+04  0.00000000000E+00 0. -1.
         -2   -1    0    0    0  501 -0.00000000000E+00 -0.00000000000E+00 -0.23286021973E+04  0.23286021973E+04  0.00000000000E+00 0.  1.
         23    2    1    2    0    0  0.18617828744E+04 -0.13337715916E+03 -0.14162046976E+04  0.23447503229E+04  0.90517366564E+02 0.  0.
         13    1    3    3    0    0  0.16303596075E+04 -0.12249075879E+03 -0.12760440225E+04  0.20739731876E+04  0.00000000000E+00 0. -1.
        -13    1    3    3    0    0  0.23142326686E+03 -0.10886400376E+02 -0.14016067510E+03  0.27077713530E+03  0.00000000000E+00 0.  1.
         22    1    1    2    0    0 -0.18617828744E+04  0.13337715916E+03  0.14955446968E+04  0.23917940710E+04  0.00000000000E+00 0. -1.
<mgrwt>
<rscale>  0 0.47358799E+04</rscale>
<asrwt>0</asrwt>
<pdfrwt beam="1">  1        2 0.37045264E+00 0.47358799E+04</pdfrwt>
<pdfrwt beam="2">  1       -2 0.35824650E+00 0.47358799E+04</pdfrwt>
<totfact> 0.40355166E-02</totfact>
</mgrwt>
</event>
<event>
 6    1  0.1637818E-005  0.3161683E+04  0.7818608E-02  0.8199011E-01
         -2   -1    0    0    0  501 -0.00000000000E+00  0.00000000000E+00  0.25101854594E+04  0.25101854594E+04  0.00000000000E+00 0.  1.
          2   -1    0    0  501    0  0.00000000000E+00 -0.00000000000E+00 -0.99556762103E+03  0.99556762103E+03  0.00000000000E+00 0. -1.
         23    2    1    2    0    0  0.13460854699E+04  0.78875417861E+03  0.48485362058E+03  0.16363966161E+04  0.92906433518E+02 0.  0.
         13    1    3    3    0    0  0.86771615529E+03  0.46470580699E+03  0.33082250607E+03  0.10384249341E+04  0.00000000000E+00 0.  1.
        -13    1    3    3    0    0  0.47836931457E+03  0.32404837162E+03  0.15403111451E+03  0.59797168203E+03  0.00000000000E+00 0. -1.
         22    1    1    2    0    0 -0.13460854699E+04 -0.78875417861E+03  0.10297642178E+04  0.18693564643E+04  0.00000000000E+00 0.  1.
<mgrwt>
<rscale>  0 0.31616827E+04</rscale>
<asrwt>0</asrwt>
<pdfrwt beam="1">  1        2 0.15316425E+00 0.31616827E+04</pdfrwt>
<pdfrwt beam="2">  1       -2 0.38618237E+00 0.31616827E+04</pdfrwt>
<totfact> 0.19543364E-01</totfact>
</mgrwt>
</event>
<event>
 6    1  0.1637818E-005  0.1293823E+04  0.7818608E-02  0.9034478E-01
         -1   -1    0    0    0  501 -0.00000000000E+00  0.00000000000E+00  0.36333822846E+03  0.36333822846E+03  0.00000000000E+00 0.  1.
          1   -1    0    0  501    0  0.00000000000E+00 -0.00000000000E+00 -0.11518038958E+04  0.11518038958E+04  0.00000000000E+00 0. -1.
         23    2    1    2    0    0 -0.28361079870E+03  0.28890165820E+03  0.18963522082E+03  0.45656732734E+03  0.92698188585E+02 0.  0.
         13    1    3    3    0    0 -0.98379006297E+02  0.50618941131E+02  0.75274566153E+02  0.13381691369E+03  0.00000000000E+00 0.  1.
        -13    1    3    3    0    0 -0.18523179240E+03  0.23828271707E+03  0.11436065467E+03  0.32275041364E+03  0.00000000000E+00 0. -1.
         22    1    1    2    0    0  0.28361079870E+03 -0.28890165820E+03 -0.97810088811E+03  0.10585747969E+04  0.00000000000E+00 0. -1.
<mgrwt>
<rscale>  0 0.12938228E+04</rscale>
<asrwt>0</asrwt>
<pdfrwt beam="1">  1        1 0.17720060E+00 0.12938228E+04</pdfrwt>
<pdfrwt beam="2">  1       -1 0.55898190E-01 0.12938228E+04</pdfrwt>
<totfact> 0.36898831E+01</totfact>
</mgrwt>
</event>
<event>
 6    1  0.1637818E-005  0.1257717E+04  0.7818608E-02  0.9063785E-01
          1   -1    0    0  501    0  0.00000000000E+00  0.00000000000E+00  0.41242823907E+03  0.41242823907E+03  0.00000000000E+00 0. -1.
         -1   -1    0    0    0  501 -0.00000000000E+00 -0.00000000000E+00 -0.95886518041E+03  0.95886518041E+03  0.00000000000E+00 0.  1.
         23    2    1    2    0    0 -0.47201460375E+03  0.33911516557E+03 -0.22593757498E+02  0.58885584182E+03  0.91890385235E+02 0.  0.
         11    1    3    3    0    0 -0.23154782955E+03  0.15120672402E+03  0.33490333022E+02  0.27856681993E+03  0.00000000000E+00 0. -1.
        -11    1    3    3    0    0 -0.24046677420E+03  0.18790844155E+03 -0.56084090520E+02  0.31028902190E+03  0.00000000000E+00 0.  1.
         22    1    1    2    0    0  0.47201460375E+03 -0.33911516557E+03 -0.52384318384E+03  0.78243757766E+03  0.00000000000E+00 0. -1.
<mgrwt>
<rscale>  0 0.12577171E+04</rscale>
<asrwt>0</asrwt>
<pdfrwt beam="1">  1        1 0.63450499E-01 0.12577171E+04</pdfrwt>
<pdfrwt beam="2">  1       -1 0.14751772E+00 0.12577171E+04</pdfrwt>
<totfact> 0.20715252E+01</totfact>
</mgrwt>
</event>
<event>
 6    1  0.1637818E-005  0.1832097E+04  0.7818608E-02  0.8689414E-01
          1   -1    0    0  501    0  0.00000000000E+00  0.00000000000E+00  0.13132732424E+04  0.13132732424E+04  0.00000000000E+00 0. -1.
         -1   -1    0    0    0  501 -0.00000000000E+00 -0.00000000000E+00 -0.63897203879E+03  0.63897203879E+03  0.00000000000E+00 0.  1.
         23    2    1    2    0    0  0.23771110431E+03 -0.88065599151E+03  0.39632172813E+03  0.99865515265E+03  0.90441457425E+02 0.  0.
         11    1    3    3    0    0  0.12346242576E+03 -0.61267157553E+03  0.25764998840E+03  0.67601253432E+03  0.00000000000E+00 0. -1.
        -11    1    3    3    0    0  0.11424867855E+03 -0.26798441598E+03  0.13867173973E+03  0.32264261833E+03  0.00000000000E+00 0.  1.
         22    1    1    2    0    0 -0.23771110431E+03  0.88065599151E+03  0.27797947549E+03  0.95359012856E+03  0.00000000000E+00 0.  1.
<mgrwt>
<rscale>  0 0.18320970E+04</rscale>
<asrwt>0</asrwt>
<pdfrwt beam="1">  1        1 0.20204204E+00 0.18320970E+04</pdfrwt>
<pdfrwt beam="2">  1       -1 0.98303391E-01 0.18320970E+04</pdfrwt>
<totfact> 0.82543670E+00</totfact>
</mgrwt>
</event>
<event>
 6    1  0.1637818E-005  0.6757441E+04  0.7818608E-02  0.7602981E-01
         -2   -1    0    0    0  501 -0.00000000000E+00  0.00000000000E+00  0.20292493495E+04  0.20292493495E+04  0.00000000000E+00 0.  1.
          2   -1    0    0  501    0  0.00000000000E+00 -0.00000000000E+00 -0.56256029314E+04  0.56256029314E+04  0.00000000000E+00 0. -1.
         23    2    1    2    0    0  0.99510079299E+03 -0.93589403058E+03  0.17013731940E+04  0.21838348055E+04  0.91326272713E+02 0.  0.
         13    1    3    3    0    0  0.10706698570E+03 -0.13223701538E+03  0.18174030800E+03  0.24895683806E+03  0.00000000000E+00 0.  1.
        -13    1    3    3    0    0  0.88803380729E+03 -0.80365701520E+03  0.15196328860E+04  0.19348779675E+04  0.00000000000E+00 0. -1.
         22    1    1    2    0    0 -0.99510079299E+03  0.93589403058E+03 -0.52977267758E+04  0.54710174754E+04  0.00000000000E+00 0. -1.
<mgrwt>
<rscale>  0 0.67574407E+04</rscale>
<asrwt>0</asrwt>
<pdfrwt beam="1">  1        2 0.86547737E+00 0.67574407E+04</pdfrwt>
<pdfrwt beam="2">  1       -2 0.31219221E+00 0.67574407E+04</pdfrwt>
<totfact> 0.54933300E-05</totfact>
</mgrwt>
</event>
<event>
 6    1  0.1637818E-005  0.2016179E+04  0.7818608E-02  0.8599093E-01
         -1   -1    0    0    0  501 -0.00000000000E+00  0.00000000000E+00  0.94119397147E+03  0.94119397147E+03  0.00000000000E+00 0.  1.
          1   -1    0    0  501    0  0.00000000000E+00 -0.00000000000E+00 -0.10797398949E+04  0.10797398949E+04  0.00000000000E+00 0. -1.
         23    2    1    2    0    0  0.90525892963E+03  0.43877170285E+03 -0.76669076956E+02  0.10130434552E+04  0.91457956865E+02 0.  0.
         11    1    3    3    0    0  0.20867549680E+03  0.13226393724E+03  0.88374376757E+01  0.24721915857E+03  0.00000000000E+00 0. -1.
        -11    1    3    3    0    0  0.69658343283E+03  0.30650776561E+03 -0.85506514631E+02  0.76582429663E+03  0.00000000000E+00 0.  1.
         22    1    1    2    0    0 -0.90525892963E+03 -0.43877170285E+03 -0.61876846529E+02  0.10078904112E+04  0.00000000000E+00 0. -1.
<mgrwt>
<rscale>  0 0.20161792E+04</rscale>
<asrwt>0</asrwt>
<pdfrwt beam="1">  1        1 0.16611383E+00 0.20161792E+04</pdfrwt>
<pdfrwt beam="2">  1       -1 0.14479907E+00 0.20161792E+04</pdfrwt>
<totfact> 0.46664127E+00</totfact>
</mgrwt>
</event>
<event>
 6    1  0.1637818E-005  0.1740950E+04  0.7818608E-02  0.8738348E-01
         -1   -1    0    0    0  501 -0.00000000000E+00  0.00000000000E+00  0.12858774798E+04  0.12858774798E+04  0.00000000000E+00 0.  1.
          1   -1    0    0  501    0  0.00000000000E+00 -0.00000000000E+00 -0.58926801908E+03  0.58926801908E+03  0.00000000000E+00 0. -1.
         23    2    1    2    0    0  0.46769024405E+02 -0.50609371011E+03 -0.40874596798E+03  0.65854005387E+03  0.91014016260E+02 0.  0.
         13    1    3    3    0    0 -0.62236882622E+01 -0.35752460716E+03 -0.30238199240E+03  0.46829205454E+03  0.00000000000E+00 0. -1.
        -13    1    3    3    0    0  0.52992712668E+02 -0.14856910295E+03 -0.10636397559E+03  0.19024799933E+03  0.00000000000E+00 0.  1.
         22    1    1    2    0    0 -0.46769024405E+02  0.50609371011E+03  0.11053554287E+04  0.12166054450E+04  0.00000000000E+00 0.  1.
<mgrwt>
<rscale>  0 0.17409497E+04</rscale>
<asrwt>0</asrwt>
<pdfrwt beam="1">  1        1 0.90656618E-01 0.17409497E+04</pdfrwt>
<pdfrwt beam="2">  1       -1 0.19782730E+00 0.17409497E+04</pdfrwt>
<totfact> 0.51931798E+00</totfact>
</mgrwt>
</event>
<event>
 6    1  0.1637818E-005  0.1653939E+04  0.7818608E-02  0.8788080E-01
         -1   -1    0    0    0  501 -0.00000000000E+00  0.00000000000E+00  0.45059693649E+03  0.45059693649E+03  0.00000000000E+00 0.  1.
          1   -1    0    0  501    0  0.00000000000E+00 -0.00000000000E+00 -0.15177161274E+04  0.15177161274E+04  0.00000000000E+00 0. -1.
         23    2    1    2    0    0  0.48915286353E+02  0.24436163627E+03  0.40022234351E+03  0.47995944557E+03  0.89876752404E+02 0.  0.
         11    1    3    3    0    0  0.30090796031E+02  0.15381316256E+03  0.32473676763E+03  0.36057996788E+03  0.00000000000E+00 0. -1.
        -11    1    3    3    0    0  0.18824490321E+02  0.90548473714E+02  0.75485575880E+02  0.11937947769E+03  0.00000000000E+00 0.  1.
         22    1    1    2    0    0 -0.48915286353E+02 -0.24436163627E+03 -0.14673415344E+04  0.14883536183E+04  0.00000000000E+00 0. -1.
<mgrwt>
<rscale>  0 0.16539386E+04</rscale>
<asrwt>0</asrwt>
<pdfrwt beam="1">  1        1 0.23349479E+00 0.16539386E+04</pdfrwt>
<pdfrwt beam="2">  1       -1 0.69322606E-01 0.16539386E+04</pdfrwt>
<totfact> 0.12786169E+01</totfact>
</mgrwt>
</event>
<event>
 6    1  0.1637818E-005  0.8713251E+03  0.7818608E-02  0.9462154E-01
          2   -1    0    0  501    0  0.00000000000E+00  0.00000000000E+00  0.60920817322E+03  0.60920817322E+03  0.00000000000E+00 0. -1.
         -2   -1    0    0    0  501 -0.00000000000E+00 -0.00000000000E+00 -0.31155500123E+03  0.31155500123E+03  0.00000000000E+00 0.  1.
         23    2    1    2    0    0  0.21019957953E+03 -0.32281970373E+03  0.35443831373E+03  0.53137779122E+03  0.91320394320E+02 0.  0.
         13    1    3    3    0    0  0.15703378697E+03 -0.18172416617E+03  0.25751812611E+03  0.35213473004E+03  0.00000000000E+00 0. -1.
        -13    1    3    3    0    0  0.53165792563E+02 -0.14109553756E+03  0.96920187614E+02  0.17924306119E+03  0.00000000000E+00 0.  1.
         22    1    1    2    0    0 -0.21019957953E+03  0.32281970373E+03 -0.56785141733E+02  0.38938538323E+03  0.00000000000E+00 0. -1.
<mgrwt>
<rscale>  0 0.87132509E+03</rscale>
<asrwt>0</asrwt>
<pdfrwt beam="1">  1        2 0.93724334E-01 0.87132509E+03</pdfrwt>
<pdfrwt beam="2">  1       -2 0.47931539E-01 0.87132509E+03</pdfrwt>
<totfact> 0.20166182E+02</totfact>
</mgrwt>
</event>
<event>
 6    1  0.1637818E-005  0.4022614E+03  0.7818608E-02  0.1042999E+00
          2   -1    0    0  501    0  0.00000000000E+00  0.00000000000E+00  0.48243234177E+02  0.48243234177E+02  0.00000000000E+00 0. -1.
         -2   -1    0    0    0  501 -0.00000000000E+00 -0.00000000000E+00 -0.83853333159E+03  0.83853333159E+03  0.00000000000E+00 0.  1.
         23    2    1    2    0    0 -0.16222541895E+03 -0.74525124273E+02 -0.56816954458E+03  0.60180530284E+03  0.86498037193E+02 0.  0.
         13    1    3    3    0    0 -0.16242476776E+02 -0.38345488826E+02 -0.19639044888E+03  0.20075707453E+03  0.00000000000E+00 0. -1.
        -13    1    3    3    0    0 -0.14598294218E+03 -0.36179635447E+02 -0.37177909570E+03  0.40104822831E+03  0.00000000000E+00 0.  1.
         22    1    1    2    0    0  0.16222541895E+03  0.74525124273E+02 -0.22212055283E+03  0.28497126292E+03  0.00000000000E+00 0. -1.
<mgrwt>
<rscale>  0 0.40226141E+03</rscale>
<asrwt>0</asrwt>
<pdfrwt beam="1">  1        2 0.74220362E-02 0.40226141E+03</pdfrwt>
<pdfrwt beam="2">  1       -2 0.12900513E+00 0.40226141E+03</pdfrwt>
<totfact> 0.43722928E+02</totfact>
</mgrwt>
</event>
<event>
 6    1  0.1637818E-005  0.2721046E+04  0.7818608E-02  0.8328208E-01
         -1   -1    0    0    0  501 -0.00000000000E+00  0.00000000000E+00  0.26196996383E+04  0.26196996383E+04  0.00000000000E+00 0. -1.
          1   -1    0    0  501    0  0.00000000000E+00 -0.00000000000E+00 -0.70657847138E+03  0.70657847138E+03  0.00000000000E+00 0.  1.
         23    2    1    2    0    0 -0.62480149481E+03 -0.11877584315E+04  0.69577365008E+03  0.15143504135E+04  0.89494150738E+02 0.  0.
         11    1    3    3    0    0 -0.45224440749E+03 -0.82697398796E+03  0.44518660290E+03  0.10424020780E+04  0.00000000000E+00 0. -1.
        -11    1    3    3    0    0 -0.17255708732E+03 -0.36078444356E+03  0.25058704718E+03  0.47194833543E+03  0.00000000000E+00 0.  1.
         22    1    1    2    0    0  0.62480149481E+03  0.11877584315E+04  0.12173475168E+04  0.18119276962E+04  0.00000000000E+00 0. -1.
<mgrwt>
<rscale>  0 0.27210464E+04</rscale>
<asrwt>0</asrwt>
<pdfrwt beam="1">  1        1 0.10870438E+00 0.27210464E+04</pdfrwt>
<pdfrwt beam="2">  1       -1 0.40303071E+00 0.27210464E+04</pdfrwt>
<totfact> 0.15958425E-01</totfact>
</mgrwt>
</event>
<event>
 6    1  0.1637818E-005  0.3779767E+04  0.7818608E-02  0.8050511E-01
         -2   -1    0    0    0  501 -0.00000000000E+00  0.00000000000E+00  0.13049702114E+04  0.13049702114E+04  0.00000000000E+00 0.  1.
          2   -1    0    0  501    0  0.00000000000E+00 -0.00000000000E+00 -0.27369659083E+04  0.27369659083E+04  0.00000000000E+00 0. -1.
         23    2    1    2    0    0  0.18062821585E+04  0.50250211563E+03 -0.96224634065E+03  0.21091070869E+04  0.85153225953E+02 0.  0.
         13    1    3    3    0    0  0.30595771523E+03  0.89426407902E+02 -0.12856681563E+03  0.34371009880E+03  0.00000000000E+00 0.  1.
        -13    1    3    3    0    0  0.15003244432E+04  0.41307570773E+03 -0.83367952502E+03  0.17653969881E+04  0.00000000000E+00 0. -1.
         22    1    1    2    0    0 -0.18062821585E+04 -0.50250211563E+03 -0.46974935621E+03  0.19328290327E+04  0.00000000000E+00 0.  1.
<mgrwt>
<rscale>  0 0.37797666E+04</rscale>
<asrwt>0</asrwt>
<pdfrwt beam="1">  1        2 0.42107168E+00 0.37797666E+04</pdfrwt>
<pdfrwt beam="2">  1       -2 0.20076465E+00 0.37797666E+04</pdfrwt>
<totfact> 0.26641380E-01</totfact>
</mgrwt>
</event>
<event>
 6    1  0.1637818E-005  0.1013275E+04  0.7818608E-02  0.9294104E-01
         -2   -1    0    0    0  501 -0.00000000000E+00  0.00000000000E+00  0.13129502491E+03  0.13129502491E+03  0.00000000000E+00 0. -1.
          2   -1    0    0  501    0  0.00000000000E+00 -0.00000000000E+00 -0.19549978072E+04  0.19549978072E+04  0.00000000000E+00 0.  1.
         23    2    1    2    0    0  0.14374307793E+03  0.38933011826E+03 -0.33293645204E+03  0.53883547733E+03  0.85187892916E+02 0.  0.
         13    1    3    3    0    0  0.13714031801E+03  0.26107692091E+03 -0.24180127905E+03  0.38136135621E+03  0.00000000000E+00 0. -1.
        -13    1    3    3    0    0  0.66027599137E+01  0.12825319735E+03 -0.91135172988E+02  0.15747412113E+03  0.00000000000E+00 0.  1.
         22    1    1    2    0    0 -0.14374307793E+03 -0.38933011826E+03 -0.14907663302E+04  0.15474573548E+04  0.00000000000E+00 0.  1.
<mgrwt>
<rscale>  0 0.10132749E+04</rscale>
<asrwt>0</asrwt>
<pdfrwt beam="1">  1        2 0.30076889E+00 0.10132749E+04</pdfrwt>
<pdfrwt beam="2">  1       -2 0.20199235E-01 0.10132749E+04</pdfrwt>
<totfact> 0.14875138E+02</totfact>
</mgrwt>
</event>
<event>
 6    1  0.1637818E-005  0.1228411E+04  0.7818608E-02  0.9088346E-01
         -1   -1    0    0    0  501 -0.00000000000E+00  0.00000000000E+00  0.14907611458E+03  0.14907611458E+03  0.00000000000E+00 0.  1.
          1   -1    0    0  501    0  0.00000000000E+00 -0.00000000000E+00 -0.25305738060E+04  0.25305738060E+04  0.00000000000E+00 0. -1.
         23    2    1    2    0    0 -0.36534879985E+03  0.47952423659E+03 -0.14118231958E+04  0.15378566527E+04  0.91296819200E+02 0.  0.
         11    1    3    3    0    0 -0.27023760705E+03  0.29657539710E+03 -0.86771461367E+03  0.95598848383E+03  0.00000000000E+00 0. -1.
        -11    1    3    3    0    0 -0.95111192792E+02  0.18294883948E+03 -0.54410858212E+03  0.58186816891E+03  0.00000000000E+00 0.  1.
         22    1    1    2    0    0  0.36534879985E+03 -0.47952423659E+03 -0.96967449564E+03  0.11417932679E+04  0.00000000000E+00 0.  1.
<mgrwt>
<rscale>  0 0.12284105E+04</rscale>
<asrwt>0</asrwt>
<pdfrwt beam="1">  1        1 0.38931902E+00 0.12284105E+04</pdfrwt>
<pdfrwt beam="2">  1       -1 0.22934788E-01 0.12284105E+04</pdfrwt>
<totfact> 0.20809320E+01</totfact>
</mgrwt>
</event>
<event>
 6    1  0.1637818E-005  0.9359675E+03  0.7818608E-02  0.9381704E-01
          2   -1    0    0  501    0  0.00000000000E+00  0.00000000000E+00  0.14973088593E+03  0.14973088593E+03  0.00000000000E+00 0. -1.
         -2   -1    0    0    0  501 -0.00000000000E+00 -0.00000000000E+00 -0.14626827760E+04  0.14626827760E+04  0.00000000000E+00 0.  1.
         23    2    1    2    0    0  0.11030403237E+03  0.20223158663E+03 -0.13555630436E+04  0.13781482044E+04  0.93148880666E+02 0.  0.
         13    1    3    3    0    0  0.10321125597E+03  0.16614739773E+03 -0.12706175716E+04  0.12855841218E+04  0.00000000000E+00 0.  1.
        -13    1    3    3    0    0  0.70927763969E+01  0.36084188901E+02 -0.84945472050E+02  0.92564082599E+02  0.00000000000E+00 0. -1.
         22    1    1    2    0    0 -0.11030403237E+03 -0.20223158663E+03  0.42611153515E+02  0.23426545753E+03  0.00000000000E+00 0. -1.
<mgrwt>
<rscale>  0 0.93596749E+03</rscale>
<asrwt>0</asrwt>
<pdfrwt beam="1">  1        2 0.23035520E-01 0.93596749E+03</pdfrwt>
<pdfrwt beam="2">  1       -2 0.22502813E+00 0.93596749E+03</pdfrwt>
<totfact> 0.22301390E+01</totfact>
</mgrwt>
</event>
<event>
 6    1  0.1637818E-005  0.2237611E+04  0.7818608E-02  0.8502935E-01
         -2   -1    0    0    0  501 -0.00000000000E+00  0.00000000000E+00  0.88362938359E+03  0.88362938359E+03  0.00000000000E+00 0.  1.
          2   -1    0    0  501    0  0.00000000000E+00 -0.00000000000E+00 -0.14165727524E+04  0.14165727524E+04  0.00000000000E+00 0. -1.
         23    2    1    2    0    0  0.25479835352E+03  0.70294217104E+03  0.58607735759E+03  0.95437254688E+03  0.91051591853E+02 0.  0.
         13    1    3    3    0    0  0.53861350067E+01  0.85508949938E+02  0.47749358579E+02  0.98085637147E+02  0.00000000000E+00 0. -1.
        -13    1    3    3    0    0  0.24941221851E+03  0.61743322110E+03  0.53832799901E+03  0.85628690973E+03  0.00000000000E+00 0.  1.
         22    1    1    2    0    0 -0.25479835352E+03 -0.70294217104E+03 -0.11190207264E+04  0.13458295891E+04  0.00000000000E+00 0. -1.
<mgrwt>
<rscale>  0 0.22376106E+04</rscale>
<asrwt>0</asrwt>
<pdfrwt beam="1">  1        2 0.21793427E+00 0.22376106E+04</pdfrwt>
<pdfrwt beam="2">  1       -2 0.13594298E+00 0.22376106E+04</pdfrwt>
<totfact> 0.50007316E+00</totfact>
</mgrwt>
</event>
<event>
 6    1  0.1637818E-005  0.3011452E+04  0.7818608E-02  0.8240468E-01
          2   -1    0    0  501    0  0.00000000000E+00  0.00000000000E+00  0.24902825570E+04  0.24902825570E+04  0.00000000000E+00 0. -1.
         -2   -1    0    0    0  501 -0.00000000000E+00 -0.00000000000E+00 -0.91042330981E+03  0.91042330981E+03  0.00000000000E+00 0.  1.
         23    2    1    2    0    0 -0.20134917026E+03  0.63332379455E+03  0.23147539852E+04  0.24098926689E+04  0.88634904124E+02 0.  0.
         13    1    3    3    0    0 -0.10062591811E+03  0.39097228890E+03  0.15326010488E+04  0.15848819769E+04  0.00000000000E+00 0.  1.
        -13    1    3    3    0    0 -0.10072325215E+03  0.24235150565E+03  0.78215293644E+03  0.82501069193E+03  0.00000000000E+00 0. -1.
         22    1    1    2    0    0  0.20134917026E+03 -0.63332379455E+03 -0.73489473807E+03  0.99081319791E+03  0.00000000000E+00 0.  1.
<mgrwt>
<rscale>  0 0.30114523E+04</rscale>
<asrwt>0</asrwt>
<pdfrwt beam="1">  1        2 0.38312039E+00 0.30114523E+04</pdfrwt>
<pdfrwt beam="2">  1       -2 0.14006513E+00 0.30114523E+04</pdfrwt>
<totfact> 0.10816881E+00</totfact>
</mgrwt>
</event>
<event>
 6    1  0.1637818E-005  0.1846898E+04  0.7818608E-02  0.8681750E-01
         -2   -1    0    0    0  501 -0.00000000000E+00  0.00000000000E+00  0.43193235096E+03  0.43193235096E+03  0.00000000000E+00 0.  1.
          2   -1    0    0  501    0  0.00000000000E+00 -0.00000000000E+00 -0.19742852958E+04  0.19742852958E+04  0.00000000000E+00 0. -1.
         23    2    1    2    0    0 -0.47360506070E+02 -0.28004826345E+03 -0.19146882424E+04  0.19379190014E+04  0.93962454174E+02 0.  0.
         11    1    3    3    0    0  0.67307490299E+01 -0.21244194098E+03 -0.13734681040E+04  0.13898170793E+04  0.00000000000E+00 0. -1.
        -11    1    3    3    0    0 -0.54091255100E+02 -0.67606322473E+02 -0.54122013848E+03  0.54810192210E+03  0.00000000000E+00 0.  1.
         22    1    1    2    0    0  0.47360506070E+02  0.28004826345E+03  0.37233529761E+03  0.46829864536E+03  0.00000000000E+00 0.  1.
<mgrwt>
<rscale>  0 0.18468976E+04</rscale>
<asrwt>0</asrwt>
<pdfrwt beam="1">  1        2 0.30373620E+00 0.18468976E+04</pdfrwt>
<pdfrwt beam="2">  1       -2 0.66451130E-01 0.18468976E+04</pdfrwt>
<totfact> 0.13517860E+01</totfact>
</mgrwt>
</event>
<event>
 6    1  0.1637818E-005  0.1446003E+04  0.7818608E-02  0.8921176E-01
          2   -1    0    0  501    0  0.00000000000E+00  0.00000000000E+00  0.66604502573E+03  0.66604502573E+03  0.00000000000E+00 0.  1.
         -2   -1    0    0    0  501 -0.00000000000E+00 -0.00000000000E+00 -0.78482835137E+03  0.78482835137E+03  0.00000000000E+00 0. -1.
         23    2    1    2    0    0  0.26906616044E+03 -0.63375619694E+03 -0.27139815110E+03  0.74565369445E+03  0.91098626678E+02 0.  0.
         11    1    3    3    0    0  0.21446989201E+03 -0.55236946843E+03 -0.20385833869E+03  0.62663193861E+03  0.00000000000E+00 0. -1.
        -11    1    3    3    0    0  0.54596268434E+02 -0.81386728508E+02 -0.67539812415E+02  0.11902175585E+03  0.00000000000E+00 0.  1.
         22    1    1    2    0    0 -0.26906616044E+03  0.63375619694E+03  0.15261482546E+03  0.70521968265E+03  0.00000000000E+00 0.  1.
<mgrwt>
<rscale>  0 0.14460028E+04</rscale>
<asrwt>0</asrwt>
<pdfrwt beam="1">  1        2 0.10246847E+00 0.14460028E+04</pdfrwt>
<pdfrwt beam="2">  1       -2 0.12074282E+00 0.14460028E+04</pdfrwt>
<totfact> 0.22121950E+01</totfact>
</mgrwt>
</event>
<event>
 6    1  0.2667511E-005  0.2296552E+04  0.7818608E-02  0.8479282E-01
         -2   -1    0    0    0  501 -0.00000000000E+00  0.00000000000E+00  0.79194211055E+03  0.79194211055E+03  0.00000000000E+00 0.  1.
          2   -1    0    0  501    0  0.00000000000E+00 -0.00000000000E+00 -0.16649428318E+04  0.16649428318E+04  0.00000000000E+00 0. -1.
         23    2    1    2    0    0 -0.15307400543E+03  0.47602331520E+03 -0.15409052364E+04  0.16225431125E+04  0.90704777888E+02 0.  0.
         13    1    3    3    0    0 -0.68632947818E+02  0.16129158386E+03 -0.67386602620E+03  0.69629079975E+03  0.00000000000E+00 0. -1.
        -13    1    3    3    0    0 -0.84441057611E+02  0.31473173133E+03 -0.86703921017E+03  0.92625231276E+03  0.00000000000E+00 0.  1.
         22    1    1    2    0    0  0.15307400543E+03 -0.47602331520E+03  0.66790451511E+03  0.83434182986E+03  0.00000000000E+00 0.  1.
<mgrwt>
<rscale>  0 0.22965525E+04</rscale>
<asrwt>0</asrwt>
<pdfrwt beam="1">  1        2 0.25614505E+00 0.22965525E+04</pdfrwt>
<pdfrwt beam="2">  1       -2 0.12183725E+00 0.22965525E+04</pdfrwt>
<totfact> 0.47567812E+00</totfact>
</mgrwt>
</event>
<event>
 6    1  0.1637818E-005  0.1256240E+04  0.7818608E-02  0.9065005E-01
          1   -1    0    0  501    0  0.00000000000E+00  0.00000000000E+00  0.71416603546E+03  0.71416603546E+03  0.00000000000E+00 0.  1.
         -1   -1    0    0    0  501 -0.00000000000E+00 -0.00000000000E+00 -0.55244141916E+03  0.55244141916E+03  0.00000000000E+00 0. -1.
         23    2    1    2    0    0 -0.34094855880E+03  0.22025136611E+03 -0.39757802439E+03  0.57553869689E+03  0.91760133590E+02 0.  0.
         13    1    3    3    0    0 -0.17096984784E+03  0.16445469611E+03 -0.22408722267E+03  0.32632977079E+03  0.00000000000E+00 0. -1.
        -13    1    3    3    0    0 -0.16997871096E+03  0.55796669996E+02 -0.17349080173E+03  0.24920892609E+03  0.00000000000E+00 0.  1.
         22    1    1    2    0    0  0.34094855880E+03 -0.22025136611E+03  0.55930264069E+03  0.69106875772E+03  0.00000000000E+00 0.  1.
<mgrwt>
<rscale>  0 0.12562403E+04</rscale>
<asrwt>0</asrwt>
<pdfrwt beam="1">  1        1 0.10987170E+00 0.12562403E+04</pdfrwt>
<pdfrwt beam="2">  1       -1 0.84990988E-01 0.12562403E+04</pdfrwt>
<totfact> 0.35683195E+01</totfact>
</mgrwt>
</event>
<event>
 6    1  0.1637818E-005  0.4677095E+04  0.7818608E-02  0.7880345E-01
          2   -1    0    0  501    0  0.00000000000E+00  0.00000000000E+00  0.16209208921E+04  0.16209208921E+04  0.00000000000E+00 0.  1.
         -2   -1    0    0    0  501 -0.00000000000E+00 -0.00000000000E+00 -0.33738879967E+04  0.33738879967E+04  0.00000000000E+00 0. -1.
         23    2    1    2    0    0 -0.99245530429E+03 -0.15758686769E+04  0.63207340779E+03  0.19687970145E+04  0.91188120711E+02 0.  0.
         11    1    3    3    0    0 -0.70835013015E+03 -0.11601907761E+04  0.49879822200E+03  0.14479648511E+04  0.00000000000E+00 0.  1.
        -11    1    3    3    0    0 -0.28410517413E+03 -0.41567790082E+03  0.13327518579E+03  0.52083216332E+03  0.00000000000E+00 0. -1.
         22    1    1    2    0    0  0.99245530429E+03  0.15758686769E+04 -0.23850405124E+04  0.30260118743E+04  0.00000000000E+00 0. -1.
<mgrwt>
<rscale>  0 0.46770955E+04</rscale>
<asrwt>0</asrwt>
<pdfrwt beam="1">  1        2 0.24937245E+00 0.46770955E+04</pdfrwt>
<pdfrwt beam="2">  1       -2 0.51905969E+00 0.46770955E+04</pdfrwt>
<totfact> 0.10321678E-02</totfact>
</mgrwt>
</event>
<event>
 6    1  0.1637818E-005  0.2513734E+04  0.7818608E-02  0.8398109E-01
          2   -1    0    0  501    0  0.00000000000E+00  0.00000000000E+00  0.14572906274E+04  0.14572906274E+04  0.00000000000E+00 0. -1.
         -2   -1    0    0    0  501 -0.00000000000E+00 -0.00000000000E+00 -0.10840076270E+04  0.10840076270E+04  0.00000000000E+00 0.  1.
         23    2    1    2    0    0 -0.75989196226E+03 -0.95320874826E+03  0.48902668504E+03  0.13167823041E+04  0.93412127905E+02 0.  0.
         11    1    3    3    0    0 -0.49517338453E+03 -0.65553048254E+03  0.37011551285E+03  0.90105626191E+03  0.00000000000E+00 0. -1.
        -11    1    3    3    0    0 -0.26471857774E+03 -0.29767826572E+03  0.11891117220E+03  0.41572604219E+03  0.00000000000E+00 0.  1.
         22    1    1    2    0    0  0.75989196226E+03  0.95320874826E+03 -0.11574368470E+03  0.12245159503E+04  0.00000000000E+00 0.  1.
<mgrwt>
<rscale>  0 0.25137336E+04</rscale>
<asrwt>0</asrwt>
<pdfrwt beam="1">  1        2 0.22419856E+00 0.25137336E+04</pdfrwt>
<pdfrwt beam="2">  1       -2 0.16677040E+00 0.25137336E+04</pdfrwt>
<totfact> 0.26881954E+00</totfact>
</mgrwt>
</event>
<event>
 6    1  0.1637818E-005  0.2546755E+04  0.7818608E-02  0.8386516E-01
         -2   -1    0    0    0  501 -0.00000000000E+00  0.00000000000E+00  0.96875302460E+03  0.96875302460E+03  0.00000000000E+00 0.  1.
          2   -1    0    0  501    0  0.00000000000E+00 -0.00000000000E+00 -0.16737913763E+04  0.16737913763E+04  0.00000000000E+00 0. -1.
         23    2    1    2    0    0 -0.78336057721E+03 -0.81162848394E+03 -0.96260671594E+03  0.14855067817E+04  0.87886967776E+02 0.  0.
         11    1    3    3    0    0 -0.22402204654E+03 -0.26629346361E+03 -0.25416886324E+03  0.43092910918E+03  0.00000000000E+00 0.  1.
        -11    1    3    3    0    0 -0.55933853067E+03 -0.54533502033E+03 -0.70843785271E+03  0.10545776725E+04  0.00000000000E+00 0. -1.
         22    1    1    2    0    0  0.78336057721E+03  0.81162848394E+03  0.25756836427E+03  0.11570376192E+04  0.00000000000E+00 0.  1.
<mgrwt>
<rscale>  0 0.25467552E+04</rscale>
<asrwt>0</asrwt>
<pdfrwt beam="1">  1        2 0.25750636E+00 0.25467552E+04</pdfrwt>
<pdfrwt beam="2">  1       -2 0.14903893E+00 0.25467552E+04</pdfrwt>
<totfact> 0.27466627E+00</totfact>
</mgrwt>
</event>
<event>
 6    1  0.1637818E-005  0.1940396E+04  0.7818608E-02  0.8635006E-01
          2   -1    0    0  501    0  0.00000000000E+00  0.00000000000E+00  0.89182223352E+03  0.89182223352E+03  0.00000000000E+00 0. -1.
         -2   -1    0    0    0  501 -0.00000000000E+00 -0.00000000000E+00 -0.10554617233E+04  0.10554617233E+04  0.00000000000E+00 0.  1.
         23    2    1    2    0    0 -0.83865623744E+02 -0.42571916290E+03 -0.95008497567E+03  0.10490820025E+04  0.98190317321E+02 0.  0.
         11    1    3    3    0    0  0.20300445070E+02 -0.12249447186E+03 -0.25586898962E+03  0.28440454208E+03  0.00000000000E+00 0. -1.
        -11    1    3    3    0    0 -0.10416606881E+03 -0.30322469104E+03 -0.69421598605E+03  0.76467746039E+03  0.00000000000E+00 0.  1.
         22    1    1    2    0    0  0.83865623744E+02  0.42571916290E+03  0.78644548589E+03  0.89820195434E+03  0.00000000000E+00 0. -1.
<mgrwt>
<rscale>  0 0.19403961E+04</rscale>
<asrwt>0</asrwt>
<pdfrwt beam="1">  1        2 0.13720342E+00 0.19403961E+04</pdfrwt>
<pdfrwt beam="2">  1       -2 0.16237873E+00 0.19403961E+04</pdfrwt>
<totfact> 0.67055635E+00</totfact>
</mgrwt>
</event>
<event>
 6    1  0.1637818E-005  0.1449997E+04  0.7818608E-02  0.8918403E-01
         -2   -1    0    0    0  501 -0.00000000000E+00  0.00000000000E+00  0.45252138447E+03  0.45252138447E+03  0.00000000000E+00 0.  1.
          2   -1    0    0  501    0  0.00000000000E+00 -0.00000000000E+00 -0.11615424821E+04  0.11615424821E+04  0.00000000000E+00 0. -1.
         23    2    1    2    0    0  0.47154876422E+03  0.19198387852E+03  0.21401846601E+03  0.55992057333E+03  0.92147153995E+02 0.  0.
         13    1    3    3    0    0  0.41230858489E+03  0.16883736184E+03  0.21836027902E+03  0.49617097394E+03  0.00000000000E+00 0.  1.
        -13    1    3    3    0    0  0.59240179331E+02  0.23146516673E+02 -0.43418130090E+01  0.63749599383E+02  0.00000000000E+00 0. -1.
         22    1    1    2    0    0 -0.47154876422E+03 -0.19198387852E+03 -0.92303956361E+03  0.10541432932E+04  0.00000000000E+00 0. -1.
<mgrwt>
<rscale>  0 0.14499970E+04</rscale>
<asrwt>0</asrwt>
<pdfrwt beam="1">  1        2 0.17869884E+00 0.14499970E+04</pdfrwt>
<pdfrwt beam="2">  1       -2 0.69618676E-01 0.14499970E+04</pdfrwt>
<totfact> 0.36451253E+01</totfact>
</mgrwt>
</event>
<event>
 6    1  0.1842028E-005  0.4844511E+04  0.7818608E-02  0.7852951E-01
          2   -1    0    0  501    0  0.00000000000E+00  0.00000000000E+00  0.22640069776E+04  0.22640069776E+04  0.00000000000E+00 0.  1.
         -2   -1    0    0    0  501 -0.00000000000E+00 -0.00000000000E+00 -0.25915649116E+04  0.25915649116E+04  0.00000000000E+00 0. -1.
         23    2    1    2    0    0 -0.11463554191E+04  0.13593923303E+03  0.19695354341E+04  0.22847260820E+04  0.91067127486E+02 0.  0.
         11    1    3    3    0    0 -0.28816839387E+03  0.52023368138E+02  0.43173706547E+03  0.52167456116E+03  0.00000000000E+00 0.  1.
        -11    1    3    3    0    0 -0.85818702525E+03  0.83915864893E+02  0.15377983686E+04  0.17630515209E+04  0.00000000000E+00 0. -1.
         22    1    1    2    0    0  0.11463554191E+04 -0.13593923303E+03 -0.22970933681E+04  0.25708458071E+04  0.00000000000E+00 0. -1.
<mgrwt>
<rscale>  0 0.48445107E+04</rscale>
<asrwt>0</asrwt>
<pdfrwt beam="1">  1        2 0.34830877E+00 0.48445107E+04</pdfrwt>
<pdfrwt beam="2">  1       -2 0.39870229E+00 0.48445107E+04</pdfrwt>
<totfact> 0.26521932E-02</totfact>
</mgrwt>
</event>
<event>
 6    1  0.1637818E-005  0.2536246E+04  0.7818608E-02  0.8390185E-01
         -2   -1    0    0    0  501 -0.00000000000E+00  0.00000000000E+00  0.11133828494E+04  0.11133828494E+04  0.00000000000E+00 0.  1.
          2   -1    0    0  501    0  0.00000000000E+00 -0.00000000000E+00 -0.14443688459E+04  0.14443688459E+04  0.00000000000E+00 0. -1.
         23    2    1    2    0    0 -0.36824835589E+03  0.86415450482E+03 -0.10225067798E+04  0.13913165906E+04  0.88723620135E+02 0.  0.
         11    1    3    3    0    0 -0.20634794667E+03  0.38426464249E+03 -0.50346097752E+03  0.66611691650E+03  0.00000000000E+00 0.  1.
        -11    1    3    3    0    0 -0.16190040922E+03  0.47988986233E+03 -0.51904580228E+03  0.72519967411E+03  0.00000000000E+00 0. -1.
         22    1    1    2    0    0  0.36824835589E+03 -0.86415450482E+03  0.69152078323E+03  0.11664351047E+04  0.00000000000E+00 0.  1.
<mgrwt>
<rscale>  0 0.25362457E+04</rscale>
<asrwt>0</asrwt>
<pdfrwt beam="1">  1        2 0.22221059E+00 0.25362457E+04</pdfrwt>
<pdfrwt beam="2">  1       -2 0.17128967E+00 0.25362457E+04</pdfrwt>
<totfact> 0.25334158E+00</totfact>
</mgrwt>
</event>
<event>
 6    1  0.1637818E-005  0.3977774E+04  0.7818608E-02  0.8009045E-01
         -2   -1    0    0    0  501 -0.00000000000E+00  0.00000000000E+00  0.10034129390E+04  0.10034129390E+04  0.00000000000E+00 0.  1.
          2   -1    0    0  501    0  0.00000000000E+00 -0.00000000000E+00 -0.39422161085E+04  0.39422161085E+04  0.00000000000E+00 0. -1.
         23    2    1    2    0    0  0.12479049018E+04  0.11007685863E+04 -0.11797382465E+03  0.16705662516E+04  0.88969956540E+02 0.  0.
         13    1    3    3    0    0  0.63792733100E+03  0.57752774018E+03 -0.17841233272E+02  0.86070196928E+03  0.00000000000E+00 0. -1.
        -13    1    3    3    0    0  0.60997757082E+03  0.52324084611E+03 -0.10013259138E+03  0.80986428233E+03  0.00000000000E+00 0.  1.
         22    1    1    2    0    0 -0.12479049018E+04 -0.11007685863E+04 -0.28208293448E+04  0.32750627959E+04  0.00000000000E+00 0. -1.
<mgrwt>
<rscale>  0 0.39777736E+04</rscale>
<asrwt>0</asrwt>
<pdfrwt beam="1">  1        2 0.60649480E+00 0.39777736E+04</pdfrwt>
<pdfrwt beam="2">  1       -2 0.15437122E+00 0.39777736E+04</pdfrwt>
<totfact> 0.83213945E-02</totfact>
</mgrwt>
</event>
<event>
 6    1  0.1637818E-005  0.7716870E+03  0.7818608E-02  0.9601928E-01
         -1   -1    0    0    0  501 -0.00000000000E+00  0.00000000000E+00  0.22450564745E+03  0.22450564745E+03  0.00000000000E+00 0.  1.
          1   -1    0    0  501    0  0.00000000000E+00 -0.00000000000E+00 -0.66312456103E+03  0.66312456103E+03  0.00000000000E+00 0. -1.
         23    2    1    2    0    0 -0.27103865396E+03  0.13080778294E+02 -0.52908450737E+03  0.60159335358E+03  0.91384289845E+02 0.  0.
         11    1    3    3    0    0 -0.13143507593E+03  0.26526990364E+02 -0.17295883664E+03  0.21884610935E+03  0.00000000000E+00 0. -1.
        -11    1    3    3    0    0 -0.13960357803E+03 -0.13446212070E+02 -0.35612567073E+03  0.38274724423E+03  0.00000000000E+00 0.  1.
         22    1    1    2    0    0  0.27103865396E+03 -0.13080778294E+02  0.90465593782E+02  0.28603685490E+03  0.00000000000E+00 0.  1.
<mgrwt>
<rscale>  0 0.77168701E+03</rscale>
<asrwt>0</asrwt>
<pdfrwt beam="1">  1        1 0.10201916E+00 0.77168701E+03</pdfrwt>
<pdfrwt beam="2">  1       -1 0.34539331E-01 0.77168701E+03</pdfrwt>
<totfact> 0.23745433E+02</totfact>
</mgrwt>
</event>
<event>
 6    1  0.1637818E-005  0.3734676E+04  0.7818608E-02  0.8060320E-01
          2   -1    0    0  501    0  0.00000000000E+00  0.00000000000E+00  0.88582309731E+03  0.88582309731E+03  0.00000000000E+00 0. -1.
         -2   -1    0    0    0  501 -0.00000000000E+00 -0.00000000000E+00 -0.39363967523E+04  0.39363967523E+04  0.00000000000E+00 0.  1.
         23    2    1    2    0    0 -0.73962865343E+03 -0.16881938905E+04 -0.11483049264E+04  0.21735078093E+04  0.92102313304E+02 0.  0.
         13    1    3    3    0    0 -0.30673708476E+03 -0.71109016302E+03 -0.42941556527E+03  0.88551374174E+03  0.00000000000E+00 0. -1.
        -13    1    3    3    0    0 -0.43289156868E+03 -0.97710372747E+03 -0.71888936112E+03  0.12879940675E+04  0.00000000000E+00 0.  1.
         22    1    1    2    0    0  0.73962865343E+03  0.16881938905E+04 -0.19022687286E+04  0.26487120404E+04  0.00000000000E+00 0. -1.
<mgrwt>
<rscale>  0 0.37346760E+04</rscale>
<asrwt>0</asrwt>
<pdfrwt beam="1">  1        2 0.13628048E+00 0.37346760E+04</pdfrwt>
<pdfrwt beam="2">  1       -2 0.60559950E+00 0.37346760E+04</pdfrwt>
<totfact> 0.11615473E-02</totfact>
</mgrwt>
</event>
<event>
 6    1  0.1637818E-005  0.5908981E+03  0.7818608E-02  0.9924472E-01
         -1   -1    0    0    0  501 -0.00000000000E+00  0.00000000000E+00  0.11550869148E+03  0.11550869148E+03  0.00000000000E+00 0.  1.
          1   -1    0    0  501    0  0.00000000000E+00 -0.00000000000E+00 -0.75570205758E+03  0.75570205758E+03  0.00000000000E+00 0. -1.
         23    2    1    2    0    0  0.54800338396E+02  0.13726341437E+03  0.38952198674E+02  0.17616900919E+03  0.87600936101E+02 0.  0.
         11    1    3    3    0    0 -0.62823294619E+01  0.59571071881E+02 -0.17432717377E+02  0.62386536237E+02  0.00000000000E+00 0. -1.
        -11    1    3    3    0    0  0.61082667858E+02  0.77692342489E+02  0.56384916051E+02  0.11378247296E+03  0.00000000000E+00 0.  1.
         22    1    1    2    0    0 -0.54800338396E+02 -0.13726341437E+03 -0.67914556477E+03  0.69504173987E+03  0.00000000000E+00 0. -1.
<mgrwt>
<rscale>  0 0.59089815E+03</rscale>
<asrwt>0</asrwt>
<pdfrwt beam="1">  1        1 0.11626185E+00 0.59089815E+03</pdfrwt>
<pdfrwt beam="2">  1       -1 0.17770568E-01 0.59089815E+03</pdfrwt>
<totfact> 0.60904857E+02</totfact>
</mgrwt>
</event>
<event>
 6    1  0.1637818E-005  0.1515184E+04  0.7818608E-02  0.8874418E-01
         -2   -1    0    0    0  501 -0.00000000000E+00  0.00000000000E+00  0.33880194135E+03  0.33880194135E+03  0.00000000000E+00 0.  1.
          2   -1    0    0  501    0  0.00000000000E+00 -0.00000000000E+00 -0.16940449911E+04  0.16940449911E+04  0.00000000000E+00 0. -1.
         23    2    1    2    0    0  0.32844318025E+02 -0.20964179361E+03 -0.16519003980E+04  0.16681086522E+04  0.93718299951E+02 0.  0.
         11    1    3    3    0    0  0.45998635850E+01 -0.15818194027E+03 -0.89073850732E+03  0.90468656085E+03  0.00000000000E+00 0. -1.
        -11    1    3    3    0    0  0.28244454440E+02 -0.51459853339E+02 -0.76116189068E+03  0.76342209133E+03  0.00000000000E+00 0.  1.
         22    1    1    2    0    0 -0.32844318025E+02  0.20964179361E+03  0.29665734822E+03  0.36473828029E+03  0.00000000000E+00 0.  1.
<mgrwt>
<rscale>  0 0.15151841E+04</rscale>
<asrwt>0</asrwt>
<pdfrwt beam="1">  1        2 0.26062231E+00 0.15151841E+04</pdfrwt>
<pdfrwt beam="2">  1       -2 0.52123376E-01 0.15151841E+04</pdfrwt>
<totfact> 0.33134985E+01</totfact>
</mgrwt>
</event>
<event>
 6    1  0.1637818E-005  0.4707803E+04  0.7818608E-02  0.7875233E-01
          1   -1    0    0  501    0  0.00000000000E+00  0.00000000000E+00  0.13573103836E+04  0.13573103836E+04  0.00000000000E+00 0. -1.
         -1   -1    0    0    0  501 -0.00000000000E+00 -0.00000000000E+00 -0.40822290975E+04  0.40822290975E+04  0.00000000000E+00 0.  1.
         23    2    1    2    0    0 -0.81992253479E+03  0.18197643995E+04 -0.28026838256E+04  0.34420753775E+04  0.95030760054E+02 0.  0.
         13    1    3    3    0    0 -0.63739930581E+03  0.15007378472E+04 -0.23045097610E+04  0.28229872830E+04  0.00000000000E+00 0. -1.
        -13    1    3    3    0    0 -0.18252322898E+03  0.31902655225E+03 -0.49817406461E+03  0.61908809454E+03  0.00000000000E+00 0.  1.
         22    1    1    2    0    0  0.81992253479E+03 -0.18197643995E+04  0.77765111744E+02  0.19974641036E+04  0.00000000000E+00 0. -1.
<mgrwt>
<rscale>  0 0.47078029E+04</rscale>
<asrwt>0</asrwt>
<pdfrwt beam="1">  1        1 0.20881698E+00 0.47078029E+04</pdfrwt>
<pdfrwt beam="2">  1       -1 0.62803526E+00 0.47078029E+04</pdfrwt>
<totfact> 0.21282930E-03</totfact>
</mgrwt>
</event>
<event>
 6    1  0.1637818E-005  0.1759101E+04  0.7818608E-02  0.8728357E-01
         -1   -1    0    0    0  501 -0.00000000000E+00  0.00000000000E+00  0.26910943686E+03  0.26910943686E+03  0.00000000000E+00 0.  1.
          1   -1    0    0  501    0  0.00000000000E+00 -0.00000000000E+00 -0.28747009191E+04  0.28747009191E+04  0.00000000000E+00 0. -1.
         23    2    1    2    0    0 -0.46846033732E+03 -0.30535964683E+03 -0.98173318932E+02  0.57479392020E+03  0.89724292146E+02 0.  0.
         11    1    3    3    0    0 -0.15196413042E+03 -0.91853534812E+02 -0.73628835815E+02  0.19222740246E+03  0.00000000000E+00 0. -1.
        -11    1    3    3    0    0 -0.31649620690E+03 -0.21350611201E+03 -0.24544483117E+02  0.38256651775E+03  0.00000000000E+00 0.  1.
         22    1    1    2    0    0  0.46846033732E+03  0.30535964683E+03 -0.25074181633E+04  0.25690164357E+04  0.00000000000E+00 0. -1.
<mgrwt>
<rscale>  0 0.17591011E+04</rscale>
<asrwt>0</asrwt>
<pdfrwt beam="1">  1        1 0.44226167E+00 0.17591011E+04</pdfrwt>
<pdfrwt beam="2">  1       -1 0.41401453E-01 0.17591011E+04</pdfrwt>
<totfact> 0.39997741E+00</totfact>
</mgrwt>
</event>
<event>
 6    1  0.1747370E-005  0.3878667E+04  0.7818608E-02  0.8029481E-01
          1   -1    0    0  501    0  0.00000000000E+00  0.00000000000E+00  0.19732512946E+04  0.19732512946E+04  0.00000000000E+00 0. -1.
         -1   -1    0    0    0  501 -0.00000000000E+00 -0.00000000000E+00 -0.19059984031E+04  0.19059984031E+04  0.00000000000E+00 0.  1.
         23    2    1    2    0    0  0.18688089058E+04  0.22559216491E+03 -0.42873584065E+03  0.19326261148E+04  0.88829765510E+02 0.  0.
         11    1    3    3    0    0  0.66447913225E+03  0.12035070158E+03 -0.16909872567E+03  0.69614020685E+03  0.00000000000E+00 0.  1.
        -11    1    3    3    0    0  0.12043297736E+04  0.10524146333E+03 -0.25963711498E+03  0.12364859080E+04  0.00000000000E+00 0. -1.
         22    1    1    2    0    0 -0.18688089058E+04 -0.22559216491E+03  0.49598873215E+03  0.19466235830E+04  0.00000000000E+00 0.  1.
<mgrwt>
<rscale>  0 0.38786667E+04</rscale>
<asrwt>0</asrwt>
<pdfrwt beam="1">  1        1 0.30357712E+00 0.38786667E+04</pdfrwt>
<pdfrwt beam="2">  1       -1 0.29323052E+00 0.38786667E+04</pdfrwt>
<totfact> 0.89739035E-02</totfact>
</mgrwt>
</event>
<event>
 6    1  0.1637818E-005  0.2648455E+04  0.7818608E-02  0.8351926E-01
          2   -1    0    0  501    0  0.00000000000E+00  0.00000000000E+00  0.32051087384E+04  0.32051087384E+04  0.00000000000E+00 0. -1.
         -2   -1    0    0    0  501 -0.00000000000E+00 -0.00000000000E+00 -0.54711970052E+03  0.54711970052E+03  0.00000000000E+00 0.  1.
         23    2    1    2    0    0  0.14628726086E+02 -0.12608192493E+03  0.31958022803E+04  0.31996402241E+04  0.91840607248E+02 0.  0.
         13    1    3    3    0    0  0.36796602747E+02 -0.95277100974E+01  0.79511532914E+03  0.79602333752E+03  0.00000000000E+00 0. -1.
        -13    1    3    3    0    0 -0.22167876660E+02 -0.11655421483E+03  0.24006869512E+04  0.24036168865E+04  0.00000000000E+00 0.  1.
         22    1    1    2    0    0 -0.14628726086E+02  0.12608192493E+03 -0.53781324245E+03  0.55258821484E+03  0.00000000000E+00 0.  1.
<mgrwt>
<rscale>  0 0.26484547E+04</rscale>
<asrwt>0</asrwt>
<pdfrwt beam="1">  1        2 0.49309364E+00 0.26484547E+04</pdfrwt>
<pdfrwt beam="2">  1       -2 0.84172263E-01 0.26484547E+04</pdfrwt>
<totfact> 0.13968158E+00</totfact>
</mgrwt>
</event>
<event>
 6    1  0.1637818E-005  0.1872488E+04  0.7818608E-02  0.8668673E-01
          1   -1    0    0  501    0  0.00000000000E+00  0.00000000000E+00  0.38092381973E+03  0.38092381973E+03  0.00000000000E+00 0. -1.
         -1   -1    0    0    0  501 -0.00000000000E+00 -0.00000000000E+00 -0.23011236941E+04  0.23011236941E+04  0.00000000000E+00 0.  1.
         23    2    1    2    0    0  0.50468235524E+03  0.60938277518E+03 -0.16729629678E+04  0.18530856726E+04  0.95235349446E+02 0.  0.
         13    1    3    3    0    0  0.12594563551E+03  0.18968013006E+03 -0.56713835261E+03  0.61113563621E+03  0.00000000000E+00 0. -1.
        -13    1    3    3    0    0  0.37873671974E+03  0.41970264513E+03 -0.11058246152E+04  0.12419500364E+04  0.00000000000E+00 0.  1.
         22    1    1    2    0    0 -0.50468235524E+03 -0.60938277518E+03 -0.24723690660E+03  0.82896184132E+03  0.00000000000E+00 0. -1.
<mgrwt>
<rscale>  0 0.18724880E+04</rscale>
<asrwt>0</asrwt>
<pdfrwt beam="1">  1        1 0.58603664E-01 0.18724880E+04</pdfrwt>
<pdfrwt beam="2">  1       -1 0.35401903E+00 0.18724880E+04</pdfrwt>
<totfact> 0.87930490E-01</totfact>
</mgrwt>
</event>
<event>
 6    1  0.1637818E-005  0.1976856E+04  0.7818608E-02  0.8617518E-01
          2   -1    0    0  501    0  0.00000000000E+00  0.00000000000E+00  0.23467708415E+04  0.23467708415E+04  0.00000000000E+00 0. -1.
         -2   -1    0    0    0  501 -0.00000000000E+00 -0.00000000000E+00 -0.41631232208E+03  0.41631232208E+03  0.00000000000E+00 0.  1.
         23    2    1    2    0    0  0.63753649813E+03  0.52783123643E+03  0.17169352131E+04  0.19083020203E+04  0.93228075996E+02 0.  0.
         13    1    3    3    0    0  0.28043254748E+03  0.17645654326E+03  0.64826552406E+03  0.72802988608E+03  0.00000000000E+00 0.  1.
        -13    1    3    3    0    0  0.35710395065E+03  0.35137469317E+03  0.10686696890E+04  0.11802721342E+04  0.00000000000E+00 0. -1.
         22    1    1    2    0    0 -0.63753649813E+03 -0.52783123643E+03  0.21352330638E+03  0.85478114331E+03  0.00000000000E+00 0.  1.
<mgrwt>
<rscale>  0 0.19768557E+04</rscale>
<asrwt>0</asrwt>
<pdfrwt beam="1">  1        2 0.36104166E+00 0.19768557E+04</pdfrwt>
<pdfrwt beam="2">  1       -2 0.64048051E-01 0.19768557E+04</pdfrwt>
<totfact> 0.89465985E+00</totfact>
</mgrwt>
</event>
<event>
 6    1  0.1637818E-005  0.1763085E+04  0.7818608E-02  0.8726181E-01
         -1   -1    0    0    0  501 -0.00000000000E+00  0.00000000000E+00  0.29124793255E+03  0.29124793255E+03  0.00000000000E+00 0.  1.
          1   -1    0    0  501    0  0.00000000000E+00 -0.00000000000E+00 -0.26682312104E+04  0.26682312104E+04  0.00000000000E+00 0. -1.
         23    2    1    2    0    0  0.52198352238E+03  0.53554672778E+03 -0.19643563727E+04  0.21053491422E+04  0.12050708119E+03 0.  0.
         13    1    3    3    0    0  0.35196686719E+03  0.27975303193E+03 -0.11206866980E+04  0.12075102938E+04  0.00000000000E+00 0.  1.
        -13    1    3    3    0    0  0.17001665520E+03  0.25579369585E+03 -0.84366967465E+03  0.89783884846E+03  0.00000000000E+00 0. -1.
         22    1    1    2    0    0 -0.52198352238E+03 -0.53554672778E+03 -0.41262690520E+03  0.85413000074E+03  0.00000000000E+00 0.  1.
<mgrwt>
<rscale>  0 0.17630846E+04</rscale>
<asrwt>0</asrwt>
<pdfrwt beam="1">  1        1 0.41049711E+00 0.17630846E+04</pdfrwt>
<pdfrwt beam="2">  1       -1 0.44807374E-01 0.17630846E+04</pdfrwt>
<totfact> 0.48378839E+00</totfact>
</mgrwt>
</event>
<event>
 6    1  0.1637818E-005  0.3431126E+04  0.7818608E-02  0.8130309E-01
          2   -1    0    0  501    0  0.00000000000E+00  0.00000000000E+00  0.26937846140E+04  0.26937846140E+04  0.00000000000E+00 0. -1.
         -2   -1    0    0    0  501 -0.00000000000E+00 -0.00000000000E+00 -0.10925729548E+04  0.10925729548E+04  0.00000000000E+00 0.  1.
         23    2    1    2    0    0 -0.12654252465E+04 -0.35261528342E+03  0.20167090977E+04  0.24085779369E+04  0.92160190579E+02 0.  0.
         11    1    3    3    0    0 -0.91727784518E+02 -0.55024361779E+01  0.11794985347E+03  0.14952067145E+03  0.00000000000E+00 0. -1.
        -11    1    3    3    0    0 -0.11736974620E+04 -0.34711284725E+03  0.18987592442E+04  0.22590572654E+04  0.00000000000E+00 0.  1.
         22    1    1    2    0    0  0.12654252465E+04  0.35261528342E+03 -0.41549743855E+03  0.13777796319E+04  0.00000000000E+00 0.  1.
<mgrwt>
<rscale>  0 0.34311259E+04</rscale>
<asrwt>0</asrwt>
<pdfrwt beam="1">  1        2 0.41442840E+00 0.34311259E+04</pdfrwt>
<pdfrwt beam="2">  1       -2 0.16808815E+00 0.34311259E+04</pdfrwt>
<totfact> 0.48661291E-01</totfact>
</mgrwt>
</event>
<event>
 6    1  0.1637818E-005  0.2476588E+04  0.7818608E-02  0.8411374E-01
         -1   -1    0    0    0  501 -0.00000000000E+00  0.00000000000E+00  0.50166376018E+03  0.50166376018E+03  0.00000000000E+00 0.  1.
          1   -1    0    0  501    0  0.00000000000E+00 -0.00000000000E+00 -0.30565720929E+04  0.30565720929E+04  0.00000000000E+00 0. -1.
         23    2    1    2    0    0 -0.98557281987E+03 -0.69074645188E+03 -0.16869513400E+04  0.20743781155E+04  0.93569752474E+02 0.  0.
         13    1    3    3    0    0 -0.28471982179E+03 -0.25226734454E+03 -0.52321190519E+03  0.64688089149E+03  0.00000000000E+00 0. -1.
        -13    1    3    3    0    0 -0.70085299807E+03 -0.43847910735E+03 -0.11637394348E+04  0.14274972240E+04  0.00000000000E+00 0.  1.
         22    1    1    2    0    0  0.98557281987E+03  0.69074645188E+03 -0.86795699270E+03  0.14838577375E+04  0.00000000000E+00 0.  1.
<mgrwt>
<rscale>  0 0.24765875E+04</rscale>
<asrwt>0</asrwt>
<pdfrwt beam="1">  1        1 0.47024186E+00 0.24765875E+04</pdfrwt>
<pdfrwt beam="2">  1       -1 0.77179040E-01 0.24765875E+04</pdfrwt>
<totfact> 0.81427365E-01</totfact>
</mgrwt>
</event>
<event>
 6    1  0.1637818E-005  0.3348207E+04  0.7818608E-02  0.8150736E-01
         -2   -1    0    0    0  501 -0.00000000000E+00  0.00000000000E+00  0.33611270442E+04  0.33611270442E+04  0.00000000000E+00 0.  1.
          2   -1    0    0  501    0  0.00000000000E+00 -0.00000000000E+00 -0.83383414198E+03  0.83383414198E+03  0.00000000000E+00 0. -1.
         23    2    1    2    0    0  0.13450988219E+04 -0.89128102231E+03  0.71168505040E+03  0.17659480999E+04  0.91675401342E+02 0.  0.
         11    1    3    3    0    0  0.31760032835E+03 -0.24333597528E+03  0.14544280461E+03  0.42571818713E+03  0.00000000000E+00 0. -1.
        -11    1    3    3    0    0  0.10274984936E+04 -0.64794504703E+03  0.56624224579E+03  0.13402299128E+04  0.00000000000E+00 0.  1.
         22    1    1    2    0    0 -0.13450988219E+04  0.89128102231E+03  0.18156078518E+04  0.24290130862E+04  0.00000000000E+00 0. -1.
<mgrwt>
<rscale>  0 0.33482070E+04</rscale>
<asrwt>0</asrwt>
<pdfrwt beam="1">  1        2 0.12828218E+00 0.33482070E+04</pdfrwt>
<pdfrwt beam="2">  1       -2 0.51709646E+00 0.33482070E+04</pdfrwt>
<totfact> 0.35123612E-02</totfact>
</mgrwt>
</event>
<event>
 6    1  0.1637818E-005  0.2782556E+04  0.7818608E-02  0.8308705E-01
         -2   -1    0    0    0  501 -0.00000000000E+00  0.00000000000E+00  0.76070718383E+03  0.76070718383E+03  0.00000000000E+00 0. -1.
          2   -1    0    0  501    0  0.00000000000E+00 -0.00000000000E+00 -0.25445453530E+04  0.25445453530E+04  0.00000000000E+00 0.  1.
         23    2    1    2    0    0 -0.68813740337E+03  0.51400639158E+03 -0.21909139057E+04  0.23547546085E+04  0.83844306032E+02 0.  0.
         11    1    3    3    0    0 -0.32270691814E+03  0.25668464053E+03 -0.94266824246E+03  0.10289072723E+04  0.00000000000E+00 0.  1.
        -11    1    3    3    0    0 -0.36543048522E+03  0.25732175105E+03 -0.12482456632E+04  0.13258473362E+04  0.00000000000E+00 0. -1.
         22    1    1    2    0    0  0.68813740337E+03 -0.51400639158E+03  0.40707573651E+03  0.95049792832E+03  0.00000000000E+00 0. -1.
<mgrwt>
<rscale>  0 0.27825556E+04</rscale>
<asrwt>0</asrwt>
<pdfrwt beam="1">  1        2 0.39146851E+00 0.27825556E+04</pdfrwt>
<pdfrwt beam="2">  1       -2 0.11703188E+00 0.27825556E+04</pdfrwt>
<totfact> 0.16139277E+00</totfact>
</mgrwt>
</event>
<event>
 6    1  0.1637818E-005  0.3604394E+04  0.7818608E-02  0.8089486E-01
          2   -1    0    0  501    0  0.00000000000E+00  0.00000000000E+00  0.11641799110E+04  0.11641799110E+04  0.00000000000E+00 0. -1.
         -2   -1    0    0    0  501 -0.00000000000E+00 -0.00000000000E+00 -0.27898733996E+04  0.27898733996E+04  0.00000000000E+00 0.  1.
         23    2    1    2    0    0 -0.73440753868E+03 -0.12691209331E+04 -0.19607360954E+04  0.24499669021E+04  0.88483952426E+02 0.  0.
         13    1    3    3    0    0 -0.48384198752E+03 -0.75154207412E+03 -0.11791237447E+04  0.14796118962E+04  0.00000000000E+00 0. -1.
        -13    1    3    3    0    0 -0.25056555116E+03 -0.51757885903E+03 -0.78161235072E+03  0.97035500593E+03  0.00000000000E+00 0.  1.
         22    1    1    2    0    0  0.73440753868E+03  0.12691209331E+04  0.33504260675E+03  0.15040864085E+04  0.00000000000E+00 0. -1.
<mgrwt>
<rscale>  0 0.36043943E+04</rscale>
<asrwt>0</asrwt>
<pdfrwt beam="1">  1        2 0.17910460E+00 0.36043943E+04</pdfrwt>
<pdfrwt beam="2">  1       -2 0.42921129E+00 0.36043943E+04</pdfrwt>
<totfact> 0.77210325E-02</totfact>
</mgrwt>
</event>
<event>
 6    1  0.1637818E-005  0.2534192E+04  0.7818608E-02  0.8390905E-01
          1   -1    0    0  501    0  0.00000000000E+00  0.00000000000E+00  0.16038701299E+04  0.16038701299E+04  0.00000000000E+00 0. -1.
         -1   -1    0    0    0  501 -0.00000000000E+00 -0.00000000000E+00 -0.10010364539E+04  0.10010364539E+04  0.00000000000E+00 0.  1.
         23    2    1    2    0    0  0.96565293319E+03  0.52975007843E+03  0.94227649427E+03  0.14523693133E+04  0.91492610356E+02 0.  0.
         11    1    3    3    0    0  0.63811896482E+03  0.32503211765E+03  0.56180971230E+03  0.91020428674E+03  0.00000000000E+00 0.  1.
        -11    1    3    3    0    0  0.32753396837E+03  0.20471796078E+03  0.38046678197E+03  0.54216502661E+03  0.00000000000E+00 0. -1.
         22    1    1    2    0    0 -0.96565293319E+03 -0.52975007843E+03 -0.33944281828E+03  0.11525372705E+04  0.00000000000E+00 0.  1.
<mgrwt>
<rscale>  0 0.25341922E+04</rscale>
<asrwt>0</asrwt>
<pdfrwt beam="1">  1        1 0.24674925E+00 0.25341922E+04</pdfrwt>
<pdfrwt beam="2">  1       -1 0.15400561E+00 0.25341922E+04</pdfrwt>
<totfact> 0.15956299E+00</totfact>
</mgrwt>
</event>
<event>
 6    1  0.2887589E-005  0.4636552E+04  0.7818608E-02  0.7887157E-01
          2   -1    0    0  501    0  0.00000000000E+00  0.00000000000E+00  0.27554134252E+04  0.27554134252E+04  0.00000000000E+00 0. -1.
         -2   -1    0    0    0  501 -0.00000000000E+00 -0.00000000000E+00 -0.19504889337E+04  0.19504889337E+04  0.00000000000E+00 0.  1.
         23    2    1    2    0    0  0.52260104438E+03 -0.31433887868E+03 -0.18664662306E+04  0.19657838993E+04  0.93216771687E+02 0.  0.
         13    1    3    3    0    0  0.39654494515E+03 -0.25214449443E+03 -0.13063517667E+04  0.13883010041E+04  0.00000000000E+00 0.  1.
        -13    1    3    3    0    0  0.12605609923E+03 -0.62194384257E+02 -0.56011446393E+03  0.57748289523E+03  0.00000000000E+00 0. -1.
         22    1    1    2    0    0 -0.52260104438E+03  0.31433887868E+03  0.26713907222E+04  0.27401184596E+04  0.00000000000E+00 0. -1.
<mgrwt>
<rscale>  0 0.46365519E+04</rscale>
<asrwt>0</asrwt>
<pdfrwt beam="1">  1        2 0.42390976E+00 0.46365519E+04</pdfrwt>
<pdfrwt beam="2">  1       -2 0.30007522E+00 0.46365519E+04</pdfrwt>
<totfact> 0.58527754E-02</totfact>
</mgrwt>
</event>
<event>
 6    1  0.1637818E-005  0.2231881E+04  0.7818608E-02  0.8505275E-01
         -1   -1    0    0    0  501 -0.00000000000E+00  0.00000000000E+00  0.56576278567E+03  0.56576278567E+03  0.00000000000E+00 0.  1.
          1   -1    0    0  501    0  0.00000000000E+00 -0.00000000000E+00 -0.22011401617E+04  0.22011401617E+04  0.00000000000E+00 0. -1.
         23    2    1    2    0    0  0.57223230872E+02  0.82358432236E+03 -0.17465892511E+04  0.19338761078E+04  0.87961094147E+02 0.  0.
         11    1    3    3    0    0 -0.97351111544E+01  0.22103075727E+03 -0.40016682252E+03  0.45725578607E+03  0.00000000000E+00 0. -1.
        -11    1    3    3    0    0  0.66958342026E+02  0.60255356509E+03 -0.13464224286E+04  0.14766203218E+04  0.00000000000E+00 0.  1.
         22    1    1    2    0    0 -0.57223230872E+02 -0.82358432236E+03  0.11121187513E+03  0.83302683952E+03  0.00000000000E+00 0.  1.
<mgrwt>
<rscale>  0 0.22318810E+04</rscale>
<asrwt>0</asrwt>
<pdfrwt beam="1">  1        1 0.33863694E+00 0.22318810E+04</pdfrwt>
<pdfrwt beam="2">  1       -1 0.87040430E-01 0.22318810E+04</pdfrwt>
<totfact> 0.25700824E+00</totfact>
</mgrwt>
</event>
<event>
 6    1  0.1637818E-005  0.1161816E+04  0.7818608E-02  0.9146951E-01
          1   -1    0    0  501    0  0.00000000000E+00  0.00000000000E+00  0.34816728471E+04  0.34816728471E+04  0.00000000000E+00 0. -1.
         -1   -1    0    0    0  501 -0.00000000000E+00 -0.00000000000E+00 -0.96923013288E+02  0.96923013288E+02  0.00000000000E+00 0.  1.
         23    2    1    2    0    0  0.34078414883E+03  0.17148674097E+03  0.30376200409E+04  0.30628045929E+04  0.89971792566E+02 0.  0.
         13    1    3    3    0    0  0.84150869951E+02  0.88453079891E+02  0.90823534176E+03  0.91640425156E+03  0.00000000000E+00 0. -1.
        -13    1    3    3    0    0  0.25663327887E+03  0.83033661082E+02  0.21293846991E+04  0.21464003414E+04  0.00000000000E+00 0.  1.
         22    1    1    2    0    0 -0.34078414883E+03 -0.17148674097E+03  0.34712979294E+03  0.51579126744E+03  0.00000000000E+00 0.  1.
<mgrwt>
<rscale>  0 0.11618162E+04</rscale>
<asrwt>0</asrwt>
<pdfrwt beam="1">  1        1 0.53564188E+00 0.11618162E+04</pdfrwt>
<pdfrwt beam="2">  1       -1 0.14911236E-01 0.11618162E+04</pdfrwt>
<totfact> 0.87257115E+00</totfact>
</mgrwt>
</event>
<event>
 6    1  0.1637818E-005  0.2844862E+04  0.7818608E-02  0.8289474E-01
         -2   -1    0    0    0  501 -0.00000000000E+00  0.00000000000E+00  0.17420904543E+04  0.17420904543E+04  0.00000000000E+00 0.  1.
          2   -1    0    0  501    0  0.00000000000E+00 -0.00000000000E+00 -0.11614263310E+04  0.11614263310E+04  0.00000000000E+00 0. -1.
         23    2    1    2    0    0 -0.11354140098E+04 -0.35044591672E+02 -0.58129414606E+03  0.12785429035E+04  0.79849701816E+02 0.  0.
         13    1    3    3    0    0 -0.95796845530E+03 -0.40293797239E+02 -0.45933596602E+03  0.10631635251E+04  0.00000000000E+00 0.  1.
        -13    1    3    3    0    0 -0.17744555446E+03  0.52492055666E+01 -0.12195818003E+03  0.21537937838E+03  0.00000000000E+00 0. -1.
         22    1    1    2    0    0  0.11354140098E+04  0.35044591672E+02  0.11619582694E+04  0.16249738818E+04  0.00000000000E+00 0.  1.
<mgrwt>
<rscale>  0 0.28448618E+04</rscale>
<asrwt>0</asrwt>
<pdfrwt beam="1">  1        2 0.17868097E+00 0.28448618E+04</pdfrwt>
<pdfrwt beam="2">  1       -2 0.26801392E+00 0.28448618E+04</pdfrwt>
<totfact> 0.86335638E-01</totfact>
</mgrwt>
</event>
<event>
 6    1  0.1637818E-005  0.1079636E+04  0.7818608E-02  0.9225270E-01
         -2   -1    0    0    0  501 -0.00000000000E+00  0.00000000000E+00  0.21284721528E+03  0.21284721528E+03  0.00000000000E+00 0.  1.
          2   -1    0    0  501    0  0.00000000000E+00 -0.00000000000E+00 -0.13690744249E+04  0.13690744249E+04  0.00000000000E+00 0. -1.
         23    2    1    2    0    0  0.49981798921E+03 -0.98798279284E+02 -0.82551980890E+03  0.97451197015E+03  0.92798182880E+02 0.  0.
         13    1    3    3    0    0  0.24213686224E+03 -0.21989770194E+02 -0.31950750361E+03  0.40149577197E+03  0.00000000000E+00 0. -1.
        -13    1    3    3    0    0  0.25768112697E+03 -0.76808509090E+02 -0.50601230529E+03  0.57301619818E+03  0.00000000000E+00 0.  1.
         22    1    1    2    0    0 -0.49981798921E+03  0.98798279284E+02 -0.33070740069E+03  0.60740966999E+03  0.00000000000E+00 0. -1.
<mgrwt>
<rscale>  0 0.10796364E+04</rscale>
<asrwt>0</asrwt>
<pdfrwt beam="1">  1        2 0.21062683E+00 0.10796364E+04</pdfrwt>
<pdfrwt beam="2">  1       -2 0.32745726E-01 0.10796364E+04</pdfrwt>
<totfact> 0.13018966E+02</totfact>
</mgrwt>
</event>
<event>
 6    1  0.1637818E-005  0.2335904E+04  0.7818608E-02  0.8463898E-01
          3   -1    0    0  501    0  0.00000000000E+00  0.00000000000E+00  0.46801940660E+03  0.46801940660E+03  0.00000000000E+00 0. -1.
         -3   -1    0    0    0  501 -0.00000000000E+00 -0.00000000000E+00 -0.29146479786E+04  0.29146479786E+04  0.00000000000E+00 0.  1.
         23    2    1    2    0    0 -0.39109289518E+03 -0.11909084593E+03 -0.28067865770E+04  0.28378278943E+04  0.89888746461E+02 0.  0.
         13    1    3    3    0    0 -0.21352869537E+03 -0.18588618658E+02 -0.14837392188E+04  0.14991404571E+04  0.00000000000E+00 0.  1.
        -13    1    3    3    0    0 -0.17756419981E+03 -0.10050222727E+03 -0.13230473582E+04  0.13386874373E+04  0.00000000000E+00 0. -1.
         22    1    1    2    0    0  0.39109289518E+03  0.11909084593E+03  0.36015800500E+03  0.54483949087E+03  0.00000000000E+00 0. -1.
<mgrwt>
<rscale>  0 0.23359040E+04</rscale>
<asrwt>0</asrwt>
<pdfrwt beam="1">  1        3 0.72002988E-01 0.23359040E+04</pdfrwt>
<pdfrwt beam="2">  1       -3 0.44840737E+00 0.23359040E+04</pdfrwt>
<totfact> 0.24888804E-02</totfact>
</mgrwt>
</event>
<event>
 6    1  0.1637818E-005  0.2725319E+04  0.7818608E-02  0.8326836E-01
          1   -1    0    0  501    0  0.00000000000E+00  0.00000000000E+00  0.30705928110E+04  0.30705928110E+04  0.00000000000E+00 0. -1.
         -1   -1    0    0    0  501 -0.00000000000E+00 -0.00000000000E+00 -0.60471720067E+03  0.60471720067E+03  0.00000000000E+00 0.  1.
         23    2    1    2    0    0 -0.51363532642E+02 -0.92892190505E+03 -0.10560034199E+03  0.94071265711E+03  0.90855670439E+02 0.  0.
         13    1    3    3    0    0 -0.28572234337E+02 -0.52996238023E+03 -0.14912700375E+02  0.53094150870E+03  0.00000000000E+00 0.  1.
        -13    1    3    3    0    0 -0.22791298305E+02 -0.39895952482E+03 -0.90687641613E+02  0.40977114841E+03  0.00000000000E+00 0. -1.
         22    1    1    2    0    0  0.51363532642E+02  0.92892190505E+03  0.25714759523E+04  0.27345973546E+04  0.00000000000E+00 0. -1.
<mgrwt>
<rscale>  0 0.27253185E+04</rscale>
<asrwt>0</asrwt>
<pdfrwt beam="1">  1        1 0.47239889E+00 0.27253185E+04</pdfrwt>
<pdfrwt beam="2">  1       -1 0.93033417E-01 0.27253185E+04</pdfrwt>
<totfact> 0.51846976E-01</totfact>
</mgrwt>
</event>
<event>
 6    1  0.1637818E-005  0.2602699E+04  0.7818608E-02  0.8367285E-01
          2   -1    0    0  501    0  0.00000000000E+00  0.00000000000E+00  0.71663047120E+03  0.71663047120E+03  0.00000000000E+00 0. -1.
         -2   -1    0    0    0  501 -0.00000000000E+00 -0.00000000000E+00 -0.23631577668E+04  0.23631577668E+04  0.00000000000E+00 0.  1.
         23    2    1    2    0    0 -0.54940655751E+03  0.29330219143E+03 -0.21742360707E+04  0.22634854190E+04  0.90498673877E+02 0.  0.
         11    1    3    3    0    0 -0.78852380477E+02  0.48500926017E+02 -0.45347668044E+03  0.46282949067E+03  0.00000000000E+00 0.  1.
        -11    1    3    3    0    0 -0.47055417703E+03  0.24480126541E+03 -0.17207593902E+04  0.18006559283E+04  0.00000000000E+00 0. -1.
         22    1    1    2    0    0  0.54940655751E+03 -0.29330219143E+03  0.52770877511E+03  0.81630281897E+03  0.00000000000E+00 0. -1.
<mgrwt>
<rscale>  0 0.26026993E+04</rscale>
<asrwt>0</asrwt>
<pdfrwt beam="1">  1        2 0.11025085E+00 0.26026993E+04</pdfrwt>
<pdfrwt beam="2">  1       -2 0.36356272E+00 0.26026993E+04</pdfrwt>
<totfact> 0.44896759E-01</totfact>
</mgrwt>
</event>
<event>
 6    1  0.1637818E-005  0.1598499E+04  0.7818608E-02  0.8821471E-01
          2   -1    0    0  501    0  0.00000000000E+00  0.00000000000E+00  0.17403482047E+04  0.17403482047E+04  0.00000000000E+00 0. -1.
         -2   -1    0    0    0  501 -0.00000000000E+00 -0.00000000000E+00 -0.36705270182E+03  0.36705270182E+03  0.00000000000E+00 0.  1.
         23    2    1    2    0    0 -0.63332044071E+03  0.25347709216E+03  0.14658963200E+03  0.70377962194E+03  0.92042485713E+02 0.  0.
         13    1    3    3    0    0 -0.39423589921E+03  0.10953287054E+03  0.93104695202E+02  0.41962826194E+03  0.00000000000E+00 0. -1.
        -13    1    3    3    0    0 -0.23908454150E+03  0.14394422162E+03  0.53484936794E+02  0.28415136000E+03  0.00000000000E+00 0.  1.
         22    1    1    2    0    0  0.63332044071E+03 -0.25347709216E+03  0.12267058709E+04  0.14036212846E+04  0.00000000000E+00 0.  1.
<mgrwt>
<rscale>  0 0.15984987E+04</rscale>
<asrwt>0</asrwt>
<pdfrwt beam="1">  1        2 0.26774587E+00 0.15984987E+04</pdfrwt>
<pdfrwt beam="2">  1       -2 0.56469647E-01 0.15984987E+04</pdfrwt>
<totfact> 0.26278215E+01</totfact>
</mgrwt>
</event>
<event>
 6    1  0.1637818E-005  0.3441771E+04  0.7818608E-02  0.8127730E-01
         -1   -1    0    0    0  501 -0.00000000000E+00  0.00000000000E+00  0.97677291283E+03  0.97677291283E+03  0.00000000000E+00 0.  1.
          1   -1    0    0  501    0  0.00000000000E+00 -0.00000000000E+00 -0.30318683953E+04  0.30318683953E+04  0.00000000000E+00 0. -1.
         23    2    1    2    0    0  0.55798148411E+03  0.60977350955E+03  0.72815030820E+03  0.11052597967E+04  0.90715364352E+02 0.  0.
         11    1    3    3    0    0  0.43352662714E+03  0.41900802693E+03  0.50642223602E+03  0.78738589281E+03  0.00000000000E+00 0. -1.
        -11    1    3    3    0    0  0.12445485697E+03  0.19076548263E+03  0.22172807218E+03  0.31787390390E+03  0.00000000000E+00 0.  1.
         22    1    1    2    0    0 -0.55798148411E+03 -0.60977350955E+03 -0.27832457907E+04  0.29033815114E+04  0.00000000000E+00 0. -1.
<mgrwt>
<rscale>  0 0.34417710E+04</rscale>
<asrwt>0</asrwt>
<pdfrwt beam="1">  1        1 0.46644129E+00 0.34417710E+04</pdfrwt>
<pdfrwt beam="2">  1       -1 0.15027276E+00 0.34417710E+04</pdfrwt>
<totfact> 0.16111091E-01</totfact>
</mgrwt>
</event>
<event>
 6    1  0.1637818E-005  0.3398188E+04  0.7818608E-02  0.8138351E-01
         -2   -1    0    0    0  501 -0.00000000000E+00  0.00000000000E+00  0.77745278113E+03  0.77745278113E+03  0.00000000000E+00 0.  1.
          2   -1    0    0  501    0  0.00000000000E+00 -0.00000000000E+00 -0.37133066015E+04  0.37133066015E+04  0.00000000000E+00 0. -1.
         23    2    1    2    0    0  0.65334787086E+03  0.42431277653E+03 -0.34626172732E+04  0.35503421839E+04  0.91139834483E+02 0.  0.
         11    1    3    3    0    0  0.16802618394E+03  0.94545541082E+02 -0.10365635448E+04  0.10543413300E+04  0.00000000000E+00 0. -1.
        -11    1    3    3    0    0  0.48532168693E+03  0.32976723544E+03 -0.24260537284E+04  0.24960008538E+04  0.00000000000E+00 0.  1.
         22    1    1    2    0    0 -0.65334787086E+03 -0.42431277653E+03  0.52676345274E+03  0.94041719881E+03  0.00000000000E+00 0.  1.
<mgrwt>
<rscale>  0 0.33981881E+04</rscale>
<asrwt>0</asrwt>
<pdfrwt beam="1">  1        2 0.57127794E+00 0.33981881E+04</pdfrwt>
<pdfrwt beam="2">  1       -2 0.11960812E+00 0.33981881E+04</pdfrwt>
<totfact> 0.25262268E-01</totfact>
</mgrwt>
</event>
<event>
 6    1  0.1637818E-005  0.2422743E+04  0.7818608E-02  0.8431038E-01
          2   -1    0    0  501    0  0.00000000000E+00  0.00000000000E+00  0.14148105335E+04  0.14148105335E+04  0.00000000000E+00 0. -1.
         -2   -1    0    0    0  501 -0.00000000000E+00 -0.00000000000E+00 -0.10371852449E+04  0.10371852449E+04  0.00000000000E+00 0.  1.
         23    2    1    2    0    0  0.42507088756E+03  0.95955716541E+02  0.13309378527E+04  0.14038080071E+04  0.96894757710E+02 0.  0.
         11    1    3    3    0    0  0.17413986946E+03  0.32354335737E+02  0.69469895943E+03  0.71692268859E+03  0.00000000000E+00 0.  1.
        -11    1    3    3    0    0  0.25093101811E+03  0.63601380804E+02  0.63623889327E+03  0.68688531852E+03  0.00000000000E+00 0. -1.
         22    1    1    2    0    0 -0.42507088756E+03 -0.95955716541E+02 -0.95331256409E+03  0.10481877713E+04  0.00000000000E+00 0.  1.
<mgrwt>
<rscale>  0 0.24227428E+04</rscale>
<asrwt>0</asrwt>
<pdfrwt beam="1">  1        2 0.21766316E+00 0.24227428E+04</pdfrwt>
<pdfrwt beam="2">  1       -2 0.15956696E+00 0.24227428E+04</pdfrwt>
<totfact> 0.32326319E+00</totfact>
</mgrwt>
</event>
<event>
 6    1  0.1637818E-005  0.2872329E+04  0.7818608E-02  0.8281158E-01
         -2   -1    0    0    0  501 -0.00000000000E+00  0.00000000000E+00  0.13414606939E+04  0.13414606939E+04  0.00000000000E+00 0.  1.
          2   -1    0    0  501    0  0.00000000000E+00 -0.00000000000E+00 -0.15375543507E+04  0.15375543507E+04  0.00000000000E+00 0. -1.
         23    2    1    2    0    0 -0.37256466624E+03 -0.97441260994E+03 -0.10852575258E+04  0.15082864971E+04  0.94127015458E+02 0.  0.
         13    1    3    3    0    0 -0.23621109449E+03 -0.58819710382E+03 -0.72279370338E+03  0.96135438406E+03  0.00000000000E+00 0.  1.
        -13    1    3    3    0    0 -0.13635357176E+03 -0.38621550612E+03 -0.36246382244E+03  0.54693211304E+03  0.00000000000E+00 0. -1.
         22    1    1    2    0    0  0.37256466624E+03  0.97441260994E+03  0.88916386908E+03  0.13707285475E+04  0.00000000000E+00 0.  1.
<mgrwt>
<rscale>  0 0.28723292E+04</rscale>
<asrwt>0</asrwt>
<pdfrwt beam="1">  1        2 0.23654682E+00 0.28723292E+04</pdfrwt>
<pdfrwt beam="2">  1       -2 0.20637857E+00 0.28723292E+04</pdfrwt>
<totfact> 0.12638752E+00</totfact>
</mgrwt>
</event>
<event>
 6    1  0.1637818E-005  0.1456247E+04  0.7818608E-02  0.8914081E-01
         -4   -1    0    0    0  501 -0.00000000000E+00  0.00000000000E+00  0.12687478722E+04  0.12687478722E+04  0.00000000000E+00 0.  1.
          4   -1    0    0  501    0  0.00000000000E+00 -0.00000000000E+00 -0.41786369485E+03  0.41786369485E+03  0.00000000000E+00 0. -1.
         23    2    1    2    0    0  0.15844228830E+03 -0.10687449654E+03  0.12373509240E+04  0.12554704498E+04  0.92965717208E+02 0.  0.
         11    1    3    3    0    0  0.93878820083E+02 -0.86254372054E+01  0.50082291284E+03  0.50961870163E+03  0.00000000000E+00 0. -1.
        -11    1    3    3    0    0  0.64563468213E+02 -0.98249059334E+02  0.73652801115E+03  0.74585174820E+03  0.00000000000E+00 0.  1.
         22    1    1    2    0    0 -0.15844228830E+03  0.10687449654E+03 -0.38646674661E+03  0.43114111723E+03  0.00000000000E+00 0. -1.
<mgrwt>
<rscale>  0 0.14562468E+04</rscale>
<asrwt>0</asrwt>
<pdfrwt beam="1">  1        4 0.64286723E-01 0.14562468E+04</pdfrwt>
<pdfrwt beam="2">  1       -4 0.19519198E+00 0.14562468E+04</pdfrwt>
<totfact> 0.61983656E-01</totfact>
</mgrwt>
</event>
<event>
 6    1  0.1637818E-005  0.1581447E+04  0.7818608E-02  0.8832027E-01
         -1   -1    0    0    0  501 -0.00000000000E+00  0.00000000000E+00  0.14747517179E+04  0.14747517179E+04  0.00000000000E+00 0.  1.
          1   -1    0    0  501    0  0.00000000000E+00 -0.00000000000E+00 -0.42396551578E+03  0.42396551578E+03  0.00000000000E+00 0. -1.
         23    2    1    2    0    0  0.23393374112E+03 -0.67566870731E+03  0.92497515615E+03  0.11727133656E+04  0.91784535610E+02 0.  0.
         13    1    3    3    0    0  0.11722942438E+03 -0.34091863506E+03  0.54094922430E+03  0.65007254744E+03  0.00000000000E+00 0.  1.
        -13    1    3    3    0    0  0.11670431674E+03 -0.33475007225E+03  0.38402593185E+03  0.52264081811E+03  0.00000000000E+00 0. -1.
         22    1    1    2    0    0 -0.23393374112E+03  0.67566870731E+03  0.12581104600E+03  0.72600386815E+03  0.00000000000E+00 0. -1.
<mgrwt>
<rscale>  0 0.15814473E+04</rscale>
<asrwt>0</asrwt>
<pdfrwt beam="1">  1        1 0.65225465E-01 0.15814473E+04</pdfrwt>
<pdfrwt beam="2">  1       -1 0.22688488E+00 0.15814473E+04</pdfrwt>
<totfact> 0.52798140E+00</totfact>
</mgrwt>
</event>
<event>
 6    1  0.1637818E-005  0.3611001E+03  0.7818608E-02  0.1058149E+00
          1   -1    0    0  501    0  0.00000000000E+00  0.00000000000E+00  0.28306446443E+04  0.28306446443E+04  0.00000000000E+00 0. -1.
         -1   -1    0    0    0  501 -0.00000000000E+00 -0.00000000000E+00 -0.11516215788E+02  0.11516215788E+02  0.00000000000E+00 0.  1.
         23    2    1    2    0    0  0.13869350733E+03  0.20232696345E+02  0.22381780080E+04  0.22445417154E+04  0.94241529077E+02 0.  0.
         11    1    3    3    0    0 -0.49369767120E+01  0.21475479754E+02  0.17725800394E+03  0.17862242281E+03  0.00000000000E+00 0.  1.
        -11    1    3    3    0    0  0.14363048404E+03 -0.12427834090E+01  0.20609200040E+04  0.20659192926E+04  0.00000000000E+00 0. -1.
         22    1    1    2    0    0 -0.13869350733E+03 -0.20232696345E+02  0.58095042051E+03  0.59761914466E+03  0.00000000000E+00 0.  1.
<mgrwt>
<rscale>  0 0.36110007E+03</rscale>
<asrwt>0</asrwt>
<pdfrwt beam="1">  1        1 0.43548324E+00 0.36110007E+03</pdfrwt>
<pdfrwt beam="2">  1       -1 0.17717278E-02 0.36110007E+03</pdfrwt>
<totfact> 0.76749944E+02</totfact>
</mgrwt>
</event>
<event>
 6    1  0.1637818E-005  0.2380916E+04  0.7818608E-02  0.8446683E-01
          1   -1    0    0  501    0  0.00000000000E+00  0.00000000000E+00  0.80204479606E+03  0.80204479606E+03  0.00000000000E+00 0. -1.
         -1   -1    0    0    0  501 -0.00000000000E+00 -0.00000000000E+00 -0.17669718193E+04  0.17669718193E+04  0.00000000000E+00 0.  1.
         23    2    1    2    0    0  0.56593206013E+03 -0.92243426834E+03  0.47587904704E+02  0.10870076561E+04  0.90315887900E+02 0.  0.
         11    1    3    3    0    0  0.53301600332E+03 -0.82737968647E+03  0.28495134690E+02  0.98461930617E+03  0.00000000000E+00 0.  1.
        -11    1    3    3    0    0  0.32916056813E+02 -0.95054581877E+02  0.19092770015E+02  0.10238834992E+03  0.00000000000E+00 0. -1.
         22    1    1    2    0    0 -0.56593206013E+03  0.92243426834E+03 -0.10125149280E+04  0.14820089593E+04  0.00000000000E+00 0.  1.
<mgrwt>
<rscale>  0 0.23809163E+04</rscale>
<asrwt>0</asrwt>
<pdfrwt beam="1">  1        1 0.12339151E+00 0.23809163E+04</pdfrwt>
<pdfrwt beam="2">  1       -1 0.27184181E+00 0.23809163E+04</pdfrwt>
<totfact> 0.99350119E-01</totfact>
</mgrwt>
</event>
<event>
 6    1  0.2040461E-005  0.2626805E+04  0.7818608E-02  0.8359153E-01
         -2   -1    0    0    0  501 -0.00000000000E+00  0.00000000000E+00  0.12663699433E+04  0.12663699433E+04  0.00000000000E+00 0. -1.
          2   -1    0    0  501    0  0.00000000000E+00 -0.00000000000E+00 -0.13621820882E+04  0.13621820882E+04  0.00000000000E+00 0.  1.
         23    2    1    2    0    0 -0.92587016318E+03  0.38322942267E+03  0.79908413517E+03  0.12850715882E+04  0.93665267452E+02 0.  0.
         13    1    3    3    0    0 -0.44425120092E+03  0.23259670384E+03  0.41479537823E+03  0.65078073263E+03  0.00000000000E+00 0. -1.
        -13    1    3    3    0    0 -0.48161896227E+03  0.15063271883E+03  0.38428875693E+03  0.63429085560E+03  0.00000000000E+00 0.  1.
         22    1    1    2    0    0  0.92587016318E+03 -0.38322942267E+03 -0.89489628007E+03  0.13434804433E+04  0.00000000000E+00 0.  1.
<mgrwt>
<rscale>  0 0.26268052E+04</rscale>
<asrwt>0</asrwt>
<pdfrwt beam="1">  1        2 0.20956648E+00 0.26268052E+04</pdfrwt>
<pdfrwt beam="2">  1       -2 0.19482614E+00 0.26268052E+04</pdfrwt>
<totfact> 0.19323767E+00</totfact>
</mgrwt>
</event>
<event>
 6    1  0.1637818E-005  0.2407061E+04  0.7818608E-02  0.8436865E-01
          2   -1    0    0  501    0  0.00000000000E+00  0.00000000000E+00  0.25965438291E+04  0.25965438291E+04  0.00000000000E+00 0. -1.
         -2   -1    0    0    0  501 -0.00000000000E+00 -0.00000000000E+00 -0.55785129694E+03  0.55785129694E+03  0.00000000000E+00 0.  1.
         23    2    1    2    0    0  0.45554597020E+03 -0.49783706948E+03 -0.28246974303E+03  0.73713258621E+03  0.90616859420E+02 0.  0.
         13    1    3    3    0    0  0.52904637896E+02 -0.21387740452E+02 -0.24069832641E+02  0.61932971799E+02  0.00000000000E+00 0. -1.
        -13    1    3    3    0    0  0.40264133230E+03 -0.47644932903E+03 -0.25839991039E+03  0.67519961441E+03  0.00000000000E+00 0.  1.
         22    1    1    2    0    0 -0.45554597020E+03  0.49783706948E+03  0.23211622752E+04  0.24172625398E+04  0.00000000000E+00 0. -1.
<mgrwt>
<rscale>  0 0.24070607E+04</rscale>
<asrwt>0</asrwt>
<pdfrwt beam="1">  1        2 0.39946827E+00 0.24070607E+04</pdfrwt>
<pdfrwt beam="2">  1       -2 0.85823278E-01 0.24070607E+04</pdfrwt>
<totfact> 0.32386073E+00</totfact>
</mgrwt>
</event>
<event>
 6    1  0.1637818E-005  0.1212804E+04  0.7818608E-02  0.9101723E-01
         -2   -1    0    0    0  501 -0.00000000000E+00  0.00000000000E+00  0.41377708967E+03  0.41377708967E+03  0.00000000000E+00 0.  1.
          2   -1    0    0  501    0  0.00000000000E+00 -0.00000000000E+00 -0.88869896983E+03  0.88869896983E+03  0.00000000000E+00 0. -1.
         23    2    1    2    0    0  0.25216229232E+03 -0.54115237283E+03 -0.14438752766E+03  0.62006513457E+03  0.84860477664E+02 0.  0.
         11    1    3    3    0    0  0.12729949448E+03 -0.32653769627E+03 -0.12055877820E+03  0.37062979829E+03  0.00000000000E+00 0. -1.
        -11    1    3    3    0    0  0.12486279785E+03 -0.21461467657E+03 -0.23828749454E+02  0.24943533628E+03  0.00000000000E+00 0.  1.
         22    1    1    2    0    0 -0.25216229232E+03  0.54115237283E+03 -0.33053435250E+03  0.68241092494E+03  0.00000000000E+00 0. -1.
<mgrwt>
<rscale>  0 0.12128038E+04</rscale>
<asrwt>0</asrwt>
<pdfrwt beam="1">  1        2 0.13672292E+00 0.12128038E+04</pdfrwt>
<pdfrwt beam="2">  1       -2 0.63658014E-01 0.12128038E+04</pdfrwt>
<totfact> 0.67202175E+01</totfact>
</mgrwt>
</event>
<event>
 6    1  0.1637818E-005  0.1064214E+04  0.7818608E-02  0.9240791E-01
         -2   -1    0    0    0  501 -0.00000000000E+00  0.00000000000E+00  0.32546360358E+03  0.32546360358E+03  0.00000000000E+00 0.  1.
          2   -1    0    0  501    0  0.00000000000E+00 -0.00000000000E+00 -0.86995243622E+03  0.86995243622E+03  0.00000000000E+00 0. -1.
         23    2    1    2    0    0 -0.31502144305E+02  0.15660938410E+03 -0.83973147372E+03  0.85972704475E+03  0.91993256547E+02 0.  0.
         11    1    3    3    0    0 -0.37313220626E+02  0.10909551321E+03 -0.36965052334E+03  0.38721520740E+03  0.00000000000E+00 0.  1.
        -11    1    3    3    0    0  0.58110763214E+01  0.47513870890E+02 -0.47008095037E+03  0.47251183735E+03  0.00000000000E+00 0. -1.
         22    1    1    2    0    0  0.31502144305E+02 -0.15660938410E+03  0.29524264107E+03  0.33568899504E+03  0.00000000000E+00 0.  1.
<mgrwt>
<rscale>  0 0.10642140E+04</rscale>
<asrwt>0</asrwt>
<pdfrwt beam="1">  1        2 0.13383884E+00 0.10642140E+04</pdfrwt>
<pdfrwt beam="2">  1       -2 0.50071324E-01 0.10642140E+04</pdfrwt>
<totfact> 0.11539837E+02</totfact>
</mgrwt>
</event>
<event>
 6    1  0.1637818E-005  0.4291036E+04  0.7818608E-02  0.7948278E-01
         -2   -1    0    0    0  501 -0.00000000000E+00  0.00000000000E+00  0.10192234660E+04  0.10192234660E+04  0.00000000000E+00 0.  1.
          2   -1    0    0  501    0  0.00000000000E+00 -0.00000000000E+00 -0.45164264187E+04  0.45164264187E+04  0.00000000000E+00 0. -1.
         23    2    1    2    0    0  0.19137590463E+03 -0.16656392486E+04 -0.34744495964E+04  0.38588980966E+04  0.91190344020E+02 0.  0.
         11    1    3    3    0    0  0.69780672904E+02 -0.74744205651E+03 -0.16533769707E+04  0.18158178260E+04  0.00000000000E+00 0. -1.
        -11    1    3    3    0    0  0.12159523173E+03 -0.91819719212E+03 -0.18210726258E+04  0.20430802706E+04  0.00000000000E+00 0.  1.
         22    1    1    2    0    0 -0.19137590463E+03  0.16656392486E+04 -0.22753356326E+02  0.16767517880E+04  0.00000000000E+00 0.  1.
<mgrwt>
<rscale>  0 0.42910361E+04</rscale>
<asrwt>0</asrwt>
<pdfrwt beam="1">  1        2 0.69483483E+00 0.42910361E+04</pdfrwt>
<pdfrwt beam="2">  1       -2 0.15680361E+00 0.42910361E+04</pdfrwt>
<totfact> 0.24115725E-02</totfact>
</mgrwt>
</event>
<event>
 6    1  0.1637818E-005  0.3410649E+04  0.7818608E-02  0.8135298E-01
         -1   -1    0    0    0  501 -0.00000000000E+00  0.00000000000E+00  0.21961698538E+04  0.21961698538E+04  0.00000000000E+00 0.  1.
          1   -1    0    0  501    0  0.00000000000E+00 -0.00000000000E+00 -0.13241830265E+04  0.13241830265E+04  0.00000000000E+00 0. -1.
         23    2    1    2    0    0 -0.11259113262E+04  0.35719834493E+03 -0.83153134375E+03  0.14473740741E+04  0.90445356819E+02 0.  0.
         11    1    3    3    0    0 -0.87200431493E+03  0.24488102432E+03 -0.60726893096E+03  0.10904741152E+04  0.00000000000E+00 0. -1.
        -11    1    3    3    0    0 -0.25390701130E+03  0.11231732061E+03 -0.22426241279E+03  0.35689995893E+03  0.00000000000E+00 0.  1.
         22    1    1    2    0    0  0.11259113262E+04 -0.35719834493E+03  0.17035181710E+04  0.20729788062E+04  0.00000000000E+00 0.  1.
<mgrwt>
<rscale>  0 0.34106485E+04</rscale>
<asrwt>0</asrwt>
<pdfrwt beam="1">  1        1 0.20372047E+00 0.34106485E+04</pdfrwt>
<pdfrwt beam="2">  1       -1 0.33787228E+00 0.34106485E+04</pdfrwt>
<totfact> 0.13348161E-01</totfact>
</mgrwt>
</event>
<event>
 6    1  0.1637818E-005  0.3191790E+04  0.7818608E-02  0.8190989E-01
          2   -1    0    0  501    0  0.00000000000E+00  0.00000000000E+00  0.24168482890E+04  0.24168482890E+04  0.00000000000E+00 0. -1.
         -2   -1    0    0    0  501 -0.00000000000E+00 -0.00000000000E+00 -0.10538027703E+04  0.10538027703E+04  0.00000000000E+00 0.  1.
         23    2    1    2    0    0  0.14708894458E+04  0.50588795342E+03  0.30048230011E+03  0.15869103720E+04  0.92501529490E+02 0.  0.
         11    1    3    3    0    0  0.10148889228E+04  0.32623708335E+03  0.16785020312E+03  0.10791681291E+04  0.00000000000E+00 0. -1.
        -11    1    3    3    0    0  0.45600052300E+03  0.17965087007E+03  0.13263209699E+03  0.50774224292E+03  0.00000000000E+00 0.  1.
         22    1    1    2    0    0 -0.14708894458E+04 -0.50588795342E+03  0.10625632186E+04  0.18837406872E+04  0.00000000000E+00 0.  1.
<mgrwt>
<rscale>  0 0.31917904E+04</rscale>
<asrwt>0</asrwt>
<pdfrwt beam="1">  1        2 0.37182281E+00 0.31917904E+04</pdfrwt>
<pdfrwt beam="2">  1       -2 0.16212350E+00 0.31917904E+04</pdfrwt>
<totfact> 0.79592184E-01</totfact>
</mgrwt>
</event>
<event>
 6    1  0.1637818E-005  0.3895951E+04  0.7818608E-02  0.8025872E-01
          2   -1    0    0  501    0  0.00000000000E+00  0.00000000000E+00  0.20320615973E+04  0.20320615973E+04  0.00000000000E+00 0. -1.
         -2   -1    0    0    0  501 -0.00000000000E+00 -0.00000000000E+00 -0.18673684612E+04  0.18673684612E+04  0.00000000000E+00 0.  1.
         23    2    1    2    0    0 -0.69170851466E+02  0.14612116963E+04  0.13682529833E+04  0.20051015406E+04  0.91606406724E+02 0.  0.
         11    1    3    3    0    0 -0.36749060928E+02  0.46713941346E+03  0.38407258394E+03  0.60587249056E+03  0.00000000000E+00 0. -1.
        -11    1    3    3    0    0 -0.32421790538E+02  0.99407228284E+03  0.98418039935E+03  0.13992290500E+04  0.00000000000E+00 0.  1.
         22    1    1    2    0    0  0.69170851466E+02 -0.14612116963E+04 -0.12035598471E+04  0.18943285179E+04  0.00000000000E+00 0.  1.
<mgrwt>
<rscale>  0 0.38959506E+04</rscale>
<asrwt>0</asrwt>
<pdfrwt beam="1">  1        2 0.31262486E+00 0.38959506E+04</pdfrwt>
<pdfrwt beam="2">  1       -2 0.28728745E+00 0.38959506E+04</pdfrwt>
<totfact> 0.19391556E-01</totfact>
</mgrwt>
</event>
<event>
 6    1  0.1637818E-005  0.4111666E+04  0.7818608E-02  0.7982391E-01
          1   -1    0    0  501    0  0.00000000000E+00  0.00000000000E+00  0.15809572946E+04  0.15809572946E+04  0.00000000000E+00 0. -1.
         -1   -1    0    0    0  501 -0.00000000000E+00 -0.00000000000E+00 -0.26733481097E+04  0.26733481097E+04  0.00000000000E+00 0.  1.
         23    2    1    2    0    0  0.17177861506E+04 -0.56813144980E+03 -0.15542780792E+04  0.23869804599E+04  0.91283982049E+02 0.  0.
         11    1    3    3    0    0  0.56070378545E+03 -0.14242589529E+03 -0.51217890833E+03  0.77265846582E+03  0.00000000000E+00 0.  1.
        -11    1    3    3    0    0  0.11570823651E+04 -0.42570555451E+03 -0.10420991709E+04  0.16143219941E+04  0.00000000000E+00 0. -1.
         22    1    1    2    0    0 -0.17177861506E+04  0.56813144980E+03  0.46188726408E+03  0.18673249444E+04  0.00000000000E+00 0. -1.
<mgrwt>
<rscale>  0 0.41116659E+04</rscale>
<asrwt>0</asrwt>
<pdfrwt beam="1">  1        1 0.24322420E+00 0.41116659E+04</pdfrwt>
<pdfrwt beam="2">  1       -1 0.41128432E+00 0.41116659E+04</pdfrwt>
<totfact> 0.26686246E-02</totfact>
</mgrwt>
</event>
<event>
 6    1  0.1637818E-005  0.2475891E+04  0.7818608E-02  0.8411625E-01
          2   -1    0    0  501    0  0.00000000000E+00  0.00000000000E+00  0.20096632508E+04  0.20096632508E+04  0.00000000000E+00 0. -1.
         -2   -1    0    0    0  501 -0.00000000000E+00 -0.00000000000E+00 -0.76257021202E+03  0.76257021202E+03  0.00000000000E+00 0.  1.
         23    2    1    2    0    0 -0.33139465220E+03 -0.11480857640E+04  0.26940413843E+03  0.12282778537E+04  0.90357950083E+02 0.  0.
         13    1    3    3    0    0 -0.44509690382E+02 -0.21558304210E+03  0.81371864255E+02  0.23468817795E+03  0.00000000000E+00 0.  1.
        -13    1    3    3    0    0 -0.28688496182E+03 -0.93250272188E+03  0.18803227417E+03  0.99358967575E+03  0.00000000000E+00 0. -1.
         22    1    1    2    0    0  0.33139465220E+03  0.11480857640E+04  0.97768890031E+03  0.15439556091E+04  0.00000000000E+00 0. -1.
<mgrwt>
<rscale>  0 0.24758912E+04</rscale>
<asrwt>0</asrwt>
<pdfrwt beam="1">  1        2 0.30917896E+00 0.24758912E+04</pdfrwt>
<pdfrwt beam="2">  1       -2 0.11731849E+00 0.24758912E+04</pdfrwt>
<totfact> 0.33113487E+00</totfact>
</mgrwt>
</event>
<event>
 6    1  0.1637818E-005  0.9365206E+03  0.7818608E-02  0.9381046E-01
         -1   -1    0    0    0  501 -0.00000000000E+00  0.00000000000E+00  0.19047010701E+03  0.19047010701E+03  0.00000000000E+00 0.  1.
          1   -1    0    0  501    0  0.00000000000E+00 -0.00000000000E+00 -0.11511922439E+04  0.11511922439E+04  0.00000000000E+00 0. -1.
         23    2    1    2    0    0 -0.38114280315E+03 -0.60353445663E+01 -0.10632227460E+03  0.40608478253E+03  0.91072294042E+02 0.  0.
         13    1    3    3    0    0 -0.59028258803E+02 -0.22924243051E+02  0.80887366404E+01  0.63837950447E+02  0.00000000000E+00 0.  1.
        -13    1    3    3    0    0 -0.32211454435E+03  0.16888898485E+02 -0.11441101124E+03  0.34224683208E+03  0.00000000000E+00 0. -1.
         22    1    1    2    0    0  0.38114280315E+03  0.60353445663E+01 -0.85439986224E+03  0.93557756834E+03  0.00000000000E+00 0. -1.
<mgrwt>
<rscale>  0 0.93652060E+03</rscale>
<asrwt>0</asrwt>
<pdfrwt beam="1">  1        1 0.17710650E+00 0.93652060E+03</pdfrwt>
<pdfrwt beam="2">  1       -1 0.29303094E-01 0.93652060E+03</pdfrwt>
<totfact> 0.12402584E+02</totfact>
</mgrwt>
</event>
<event>
 6    1  0.1637818E-005  0.1943217E+04  0.7818608E-02  0.8633639E-01
         -1   -1    0    0    0  501 -0.00000000000E+00  0.00000000000E+00  0.53995223911E+03  0.53995223911E+03  0.00000000000E+00 0.  1.
          1   -1    0    0  501    0  0.00000000000E+00 -0.00000000000E+00 -0.17483448207E+04  0.17483448207E+04  0.00000000000E+00 0. -1.
         23    2    1    2    0    0 -0.89791775088E+03 -0.36327059339E+03 -0.56088700823E+03  0.11231853575E+04  0.93430722780E+02 0.  0.
         13    1    3    3    0    0 -0.16367501006E+03 -0.54193067483E+02 -0.61997086929E+02  0.18322127679E+03  0.00000000000E+00 0.  1.
        -13    1    3    3    0    0 -0.73424274082E+03 -0.30907752591E+03 -0.49888992130E+03  0.93996408072E+03  0.00000000000E+00 0. -1.
         22    1    1    2    0    0  0.89791775088E+03  0.36327059339E+03 -0.64750557341E+03  0.11651117023E+04  0.00000000000E+00 0. -1.
<mgrwt>
<rscale>  0 0.19432166E+04</rscale>
<asrwt>0</asrwt>
<pdfrwt beam="1">  1        1 0.26897613E+00 0.19432166E+04</pdfrwt>
<pdfrwt beam="2">  1       -1 0.83069575E-01 0.19432166E+04</pdfrwt>
<totfact> 0.59246405E+00</totfact>
</mgrwt>
</event>
<event>
 6    1  0.1637818E-005  0.3650529E+04  0.7818608E-02  0.8079015E-01
         -1   -1    0    0    0  501 -0.00000000000E+00  0.00000000000E+00  0.10104596644E+04  0.10104596644E+04  0.00000000000E+00 0.  1.
          1   -1    0    0  501    0  0.00000000000E+00 -0.00000000000E+00 -0.32971030782E+04  0.32971030782E+04  0.00000000000E+00 0. -1.
         23    2    1    2    0    0 -0.10047742063E+04 -0.62936021039E+03 -0.27795396214E+04  0.30235798176E+04  0.10261055659E+03 0.  0.
         13    1    3    3    0    0 -0.27386570883E+03 -0.20835787093E+03 -0.72000003334E+03  0.79800719098E+03  0.00000000000E+00 0. -1.
        -13    1    3    3    0    0 -0.73090849750E+03 -0.42100233946E+03 -0.20595395881E+04  0.22255726266E+04  0.00000000000E+00 0.  1.
         22    1    1    2    0    0  0.10047742063E+04  0.62936021039E+03  0.49289620757E+03  0.12839829250E+04  0.00000000000E+00 0.  1.
<mgrwt>
<rscale>  0 0.36505285E+04</rscale>
<asrwt>0</asrwt>
<pdfrwt beam="1">  1        1 0.50724664E+00 0.36505285E+04</pdfrwt>
<pdfrwt beam="2">  1       -1 0.15545533E+00 0.36505285E+04</pdfrwt>
<totfact> 0.91436163E-02</totfact>
</mgrwt>
</event>
<event>
 6    1  0.1637818E-005  0.4166734E+04  0.7818608E-02  0.7971730E-01
         -2   -1    0    0    0  501 -0.00000000000E+00  0.00000000000E+00  0.26062674988E+04  0.26062674988E+04  0.00000000000E+00 0.  1.
          2   -1    0    0  501    0  0.00000000000E+00 -0.00000000000E+00 -0.16653770626E+04  0.16653770626E+04  0.00000000000E+00 0. -1.
         23    2    1    2    0    0  0.49480486603E+03 -0.11137095770E+04 -0.12605979931E+04  0.17553512197E+04  0.83484891362E+02 0.  0.
         13    1    3    3    0    0  0.23405150403E+03 -0.60594543742E+03 -0.70899836469E+03  0.96157613364E+03  0.00000000000E+00 0. -1.
        -13    1    3    3    0    0  0.26075336200E+03 -0.50776413954E+03 -0.55159962839E+03  0.79377508605E+03  0.00000000000E+00 0.  1.
         22    1    1    2    0    0 -0.49480486603E+03  0.11137095770E+04  0.22014884293E+04  0.25162933417E+04  0.00000000000E+00 0.  1.
<mgrwt>
<rscale>  0 0.41667340E+04</rscale>
<asrwt>0</asrwt>
<pdfrwt beam="1">  1        2 0.25621185E+00 0.41667340E+04</pdfrwt>
<pdfrwt beam="2">  1       -2 0.40096423E+00 0.41667340E+04</pdfrwt>
<totfact> 0.58358731E-02</totfact>
</mgrwt>
</event>
<event>
 6    1  0.1637818E-005  0.2706763E+04  0.7818608E-02  0.8332814E-01
         -2   -1    0    0    0  501 -0.00000000000E+00  0.00000000000E+00  0.62599463681E+03  0.62599463681E+03  0.00000000000E+00 0. -1.
          2   -1    0    0  501    0  0.00000000000E+00 -0.00000000000E+00 -0.29259699441E+04  0.29259699441E+04  0.00000000000E+00 0.  1.
         23    2    1    2    0    0 -0.13021173548E+04  0.16590609055E+03 -0.72679529832E+03  0.15030795726E+04  0.89344049869E+02 0.  0.
         11    1    3    3    0    0 -0.35893536137E+03  0.57133903482E+01 -0.19554459032E+03  0.40878469061E+03  0.00000000000E+00 0.  1.
        -11    1    3    3    0    0 -0.94318199347E+03  0.16019270020E+03 -0.53125070800E+03  0.10942948820E+04  0.00000000000E+00 0. -1.
         22    1    1    2    0    0  0.13021173548E+04 -0.16590609055E+03 -0.15731800090E+04  0.20488850083E+04  0.00000000000E+00 0.  1.
<mgrwt>
<rscale>  0 0.27067630E+04</rscale>
<asrwt>0</asrwt>
<pdfrwt beam="1">  1        2 0.45014923E+00 0.27067630E+04</pdfrwt>
<pdfrwt beam="2">  1       -2 0.96306866E-01 0.27067630E+04</pdfrwt>
<totfact> 0.15319632E+00</totfact>
</mgrwt>
</event>
<event>
 6    1  0.1637818E-005  0.3030952E+04  0.7818608E-02  0.8234947E-01
         -2   -1    0    0    0  501 -0.00000000000E+00  0.00000000000E+00  0.19435911840E+04  0.19435911840E+04  0.00000000000E+00 0.  1.
          2   -1    0    0  501    0  0.00000000000E+00 -0.00000000000E+00 -0.11816618688E+04  0.11816618688E+04  0.00000000000E+00 0. -1.
         23    2    1    2    0    0  0.14467453764E+04  0.38809057390E+03  0.15301587474E+03  0.15083232288E+04  0.89098971666E+02 0.  0.
         11    1    3    3    0    0  0.22405172682E+03  0.35262883514E+02  0.20668521625E+01  0.22681913307E+03  0.00000000000E+00 0.  1.
        -11    1    3    3    0    0  0.12226936496E+04  0.35282769039E+03  0.15094902258E+03  0.12815040957E+04  0.00000000000E+00 0. -1.
         22    1    1    2    0    0 -0.14467453764E+04 -0.38809057390E+03  0.60891344050E+03  0.16169298240E+04  0.00000000000E+00 0. -1.
<mgrwt>
<rscale>  0 0.30309521E+04</rscale>
<asrwt>0</asrwt>
<pdfrwt beam="1">  1        2 0.18179413E+00 0.30309521E+04</pdfrwt>
<pdfrwt beam="2">  1       -2 0.29901403E+00 0.30309521E+04</pdfrwt>
<totfact> 0.53455255E-01</totfact>
</mgrwt>
</event>
<event>
 6    1  0.1637818E-005  0.3486154E+04  0.7818608E-02  0.8117079E-01
          2   -1    0    0  501    0  0.00000000000E+00  0.00000000000E+00  0.20848279173E+04  0.20848279173E+04  0.00000000000E+00 0. -1.
         -2   -1    0    0    0  501 -0.00000000000E+00 -0.00000000000E+00 -0.14573467441E+04  0.14573467441E+04  0.00000000000E+00 0.  1.
         23    2    1    2    0    0 -0.89500121840E+03 -0.11233070862E+04 -0.68728017536E+03  0.15950117523E+04  0.94140638848E+02 0.  0.
         13    1    3    3    0    0 -0.49982163540E+01 -0.25681913337E+02 -0.10467316644E+02  0.28179914072E+02  0.00000000000E+00 0.  1.
        -13    1    3    3    0    0 -0.89000300204E+03 -0.10976251728E+04 -0.67681285872E+03  0.15668318383E+04  0.00000000000E+00 0. -1.
         22    1    1    2    0    0  0.89500121840E+03  0.11233070862E+04  0.13147613485E+04  0.19471629090E+04  0.00000000000E+00 0. -1.
<mgrwt>
<rscale>  0 0.34861539E+04</rscale>
<asrwt>0</asrwt>
<pdfrwt beam="1">  1        2 0.32074276E+00 0.34861539E+04</pdfrwt>
<pdfrwt beam="2">  1       -2 0.22420719E+00 0.34861539E+04</pdfrwt>
<totfact> 0.45826156E-01</totfact>
</mgrwt>
</event>
<event>
 6    1  0.1637818E-005  0.3292548E+04  0.7818608E-02  0.8164794E-01
          1   -1    0    0  501    0  0.00000000000E+00  0.00000000000E+00  0.31959420214E+04  0.31959420214E+04  0.00000000000E+00 0. -1.
         -1   -1    0    0    0  501 -0.00000000000E+00 -0.00000000000E+00 -0.84801847965E+03  0.84801847965E+03  0.00000000000E+00 0.  1.
         23    2    1    2    0    0 -0.15135992923E+04 -0.57433405144E+03  0.81632455955E+03  0.18153650101E+04  0.91224520359E+02 0.  0.
         11    1    3    3    0    0 -0.62318790043E+03 -0.28436134854E+03  0.33924705738E+03  0.76440375570E+03  0.00000000000E+00 0. -1.
        -11    1    3    3    0    0 -0.89041139183E+03 -0.28997270290E+03  0.47707750217E+03  0.10509612544E+04  0.00000000000E+00 0.  1.
         22    1    1    2    0    0  0.15135992923E+04  0.57433405144E+03  0.15315989822E+04  0.22285954910E+04  0.00000000000E+00 0.  1.
<mgrwt>
<rscale>  0 0.32925479E+04</rscale>
<asrwt>0</asrwt>
<pdfrwt beam="1">  1        1 0.49168338E+00 0.32925479E+04</pdfrwt>
<pdfrwt beam="2">  1       -1 0.13046438E+00 0.32925479E+04</pdfrwt>
<totfact> 0.17840881E-01</totfact>
</mgrwt>
</event>
<event>
 6    1  0.1637818E-005  0.1926675E+04  0.7818608E-02  0.8641691E-01
         -1   -1    0    0    0  501 -0.00000000000E+00  0.00000000000E+00  0.19137469020E+04  0.19137469020E+04  0.00000000000E+00 0.  1.
          1   -1    0    0  501    0  0.00000000000E+00 -0.00000000000E+00 -0.48492270269E+03  0.48492270269E+03  0.00000000000E+00 0. -1.
         23    2    1    2    0    0  0.88935555432E+03  0.95666474878E+02  0.11538638828E+04  0.14628765976E+04  0.92199258977E+02 0.  0.
         11    1    3    3    0    0  0.45422665344E+03  0.78186978676E+02  0.53514468507E+03  0.70626828492E+03  0.00000000000E+00 0. -1.
        -11    1    3    3    0    0  0.43512890088E+03  0.17479496202E+02  0.61871919776E+03  0.75660831270E+03  0.00000000000E+00 0.  1.
         22    1    1    2    0    0 -0.88935555432E+03 -0.95666474878E+02  0.27496031645E+03  0.93579300705E+03  0.00000000000E+00 0. -1.
<mgrwt>
<rscale>  0 0.19266752E+04</rscale>
<asrwt>0</asrwt>
<pdfrwt beam="1">  1        1 0.74603494E-01 0.19266752E+04</pdfrwt>
<pdfrwt beam="2">  1       -1 0.29442259E+00 0.19266752E+04</pdfrwt>
<totfact> 0.15501957E+00</totfact>
</mgrwt>
</event>
<event>
 6    1  0.1637818E-005  0.3452782E+04  0.7818608E-02  0.8125072E-01
          2   -1    0    0  501    0  0.00000000000E+00  0.00000000000E+00  0.29204658762E+04  0.29204658762E+04  0.00000000000E+00 0. -1.
         -2   -1    0    0    0  501 -0.00000000000E+00 -0.00000000000E+00 -0.10205308940E+04  0.10205308940E+04  0.00000000000E+00 0.  1.
         23    2    1    2    0    0 -0.13439808844E+04  0.67294096479E+03  0.19172547338E+04  0.24378553484E+04  0.90215441324E+02 0.  0.
         13    1    3    3    0    0 -0.11449583696E+04  0.56578165804E+03  0.16777933413E+04  0.21085608953E+04  0.00000000000E+00 0. -1.
        -13    1    3    3    0    0 -0.19902251479E+03  0.10715930676E+03  0.23946139244E+03  0.32929445317E+03  0.00000000000E+00 0.  1.
         22    1    1    2    0    0  0.13439808844E+04 -0.67294096479E+03 -0.17319751578E+02  0.15031414217E+04  0.00000000000E+00 0.  1.
<mgrwt>
<rscale>  0 0.34527819E+04</rscale>
<asrwt>0</asrwt>
<pdfrwt beam="1">  1        2 0.44930244E+00 0.34527819E+04</pdfrwt>
<pdfrwt beam="2">  1       -2 0.15700475E+00 0.34527819E+04</pdfrwt>
<totfact> 0.42658393E-01</totfact>
</mgrwt>
</event>
<event>
 6    1  0.1637818E-005  0.1895315E+04  0.7818608E-02  0.8657192E-01
         -1   -1    0    0    0  501 -0.00000000000E+00  0.00000000000E+00  0.18812758385E+04  0.18812758385E+04  0.00000000000E+00 0.  1.
          1   -1    0    0  501    0  0.00000000000E+00 -0.00000000000E+00 -0.47736497385E+03  0.47736497385E+03  0.00000000000E+00 0. -1.
         23    2    1    2    0    0  0.88138868310E+03  0.14145296822E+03  0.10863388732E+04  0.14111668429E+04  0.12001982430E+03 0.  0.
         11    1    3    3    0    0  0.78874670905E+03  0.12818913006E+03  0.90644750573E+03  0.12083877295E+04  0.00000000000E+00 0. -1.
        -11    1    3    3    0    0  0.92641974045E+02  0.13263838165E+02  0.17989136750E+03  0.20277911347E+03  0.00000000000E+00 0.  1.
         22    1    1    2    0    0 -0.88138868310E+03 -0.14145296822E+03  0.31757199137E+03  0.94747396936E+03  0.00000000000E+00 0. -1.
<mgrwt>
<rscale>  0 0.18953155E+04</rscale>
<asrwt>0</asrwt>
<pdfrwt beam="1">  1        1 0.73440766E-01 0.18953155E+04</pdfrwt>
<pdfrwt beam="2">  1       -1 0.28942705E+00 0.18953155E+04</pdfrwt>
<totfact> 0.17110654E+00</totfact>
</mgrwt>
</event>
<event>
 6    1  0.1637818E-005  0.2138788E+04  0.7818608E-02  0.8544347E-01
         -2   -1    0    0    0  501 -0.00000000000E+00  0.00000000000E+00  0.47253446933E+03  0.47253446933E+03  0.00000000000E+00 0. -1.
          2   -1    0    0  501    0  0.00000000000E+00 -0.00000000000E+00 -0.24201490121E+04  0.24201490121E+04  0.00000000000E+00 0.  1.
         23    2    1    2    0    0  0.94991183744E+03  0.32654423473E+03 -0.14634570455E+04  0.17776175111E+04  0.96196961073E+02 0.  0.
         11    1    3    3    0    0  0.55944730012E+03  0.23547916880E+03 -0.83964830985E+03  0.10360699806E+04  0.00000000000E+00 0. -1.
        -11    1    3    3    0    0  0.39046453731E+03  0.91065065924E+02 -0.62380873570E+03  0.74154753042E+03  0.00000000000E+00 0.  1.
         22    1    1    2    0    0 -0.94991183744E+03 -0.32654423473E+03 -0.48415749720E+03  0.11150659703E+04  0.00000000000E+00 0. -1.
<mgrwt>
<rscale>  0 0.21387883E+04</rscale>
<asrwt>0</asrwt>
<pdfrwt beam="1">  1        2 0.37233061E+00 0.21387883E+04</pdfrwt>
<pdfrwt beam="2">  1       -2 0.72697612E-01 0.21387883E+04</pdfrwt>
<totfact> 0.60843993E+00</totfact>
</mgrwt>
</event>
<event>
 6    1  0.1637818E-005  0.3821343E+03  0.7818608E-02  0.1050148E+00
         -2   -1    0    0    0  501 -0.00000000000E+00  0.00000000000E+00  0.69290024458E+02  0.69290024458E+02  0.00000000000E+00 0.  1.
          2   -1    0    0  501    0  0.00000000000E+00 -0.00000000000E+00 -0.52686733120E+03  0.52686733120E+03  0.00000000000E+00 0. -1.
         23    2    1    2    0    0  0.32503172879E+02  0.10372190582E+03 -0.15765857411E+02  0.14117159022E+03  0.88691406739E+02 0.  0.
         13    1    3    3    0    0  0.25715589341E+02  0.46293826381E+02 -0.50945426353E+02  0.73483646905E+02  0.00000000000E+00 0. -1.
        -13    1    3    3    0    0  0.67875835374E+01  0.57428079443E+02  0.35179568942E+02  0.67687943311E+02  0.00000000000E+00 0.  1.
         22    1    1    2    0    0 -0.32503172879E+02 -0.10372190582E+03 -0.44181144933E+03  0.45498576544E+03  0.00000000000E+00 0. -1.
<mgrwt>
<rscale>  0 0.38213427E+03</rscale>
<asrwt>0</asrwt>
<pdfrwt beam="1">  1        2 0.81056514E-01 0.38213427E+03</pdfrwt>
<pdfrwt beam="2">  1       -2 0.10660004E-01 0.38213427E+03</pdfrwt>
<totfact> 0.35313103E+03</totfact>
</mgrwt>
</event>
<event>
 6    1  0.1637818E-005  0.1633123E+04  0.7818608E-02  0.8800454E-01
          1   -1    0    0  501    0  0.00000000000E+00  0.00000000000E+00  0.23341155296E+04  0.23341155296E+04  0.00000000000E+00 0. -1.
         -1   -1    0    0    0  501 -0.00000000000E+00 -0.00000000000E+00 -0.28566404030E+03  0.28566404030E+03  0.00000000000E+00 0.  1.
         23    2    1    2    0    0 -0.63640097027E+03  0.50244907981E+03  0.91508641563E+03  0.12262309834E+04  0.93797674632E+02 0.  0.
         11    1    3    3    0    0 -0.47720989771E+03  0.33520826276E+03  0.61410099608E+03  0.84688482055E+03  0.00000000000E+00 0.  1.
        -11    1    3    3    0    0 -0.15919107256E+03  0.16724081705E+03  0.30098541955E+03  0.37934616283E+03  0.00000000000E+00 0. -1.
         22    1    1    2    0    0  0.63640097027E+03 -0.50244907981E+03  0.11333650737E+04  0.13935485865E+04  0.00000000000E+00 0. -1.
<mgrwt>
<rscale>  0 0.16331232E+04</rscale>
<asrwt>0</asrwt>
<pdfrwt beam="1">  1        1 0.35909468E+00 0.16331232E+04</pdfrwt>
<pdfrwt beam="2">  1       -1 0.43948315E-01 0.16331232E+04</pdfrwt>
<totfact> 0.86481706E+00</totfact>
</mgrwt>
</event>
<event>
 6    1  0.1637818E-005  0.4213997E+04  0.7818608E-02  0.7962715E-01
          2   -1    0    0  501    0  0.00000000000E+00  0.00000000000E+00  0.11966375415E+04  0.11966375415E+04  0.00000000000E+00 0. -1.
         -2   -1    0    0    0  501 -0.00000000000E+00 -0.00000000000E+00 -0.37099312603E+04  0.37099312603E+04  0.00000000000E+00 0.  1.
         23    2    1    2    0    0 -0.15554462949E+04  0.80366761464E+03  0.10567199448E+03  0.17562868750E+04  0.89901090258E+02 0.  0.
         11    1    3    3    0    0 -0.68135615387E+03  0.37443301670E+03  0.68585630103E+01  0.77749169276E+03  0.00000000000E+00 0. -1.
        -11    1    3    3    0    0 -0.87409014099E+03  0.42923459793E+03  0.98813431471E+02  0.97879518229E+03  0.00000000000E+00 0.  1.
         22    1    1    2    0    0  0.15554462949E+04 -0.80366761464E+03 -0.26189657133E+04  0.31502819268E+04  0.00000000000E+00 0.  1.
<mgrwt>
<rscale>  0 0.42139972E+04</rscale>
<asrwt>0</asrwt>
<pdfrwt beam="1">  1        2 0.18409809E+00 0.42139972E+04</pdfrwt>
<pdfrwt beam="2">  1       -2 0.57075865E+00 0.42139972E+04</pdfrwt>
<totfact> 0.99998653E-03</totfact>
</mgrwt>
</event>
<event>
 6    1  0.1696751E-005  0.3377846E+04  0.7818608E-02  0.8143365E-01
          1   -1    0    0  501    0  0.00000000000E+00  0.00000000000E+00  0.21620544768E+04  0.21620544768E+04  0.00000000000E+00 0. -1.
         -1   -1    0    0    0  501 -0.00000000000E+00 -0.00000000000E+00 -0.13193287597E+04  0.13193287597E+04  0.00000000000E+00 0.  1.
         23    2    1    2    0    0 -0.15137482533E+04  0.44068376230E+02  0.11891527730E+04  0.19278751094E+04  0.96137005287E+02 0.  0.
         11    1    3    3    0    0 -0.12925607051E+04  0.66513591638E+02  0.99161578101E+03  0.16304720456E+04  0.00000000000E+00 0.  1.
        -11    1    3    3    0    0 -0.22118754816E+03 -0.22445215408E+02  0.19753699199E+03  0.29740306381E+03  0.00000000000E+00 0. -1.
         22    1    1    2    0    0  0.15137482533E+04 -0.44068376230E+02 -0.34642705585E+03  0.15535081271E+04  0.00000000000E+00 0.  1.
<mgrwt>
<rscale>  0 0.33778459E+04</rscale>
<asrwt>0</asrwt>
<pdfrwt beam="1">  1        1 0.33262377E+00 0.33778459E+04</pdfrwt>
<pdfrwt beam="2">  1       -1 0.20297366E+00 0.33778459E+04</pdfrwt>
<totfact> 0.27362982E-01</totfact>
</mgrwt>
</event>
<event>
 6    1  0.1637818E-005  0.1925627E+04  0.7818608E-02  0.8642204E-01
         -2   -1    0    0    0  501 -0.00000000000E+00  0.00000000000E+00  0.10635842669E+04  0.10635842669E+04  0.00000000000E+00 0.  1.
          2   -1    0    0  501    0  0.00000000000E+00 -0.00000000000E+00 -0.87159068167E+03  0.87159068167E+03  0.00000000000E+00 0. -1.
         23    2    1    2    0    0  0.59690468489E+03 -0.16505035614E+03  0.83423458753E+03  0.10429808397E+04  0.91240681399E+02 0.  0.
         11    1    3    3    0    0  0.34647404899E+03 -0.12838453130E+03  0.44098069851E+03  0.57531802593E+03  0.00000000000E+00 0. -1.
        -11    1    3    3    0    0  0.25043063590E+03 -0.36665824842E+02  0.39325388903E+03  0.46766281373E+03  0.00000000000E+00 0.  1.
         22    1    1    2    0    0 -0.59690468489E+03  0.16505035614E+03 -0.64224100232E+03  0.89219410891E+03  0.00000000000E+00 0. -1.
<mgrwt>
<rscale>  0 0.19256273E+04</rscale>
<asrwt>0</asrwt>
<pdfrwt beam="1">  1        2 0.13409087E+00 0.19256273E+04</pdfrwt>
<pdfrwt beam="2">  1       -2 0.16362835E+00 0.19256273E+04</pdfrwt>
<totfact> 0.67867061E+00</totfact>
</mgrwt>
</event>
<event>
 6    1  0.1637818E-005  0.1898800E+04  0.7818608E-02  0.8655454E-01
          2   -1    0    0  501    0  0.00000000000E+00  0.00000000000E+00  0.20836413446E+04  0.20836413446E+04  0.00000000000E+00 0. -1.
         -2   -1    0    0    0  501 -0.00000000000E+00 -0.00000000000E+00 -0.43258889305E+03  0.43258889305E+03  0.00000000000E+00 0.  1.
         23    2    1    2    0    0  0.59916748751E+03 -0.26681243284E+03  0.17329210867E+04  0.18552513985E+04  0.93550555395E+02 0.  0.
         11    1    3    3    0    0  0.31213067229E+03 -0.18559636563E+03  0.10038154346E+04  0.10674816130E+04  0.00000000000E+00 0. -1.
        -11    1    3    3    0    0  0.28703681522E+03 -0.81216067216E+02  0.72910565215E+03  0.78776978545E+03  0.00000000000E+00 0.  1.
         22    1    1    2    0    0 -0.59916748751E+03  0.26681243284E+03 -0.81868635146E+02  0.66097883917E+03  0.00000000000E+00 0.  1.
<mgrwt>
<rscale>  0 0.18987997E+04</rscale>
<asrwt>0</asrwt>
<pdfrwt beam="1">  1        2 0.32056020E+00 0.18987997E+04</pdfrwt>
<pdfrwt beam="2">  1       -2 0.66552138E-01 0.18987997E+04</pdfrwt>
<totfact> 0.11661723E+01</totfact>
</mgrwt>
</event>
<event>
 6    1  0.1637818E-005  0.1148229E+04  0.7818608E-02  0.9159419E-01
         -2   -1    0    0    0  501 -0.00000000000E+00  0.00000000000E+00  0.13383361410E+03  0.13383361410E+03  0.00000000000E+00 0. -1.
          2   -1    0    0  501    0  0.00000000000E+00 -0.00000000000E+00 -0.24628170950E+04  0.24628170950E+04  0.00000000000E+00 0.  1.
         23    2    1    2    0    0 -0.54108307634E+03 -0.30541064939E+02 -0.75973527580E+03  0.93645687061E+03  0.77782575569E+02 0.  0.
         13    1    3    3    0    0 -0.30636386667E+03 -0.55854436286E+02 -0.43041997699E+03  0.53126254663E+03  0.00000000000E+00 0.  1.
        -13    1    3    3    0    0 -0.23471920967E+03  0.25313371346E+02 -0.32931529880E+03  0.40519432398E+03  0.00000000000E+00 0. -1.
         22    1    1    2    0    0  0.54108307634E+03  0.30541064939E+02 -0.15692482051E+04  0.16601938385E+04  0.00000000000E+00 0.  1.
<mgrwt>
<rscale>  0 0.11482294E+04</rscale>
<asrwt>0</asrwt>
<pdfrwt beam="1">  1        2 0.37889490E+00 0.11482294E+04</pdfrwt>
<pdfrwt beam="2">  1       -2 0.20589789E-01 0.11482294E+04</pdfrwt>
<totfact> 0.74056040E+01</totfact>
</mgrwt>
</event>
<event>
 6    1  0.1637818E-005  0.2145526E+04  0.7818608E-02  0.8541450E-01
         -1   -1    0    0    0  501 -0.00000000000E+00  0.00000000000E+00  0.24337918490E+04  0.24337918490E+04  0.00000000000E+00 0.  1.
          1   -1    0    0  501    0  0.00000000000E+00 -0.00000000000E+00 -0.47285081721E+03  0.47285081721E+03  0.00000000000E+00 0. -1.
         23    2    1    2    0    0 -0.59087925847E+03  0.88109451820E+03  0.78447954605E+03  0.13224938489E+04  0.90088700852E+02 0.  0.
         13    1    3    3    0    0 -0.31170324671E+03  0.54083965380E+03  0.44364944183E+03  0.76582718179E+03  0.00000000000E+00 0. -1.
        -13    1    3    3    0    0 -0.27917601175E+03  0.34025486440E+03  0.34083010422E+03  0.55666666707E+03  0.00000000000E+00 0.  1.
         22    1    1    2    0    0  0.59087925847E+03 -0.88109451820E+03  0.11764614858E+04  0.15841488174E+04  0.00000000000E+00 0.  1.
<mgrwt>
<rscale>  0 0.21455260E+04</rscale>
<asrwt>0</asrwt>
<pdfrwt beam="1">  1        1 0.72746281E-01 0.21455260E+04</pdfrwt>
<pdfrwt beam="2">  1       -1 0.37442951E+00 0.21455260E+04</pdfrwt>
<totfact> 0.46832507E-01</totfact>
</mgrwt>
</event>
<event>
 6    1  0.1637818E-005  0.3229147E+04  0.7818608E-02  0.8181162E-01
          2   -1    0    0  501    0  0.00000000000E+00  0.00000000000E+00  0.20448812735E+04  0.20448812735E+04  0.00000000000E+00 0. -1.
         -2   -1    0    0    0  501 -0.00000000000E+00 -0.00000000000E+00 -0.12748160470E+04  0.12748160470E+04  0.00000000000E+00 0.  1.
         23    2    1    2    0    0 -0.66619477644E+03  0.12631453481E+04  0.11569073700E+04  0.18401708778E+04  0.91883328202E+02 0.  0.
         11    1    3    3    0    0 -0.33508248768E+03  0.72507376337E+03  0.62258924492E+03  0.10127337280E+04  0.00000000000E+00 0. -1.
        -11    1    3    3    0    0 -0.33111228877E+03  0.53807158478E+03  0.53431812505E+03  0.82743714980E+03  0.00000000000E+00 0.  1.
         22    1    1    2    0    0  0.66619477644E+03 -0.12631453481E+04 -0.38684214343E+03  0.14795264427E+04  0.00000000000E+00 0.  1.
<mgrwt>
<rscale>  0 0.32291469E+04</rscale>
<asrwt>0</asrwt>
<pdfrwt beam="1">  1        2 0.31459712E+00 0.32291469E+04</pdfrwt>
<pdfrwt beam="2">  1       -2 0.19612555E+00 0.32291469E+04</pdfrwt>
<totfact> 0.74750178E-01</totfact>
</mgrwt>
</event>
<event>
 6    1  0.1637818E-005  0.2003967E+04  0.7818608E-02  0.8604768E-01
         -1   -1    0    0    0  501 -0.00000000000E+00  0.00000000000E+00  0.16516895721E+04  0.16516895721E+04  0.00000000000E+00 0.  1.
          1   -1    0    0  501    0  0.00000000000E+00 -0.00000000000E+00 -0.60784489535E+03  0.60784489535E+03  0.00000000000E+00 0. -1.
         23    2    1    2    0    0 -0.57545038540E+03  0.42053976230E+03 -0.26724557462E+03  0.76723607740E+03  0.96094555385E+02 0.  0.
         11    1    3    3    0    0 -0.52354811264E+03  0.35833204999E+03 -0.26086083050E+03  0.68596855409E+03  0.00000000000E+00 0.  1.
        -11    1    3    3    0    0 -0.51902272752E+02  0.62207712308E+02 -0.63847441204E+01  0.81267523310E+02  0.00000000000E+00 0. -1.
         22    1    1    2    0    0  0.57545038540E+03 -0.42053976230E+03  0.13110902513E+04  0.14922983900E+04  0.00000000000E+00 0.  1.
<mgrwt>
<rscale>  0 0.20039671E+04</rscale>
<asrwt>0</asrwt>
<pdfrwt beam="1">  1        1 0.93514600E-01 0.20039671E+04</pdfrwt>
<pdfrwt beam="2">  1       -1 0.25410609E+00 0.20039671E+04</pdfrwt>
<totfact> 0.20428885E+00</totfact>
</mgrwt>
</event>
<event>
 6    1  0.1637818E-005  0.2790916E+04  0.7818608E-02  0.8306094E-01
         -1   -1    0    0    0  501 -0.00000000000E+00  0.00000000000E+00  0.18318333927E+04  0.18318333927E+04  0.00000000000E+00 0.  1.
          1   -1    0    0  501    0  0.00000000000E+00 -0.00000000000E+00 -0.10630353093E+04  0.10630353093E+04  0.00000000000E+00 0. -1.
         23    2    1    2    0    0 -0.13138172833E+04  0.20937448162E+03  0.81638556071E+03  0.15636218822E+04  0.92056934899E+02 0.  0.
         13    1    3    3    0    0 -0.43379170078E+03  0.44239840595E+02  0.30948348507E+03  0.53470779936E+03  0.00000000000E+00 0.  1.
        -13    1    3    3    0    0 -0.88002558252E+03  0.16513464103E+03  0.50690207564E+03  0.10289140828E+04  0.00000000000E+00 0. -1.
         22    1    1    2    0    0  0.13138172833E+04 -0.20937448162E+03 -0.47587477323E+02  0.13312468199E+04  0.00000000000E+00 0. -1.
<mgrwt>
<rscale>  0 0.27909164E+04</rscale>
<asrwt>0</asrwt>
<pdfrwt beam="1">  1        1 0.16354389E+00 0.27909164E+04</pdfrwt>
<pdfrwt beam="2">  1       -1 0.28182052E+00 0.27909164E+04</pdfrwt>
<totfact> 0.50752886E-01</totfact>
</mgrwt>
</event>
<event>
 6    1  0.1637818E-005  0.1275518E+04  0.7818608E-02  0.9049208E-01
         -2   -1    0    0    0  501 -0.00000000000E+00  0.00000000000E+00  0.32085227786E+03  0.32085227786E+03  0.00000000000E+00 0. -1.
          2   -1    0    0  501    0  0.00000000000E+00 -0.00000000000E+00 -0.12676744184E+04  0.12676744184E+04  0.00000000000E+00 0.  1.
         23    2    1    2    0    0 -0.14710151379E+03 -0.97446040399E+02 -0.12347797186E+04  0.12508076519E+04  0.93296530029E+02 0.  0.
         13    1    3    3    0    0 -0.63238360524E+02 -0.81420087544E+01 -0.66255661850E+03  0.66561749922E+03  0.00000000000E+00 0. -1.
        -13    1    3    3    0    0 -0.83863153264E+02 -0.89304031644E+02 -0.57222310010E+03  0.58519015272E+03  0.00000000000E+00 0.  1.
         22    1    1    2    0    0  0.14710151379E+03  0.97446040399E+02  0.28795757805E+03  0.33771904433E+03  0.00000000000E+00 0. -1.
<mgrwt>
<rscale>  0 0.12755175E+04</rscale>
<asrwt>0</asrwt>
<pdfrwt beam="1">  1        2 0.19502683E+00 0.12755175E+04</pdfrwt>
<pdfrwt beam="2">  1       -2 0.49361889E-01 0.12755175E+04</pdfrwt>
<totfact> 0.65844334E+01</totfact>
</mgrwt>
</event>
<event>
 6    1  0.1637818E-005  0.1424478E+04  0.7818608E-02  0.8936288E-01
          1   -1    0    0  501    0  0.00000000000E+00  0.00000000000E+00  0.31969848099E+03  0.31969848099E+03  0.00000000000E+00 0. -1.
         -1   -1    0    0    0  501 -0.00000000000E+00 -0.00000000000E+00 -0.15867594215E+04  0.15867594215E+04  0.00000000000E+00 0.  1.
         23    2    1    2    0    0 -0.18458117770E+03 -0.42118938593E+03 -0.13589050366E+04  0.14375164904E+04  0.91433317750E+02 0.  0.
         13    1    3    3    0    0 -0.11455250918E+03 -0.23530402528E+03 -0.63405964055E+03  0.68594598144E+03  0.00000000000E+00 0.  1.
        -13    1    3    3    0    0 -0.70028668520E+02 -0.18588536065E+03 -0.72484539606E+03  0.75157050894E+03  0.00000000000E+00 0. -1.
         22    1    1    2    0    0  0.18458117770E+03  0.42118938593E+03  0.91844096135E+02  0.46894141209E+03  0.00000000000E+00 0. -1.
<mgrwt>
<rscale>  0 0.14244783E+04</rscale>
<asrwt>0</asrwt>
<pdfrwt beam="1">  1        1 0.49184381E-01 0.14244783E+04</pdfrwt>
<pdfrwt beam="2">  1       -1 0.24411684E+00 0.14244783E+04</pdfrwt>
<totfact> 0.59854047E+00</totfact>
</mgrwt>
</event>
<event>
 6    1  0.1637818E-005  0.1570981E+04  0.7818608E-02  0.8838577E-01
         -2   -1    0    0    0  501 -0.00000000000E+00  0.00000000000E+00  0.82871541358E+03  0.82871541358E+03  0.00000000000E+00 0.  1.
          2   -1    0    0  501    0  0.00000000000E+00 -0.00000000000E+00 -0.74451984919E+03  0.74451984919E+03  0.00000000000E+00 0. -1.
         23    2    1    2    0    0 -0.74275302491E+03 -0.15292657713E+03 -0.15262028302E+03  0.77878555411E+03  0.90251839250E+02 0.  0.
         11    1    3    3    0    0 -0.26913819767E+03 -0.99926776084E+02 -0.60324071958E+02  0.29335937633E+03  0.00000000000E+00 0.  1.
        -11    1    3    3    0    0 -0.47361482724E+03 -0.52999801047E+02 -0.92296211065E+02  0.48542617777E+03  0.00000000000E+00 0. -1.
         22    1    1    2    0    0  0.74275302491E+03  0.15292657713E+03  0.23681584742E+03  0.79444970866E+03  0.00000000000E+00 0.  1.
<mgrwt>
<rscale>  0 0.15709807E+04</rscale>
<asrwt>0</asrwt>
<pdfrwt beam="1">  1        2 0.11454152E+00 0.15709807E+04</pdfrwt>
<pdfrwt beam="2">  1       -2 0.12749468E+00 0.15709807E+04</pdfrwt>
<totfact> 0.16595298E+01</totfact>
</mgrwt>
</event>
<event>
 6    1  0.1637818E-005  0.2620845E+04  0.7818608E-02  0.8361155E-01
         -1   -1    0    0    0  501 -0.00000000000E+00  0.00000000000E+00  0.87155484788E+03  0.87155484788E+03  0.00000000000E+00 0.  1.
          1   -1    0    0  501    0  0.00000000000E+00 -0.00000000000E+00 -0.19702795364E+04  0.19702795364E+04  0.00000000000E+00 0. -1.
         23    2    1    2    0    0  0.14762567222E+03 -0.10364421778E+04 -0.14017312454E+04  0.17519634284E+04  0.92301912372E+02 0.  0.
         13    1    3    3    0    0  0.11231360260E+03 -0.46333019524E+03 -0.64078297100E+03  0.79868143279E+03  0.00000000000E+00 0. -1.
        -13    1    3    3    0    0  0.35312069616E+02 -0.57311198252E+03 -0.76094827439E+03  0.95328199557E+03  0.00000000000E+00 0.  1.
         22    1    1    2    0    0 -0.14762567222E+03  0.10364421778E+04  0.30300655691E+03  0.10898709559E+04  0.00000000000E+00 0.  1.
<mgrwt>
<rscale>  0 0.26208447E+04</rscale>
<asrwt>0</asrwt>
<pdfrwt beam="1">  1        1 0.30311993E+00 0.26208447E+04</pdfrwt>
<pdfrwt beam="2">  1       -1 0.13408536E+00 0.26208447E+04</pdfrwt>
<totfact> 0.12862577E+00</totfact>
</mgrwt>
</event>
<event>
 6    1  0.1637818E-005  0.1907341E+04  0.7818608E-02  0.8651211E-01
         -2   -1    0    0    0  501 -0.00000000000E+00  0.00000000000E+00  0.24594069730E+03  0.24594069730E+03  0.00000000000E+00 0.  1.
          2   -1    0    0  501    0  0.00000000000E+00 -0.00000000000E+00 -0.36979939101E+04  0.36979939101E+04  0.00000000000E+00 0. -1.
         23    2    1    2    0    0 -0.58696398102E+03  0.74317135134E+03 -0.19108411689E+04  0.21350219681E+04  0.10086852278E+03 0.  0.
         11    1    3    3    0    0 -0.22802406315E+03  0.35900771821E+03 -0.79911960335E+03  0.90524784207E+03  0.00000000000E+00 0.  1.
        -11    1    3    3    0    0 -0.35893991787E+03  0.38416363312E+03 -0.11117215656E+04  0.12297741260E+04  0.00000000000E+00 0. -1.
         22    1    1    2    0    0  0.58696398102E+03 -0.74317135134E+03 -0.15412120439E+04  0.18089126393E+04  0.00000000000E+00 0. -1.
<mgrwt>
<rscale>  0 0.19073408E+04</rscale>
<asrwt>0</asrwt>
<pdfrwt beam="1">  1        2 0.56892219E+00 0.19073408E+04</pdfrwt>
<pdfrwt beam="2">  1       -2 0.37837027E-01 0.19073408E+04</pdfrwt>
<totfact> 0.36453739E+00</totfact>
</mgrwt>
</event>
<event>
 6    1  0.1637818E-005  0.3558385E+04  0.7818608E-02  0.8100091E-01
         -2   -1    0    0    0  501 -0.00000000000E+00  0.00000000000E+00  0.25674106947E+04  0.25674106947E+04  0.00000000000E+00 0.  1.
          2   -1    0    0  501    0  0.00000000000E+00 -0.00000000000E+00 -0.12329643112E+04  0.12329643112E+04  0.00000000000E+00 0. -1.
         23    2    1    2    0    0  0.13373871515E+04 -0.41289331471E+02 -0.58299039331E+03  0.14622404942E+04  0.89220301635E+02 0.  0.
         13    1    3    3    0    0  0.31159026963E+03 -0.36487671738E+02 -0.16585871552E+03  0.35486470637E+03  0.00000000000E+00 0.  1.
        -13    1    3    3    0    0  0.10257968819E+04 -0.48016597331E+01 -0.41713167780E+03  0.11073757878E+04  0.00000000000E+00 0. -1.
         22    1    1    2    0    0 -0.13373871515E+04  0.41289331471E+02  0.19174367768E+04  0.23381345117E+04  0.00000000000E+00 0.  1.
<mgrwt>
<rscale>  0 0.35583849E+04</rscale>
<asrwt>0</asrwt>
<pdfrwt beam="1">  1        2 0.18968682E+00 0.35583849E+04</pdfrwt>
<pdfrwt beam="2">  1       -2 0.39498626E+00 0.35583849E+04</pdfrwt>
<totfact> 0.11840177E-01</totfact>
</mgrwt>
</event>
<event>
 6    1  0.1637818E-005  0.1160982E+04  0.7818608E-02  0.9147711E-01
          1   -1    0    0  501    0  0.00000000000E+00  0.00000000000E+00  0.95229131961E+03  0.95229131961E+03  0.00000000000E+00 0. -1.
         -1   -1    0    0    0  501 -0.00000000000E+00 -0.00000000000E+00 -0.35385169137E+03  0.35385169137E+03  0.00000000000E+00 0.  1.
         23    2    1    2    0    0 -0.42610839688E+03 -0.20264173546E+03 -0.72281796039E+02  0.48608248405E+03  0.91757748570E+02 0.  0.
         11    1    3    3    0    0 -0.28800335349E+03 -0.95515079697E+02 -0.22072346975E+02  0.30423058783E+03  0.00000000000E+00 0. -1.
        -11    1    3    3    0    0 -0.13810504339E+03 -0.10712665576E+03 -0.50209449064E+02  0.18185189622E+03  0.00000000000E+00 0.  1.
         22    1    1    2    0    0  0.42610839688E+03  0.20264173546E+03  0.67072142428E+03  0.82006052693E+03  0.00000000000E+00 0. -1.
<mgrwt>
<rscale>  0 0.11609822E+04</rscale>
<asrwt>0</asrwt>
<pdfrwt beam="1">  1        1 0.14650636E+00 0.11609822E+04</pdfrwt>
<pdfrwt beam="2">  1       -1 0.54438722E-01 0.11609822E+04</pdfrwt>
<totfact> 0.55818779E+01</totfact>
</mgrwt>
</event>
<event>
 6    1  0.1637818E-005  0.2839832E+04  0.7818608E-02  0.8291008E-01
         -2   -1    0    0    0  501 -0.00000000000E+00  0.00000000000E+00  0.57141269741E+03  0.57141269741E+03  0.00000000000E+00 0.  1.
          2   -1    0    0  501    0  0.00000000000E+00 -0.00000000000E+00 -0.35283801800E+04  0.35283801800E+04  0.00000000000E+00 0. -1.
         23    2    1    2    0    0  0.58844038029E+03 -0.83049574245E+03 -0.53771960239E+02  0.10233453319E+04  0.91427486127E+02 0.  0.
         13    1    3    3    0    0  0.30254483206E+03 -0.39456852347E+03  0.15482285030E+02  0.49745089836E+03  0.00000000000E+00 0. -1.
        -13    1    3    3    0    0  0.28589554822E+03 -0.43592721897E+03 -0.69254245270E+02  0.52589443354E+03  0.00000000000E+00 0.  1.
         22    1    1    2    0    0 -0.58844038029E+03  0.83049574245E+03 -0.29031955224E+04  0.30764475456E+04  0.00000000000E+00 0. -1.
<mgrwt>
<rscale>  0 0.28398319E+04</rscale>
<asrwt>0</asrwt>
<pdfrwt beam="1">  1        2 0.54282773E+00 0.28398319E+04</pdfrwt>
<pdfrwt beam="2">  1       -2 0.87909644E-01 0.28398319E+04</pdfrwt>
<totfact> 0.75108107E-01</totfact>
</mgrwt>
</event>
<event>
 6    1  0.1637818E-005  0.1480640E+04  0.7818608E-02  0.8897430E-01
         -1   -1    0    0    0  501 -0.00000000000E+00  0.00000000000E+00  0.44682189573E+03  0.44682189573E+03  0.00000000000E+00 0.  1.
          1   -1    0    0  501    0  0.00000000000E+00 -0.00000000000E+00 -0.12266046583E+04  0.12266046583E+04  0.00000000000E+00 0. -1.
         23    2    1    2    0    0  0.38665341264E+03 -0.45276344349E+02  0.31656671091E+03  0.51001219239E+03  0.91362711565E+02 0.  0.
         13    1    3    3    0    0  0.19281160255E+03 -0.66845741562E+02  0.17760369788E+03  0.27053232846E+03  0.00000000000E+00 0.  1.
        -13    1    3    3    0    0  0.19384181009E+03  0.21569397213E+02  0.13896301302E+03  0.23947986392E+03  0.00000000000E+00 0. -1.
         22    1    1    2    0    0 -0.38665341264E+03  0.45276344349E+02 -0.10963494734E+04  0.11634143616E+04  0.00000000000E+00 0. -1.
<mgrwt>
<rscale>  0 0.14806402E+04</rscale>
<asrwt>0</asrwt>
<pdfrwt beam="1">  1        1 0.18870840E+00 0.14806402E+04</pdfrwt>
<pdfrwt beam="2">  1       -1 0.68741832E-01 0.14806402E+04</pdfrwt>
<totfact> 0.21201927E+01</totfact>
</mgrwt>
</event>
<event>
 6    1  0.1637818E-005  0.1101676E+04  0.7818608E-02  0.9203560E-01
          2   -1    0    0  501    0  0.00000000000E+00  0.00000000000E+00  0.18904937386E+04  0.18904937386E+04  0.00000000000E+00 0. -1.
         -2   -1    0    0    0  501 -0.00000000000E+00 -0.00000000000E+00 -0.16049916261E+03  0.16049916261E+03  0.00000000000E+00 0.  1.
         23    2    1    2    0    0 -0.71281056154E+01  0.25655402411E+03  0.17703710839E+04  0.17911832795E+04  0.90845961508E+02 0.  0.
         13    1    3    3    0    0  0.26003526247E+02  0.31076744513E+02  0.39325805670E+03  0.39534016566E+03  0.00000000000E+00 0.  1.
        -13    1    3    3    0    0 -0.33131631862E+02  0.22547727960E+03  0.13771130272E+04  0.13958431138E+04  0.00000000000E+00 0. -1.
         22    1    1    2    0    0  0.71281056154E+01 -0.25655402411E+03 -0.40376507888E+02  0.25980962178E+03  0.00000000000E+00 0.  1.
<mgrwt>
<rscale>  0 0.11016763E+04</rscale>
<asrwt>0</asrwt>
<pdfrwt beam="1">  1        2 0.29084517E+00 0.11016763E+04</pdfrwt>
<pdfrwt beam="2">  1       -2 0.24692180E-01 0.11016763E+04</pdfrwt>
<totfact> 0.11209454E+02</totfact>
</mgrwt>
</event>
<event>
 6    1  0.1637818E-005  0.3535806E+04  0.7818608E-02  0.8105356E-01
          2   -1    0    0  501    0  0.00000000000E+00  0.00000000000E+00  0.18507938296E+04  0.18507938296E+04  0.00000000000E+00 0. -1.
         -2   -1    0    0    0  501 -0.00000000000E+00 -0.00000000000E+00 -0.16887243497E+04  0.16887243497E+04  0.00000000000E+00 0.  1.
         23    2    1    2    0    0 -0.23833172207E+03 -0.16385213706E+04 -0.53573004380E+03  0.17427214555E+04  0.92288134787E+02 0.  0.
         13    1    3    3    0    0 -0.14076946513E+03 -0.12102855208E+04 -0.37164576273E+03  0.12738632804E+04  0.00000000000E+00 0.  1.
        -13    1    3    3    0    0 -0.97562256939E+02 -0.42823584982E+03 -0.16408428107E+03  0.46885817508E+03  0.00000000000E+00 0. -1.
         22    1    1    2    0    0  0.23833172207E+03  0.16385213706E+04  0.69779952367E+03  0.17967967239E+04  0.00000000000E+00 0.  1.
<mgrwt>
<rscale>  0 0.35358058E+04</rscale>
<asrwt>0</asrwt>
<pdfrwt beam="1">  1        2 0.28473751E+00 0.35358058E+04</pdfrwt>
<pdfrwt beam="2">  1       -2 0.25980375E+00 0.35358058E+04</pdfrwt>
<totfact> 0.37068490E-01</totfact>
</mgrwt>
</event>
<event>
 6    1  0.1637818E-005  0.2491471E+04  0.7818608E-02  0.8406030E-01
          1   -1    0    0  501    0  0.00000000000E+00  0.00000000000E+00  0.27753847054E+04  0.27753847054E+04  0.00000000000E+00 0. -1.
         -1   -1    0    0    0  501 -0.00000000000E+00 -0.00000000000E+00 -0.55915022970E+03  0.55915022970E+03  0.00000000000E+00 0.  1.
         23    2    1    2    0    0 -0.29852982894E+03  0.70186408737E+03 -0.20522564907E+03  0.79579461917E+03  0.97150671413E+02 0.  0.
         11    1    3    3    0    0 -0.22512345526E+03  0.41117869689E+03 -0.13586222372E+03  0.48806458048E+03  0.00000000000E+00 0. -1.
        -11    1    3    3    0    0 -0.73406373680E+02  0.29068539048E+03 -0.69363425342E+02  0.30773003869E+03  0.00000000000E+00 0.  1.
         22    1    1    2    0    0  0.29852982894E+03 -0.70186408737E+03  0.24214601248E+04  0.25387403160E+04  0.00000000000E+00 0. -1.
<mgrwt>
<rscale>  0 0.24914710E+04</rscale>
<asrwt>0</asrwt>
<pdfrwt beam="1">  1        1 0.42698225E+00 0.24914710E+04</pdfrwt>
<pdfrwt beam="2">  1       -1 0.86023114E-01 0.24914710E+04</pdfrwt>
<totfact> 0.10288661E+00</totfact>
</mgrwt>
</event>
<event>
 6    1  0.1637818E-005  0.2196901E+04  0.7818608E-02  0.8519719E-01
         -4   -1    0    0    0  501 -0.00000000000E+00  0.00000000000E+00  0.88148191160E+03  0.88148191160E+03  0.00000000000E+00 0. -1.
          4   -1    0    0  501    0  0.00000000000E+00 -0.00000000000E+00 -0.13688242275E+04  0.13688242275E+04  0.00000000000E+00 0.  1.
         23    2    1    2    0    0  0.26241275525E+02 -0.24972516940E+03 -0.13375106633E+04  0.13638313885E+04  0.89721887648E+02 0.  0.
         13    1    3    3    0    0 -0.29666255161E+02 -0.94942412593E+02 -0.59935295987E+03  0.60755091878E+03  0.00000000000E+00 0.  1.
        -13    1    3    3    0    0  0.55907530686E+02 -0.15478275680E+03 -0.73815770338E+03  0.75628046970E+03  0.00000000000E+00 0. -1.
         22    1    1    2    0    0 -0.26241275525E+02  0.24972516940E+03  0.85016834732E+03  0.88647475066E+03  0.00000000000E+00 0. -1.
<mgrwt>
<rscale>  0 0.21969013E+04</rscale>
<asrwt>0</asrwt>
<pdfrwt beam="1">  1        4 0.21058834E+00 0.21969013E+04</pdfrwt>
<pdfrwt beam="2">  1       -4 0.13561260E+00 0.21969013E+04</pdfrwt>
<totfact> 0.79571700E-02</totfact>
</mgrwt>
</event>
<event>
 6    1  0.1637818E-005  0.4659708E+03  0.7818608E-02  0.1023064E+00
         -2   -1    0    0    0  501 -0.00000000000E+00  0.00000000000E+00  0.84215505320E+03  0.84215505320E+03  0.00000000000E+00 0.  1.
          2   -1    0    0  501    0  0.00000000000E+00 -0.00000000000E+00 -0.64456300476E+02  0.64456300476E+02  0.00000000000E+00 0. -1.
         23    2    1    2    0    0  0.50921321589E+02 -0.14182400372E+03  0.80051523719E+02  0.19287562866E+03  0.89920702052E+02 0.  0.
         11    1    3    3    0    0  0.76950982846E+02 -0.11106869634E+03  0.63868555040E+02  0.14945534916E+03  0.00000000000E+00 0. -1.
        -11    1    3    3    0    0 -0.26029661256E+02 -0.30755307378E+02  0.16182968679E+02  0.43420279505E+02  0.00000000000E+00 0.  1.
         22    1    1    2    0    0 -0.50921321589E+02  0.14182400372E+03  0.69764722900E+03  0.71373572501E+03  0.00000000000E+00 0.  1.
<mgrwt>
<rscale>  0 0.46597081E+03</rscale>
<asrwt>0</asrwt>
<pdfrwt beam="1">  1        2 0.99163545E-02 0.46597081E+03</pdfrwt>
<pdfrwt beam="2">  1       -2 0.12956231E+00 0.46597081E+03</pdfrwt>
<totfact> 0.29834542E+02</totfact>
</mgrwt>
</event>
<event>
 6    1  0.1637818E-005  0.2127993E+04  0.7818608E-02  0.8549011E-01
         -2   -1    0    0    0  501 -0.00000000000E+00  0.00000000000E+00  0.42601418894E+03  0.42601418894E+03  0.00000000000E+00 0.  1.
          2   -1    0    0  501    0  0.00000000000E+00 -0.00000000000E+00 -0.26573967733E+04  0.26573967733E+04  0.00000000000E+00 0. -1.
         23    2    1    2    0    0  0.25586400564E+03  0.10293646476E+04 -0.11986079167E+04  0.16029780927E+04  0.88429974651E+02 0.  0.
         11    1    3    3    0    0  0.23865828617E+03  0.83922911444E+03 -0.95672362501E+03  0.12948294786E+04  0.00000000000E+00 0.  1.
        -11    1    3    3    0    0  0.17205719475E+02  0.19013553318E+03 -0.24188429173E+03  0.30814861406E+03  0.00000000000E+00 0. -1.
         22    1    1    2    0    0 -0.25586400564E+03 -0.10293646476E+04 -0.10327746676E+04  0.14804328696E+04  0.00000000000E+00 0.  1.
<mgrwt>
<rscale>  0 0.21279932E+04</rscale>
<asrwt>0</asrwt>
<pdfrwt beam="1">  1        2 0.40883026E+00 0.21279932E+04</pdfrwt>
<pdfrwt beam="2">  1       -2 0.65540646E-01 0.21279932E+04</pdfrwt>
<totfact> 0.55535509E+00</totfact>
</mgrwt>
</event>
<event>
 6    1  0.1637818E-005  0.1925207E+04  0.7818608E-02  0.8642410E-01
         -1   -1    0    0    0  501 -0.00000000000E+00  0.00000000000E+00  0.29538007842E+03  0.29538007842E+03  0.00000000000E+00 0.  1.
          1   -1    0    0  501    0  0.00000000000E+00 -0.00000000000E+00 -0.31369931731E+04  0.31369931731E+04  0.00000000000E+00 0. -1.
         23    2    1    2    0    0 -0.95213406367E+03 -0.12593709246E+03 -0.13981053734E+04  0.16985526242E+04  0.89235393540E+02 0.  0.
         11    1    3    3    0    0 -0.78996974118E+03 -0.12481707811E+03 -0.12068739450E+04  0.14478177420E+04  0.00000000000E+00 0. -1.
        -11    1    3    3    0    0 -0.16216432249E+03 -0.11200143478E+01 -0.19123142847E+03  0.25073488221E+03  0.00000000000E+00 0.  1.
         22    1    1    2    0    0  0.95213406367E+03  0.12593709246E+03 -0.14435077212E+04  0.17338206273E+04  0.00000000000E+00 0.  1.
<mgrwt>
<rscale>  0 0.19252068E+04</rscale>
<asrwt>0</asrwt>
<pdfrwt beam="1">  1        1 0.48261431E+00 0.19252068E+04</pdfrwt>
<pdfrwt beam="2">  1       -1 0.45443091E-01 0.19252068E+04</pdfrwt>
<totfact> 0.21330738E+00</totfact>
</mgrwt>
</event>
<event>
 6    1  0.1637818E-005  0.8950762E+03  0.7818608E-02  0.9431757E-01
         -1   -1    0    0    0  501 -0.00000000000E+00  0.00000000000E+00  0.89482646169E+03  0.89482646169E+03  0.00000000000E+00 0.  1.
          1   -1    0    0  501    0  0.00000000000E+00 -0.00000000000E+00 -0.22383151534E+03  0.22383151534E+03  0.00000000000E+00 0. -1.
         23    2    1    2    0    0  0.11615427465E+03 -0.20925168086E+03 -0.12740120694E+03  0.28516262667E+03  0.88366139784E+02 0.  0.
         13    1    3    3    0    0 -0.12529434425E+01 -0.20699491423E+02 -0.42651458761E+02  0.47425581145E+02  0.00000000000E+00 0. -1.
        -13    1    3    3    0    0  0.11740721809E+03 -0.18855218943E+03 -0.84749748183E+02  0.23773704553E+03  0.00000000000E+00 0.  1.
         22    1    1    2    0    0 -0.11615427465E+03  0.20925168086E+03  0.79839615330E+03  0.83349535035E+03  0.00000000000E+00 0.  1.
<mgrwt>
<rscale>  0 0.89507623E+03</rscale>
<asrwt>0</asrwt>
<pdfrwt beam="1">  1        1 0.34435618E-01 0.89507623E+03</pdfrwt>
<pdfrwt beam="2">  1       -1 0.13766561E+00 0.89507623E+03</pdfrwt>
<totfact> 0.56753905E+01</totfact>
</mgrwt>
</event>
<event>
 6    1  0.1637818E-005  0.9080640E+03  0.7818608E-02  0.9415557E-01
         -2   -1    0    0    0  501 -0.00000000000E+00  0.00000000000E+00  0.12188604161E+03  0.12188604161E+03  0.00000000000E+00 0.  1.
          2   -1    0    0  501    0  0.00000000000E+00 -0.00000000000E+00 -0.16912934788E+04  0.16912934788E+04  0.00000000000E+00 0. -1.
         23    2    1    2    0    0  0.84746302860E+02  0.44011192128E+03 -0.87877904073E+03  0.98986425815E+03  0.81842580741E+02 0.  0.
         11    1    3    3    0    0  0.77049607875E+02  0.21102319339E+03 -0.47821786069E+03  0.52835570642E+03  0.00000000000E+00 0.  1.
        -11    1    3    3    0    0  0.76966949849E+01  0.22908872789E+03 -0.40056118004E+03  0.46150855173E+03  0.00000000000E+00 0. -1.
         22    1    1    2    0    0 -0.84746302860E+02 -0.44011192128E+03 -0.69062839650E+03  0.82331526231E+03  0.00000000000E+00 0.  1.
<mgrwt>
<rscale>  0 0.90806402E+03</rscale>
<asrwt>0</asrwt>
<pdfrwt beam="1">  1        2 0.26019899E+00 0.90806402E+03</pdfrwt>
<pdfrwt beam="2">  1       -2 0.18751699E-01 0.90806402E+03</pdfrwt>
<totfact> 0.23829655E+02</totfact>
</mgrwt>
</event>
<event>
 6    1  0.1637818E-005  0.1402083E+04  0.7818608E-02  0.8952312E-01
          1   -1    0    0  501    0  0.00000000000E+00  0.00000000000E+00  0.70197170642E+03  0.70197170642E+03  0.00000000000E+00 0. -1.
         -1   -1    0    0    0  501 -0.00000000000E+00 -0.00000000000E+00 -0.70011296195E+03  0.70011296195E+03  0.00000000000E+00 0.  1.
         23    2    1    2    0    0  0.24464664461E+03 -0.18162954822E+03  0.62877334055E+03  0.70504579982E+03  0.94299483284E+02 0.  0.
         11    1    3    3    0    0  0.11871801048E+03 -0.33864604578E+02  0.27669219512E+03  0.30298407268E+03  0.00000000000E+00 0.  1.
        -11    1    3    3    0    0  0.12592863413E+03 -0.14776494365E+03  0.35208114543E+03  0.40206172714E+03  0.00000000000E+00 0. -1.
         22    1    1    2    0    0 -0.24464664461E+03  0.18162954822E+03 -0.62691459607E+03  0.69703886855E+03  0.00000000000E+00 0.  1.
<mgrwt>
<rscale>  0 0.14020834E+04</rscale>
<asrwt>0</asrwt>
<pdfrwt beam="1">  1        1 0.10799565E+00 0.14020834E+04</pdfrwt>
<pdfrwt beam="2">  1       -1 0.10770969E+00 0.14020834E+04</pdfrwt>
<totfact> 0.21220261E+01</totfact>
</mgrwt>
</event>
<event>
 6    1  0.1637818E-005  0.5696455E+03  0.7818608E-02  0.9970463E-01
          2   -1    0    0  501    0  0.00000000000E+00  0.00000000000E+00  0.26358976854E+04  0.26358976854E+04  0.00000000000E+00 0. -1.
         -2   -1    0    0    0  501 -0.00000000000E+00 -0.00000000000E+00 -0.30776611111E+02  0.30776611111E+02  0.00000000000E+00 0.  1.
         23    2    1    2    0    0  0.22775961639E+02 -0.27147087448E+03  0.10802706496E+04  0.11176797846E+04  0.89488795334E+02 0.  0.
         11    1    3    3    0    0 -0.32886210881E+02 -0.14210154287E+03  0.56036027935E+03  0.57903194560E+03  0.00000000000E+00 0. -1.
        -11    1    3    3    0    0  0.55662172520E+02 -0.12936933161E+03  0.51991037023E+03  0.53864783902E+03  0.00000000000E+00 0.  1.
         22    1    1    2    0    0 -0.22775961639E+02  0.27147087448E+03  0.15248504247E+04  0.15489945119E+04  0.00000000000E+00 0. -1.
<mgrwt>
<rscale>  0 0.56964550E+03</rscale>
<asrwt>0</asrwt>
<pdfrwt beam="1">  1        2 0.40552254E+00 0.56964550E+03</pdfrwt>
<pdfrwt beam="2">  1       -2 0.47348653E-02 0.56964550E+03</pdfrwt>
<totfact> 0.68985942E+02</totfact>
</mgrwt>
</event>
<event>
 6    1  0.1637818E-005  0.1425871E+04  0.7818608E-02  0.8935302E-01
         -2   -1    0    0    0  501 -0.00000000000E+00  0.00000000000E+00  0.45093530861E+03  0.45093530861E+03  0.00000000000E+00 0. -1.
          2   -1    0    0  501    0  0.00000000000E+00 -0.00000000000E+00 -0.11271623267E+04  0.11271623267E+04  0.00000000000E+00 0.  1.
         23    2    1    2    0    0  0.25383327659E+03 -0.25250201981E+03  0.33915018049E+03  0.50144566845E+03  0.90754124790E+02 0.  0.
         11    1    3    3    0    0  0.10648181937E+03 -0.16247042031E+03  0.15079264611E+03  0.24591347555E+03  0.00000000000E+00 0. -1.
        -11    1    3    3    0    0  0.14735145723E+03 -0.90031599499E+02  0.18835753438E+03  0.25553219291E+03  0.00000000000E+00 0.  1.
         22    1    1    2    0    0 -0.25383327659E+03  0.25250201981E+03 -0.10153771986E+04  0.10766519668E+04  0.00000000000E+00 0.  1.
<mgrwt>
<rscale>  0 0.14258714E+04</rscale>
<asrwt>0</asrwt>
<pdfrwt beam="1">  1        2 0.17340959E+00 0.14258714E+04</pdfrwt>
<pdfrwt beam="2">  1       -2 0.69374664E-01 0.14258714E+04</pdfrwt>
<totfact> 0.38613945E+01</totfact>
</mgrwt>
</event>
<event>
 6    1  0.1637818E-005  0.1173662E+04  0.7818608E-02  0.9136228E-01
         -1   -1    0    0    0  501 -0.00000000000E+00  0.00000000000E+00  0.31527545564E+03  0.31527545564E+03  0.00000000000E+00 0.  1.
          1   -1    0    0  501    0  0.00000000000E+00 -0.00000000000E+00 -0.10922843516E+04  0.10922843516E+04  0.00000000000E+00 0. -1.
         23    2    1    2    0    0  0.33089852716E+03 -0.42465043941E+03 -0.12131470772E+03  0.55917504814E+03  0.90208897501E+02 0.  0.
         13    1    3    3    0    0  0.90452450211E+02 -0.16351470033E+03 -0.74327887375E+02  0.20110529037E+03  0.00000000000E+00 0. -1.
        -13    1    3    3    0    0  0.24044607695E+03 -0.26113573908E+03 -0.46986820346E+02  0.35806975777E+03  0.00000000000E+00 0.  1.
         22    1    1    2    0    0 -0.33089852716E+03  0.42465043941E+03 -0.65569418819E+03  0.84838475905E+03  0.00000000000E+00 0. -1.
<mgrwt>
<rscale>  0 0.11736617E+04</rscale>
<asrwt>0</asrwt>
<pdfrwt beam="1">  1        1 0.16804375E+00 0.11736617E+04</pdfrwt>
<pdfrwt beam="2">  1       -1 0.48503916E-01 0.11736617E+04</pdfrwt>
<totfact> 0.54164253E+01</totfact>
</mgrwt>
</event>
<event>
 6    1  0.1637818E-005  0.1166812E+04  0.7818608E-02  0.9142413E-01
          2   -1    0    0  501    0  0.00000000000E+00  0.00000000000E+00  0.51640053109E+03  0.51640053109E+03  0.00000000000E+00 0.  1.
         -2   -1    0    0    0  501 -0.00000000000E+00 -0.00000000000E+00 -0.65910522685E+03  0.65910522685E+03  0.00000000000E+00 0. -1.
         23    2    1    2    0    0 -0.12247035835E+02 -0.20898364468E+03 -0.61655142353E+03  0.65747595662E+03  0.91185646092E+02 0.  0.
         13    1    3    3    0    0 -0.15113164654E+02 -0.10203480851E+03 -0.43211352553E+03  0.44425399136E+03  0.00000000000E+00 0.  1.
        -13    1    3    3    0    0  0.28661288195E+01 -0.10694883617E+03 -0.18443789799E+03  0.21322196526E+03  0.00000000000E+00 0. -1.
         22    1    1    2    0    0  0.12247035835E+02  0.20898364468E+03  0.47384672777E+03  0.51802980131E+03  0.00000000000E+00 0.  1.
<mgrwt>
<rscale>  0 0.11668115E+04</rscale>
<asrwt>0</asrwt>
<pdfrwt beam="1">  1        2 0.79446235E-01 0.11668115E+04</pdfrwt>
<pdfrwt beam="2">  1       -2 0.10140080E+00 0.11668115E+04</pdfrwt>
<totfact> 0.46867633E+01</totfact>
</mgrwt>
</event>
<event>
 6    1  0.1637818E-005  0.1895965E+04  0.7818608E-02  0.8656867E-01
         -1   -1    0    0    0  501 -0.00000000000E+00  0.00000000000E+00  0.34185041599E+03  0.34185041599E+03  0.00000000000E+00 0.  1.
          1   -1    0    0  501    0  0.00000000000E+00 -0.00000000000E+00 -0.26288435571E+04  0.26288435571E+04  0.00000000000E+00 0. -1.
         23    2    1    2    0    0 -0.75661064947E+03  0.52779822201E+03 -0.81829200113E+03  0.12363025304E+04  0.88382743720E+02 0.  0.
         13    1    3    3    0    0 -0.10847700137E+03  0.10680498857E+03 -0.16297479220E+03  0.22301423341E+03  0.00000000000E+00 0. -1.
        -13    1    3    3    0    0 -0.64813364810E+03  0.42099323345E+03 -0.65531720893E+03  0.10132882969E+04  0.00000000000E+00 0.  1.
         22    1    1    2    0    0  0.75661064947E+03 -0.52779822201E+03 -0.14687011400E+04  0.17343914428E+04  0.00000000000E+00 0. -1.
<mgrwt>
<rscale>  0 0.18959655E+04</rscale>
<asrwt>0</asrwt>
<pdfrwt beam="1">  1        1 0.40443749E+00 0.18959655E+04</pdfrwt>
<pdfrwt beam="2">  1       -1 0.52592370E-01 0.18959655E+04</pdfrwt>
<totfact> 0.37597443E+00</totfact>
</mgrwt>
</event>
<event>
 6    1  0.1637818E-005  0.1269056E+04  0.7818608E-02  0.9054471E-01
          2   -1    0    0  501    0  0.00000000000E+00  0.00000000000E+00  0.12998354338E+04  0.12998354338E+04  0.00000000000E+00 0. -1.
         -2   -1    0    0    0  501 -0.00000000000E+00 -0.00000000000E+00 -0.30975125608E+03  0.30975125608E+03  0.00000000000E+00 0.  1.
         23    2    1    2    0    0 -0.34329283282E+03 -0.12721182589E+03  0.11497751713E+04  0.12101695757E+04  0.92166370617E+02 0.  0.
         11    1    3    3    0    0 -0.16382901347E+03 -0.96246503062E+02  0.68872214435E+03  0.71445190680E+03  0.00000000000E+00 0. -1.
        -11    1    3    3    0    0 -0.17946381935E+03 -0.30965322831E+02  0.46105302691E+03  0.49571766894E+03  0.00000000000E+00 0.  1.
         22    1    1    2    0    0  0.34329283282E+03  0.12721182589E+03 -0.15969099349E+03  0.39941711420E+03  0.00000000000E+00 0.  1.
<mgrwt>
<rscale>  0 0.12690558E+04</rscale>
<asrwt>0</asrwt>
<pdfrwt beam="1">  1        2 0.19997468E+00 0.12690558E+04</pdfrwt>
<pdfrwt beam="2">  1       -2 0.47654040E-01 0.12690558E+04</pdfrwt>
<totfact> 0.67748361E+01</totfact>
</mgrwt>
</event>
<event>
 6    1  0.1637818E-005  0.4030695E+04  0.7818608E-02  0.7998383E-01
          1   -1    0    0  501    0  0.00000000000E+00  0.00000000000E+00  0.17123560877E+04  0.17123560877E+04  0.00000000000E+00 0. -1.
         -1   -1    0    0    0  501 -0.00000000000E+00 -0.00000000000E+00 -0.23719516307E+04  0.23719516307E+04  0.00000000000E+00 0.  1.
         23    2    1    2    0    0  0.30278331321E+03  0.19911816218E+04 -0.29907245741E+03  0.20382239271E+04  0.91817517355E+02 0.  0.
         13    1    3    3    0    0  0.16448956909E+03  0.80339068516E+03 -0.10465160034E+03  0.82670754732E+03  0.00000000000E+00 0. -1.
        -13    1    3    3    0    0  0.13829374412E+03  0.11877909366E+04 -0.19442085708E+03  0.12115163798E+04  0.00000000000E+00 0.  1.
         22    1    1    2    0    0 -0.30278331321E+03 -0.19911816218E+04 -0.36052308561E+03  0.20460837913E+04  0.00000000000E+00 0.  1.
<mgrwt>
<rscale>  0 0.40306951E+04</rscale>
<asrwt>0</asrwt>
<pdfrwt beam="1">  1        1 0.26343940E+00 0.40306951E+04</pdfrwt>
<pdfrwt beam="2">  1       -1 0.36491563E+00 0.40306951E+04</pdfrwt>
<totfact> 0.45080249E-02</totfact>
</mgrwt>
</event>
<event>
 6    1  0.1637818E-005  0.3475680E+04  0.7818608E-02  0.8119578E-01
         -2   -1    0    0    0  501 -0.00000000000E+00  0.00000000000E+00  0.91780744642E+03  0.91780744642E+03  0.00000000000E+00 0.  1.
          2   -1    0    0  501    0  0.00000000000E+00 -0.00000000000E+00 -0.32905463455E+04  0.32905463455E+04  0.00000000000E+00 0. -1.
         23    2    1    2    0    0  0.98994740836E+03 -0.54184003836E+03 -0.27853983119E+04  0.30067405890E+04  0.91971272674E+02 0.  0.
         13    1    3    3    0    0  0.28479118778E+03 -0.11589502639E+03 -0.81401344273E+03  0.87014686274E+03  0.00000000000E+00 0. -1.
        -13    1    3    3    0    0  0.70515622058E+03 -0.42594501198E+03 -0.19713848692E+04  0.21365937262E+04  0.00000000000E+00 0.  1.
         22    1    1    2    0    0 -0.98994740836E+03  0.54184003836E+03  0.41265941283E+03  0.12016132029E+04  0.00000000000E+00 0.  1.
<mgrwt>
<rscale>  0 0.34756800E+04</rscale>
<asrwt>0</asrwt>
<pdfrwt beam="1">  1        2 0.50623792E+00 0.34756800E+04</pdfrwt>
<pdfrwt beam="2">  1       -2 0.14120114E+00 0.34756800E+04</pdfrwt>
<totfact> 0.32645279E-01</totfact>
</mgrwt>
</event>
<event>
 6    1  0.1637818E-005  0.2224428E+04  0.7818608E-02  0.8508329E-01
         -2   -1    0    0    0  501 -0.00000000000E+00  0.00000000000E+00  0.10467968373E+04  0.10467968373E+04  0.00000000000E+00 0.  1.
          2   -1    0    0  501    0  0.00000000000E+00 -0.00000000000E+00 -0.11817193309E+04  0.11817193309E+04  0.00000000000E+00 0. -1.
         23    2    1    2    0    0 -0.14063215873E+03 -0.28907280475E+03  0.99723104139E+03  0.10516083055E+04  0.89831997995E+02 0.  0.
         11    1    3    3    0    0  0.12679979900E+02 -0.21654970381E+02  0.61905436850E+02  0.66798224108E+02  0.00000000000E+00 0. -1.
        -11    1    3    3    0    0 -0.15331213863E+03 -0.26741783436E+03  0.93532560454E+03  0.98481008143E+03  0.00000000000E+00 0.  1.
         22    1    1    2    0    0  0.14063215873E+03  0.28907280475E+03 -0.11321535349E+04  0.11769078627E+04  0.00000000000E+00 0. -1.
<mgrwt>
<rscale>  0 0.22244281E+04</rscale>
<asrwt>0</asrwt>
<pdfrwt beam="1">  1        2 0.18180297E+00 0.22244281E+04</pdfrwt>
<pdfrwt beam="2">  1       -2 0.16104567E+00 0.22244281E+04</pdfrwt>
<totfact> 0.43850601E+00</totfact>
</mgrwt>
</event>
<event>
 6    1  0.1637818E-005  0.3158087E+04  0.7818608E-02  0.8199975E-01
         -2   -1    0    0    0  501 -0.00000000000E+00  0.00000000000E+00  0.73907433696E+03  0.73907433696E+03  0.00000000000E+00 0.  1.
          2   -1    0    0  501    0  0.00000000000E+00 -0.00000000000E+00 -0.33736510699E+04  0.33736510699E+04  0.00000000000E+00 0. -1.
         23    2    1    2    0    0  0.82621836634E+03 -0.79468956268E+03 -0.27300854612E+04  0.29623818898E+04  0.90396604093E+02 0.  0.
         11    1    3    3    0    0  0.53875018390E+03 -0.55469418706E+03 -0.17519106399E+04  0.19149747497E+04  0.00000000000E+00 0.  1.
        -11    1    3    3    0    0  0.28746818245E+03 -0.23999537562E+03 -0.97817482126E+03  0.10474071401E+04  0.00000000000E+00 0. -1.
         22    1    1    2    0    0 -0.82621836634E+03  0.79468956268E+03  0.95508728262E+02  0.11503435170E+04  0.00000000000E+00 0.  1.
<mgrwt>
<rscale>  0 0.31580874E+04</rscale>
<asrwt>0</asrwt>
<pdfrwt beam="1">  1        2 0.51902325E+00 0.31580874E+04</pdfrwt>
<pdfrwt beam="2">  1       -2 0.11370374E+00 0.31580874E+04</pdfrwt>
<totfact> 0.50841071E-01</totfact>
</mgrwt>
</event>
<event>
 6    1  0.1637818E-005  0.2631025E+04  0.7818608E-02  0.8357738E-01
          2   -1    0    0  501    0  0.00000000000E+00  0.00000000000E+00  0.15249547039E+04  0.15249547039E+04  0.00000000000E+00 0. -1.
         -2   -1    0    0    0  501 -0.00000000000E+00 -0.00000000000E+00 -0.11348357529E+04  0.11348357529E+04  0.00000000000E+00 0.  1.
         23    2    1    2    0    0  0.43296365578E+03  0.81455620511E+03  0.11412039658E+04  0.14702157269E+04  0.90710824531E+02 0.  0.
         11    1    3    3    0    0  0.12415531265E+03  0.18609874314E+03  0.32874285599E+03  0.39764198624E+03  0.00000000000E+00 0. -1.
        -11    1    3    3    0    0  0.30880834314E+03  0.62845746197E+03  0.81246110981E+03  0.10725737407E+04  0.00000000000E+00 0.  1.
         22    1    1    2    0    0 -0.43296365578E+03 -0.81455620511E+03 -0.75108501483E+03  0.11895747299E+04  0.00000000000E+00 0.  1.
<mgrwt>
<rscale>  0 0.26310250E+04</rscale>
<asrwt>0</asrwt>
<pdfrwt beam="1">  1        2 0.23460842E+00 0.26310250E+04</pdfrwt>
<pdfrwt beam="2">  1       -2 0.17459012E+00 0.26310250E+04</pdfrwt>
<totfact> 0.21447903E+00</totfact>
</mgrwt>
</event>
<event>
 6    1  0.1637818E-005  0.2290747E+04  0.7818608E-02  0.8481578E-01
          1   -1    0    0  501    0  0.00000000000E+00  0.00000000000E+00  0.25975777011E+04  0.25975777011E+04  0.00000000000E+00 0. -1.
         -1   -1    0    0    0  501 -0.00000000000E+00 -0.00000000000E+00 -0.50504009608E+03  0.50504009608E+03  0.00000000000E+00 0.  1.
         23    2    1    2    0    0 -0.41593944576E+03  0.46542362472E+03 -0.24985861748E+03  0.67847983984E+03  0.90998853612E+02 0.  0.
         13    1    3    3    0    0 -0.15055271560E+03  0.16051365334E+03 -0.42374756449E+02  0.22411241168E+03  0.00000000000E+00 0. -1.
        -13    1    3    3    0    0 -0.26538673017E+03  0.30490997138E+03 -0.20748386103E+03  0.45436742817E+03  0.00000000000E+00 0.  1.
         22    1    1    2    0    0  0.41593944576E+03 -0.46542362472E+03  0.23423962225E+04  0.24241379574E+04  0.00000000000E+00 0. -1.
<mgrwt>
<rscale>  0 0.22907474E+04</rscale>
<asrwt>0</asrwt>
<pdfrwt beam="1">  1        1 0.39962733E+00 0.22907474E+04</pdfrwt>
<pdfrwt beam="2">  1       -1 0.77698478E-01 0.22907474E+04</pdfrwt>
<totfact> 0.17390813E+00</totfact>
</mgrwt>
</event>
<event>
 6    1  0.1637818E-005  0.1573272E+04  0.7818608E-02  0.8837138E-01
          2   -1    0    0  501    0  0.00000000000E+00  0.00000000000E+00  0.13694083717E+04  0.13694083717E+04  0.00000000000E+00 0. -1.
         -2   -1    0    0    0  501 -0.00000000000E+00 -0.00000000000E+00 -0.45187148125E+03  0.45187148125E+03  0.00000000000E+00 0.  1.
         23    2    1    2    0    0  0.44518676842E+03 -0.23596201372E+03  0.11556817936E+04  0.12639807182E+04  0.90429625328E+02 0.  0.
         13    1    3    3    0    0  0.27527960343E+03 -0.18933793055E+03  0.80317701263E+03  0.86989713508E+03  0.00000000000E+00 0. -1.
        -13    1    3    3    0    0  0.16990716499E+03 -0.46624083168E+02  0.35250478097E+03  0.39408358308E+03  0.00000000000E+00 0.  1.
         22    1    1    2    0    0 -0.44518676842E+03  0.23596201372E+03 -0.23814490317E+03  0.55729913476E+03  0.00000000000E+00 0.  1.
<mgrwt>
<rscale>  0 0.15732725E+04</rscale>
<asrwt>0</asrwt>
<pdfrwt beam="1">  1        2 0.21067821E+00 0.15732725E+04</pdfrwt>
<pdfrwt beam="2">  1       -2 0.69518690E-01 0.15732725E+04</pdfrwt>
<totfact> 0.27323365E+01</totfact>
</mgrwt>
</event>
<event>
 6    1  0.1637818E-005  0.8524910E+03  0.7818608E-02  0.9487000E-01
         -2   -1    0    0    0  501 -0.00000000000E+00  0.00000000000E+00  0.83398620034E+02  0.83398620034E+02  0.00000000000E+00 0. -1.
          2   -1    0    0  501    0  0.00000000000E+00 -0.00000000000E+00 -0.21785162235E+04  0.21785162235E+04  0.00000000000E+00 0.  1.
         23    2    1    2    0    0  0.79803635838E+02  0.95427116169E+02 -0.21278096934E+04  0.21332924211E+04  0.88811643625E+02 0.  0.
         11    1    3    3    0    0 -0.76319460625E+01  0.38976288617E+02 -0.31440353112E+03  0.31690215849E+03  0.00000000000E+00 0. -1.
        -11    1    3    3    0    0  0.87435581901E+02  0.56450827552E+02 -0.18134061623E+04  0.18163902627E+04  0.00000000000E+00 0.  1.
         22    1    1    2    0    0 -0.79803635838E+02 -0.95427116169E+02  0.32692089935E+02  0.12862242238E+03  0.00000000000E+00 0. -1.
<mgrwt>
<rscale>  0 0.85249105E+03</rscale>
<asrwt>0</asrwt>
<pdfrwt beam="1">  1        2 0.33515630E+00 0.85249105E+03</pdfrwt>
<pdfrwt beam="2">  1       -2 0.12830559E-01 0.85249105E+03</pdfrwt>
<totfact> 0.24654776E+02</totfact>
</mgrwt>
</event>
<event>
 6    1  0.1637818E-005  0.2935612E+04  0.7818608E-02  0.8262360E-01
          2   -1    0    0  501    0  0.00000000000E+00  0.00000000000E+00  0.20167960281E+04  0.20167960281E+04  0.00000000000E+00 0. -1.
         -2   -1    0    0    0  501 -0.00000000000E+00 -0.00000000000E+00 -0.10682562408E+04  0.10682562408E+04  0.00000000000E+00 0.  1.
         23    2    1    2    0    0 -0.10331928966E+04 -0.10366340557E+04  0.56525073308E+03  0.15721054007E+04  0.99545329318E+02 0.  0.
         11    1    3    3    0    0 -0.71179791147E+03 -0.77306788319E+03  0.42296661503E+03  0.11327801977E+04  0.00000000000E+00 0. -1.
        -11    1    3    3    0    0 -0.32139498513E+03 -0.26356617253E+03  0.14228411804E+03  0.43932520303E+03  0.00000000000E+00 0.  1.
         22    1    1    2    0    0  0.10331928966E+04  0.10366340557E+04  0.38328905425E+03  0.15129468683E+04  0.00000000000E+00 0. -1.
<mgrwt>
<rscale>  0 0.29356123E+04</rscale>
<asrwt>0</asrwt>
<pdfrwt beam="1">  1        2 0.31027631E+00 0.29356123E+04</pdfrwt>
<pdfrwt beam="2">  1       -2 0.16434711E+00 0.29356123E+04</pdfrwt>
<totfact> 0.13171592E+00</totfact>
</mgrwt>
</event>
<event>
 6    1  0.1637818E-005  0.3575647E+04  0.7818608E-02  0.8096093E-01
         -1   -1    0    0    0  501 -0.00000000000E+00  0.00000000000E+00  0.11425903819E+04  0.11425903819E+04  0.00000000000E+00 0.  1.
          1   -1    0    0  501    0  0.00000000000E+00 -0.00000000000E+00 -0.27974269667E+04  0.27974269667E+04  0.00000000000E+00 0. -1.
         23    2    1    2    0    0  0.20469825571E+03 -0.15863273469E+04 -0.17055171986E+04  0.23397347636E+04  0.85053053984E+02 0.  0.
         13    1    3    3    0    0  0.22241819571E+02 -0.40912871637E+03 -0.40557938044E+03  0.57652028493E+03  0.00000000000E+00 0.  1.
        -13    1    3    3    0    0  0.18245643614E+03 -0.11771986305E+04 -0.12999378181E+04  0.17632144787E+04  0.00000000000E+00 0. -1.
         22    1    1    2    0    0 -0.20469825571E+03  0.15863273469E+04  0.50680613734E+02  0.16002825851E+04  0.00000000000E+00 0.  1.
<mgrwt>
<rscale>  0 0.35756472E+04</rscale>
<asrwt>0</asrwt>
<pdfrwt beam="1">  1        1 0.43037338E+00 0.35756472E+04</pdfrwt>
<pdfrwt beam="2">  1       -1 0.17578314E+00 0.35756472E+04</pdfrwt>
<totfact> 0.15139984E-01</totfact>
</mgrwt>
</event>
<event>
 6    1  0.1637818E-005  0.1626125E+04  0.7818608E-02  0.8804657E-01
          2   -1    0    0  501    0  0.00000000000E+00  0.00000000000E+00  0.32529511342E+04  0.32529511342E+04  0.00000000000E+00 0. -1.
         -2   -1    0    0    0  501 -0.00000000000E+00 -0.00000000000E+00 -0.20322176120E+03  0.20322176120E+03  0.00000000000E+00 0.  1.
         23    2    1    2    0    0  0.79136448302E+03 -0.50942981511E+02  0.11745090928E+04  0.14201709230E+04  0.92525180756E+02 0.  0.
         13    1    3    3    0    0  0.39515782720E+03 -0.65991851406E+02  0.55042584256E+03  0.68078869042E+03  0.00000000000E+00 0.  1.
        -13    1    3    3    0    0  0.39620665582E+03  0.15048869895E+02  0.62408325020E+03  0.73938223253E+03  0.00000000000E+00 0. -1.
         22    1    1    2    0    0 -0.79136448302E+03  0.50942981511E+02  0.18752202803E+04  0.20360019725E+04  0.00000000000E+00 0.  1.
<mgrwt>
<rscale>  0 0.16261248E+04</rscale>
<asrwt>0</asrwt>
<pdfrwt beam="1">  1        2 0.50045398E+00 0.16261248E+04</pdfrwt>
<pdfrwt beam="2">  1       -2 0.31264889E-01 0.16261248E+04</pdfrwt>
<totfact> 0.10961859E+01</totfact>
</mgrwt>
</event>
<event>
 6    1  0.1637818E-005  0.1614211E+04  0.7818608E-02  0.8811865E-01
         -1   -1    0    0    0  501 -0.00000000000E+00  0.00000000000E+00  0.70187664759E+03  0.70187664759E+03  0.00000000000E+00 0.  1.
          1   -1    0    0  501    0  0.00000000000E+00 -0.00000000000E+00 -0.92811108260E+03  0.92811108260E+03  0.00000000000E+00 0. -1.
         23    2    1    2    0    0  0.44113560632E+03  0.39142701993E+03  0.43881397575E+03  0.74110915369E+03  0.94177158964E+02 0.  0.
         13    1    3    3    0    0  0.24878922303E+03  0.15978292083E+03  0.20288600727E+03  0.35859362965E+03  0.00000000000E+00 0.  1.
        -13    1    3    3    0    0  0.19234638329E+03  0.23164409910E+03  0.23592796848E+03  0.38251552403E+03  0.00000000000E+00 0. -1.
         22    1    1    2    0    0 -0.44113560632E+03 -0.39142701993E+03 -0.66504841076E+03  0.88887857650E+03  0.00000000000E+00 0. -1.
<mgrwt>
<rscale>  0 0.16142113E+04</rscale>
<asrwt>0</asrwt>
<pdfrwt beam="1">  1        1 0.14278632E+00 0.16142113E+04</pdfrwt>
<pdfrwt beam="2">  1       -1 0.10798102E+00 0.16142113E+04</pdfrwt>
<totfact> 0.13193423E+01</totfact>
</mgrwt>
</event>
<event>
 6    1  0.1637818E-005  0.4054654E+04  0.7818608E-02  0.7993611E-01
         -2   -1    0    0    0  501 -0.00000000000E+00  0.00000000000E+00  0.13443718153E+04  0.13443718153E+04  0.00000000000E+00 0.  1.
          2   -1    0    0  501    0  0.00000000000E+00 -0.00000000000E+00 -0.30572311907E+04  0.30572311907E+04  0.00000000000E+00 0. -1.
         23    2    1    2    0    0 -0.10000345195E+04 -0.68417707283E+03 -0.26200909599E+04  0.28879199298E+04  0.83890258701E+02 0.  0.
         13    1    3    3    0    0 -0.75218596127E+03 -0.50123117170E+03 -0.20341583112E+04  0.22259416980E+04  0.00000000000E+00 0. -1.
        -13    1    3    3    0    0 -0.24784855820E+03 -0.18294590113E+03 -0.58593264867E+03  0.66197823175E+03  0.00000000000E+00 0.  1.
         22    1    1    2    0    0  0.10000345195E+04  0.68417707283E+03  0.90723158450E+03  0.15136830761E+04  0.00000000000E+00 0.  1.
<mgrwt>
<rscale>  0 0.40546543E+04</rscale>
<asrwt>0</asrwt>
<pdfrwt beam="1">  1        2 0.47034325E+00 0.40546543E+04</pdfrwt>
<pdfrwt beam="2">  1       -2 0.20682644E+00 0.40546543E+04</pdfrwt>
<totfact> 0.15095849E-01</totfact>
</mgrwt>
</event>
<event>
 6    1  0.1637818E-005  0.1587940E+04  0.7818608E-02  0.8827991E-01
          1   -1    0    0  501    0  0.00000000000E+00  0.00000000000E+00  0.41439541357E+03  0.41439541357E+03  0.00000000000E+00 0. -1.
         -1   -1    0    0    0  501 -0.00000000000E+00 -0.00000000000E+00 -0.15212247183E+04  0.15212247183E+04  0.00000000000E+00 0.  1.
         23    2    1    2    0    0 -0.48437180726E+03  0.21781036475E+03  0.15947269246E+03  0.56245657616E+03  0.94172489398E+02 0.  0.
         13    1    3    3    0    0 -0.26688150749E+03  0.10007209422E+03  0.40077714058E+02  0.28783048179E+03  0.00000000000E+00 0.  1.
        -13    1    3    3    0    0 -0.21749029978E+03  0.11773827052E+03  0.11939497840E+03  0.27462609437E+03  0.00000000000E+00 0. -1.
         22    1    1    2    0    0  0.48437180726E+03 -0.21781036475E+03 -0.12663019972E+04  0.13731635557E+04  0.00000000000E+00 0.  1.
<mgrwt>
<rscale>  0 0.15879402E+04</rscale>
<asrwt>0</asrwt>
<pdfrwt beam="1">  1        1 0.63753141E-01 0.15879402E+04</pdfrwt>
<pdfrwt beam="2">  1       -1 0.23403457E+00 0.15879402E+04</pdfrwt>
<totfact> 0.48789815E+00</totfact>
</mgrwt>
</event>
<event>
 6    1  0.1637818E-005  0.6762122E+04  0.7818608E-02  0.7602478E-01
         -2   -1    0    0    0  501 -0.00000000000E+00  0.00000000000E+00  0.39195857738E+04  0.39195857738E+04  0.00000000000E+00 0.  1.
          2   -1    0    0  501    0  0.00000000000E+00 -0.00000000000E+00 -0.29165260639E+04  0.29165260639E+04  0.00000000000E+00 0. -1.
         23    2    1    2    0    0 -0.75117022096E+03 -0.18333688151E+04  0.32705439886E+04  0.38249687213E+04  0.91814077040E+02 0.  0.
         11    1    3    3    0    0 -0.43746531848E+03 -0.11661598160E+04  0.20078924548E+04  0.23628238891E+04  0.00000000000E+00 0.  1.
        -11    1    3    3    0    0 -0.31370490247E+03 -0.66720899912E+03  0.12626515338E+04  0.14621448322E+04  0.00000000000E+00 0. -1.
         22    1    1    2    0    0  0.75117022096E+03  0.18333688151E+04 -0.22674842787E+04  0.30111431164E+04  0.00000000000E+00 0. -1.
<mgrwt>
<rscale>  0 0.67621222E+04</rscale>
<asrwt>0</asrwt>
<pdfrwt beam="1">  1        2 0.44869631E+00 0.67621222E+04</pdfrwt>
<pdfrwt beam="2">  1       -2 0.60301320E+00 0.67621222E+04</pdfrwt>
<totfact> 0.63261335E-04</totfact>
</mgrwt>
</event>
<event>
 6    1  0.1637818E-005  0.1295953E+04  0.7818608E-02  0.9032780E-01
         -2   -1    0    0    0  501 -0.00000000000E+00  0.00000000000E+00  0.12751592007E+03  0.12751592007E+03  0.00000000000E+00 0.  1.
          2   -1    0    0  501    0  0.00000000000E+00 -0.00000000000E+00 -0.32927162851E+04  0.32927162851E+04  0.00000000000E+00 0. -1.
         23    2    1    2    0    0  0.59247008209E+03  0.34492396615E+02 -0.92548131042E+03  0.11032186171E+04  0.91461126381E+02 0.  0.
         11    1    3    3    0    0  0.52869241461E+03  0.58699808477E+02 -0.80844296244E+03  0.96775067053E+03  0.00000000000E+00 0.  1.
        -11    1    3    3    0    0  0.63777667475E+02 -0.24207411862E+02 -0.11703834798E+03  0.13546794660E+03  0.00000000000E+00 0. -1.
         22    1    1    2    0    0 -0.59247008209E+03 -0.34492396615E+02 -0.22397190546E+04  0.23170135880E+04  0.00000000000E+00 0. -1.
<mgrwt>
<rscale>  0 0.12959533E+04</rscale>
<asrwt>0</asrwt>
<pdfrwt beam="1">  1        2 0.50657169E+00 0.12959533E+04</pdfrwt>
<pdfrwt beam="2">  1       -2 0.19617836E-01 0.12959533E+04</pdfrwt>
<totfact> 0.24832283E+01</totfact>
</mgrwt>
</event>
<event>
 6    1  0.1637818E-005  0.1153655E+04  0.7818608E-02  0.9154419E-01
          2   -1    0    0  501    0  0.00000000000E+00  0.00000000000E+00  0.19471140079E+04  0.19471140079E+04  0.00000000000E+00 0. -1.
         -2   -1    0    0    0  501 -0.00000000000E+00 -0.00000000000E+00 -0.17088356880E+03  0.17088356880E+03  0.00000000000E+00 0.  1.
         23    2    1    2    0    0  0.28543814340E+03 -0.46576175003E+03  0.12120862225E+04  0.13327156918E+04  0.92569774329E+02 0.  0.
         11    1    3    3    0    0  0.16284848009E+03 -0.24668560638E+03  0.54575660150E+03  0.62066390578E+03  0.00000000000E+00 0.  1.
        -11    1    3    3    0    0  0.12258966331E+03 -0.21907614365E+03  0.66632962096E+03  0.71205178606E+03  0.00000000000E+00 0. -1.
         22    1    1    2    0    0 -0.28543814340E+03  0.46576175003E+03  0.56414421664E+03  0.78528188484E+03  0.00000000000E+00 0. -1.
<mgrwt>
<rscale>  0 0.11536547E+04</rscale>
<asrwt>0</asrwt>
<pdfrwt beam="1">  1        2 0.29955599E+00 0.11536547E+04</pdfrwt>
<pdfrwt beam="2">  1       -2 0.26289781E-01 0.11536547E+04</pdfrwt>
<totfact> 0.92730087E+01</totfact>
</mgrwt>
</event>
<event>
 6    1  0.1637818E-005  0.2737622E+04  0.7818608E-02  0.8322900E-01
         -2   -1    0    0    0  501 -0.00000000000E+00  0.00000000000E+00  0.58710600794E+03  0.58710600794E+03  0.00000000000E+00 0.  1.
          2   -1    0    0  501    0  0.00000000000E+00 -0.00000000000E+00 -0.31913209366E+04  0.31913209366E+04  0.00000000000E+00 0. -1.
         23    2    1    2    0    0  0.38340039038E+03  0.75250053863E+03 -0.27876434803E+04  0.29141937853E+04  0.91193887457E+02 0.  0.
         11    1    3    3    0    0  0.32249207570E+02  0.23771593086E+02 -0.15349366483E+03  0.15863607777E+03  0.00000000000E+00 0. -1.
        -11    1    3    3    0    0  0.35115118281E+03  0.72872894554E+03 -0.26341498154E+04  0.27555577075E+04  0.00000000000E+00 0.  1.
         22    1    1    2    0    0 -0.38340039038E+03 -0.75250053863E+03  0.18342855162E+03  0.86423315924E+03  0.00000000000E+00 0.  1.
<mgrwt>
<rscale>  0 0.27376221E+04</rscale>
<asrwt>0</asrwt>
<pdfrwt beam="1">  1        2 0.49097246E+00 0.27376221E+04</pdfrwt>
<pdfrwt beam="2">  1       -2 0.90324000E-01 0.27376221E+04</pdfrwt>
<totfact> 0.12039718E+00</totfact>
</mgrwt>
</event>
<event>
 6    1  0.1637818E-005  0.2737723E+04  0.7818608E-02  0.8322868E-01
         -2   -1    0    0    0  501 -0.00000000000E+00  0.00000000000E+00  0.84956232218E+03  0.84956232218E+03  0.00000000000E+00 0.  1.
          2   -1    0    0  501    0  0.00000000000E+00 -0.00000000000E+00 -0.22055850694E+04  0.22055850694E+04  0.00000000000E+00 0. -1.
         23    2    1    2    0    0 -0.13288180792E+04 -0.32237595149E+03 -0.67593494111E+03  0.15279921389E+04  0.90488619321E+02 0.  0.
         11    1    3    3    0    0 -0.88732281783E+03 -0.25705834869E+03 -0.46928271455E+03  0.10361694089E+04  0.00000000000E+00 0. -1.
        -11    1    3    3    0    0 -0.44149526139E+03 -0.65317602797E+02 -0.20665222656E+03  0.49182273006E+03  0.00000000000E+00 0.  1.
         22    1    1    2    0    0  0.13288180792E+04  0.32237595149E+03 -0.68008780613E+03  0.15271552527E+04  0.00000000000E+00 0.  1.
<mgrwt>
<rscale>  0 0.27377231E+04</rscale>
<asrwt>0</asrwt>
<pdfrwt beam="1">  1        2 0.33932078E+00 0.27377231E+04</pdfrwt>
<pdfrwt beam="2">  1       -2 0.13070190E+00 0.27377231E+04</pdfrwt>
<totfact> 0.19207230E+00</totfact>
</mgrwt>
</event>
<event>
 6    1  0.1637818E-005  0.8509158E+03  0.7818608E-02  0.9489109E-01
         -4   -1    0    0    0  501 -0.00000000000E+00  0.00000000000E+00  0.34085823221E+03  0.34085823221E+03  0.00000000000E+00 0.  1.
          4   -1    0    0  501    0  0.00000000000E+00 -0.00000000000E+00 -0.53105484901E+03  0.53105484901E+03  0.00000000000E+00 0. -1.
         23    2    1    2    0    0  0.13780523570E+03 -0.15336086364E+03  0.27822492719E+03  0.36012349520E+03  0.98843230432E+02 0.  0.
         13    1    3    3    0    0  0.10167969169E+03 -0.15307940215E+03  0.18783462622E+03  0.26278110638E+03  0.00000000000E+00 0.  1.
        -13    1    3    3    0    0  0.36125544011E+02 -0.28146148492E+00  0.90390300969E+02  0.97342388814E+02  0.00000000000E+00 0. -1.
         22    1    1    2    0    0 -0.13780523570E+03  0.15336086364E+03 -0.46842154399E+03  0.51178958601E+03  0.00000000000E+00 0. -1.
<mgrwt>
<rscale>  0 0.85091578E+03</rscale>
<asrwt>0</asrwt>
<pdfrwt beam="1">  1        4 0.81700745E-01 0.85091578E+03</pdfrwt>
<pdfrwt beam="2">  1       -4 0.52439729E-01 0.85091578E+03</pdfrwt>
<totfact> 0.91871955E+00</totfact>
</mgrwt>
</event>
<event>
 6    1  0.1637818E-005  0.2595997E+04  0.7818608E-02  0.8369562E-01
         -2   -1    0    0    0  501 -0.00000000000E+00  0.00000000000E+00  0.11385317557E+04  0.11385317557E+04  0.00000000000E+00 0. -1.
          2   -1    0    0  501    0  0.00000000000E+00 -0.00000000000E+00 -0.14798006452E+04  0.14798006452E+04  0.00000000000E+00 0.  1.
         23    2    1    2    0    0  0.11185703241E+04  0.64408200163E+03 -0.29166870313E+03  0.13266275688E+04  0.93962115657E+02 0.  0.
         11    1    3    3    0    0  0.52163910088E+02  0.50746435067E+02 -0.28887669749E+02  0.78299244257E+02  0.00000000000E+00 0.  1.
        -11    1    3    3    0    0  0.10664064140E+04  0.59333556656E+03 -0.26278103338E+03  0.12483283245E+04  0.00000000000E+00 0. -1.
         22    1    1    2    0    0 -0.11185703241E+04 -0.64408200163E+03 -0.49600186333E+02  0.12917048321E+04  0.00000000000E+00 0. -1.
<mgrwt>
<rscale>  0 0.25959969E+04</rscale>
<asrwt>0</asrwt>
<pdfrwt beam="1">  1        2 0.22766164E+00 0.25959969E+04</pdfrwt>
<pdfrwt beam="2">  1       -2 0.17515873E+00 0.25959969E+04</pdfrwt>
<totfact> 0.22602558E+00</totfact>
</mgrwt>
</event>
<event>
 6    1  0.1637818E-005  0.2114343E+04  0.7818608E-02  0.8554951E-01
          2   -1    0    0  501    0  0.00000000000E+00  0.00000000000E+00  0.13044300987E+04  0.13044300987E+04  0.00000000000E+00 0.  1.
         -2   -1    0    0    0  501 -0.00000000000E+00 -0.00000000000E+00 -0.85678179093E+03  0.85678179093E+03  0.00000000000E+00 0. -1.
         23    2    1    2    0    0 -0.88173759628E+03  0.17551734856E+03 -0.34068067008E+03  0.96549866914E+03  0.88638777007E+02 0.  0.
         11    1    3    3    0    0 -0.11008501788E+03  0.41955142084E+01 -0.17526086432E+02  0.11155033486E+03  0.00000000000E+00 0. -1.
        -11    1    3    3    0    0 -0.77165257840E+03  0.17132183436E+03 -0.32315458365E+03  0.85394833428E+03  0.00000000000E+00 0.  1.
         22    1    1    2    0    0  0.88173759628E+03 -0.17551734856E+03  0.78832897786E+03  0.11957132205E+04  0.00000000000E+00 0.  1.
<mgrwt>
<rscale>  0 0.21143434E+04</rscale>
<asrwt>0</asrwt>
<pdfrwt beam="1">  1        2 0.20068155E+00 0.21143434E+04</pdfrwt>
<pdfrwt beam="2">  1       -2 0.13181258E+00 0.21143434E+04</pdfrwt>
<totfact> 0.63435628E+00</totfact>
</mgrwt>
</event>
<event>
 6    1  0.1637818E-005  0.1443876E+04  0.7818608E-02  0.8922657E-01
         -1   -1    0    0    0  501 -0.00000000000E+00  0.00000000000E+00  0.36909475277E+03  0.36909475277E+03  0.00000000000E+00 0.  1.
          1   -1    0    0  501    0  0.00000000000E+00 -0.00000000000E+00 -0.14120878648E+04  0.14120878648E+04  0.00000000000E+00 0. -1.
         23    2    1    2    0    0  0.44158245856E+03 -0.79816019072E+02 -0.12169349410E+04  0.12999119822E+04  0.86457193643E+02 0.  0.
         13    1    3    3    0    0  0.30104435650E+03 -0.14054560370E+02 -0.83043500521E+03  0.88342941604E+03  0.00000000000E+00 0.  1.
        -13    1    3    3    0    0  0.14053810207E+03 -0.65761458702E+02 -0.38649993578E+03  0.41648256619E+03  0.00000000000E+00 0. -1.
         22    1    1    2    0    0 -0.44158245856E+03  0.79816019072E+02  0.17394182894E+03  0.48127063537E+03  0.00000000000E+00 0.  1.
<mgrwt>
<rscale>  0 0.14438756E+04</rscale>
<asrwt>0</asrwt>
<pdfrwt beam="1">  1        1 0.21724428E+00 0.14438756E+04</pdfrwt>
<pdfrwt beam="2">  1       -1 0.56783809E-01 0.14438756E+04</pdfrwt>
<totfact> 0.22981879E+01</totfact>
</mgrwt>
</event>
<event>
 6    1  0.1637818E-005  0.3004654E+04  0.7818608E-02  0.8242403E-01
         -1   -1    0    0    0  501 -0.00000000000E+00  0.00000000000E+00  0.12080885423E+04  0.12080885423E+04  0.00000000000E+00 0.  1.
          1   -1    0    0  501    0  0.00000000000E+00 -0.00000000000E+00 -0.18682293882E+04  0.18682293882E+04  0.00000000000E+00 0. -1.
         23    2    1    2    0    0 -0.14284322646E+03  0.95466647654E+03  0.84661701846E+03  0.12868734551E+04  0.86548510946E+02 0.  0.
         13    1    3    3    0    0 -0.11044441993E+03  0.78291454267E+03  0.64780027264E+03  0.10221537772E+04  0.00000000000E+00 0.  1.
        -13    1    3    3    0    0 -0.32398806537E+02  0.17175193387E+03  0.19881674582E+03  0.26471967791E+03  0.00000000000E+00 0. -1.
         22    1    1    2    0    0  0.14284322646E+03 -0.95466647654E+03 -0.15067578643E+04  0.17894444754E+04  0.00000000000E+00 0. -1.
<mgrwt>
<rscale>  0 0.30046541E+04</rscale>
<asrwt>0</asrwt>
<pdfrwt beam="1">  1        1 0.28741991E+00 0.30046541E+04</pdfrwt>
<pdfrwt beam="2">  1       -1 0.18585978E+00 0.30046541E+04</pdfrwt>
<totfact> 0.58873262E-01</totfact>
</mgrwt>
</event>
<event>
 6    1  0.1637818E-005  0.1298179E+04  0.7818608E-02  0.9031010E-01
         -2   -1    0    0    0  501 -0.00000000000E+00  0.00000000000E+00  0.15071411157E+03  0.15071411157E+03  0.00000000000E+00 0.  1.
          2   -1    0    0  501    0  0.00000000000E+00 -0.00000000000E+00 -0.27954726464E+04  0.27954726464E+04  0.00000000000E+00 0. -1.
         23    2    1    2    0    0 -0.52557661942E+03  0.29572426292E+03 -0.18536930620E+04  0.19514665939E+04  0.91434546485E+02 0.  0.
         11    1    3    3    0    0 -0.13990731294E+03  0.42136969690E+02 -0.37732549468E+03  0.40462835956E+03  0.00000000000E+00 0. -1.
        -11    1    3    3    0    0 -0.38566930648E+03  0.25358729323E+03 -0.14763675673E+04  0.15468382343E+04  0.00000000000E+00 0.  1.
         22    1    1    2    0    0  0.52557661942E+03 -0.29572426292E+03 -0.79106547281E+03  0.99472016408E+03  0.00000000000E+00 0.  1.
<mgrwt>
<rscale>  0 0.12981790E+04</rscale>
<asrwt>0</asrwt>
<pdfrwt beam="1">  1        2 0.43007273E+00 0.12981790E+04</pdfrwt>
<pdfrwt beam="2">  1       -2 0.23186786E-01 0.12981790E+04</pdfrwt>
<totfact> 0.37809371E+01</totfact>
</mgrwt>
</event>
<event>
 6    1  0.1637818E-005  0.1362936E+04  0.7818608E-02  0.8981093E-01
         -2   -1    0    0    0  501 -0.00000000000E+00  0.00000000000E+00  0.16285304314E+03  0.16285304314E+03  0.00000000000E+00 0.  1.
          2   -1    0    0  501    0  0.00000000000E+00 -0.00000000000E+00 -0.28516409692E+04  0.28516409692E+04  0.00000000000E+00 0. -1.
         23    2    1    2    0    0  0.63735128542E+02  0.61327721474E+03 -0.72459351160E+03  0.95579762711E+03  0.91335853878E+02 0.  0.
         13    1    3    3    0    0  0.32045184863E+02  0.39048348107E+03 -0.52442414236E+03  0.65461815125E+03  0.00000000000E+00 0.  1.
        -13    1    3    3    0    0  0.31689943679E+02  0.22279373368E+03 -0.20016936923E+03  0.30117947585E+03  0.00000000000E+00 0. -1.
         22    1    1    2    0    0 -0.63735128542E+02 -0.61327721474E+03 -0.19641944145E+04  0.20586963853E+04  0.00000000000E+00 0. -1.
<mgrwt>
<rscale>  0 0.13629357E+04</rscale>
<asrwt>0</asrwt>
<pdfrwt beam="1">  1        2 0.43871398E+00 0.13629357E+04</pdfrwt>
<pdfrwt beam="2">  1       -2 0.25054315E-01 0.13629357E+04</pdfrwt>
<totfact> 0.30235515E+01</totfact>
</mgrwt>
</event>
<event>
 6    1  0.1637818E-005  0.4347433E+04  0.7818608E-02  0.7937905E-01
         -2   -1    0    0    0  501 -0.00000000000E+00  0.00000000000E+00  0.20364194120E+04  0.20364194120E+04  0.00000000000E+00 0.  1.
          2   -1    0    0  501    0  0.00000000000E+00 -0.00000000000E+00 -0.23202700954E+04  0.23202700954E+04  0.00000000000E+00 0. -1.
         23    2    1    2    0    0 -0.14690030750E+04 -0.81204238230E+03  0.12406331403E+04  0.20892165100E+04  0.90951480778E+02 0.  0.
         11    1    3    3    0    0 -0.21435345835E+03 -0.10220026979E+03  0.21172890485E+03  0.31815315400E+03  0.00000000000E+00 0. -1.
        -11    1    3    3    0    0 -0.12546496166E+04 -0.70984211251E+03  0.10289042355E+04  0.17710633560E+04  0.00000000000E+00 0.  1.
         22    1    1    2    0    0  0.14690030750E+04  0.81204238230E+03 -0.15244838238E+04  0.22674729974E+04  0.00000000000E+00 0. -1.
<mgrwt>
<rscale>  0 0.43474328E+04</rscale>
<asrwt>0</asrwt>
<pdfrwt beam="1">  1        2 0.35696463E+00 0.43474328E+04</pdfrwt>
<pdfrwt beam="2">  1       -2 0.31329529E+00 0.43474328E+04</pdfrwt>
<totfact> 0.89193605E-02</totfact>
</mgrwt>
</event>
<event>
 6    1  0.1637818E-005  0.2910599E+04  0.7818608E-02  0.8269731E-01
         -1   -1    0    0    0  501 -0.00000000000E+00  0.00000000000E+00  0.10262452057E+04  0.10262452057E+04  0.00000000000E+00 0.  1.
          1   -1    0    0  501    0  0.00000000000E+00 -0.00000000000E+00 -0.20637334704E+04  0.20637334704E+04  0.00000000000E+00 0. -1.
         23    2    1    2    0    0 -0.25669212867E+03  0.10109081991E+04 -0.15946332873E+04  0.19075080372E+04  0.88912064076E+02 0.  0.
         11    1    3    3    0    0 -0.92465398020E+01  0.75180373783E+02 -0.81243383815E+02  0.11107688560E+03  0.00000000000E+00 0.  1.
        -11    1    3    3    0    0 -0.24744558887E+03  0.93572782531E+03 -0.15133899034E+04  0.17964311516E+04  0.00000000000E+00 0. -1.
         22    1    1    2    0    0  0.25669212867E+03 -0.10109081991E+04  0.55714502254E+03  0.11824706390E+04  0.00000000000E+00 0.  1.
<mgrwt>
<rscale>  0 0.29105990E+04</rscale>
<asrwt>0</asrwt>
<pdfrwt beam="1">  1        1 0.31749745E+00 0.29105990E+04</pdfrwt>
<pdfrwt beam="2">  1       -1 0.15788388E+00 0.29105990E+04</pdfrwt>
<totfact> 0.70147125E-01</totfact>
</mgrwt>
</event>
<event>
 6    1  0.1637818E-005  0.1847584E+04  0.7818608E-02  0.8681396E-01
         -2   -1    0    0    0  501 -0.00000000000E+00  0.00000000000E+00  0.55656893659E+03  0.55656893659E+03  0.00000000000E+00 0.  1.
          2   -1    0    0  501    0  0.00000000000E+00 -0.00000000000E+00 -0.15333077974E+04  0.15333077974E+04  0.00000000000E+00 0. -1.
         23    2    1    2    0    0  0.15214366547E+03 -0.43413269600E+03 -0.13928443436E+04  0.14695843307E+04  0.89687495864E+02 0.  0.
         11    1    3    3    0    0  0.84851831603E+02 -0.30572242346E+03 -0.83614697124E+03  0.89431973647E+03  0.00000000000E+00 0. -1.
        -11    1    3    3    0    0  0.67291833863E+02 -0.12841027255E+03 -0.55669737237E+03  0.57526459426E+03  0.00000000000E+00 0.  1.
         22    1    1    2    0    0 -0.15214366547E+03  0.43413269600E+03  0.41610548283E+03  0.62029240324E+03  0.00000000000E+00 0.  1.
<mgrwt>
<rscale>  0 0.18475838E+04</rscale>
<asrwt>0</asrwt>
<pdfrwt beam="1">  1        2 0.23589351E+00 0.18475838E+04</pdfrwt>
<pdfrwt beam="2">  1       -2 0.85625990E-01 0.18475838E+04</pdfrwt>
<totfact> 0.13546917E+01</totfact>
</mgrwt>
</event>
<event>
 6    1  0.1637818E-005  0.3394952E+04  0.7818608E-02  0.8139146E-01
         -2   -1    0    0    0  501 -0.00000000000E+00  0.00000000000E+00  0.11829501186E+04  0.11829501186E+04  0.00000000000E+00 0. -1.
          2   -1    0    0  501    0  0.00000000000E+00 -0.00000000000E+00 -0.24357953004E+04  0.24357953004E+04  0.00000000000E+00 0.  1.
         23    2    1    2    0    0  0.35746987909E+03  0.11397874138E+04  0.65666204844E+03  0.13663871159E+04  0.94385600369E+02 0.  0.
         11    1    3    3    0    0  0.10962488936E+03  0.44780691940E+03  0.21314607893E+03  0.50791722199E+03  0.00000000000E+00 0. -1.
        -11    1    3    3    0    0  0.24784498972E+03  0.69198049442E+03  0.44351596951E+03  0.85846989394E+03  0.00000000000E+00 0.  1.
         22    1    1    2    0    0 -0.35746987909E+03 -0.11397874138E+04 -0.19095072302E+04  0.22523583031E+04  0.00000000000E+00 0.  1.
<mgrwt>
<rscale>  0 0.33949517E+04</rscale>
<asrwt>0</asrwt>
<pdfrwt beam="1">  1        2 0.37473774E+00 0.33949517E+04</pdfrwt>
<pdfrwt beam="2">  1       -2 0.18199233E+00 0.33949517E+04</pdfrwt>
<totfact> 0.55200986E-01</totfact>
</mgrwt>
</event>
<event>
 6    1  0.1637818E-005  0.3057613E+04  0.7818608E-02  0.8227468E-01
          2   -1    0    0  501    0  0.00000000000E+00  0.00000000000E+00  0.26712662636E+04  0.26712662636E+04  0.00000000000E+00 0. -1.
         -2   -1    0    0    0  501 -0.00000000000E+00 -0.00000000000E+00 -0.87495955517E+03  0.87495955517E+03  0.00000000000E+00 0.  1.
         23    2    1    2    0    0  0.54958440842E+03 -0.40212018153E+03  0.24846798586E+04  0.25779276952E+04  0.91288222465E+02 0.  0.
         11    1    3    3    0    0  0.27397333877E+03 -0.14661656689E+03  0.10749555107E+04  0.11189670049E+04  0.00000000000E+00 0. -1.
        -11    1    3    3    0    0  0.27561106966E+03 -0.25550361464E+03  0.14097243478E+04  0.14589606903E+04  0.00000000000E+00 0.  1.
         22    1    1    2    0    0 -0.54958440842E+03  0.40212018153E+03 -0.68837315013E+03  0.96829812361E+03  0.00000000000E+00 0.  1.
<mgrwt>
<rscale>  0 0.30576134E+04</rscale>
<asrwt>0</asrwt>
<pdfrwt beam="1">  1        2 0.41096404E+00 0.30576134E+04</pdfrwt>
<pdfrwt beam="2">  1       -2 0.13460916E+00 0.30576134E+04</pdfrwt>
<totfact> 0.93497813E-01</totfact>
</mgrwt>
</event>
<event>
 6    1  0.1637818E-005  0.2726458E+04  0.7818608E-02  0.8326471E-01
          2   -1    0    0  501    0  0.00000000000E+00  0.00000000000E+00  0.15388306732E+04  0.15388306732E+04  0.00000000000E+00 0. -1.
         -2   -1    0    0    0  501 -0.00000000000E+00 -0.00000000000E+00 -0.12076656094E+04  0.12076656094E+04  0.00000000000E+00 0.  1.
         23    2    1    2    0    0 -0.25976107651E+03 -0.12965751258E+04 -0.16221858790E+03  0.13351103320E+04  0.87303234007E+02 0.  0.
         11    1    3    3    0    0 -0.24742740112E+03 -0.10761936621E+04 -0.12606997991E+03  0.11114435464E+04  0.00000000000E+00 0.  1.
        -11    1    3    3    0    0 -0.12333675387E+02 -0.22038146376E+03 -0.36148607983E+02  0.22366678559E+03  0.00000000000E+00 0. -1.
         22    1    1    2    0    0  0.25976107651E+03  0.12965751258E+04  0.49338365175E+03  0.14113859506E+04  0.00000000000E+00 0.  1.
<mgrwt>
<rscale>  0 0.27264577E+04</rscale>
<asrwt>0</asrwt>
<pdfrwt beam="1">  1        2 0.23674318E+00 0.27264577E+04</pdfrwt>
<pdfrwt beam="2">  1       -2 0.18579471E+00 0.27264577E+04</pdfrwt>
<totfact> 0.17486389E+00</totfact>
</mgrwt>
</event>
<event>
 6    1  0.1637818E-005  0.6281492E+03  0.7818608E-02  0.9848667E-01
          2   -1    0    0  501    0  0.00000000000E+00  0.00000000000E+00  0.41597617475E+03  0.41597617475E+03  0.00000000000E+00 0. -1.
         -2   -1    0    0    0  501 -0.00000000000E+00 -0.00000000000E+00 -0.23713579463E+03  0.23713579463E+03  0.00000000000E+00 0.  1.
         23    2    1    2    0    0 -0.26664406620E+03 -0.13387944821E+03  0.14029980211E+02  0.31225241969E+03  0.91005321639E+02 0.  0.
         11    1    3    3    0    0 -0.75532668037E+02 -0.15468495833E+02 -0.30764976379E+02  0.83011698427E+02  0.00000000000E+00 0.  1.
        -11    1    3    3    0    0 -0.19111139816E+03 -0.11841095238E+03  0.44794956591E+02  0.22924072126E+03  0.00000000000E+00 0. -1.
         22    1    1    2    0    0  0.26664406620E+03  0.13387944821E+03  0.16481039991E+03  0.34085954968E+03  0.00000000000E+00 0. -1.
<mgrwt>
<rscale>  0 0.62814916E+03</rscale>
<asrwt>0</asrwt>
<pdfrwt beam="1">  1        2 0.63996334E-01 0.62814916E+03</pdfrwt>
<pdfrwt beam="2">  1       -2 0.36482430E-01 0.62814916E+03</pdfrwt>
<totfact> 0.54201851E+02</totfact>
</mgrwt>
</event>
<event>
 6    1  0.1637818E-005  0.2729703E+04  0.7818608E-02  0.8325431E-01
         -1   -1    0    0    0  501 -0.00000000000E+00  0.00000000000E+00  0.31754362255E+04  0.31754362255E+04  0.00000000000E+00 0.  1.
          1   -1    0    0  501    0  0.00000000000E+00 -0.00000000000E+00 -0.58663439032E+03  0.58663439032E+03  0.00000000000E+00 0. -1.
         23    2    1    2    0    0  0.77638338209E+03  0.11181999439E+04  0.14006414809E+04  0.19551762365E+04  0.88177588269E+02 0.  0.
         13    1    3    3    0    0  0.41456815911E+03  0.57289608782E+03  0.78731145136E+03  0.10582702904E+04  0.00000000000E+00 0. -1.
        -13    1    3    3    0    0  0.36181522298E+03  0.54530385611E+03  0.61333002955E+03  0.89690594614E+03  0.00000000000E+00 0.  1.
         22    1    1    2    0    0 -0.77638338209E+03 -0.11181999439E+04  0.11881603542E+04  0.18068943793E+04  0.00000000000E+00 0. -1.
<mgrwt>
<rscale>  0 0.27297033E+04</rscale>
<asrwt>0</asrwt>
<pdfrwt beam="1">  1        1 0.90251447E-01 0.27297033E+04</pdfrwt>
<pdfrwt beam="2">  1       -1 0.48852864E+00 0.27297033E+04</pdfrwt>
<totfact> 0.54438911E-02</totfact>
</mgrwt>
</event>
<event>
 6    1  0.1637818E-005  0.1538354E+04  0.7818608E-02  0.8859341E-01
          2   -1    0    0  501    0  0.00000000000E+00  0.00000000000E+00  0.74253878938E+03  0.74253878938E+03  0.00000000000E+00 0. -1.
         -2   -1    0    0    0  501 -0.00000000000E+00 -0.00000000000E+00 -0.79677118713E+03  0.79677118713E+03  0.00000000000E+00 0.  1.
         23    2    1    2    0    0  0.32750013596E+03 -0.21241635711E+03 -0.68729467383E+03  0.79557286354E+03  0.90471900109E+02 0.  0.
         11    1    3    3    0    0  0.18263755728E+03 -0.14284654566E+03 -0.32496086942E+03  0.39920067584E+03  0.00000000000E+00 0. -1.
        -11    1    3    3    0    0  0.14486257868E+03 -0.69569811451E+02 -0.36233380441E+03  0.39637218770E+03  0.00000000000E+00 0.  1.
         22    1    1    2    0    0 -0.32750013596E+03  0.21241635711E+03  0.63306227607E+03  0.74373711297E+03  0.00000000000E+00 0. -1.
<mgrwt>
<rscale>  0 0.15383543E+04</rscale>
<asrwt>0</asrwt>
<pdfrwt beam="1">  1        2 0.11423674E+00 0.15383543E+04</pdfrwt>
<pdfrwt beam="2">  1       -2 0.12258018E+00 0.15383543E+04</pdfrwt>
<totfact> 0.18427652E+01</totfact>
</mgrwt>
</event>
<event>
 6    1  0.1637818E-005  0.1801220E+04  0.7818608E-02  0.8705651E-01
          1   -1    0    0  501    0  0.00000000000E+00  0.00000000000E+00  0.18808351703E+04  0.18808351703E+04  0.00000000000E+00 0. -1.
         -1   -1    0    0    0  501 -0.00000000000E+00 -0.00000000000E+00 -0.43124388455E+03  0.43124388455E+03  0.00000000000E+00 0.  1.
         23    2    1    2    0    0  0.36231777681E+03  0.29048571756E+03 -0.26038351652E+03  0.54016767221E+03  0.91243711655E+02 0.  0.
         13    1    3    3    0    0  0.21491928730E+03  0.21980396356E+03 -0.14380735690E+03  0.33938862436E+03  0.00000000000E+00 0. -1.
        -13    1    3    3    0    0  0.14739848952E+03  0.70681754007E+02 -0.11657615962E+03  0.20077904784E+03  0.00000000000E+00 0.  1.
         22    1    1    2    0    0 -0.36231777681E+03 -0.29048571756E+03  0.17099748023E+04  0.17719113827E+04  0.00000000000E+00 0. -1.
<mgrwt>
<rscale>  0 0.18012203E+04</rscale>
<asrwt>0</asrwt>
<pdfrwt beam="1">  1        1 0.28935925E+00 0.18012203E+04</pdfrwt>
<pdfrwt beam="2">  1       -1 0.66345214E-01 0.18012203E+04</pdfrwt>
<totfact> 0.77981456E+00</totfact>
</mgrwt>
</event>
<event>
 6    1  0.1637818E-005  0.1929437E+04  0.7818608E-02  0.8640341E-01
          2   -1    0    0  501    0  0.00000000000E+00  0.00000000000E+00  0.23151201575E+04  0.23151201575E+04  0.00000000000E+00 0. -1.
         -2   -1    0    0    0  501 -0.00000000000E+00 -0.00000000000E+00 -0.40200138514E+03  0.40200138514E+03  0.00000000000E+00 0.  1.
         23    2    1    2    0    0 -0.39464152864E+02 -0.75252806573E+02  0.23089044763E+04  0.23123169877E+04  0.92463868244E+02 0.  0.
         13    1    3    3    0    0  0.69833044152E+01  0.18714625118E+02  0.47439257413E+03  0.47481292961E+03  0.00000000000E+00 0.  1.
        -13    1    3    3    0    0 -0.46447457279E+02 -0.93967431691E+02  0.18345119022E+04  0.18375040581E+04  0.00000000000E+00 0. -1.
         22    1    1    2    0    0  0.39464152864E+02  0.75252806573E+02 -0.39578570391E+03  0.40480455491E+03  0.00000000000E+00 0.  1.
<mgrwt>
<rscale>  0 0.19294367E+04</rscale>
<asrwt>0</asrwt>
<pdfrwt beam="1">  1        2 0.35617232E+00 0.19294367E+04</pdfrwt>
<pdfrwt beam="2">  1       -2 0.61846368E-01 0.19294367E+04</pdfrwt>
<totfact> 0.10088542E+01</totfact>
</mgrwt>
</event>
<event>
 6    1  0.1637818E-005  0.2248253E+04  0.7818608E-02  0.8498608E-01
         -1   -1    0    0    0  501 -0.00000000000E+00  0.00000000000E+00  0.88802904401E+03  0.88802904401E+03  0.00000000000E+00 0.  1.
          1   -1    0    0  501    0  0.00000000000E+00 -0.00000000000E+00 -0.14229940604E+04  0.14229940604E+04  0.00000000000E+00 0. -1.
         23    2    1    2    0    0 -0.10667496711E+04  0.19559597840E+03 -0.56477399602E+03  0.12260801461E+04  0.89945598522E+02 0.  0.
         13    1    3    3    0    0 -0.46551272048E+03  0.46071223029E+02 -0.26797887197E+03  0.53910789861E+03  0.00000000000E+00 0. -1.
        -13    1    3    3    0    0 -0.60123695059E+03  0.14952475537E+03 -0.29679512405E+03  0.68697224753E+03  0.00000000000E+00 0.  1.
         22    1    1    2    0    0  0.10667496711E+04 -0.19559597840E+03  0.29808979593E+02  0.10849429583E+04  0.00000000000E+00 0.  1.
<mgrwt>
<rscale>  0 0.22482527E+04</rscale>
<asrwt>0</asrwt>
<pdfrwt beam="1">  1        1 0.21892216E+00 0.22482527E+04</pdfrwt>
<pdfrwt beam="2">  1       -1 0.13661986E+00 0.22482527E+04</pdfrwt>
<totfact> 0.30024759E+00</totfact>
</mgrwt>
</event>
<event>
 6    1  0.1826095E-005  0.2713720E+04  0.7818608E-02  0.8330567E-01
          2   -1    0    0  501    0  0.00000000000E+00  0.00000000000E+00  0.13937331521E+04  0.13937331521E+04  0.00000000000E+00 0.  1.
         -2   -1    0    0    0  501 -0.00000000000E+00 -0.00000000000E+00 -0.13209627440E+04  0.13209627440E+04  0.00000000000E+00 0. -1.
         23    2    1    2    0    0  0.53627971979E+03  0.33403396999E+03 -0.11630716546E+04  0.13267188664E+04  0.90954085652E+02 0.  0.
         11    1    3    3    0    0  0.36885068223E+03  0.17943098710E+03 -0.76519264981E+03  0.86819703768E+03  0.00000000000E+00 0. -1.
        -11    1    3    3    0    0  0.16742903756E+03  0.15460298289E+03 -0.39787900480E+03  0.45852182870E+03  0.00000000000E+00 0.  1.
         22    1    1    2    0    0 -0.53627971979E+03 -0.33403396999E+03  0.12358420627E+04  0.13879770297E+04  0.00000000000E+00 0.  1.
<mgrwt>
<rscale>  0 0.27137204E+04</rscale>
<asrwt>0</asrwt>
<pdfrwt beam="1">  1        2 0.21442048E+00 0.27137204E+04</pdfrwt>
<pdfrwt beam="2">  1       -2 0.20322504E+00 0.27137204E+04</pdfrwt>
<totfact> 0.16199711E+00</totfact>
</mgrwt>
</event>
<event>
 6    1  0.1637818E-005  0.4086659E+03  0.7818608E-02  0.1040820E+00
         -2   -1    0    0    0  501 -0.00000000000E+00  0.00000000000E+00  0.35623340572E+02  0.35623340572E+02  0.00000000000E+00 0.  1.
          2   -1    0    0  501    0  0.00000000000E+00 -0.00000000000E+00 -0.11720395563E+04  0.11720395563E+04  0.00000000000E+00 0. -1.
         23    2    1    2    0    0 -0.37130178130E+02  0.18519058387E+03 -0.72949500852E+03  0.75904382532E+03  0.91161169474E+02 0.  0.
         11    1    3    3    0    0 -0.16129018023E+02  0.17567954757E+02 -0.24071724608E+03  0.24189578503E+03  0.00000000000E+00 0. -1.
        -11    1    3    3    0    0 -0.21001160107E+02  0.16762262912E+03 -0.48877776244E+03  0.51714804028E+03  0.00000000000E+00 0.  1.
         22    1    1    2    0    0  0.37130178130E+02 -0.18519058387E+03 -0.40692120719E+03  0.44861907154E+03  0.00000000000E+00 0.  1.
<mgrwt>
<rscale>  0 0.40866595E+03</rscale>
<asrwt>0</asrwt>
<pdfrwt beam="1">  1        2 0.18031376E+00 0.40866595E+03</pdfrwt>
<pdfrwt beam="2">  1       -2 0.54805144E-02 0.40866595E+03</pdfrwt>
<totfact> 0.35387214E+03</totfact>
</mgrwt>
</event>
<event>
 6    1  0.1637818E-005  0.3304207E+04  0.7818608E-02  0.8161826E-01
          1   -1    0    0  501    0  0.00000000000E+00  0.00000000000E+00  0.19800939249E+04  0.19800939249E+04  0.00000000000E+00 0. -1.
         -1   -1    0    0    0  501 -0.00000000000E+00 -0.00000000000E+00 -0.13784423749E+04  0.13784423749E+04  0.00000000000E+00 0.  1.
         23    2    1    2    0    0  0.74735293204E+02 -0.16487816616E+04  0.26485617965E+03  0.16740490030E+04  0.90691437732E+02 0.  0.
         13    1    3    3    0    0  0.28042097504E+02 -0.77148382341E+03  0.78615095121E+02  0.77598581314E+03  0.00000000000E+00 0.  1.
        -13    1    3    3    0    0  0.46693195700E+02 -0.87729783817E+03  0.18624108453E+03  0.89806318984E+03  0.00000000000E+00 0. -1.
         22    1    1    2    0    0 -0.74735293204E+02  0.16487816616E+04  0.33679537028E+03  0.16844872968E+04  0.00000000000E+00 0. -1.
<mgrwt>
<rscale>  0 0.33042066E+04</rscale>
<asrwt>0</asrwt>
<pdfrwt beam="1">  1        1 0.30462984E+00 0.33042066E+04</pdfrwt>
<pdfrwt beam="2">  1       -1 0.21206806E+00 0.33042066E+04</pdfrwt>
<totfact> 0.31735734E-01</totfact>
</mgrwt>
</event>
<event>
 6    1  0.1637818E-005  0.2291279E+04  0.7818608E-02  0.8481368E-01
         -2   -1    0    0    0  501 -0.00000000000E+00  0.00000000000E+00  0.39297965450E+03  0.39297965450E+03  0.00000000000E+00 0.  1.
          2   -1    0    0  501    0  0.00000000000E+00 -0.00000000000E+00 -0.33398415880E+04  0.33398415880E+04  0.00000000000E+00 0. -1.
         23    2    1    2    0    0 -0.79488928795E+03  0.59399949283E+03 -0.24027856036E+04  0.26011395601E+04  0.88679064848E+02 0.  0.
         11    1    3    3    0    0 -0.70741988688E+03  0.55674719282E+03 -0.22051327734E+04  0.23818104210E+04  0.00000000000E+00 0.  1.
        -11    1    3    3    0    0 -0.87469401068E+02  0.37252300016E+02 -0.19765283019E+03  0.21932913911E+03  0.00000000000E+00 0. -1.
         22    1    1    2    0    0  0.79488928795E+03 -0.59399949283E+03 -0.54407632990E+03  0.11316816824E+04  0.00000000000E+00 0.  1.
<mgrwt>
<rscale>  0 0.22912789E+04</rscale>
<asrwt>0</asrwt>
<pdfrwt beam="1">  1        2 0.51382179E+00 0.22912789E+04</pdfrwt>
<pdfrwt beam="2">  1       -2 0.60458407E-01 0.22912789E+04</pdfrwt>
<totfact> 0.24265943E+00</totfact>
</mgrwt>
</event>
<event>
 6    1  0.1637818E-005  0.1910624E+04  0.7818608E-02  0.8649586E-01
          1   -1    0    0  501    0  0.00000000000E+00  0.00000000000E+00  0.83306069236E+03  0.83306069236E+03  0.00000000000E+00 0. -1.
         -1   -1    0    0    0  501 -0.00000000000E+00 -0.00000000000E+00 -0.10955040459E+04  0.10955040459E+04  0.00000000000E+00 0.  1.
         23    2    1    2    0    0 -0.82104380647E+03  0.31339861569E+03 -0.50401582219E+03  0.10171433856E+04  0.90648184457E+02 0.  0.
         13    1    3    3    0    0 -0.29256231694E+03  0.15275717808E+03 -0.21309185103E+03  0.39285570089E+03  0.00000000000E+00 0. -1.
        -13    1    3    3    0    0 -0.52848148953E+03  0.16064143761E+03 -0.29092397117E+03  0.62428768469E+03  0.00000000000E+00 0.  1.
         22    1    1    2    0    0  0.82104380647E+03 -0.31339861569E+03  0.24157246867E+03  0.91142135266E+03  0.00000000000E+00 0. -1.
<mgrwt>
<rscale>  0 0.19106244E+04</rscale>
<asrwt>0</asrwt>
<pdfrwt beam="1">  1        1 0.12816318E+00 0.19106244E+04</pdfrwt>
<pdfrwt beam="2">  1       -1 0.16853909E+00 0.19106244E+04</pdfrwt>
<totfact> 0.48814563E+00</totfact>
</mgrwt>
</event>
<event>
 6    1  0.1637818E-005  0.2978567E+04  0.7818608E-02  0.8249878E-01
          4   -1    0    0  501    0  0.00000000000E+00  0.00000000000E+00  0.17920004592E+04  0.17920004592E+04  0.00000000000E+00 0. -1.
         -4   -1    0    0    0  501 -0.00000000000E+00 -0.00000000000E+00 -0.12377031625E+04  0.12377031625E+04  0.00000000000E+00 0.  1.
         23    2    1    2    0    0  0.55028604100E+03 -0.98303421146E+03 -0.71094878623E+03  0.13355906863E+04  0.95829623620E+02 0.  0.
         11    1    3    3    0    0  0.27317502929E+03 -0.52507193201E+03 -0.42554290858E+03  0.72898003913E+03  0.00000000000E+00 0.  1.
        -11    1    3    3    0    0  0.27711101171E+03 -0.45796227946E+03 -0.28540587765E+03  0.60661064713E+03  0.00000000000E+00 0. -1.
         22    1    1    2    0    0 -0.55028604100E+03  0.98303421146E+03  0.12652460829E+04  0.16941129355E+04  0.00000000000E+00 0. -1.
<mgrwt>
<rscale>  0 0.29785665E+04</rscale>
<asrwt>0</asrwt>
<pdfrwt beam="1">  1        4 0.27569238E+00 0.29785665E+04</pdfrwt>
<pdfrwt beam="2">  1       -4 0.19041587E+00 0.29785665E+04</pdfrwt>
<totfact> 0.11357457E-02</totfact>
</mgrwt>
</event>
<event>
 6    1  0.1637818E-005  0.3903284E+04  0.7818608E-02  0.8024347E-01
          2   -1    0    0  501    0  0.00000000000E+00  0.00000000000E+00  0.15715333393E+04  0.15715333393E+04  0.00000000000E+00 0. -1.
         -2   -1    0    0    0  501 -0.00000000000E+00 -0.00000000000E+00 -0.24236878133E+04  0.24236878133E+04  0.00000000000E+00 0.  1.
         23    2    1    2    0    0  0.12720628936E+04  0.63953370090E+02  0.10858101924E+04  0.16761823244E+04  0.91484272103E+02 0.  0.
         11    1    3    3    0    0  0.27508369942E+03  0.22195602176E+02  0.28503984091E+03  0.39675105210E+03  0.00000000000E+00 0.  1.
        -11    1    3    3    0    0  0.99697919414E+03  0.41757767914E+02  0.80077035145E+03  0.12794312723E+04  0.00000000000E+00 0. -1.
         22    1    1    2    0    0 -0.12720628936E+04 -0.63953370090E+02 -0.19379646663E+04  0.23190388282E+04  0.00000000000E+00 0.  1.
<mgrwt>
<rscale>  0 0.39032838E+04</rscale>
<asrwt>0</asrwt>
<pdfrwt beam="1">  1        2 0.24177436E+00 0.39032838E+04</pdfrwt>
<pdfrwt beam="2">  1       -2 0.37287505E+00 0.39032838E+04</pdfrwt>
<totfact> 0.10230648E-01</totfact>
</mgrwt>
</event>
<event>
 6    1  0.1637818E-005  0.2222749E+04  0.7818608E-02  0.8509019E-01
         -1   -1    0    0    0  501 -0.00000000000E+00  0.00000000000E+00  0.67688217601E+03  0.67688217601E+03  0.00000000000E+00 0.  1.
          1   -1    0    0  501    0  0.00000000000E+00 -0.00000000000E+00 -0.18247686406E+04  0.18247686406E+04  0.00000000000E+00 0. -1.
         23    2    1    2    0    0 -0.66299999035E+03 -0.55237424540E+03  0.20991079301E+03  0.89283147095E+03  0.91647151133E+02 0.  0.
         11    1    3    3    0    0 -0.17077849795E+03 -0.19108957768E+03  0.81137667785E+02  0.26881935048E+03  0.00000000000E+00 0.  1.
        -11    1    3    3    0    0 -0.49222149240E+03 -0.36128466772E+03  0.12877312523E+03  0.62401212047E+03  0.00000000000E+00 0. -1.
         22    1    1    2    0    0  0.66299999035E+03  0.55237424540E+03 -0.13577972576E+04  0.16088193456E+04  0.00000000000E+00 0. -1.
<mgrwt>
<rscale>  0 0.22227491E+04</rscale>
<asrwt>0</asrwt>
<pdfrwt beam="1">  1        1 0.28073363E+00 0.22227491E+04</pdfrwt>
<pdfrwt beam="2">  1       -1 0.10413572E+00 0.22227491E+04</pdfrwt>
<totfact> 0.30945726E+00</totfact>
</mgrwt>
</event>
<event>
 6    1  0.1637818E-005  0.1915613E+04  0.7818608E-02  0.8647124E-01
          2   -1    0    0  501    0  0.00000000000E+00  0.00000000000E+00  0.18554160439E+04  0.18554160439E+04  0.00000000000E+00 0.  1.
         -2   -1    0    0    0  501 -0.00000000000E+00 -0.00000000000E+00 -0.49444065185E+03  0.49444065185E+03  0.00000000000E+00 0. -1.
         23    2    1    2    0    0 -0.37852538330E+03 -0.85987916517E+03  0.46824999902E+03  0.10538504180E+04  0.93107451310E+02 0.  0.
         13    1    3    3    0    0 -0.17228045227E+03 -0.35430808862E+03  0.24508687887E+03  0.46398529512E+03  0.00000000000E+00 0. -1.
        -13    1    3    3    0    0 -0.20624493103E+03 -0.50557107655E+03  0.22316312015E+03  0.58986512290E+03  0.00000000000E+00 0.  1.
         22    1    1    2    0    0  0.37852538330E+03  0.85987916517E+03  0.89272539300E+03  0.12960062777E+04  0.00000000000E+00 0.  1.
<mgrwt>
<rscale>  0 0.19156128E+04</rscale>
<asrwt>0</asrwt>
<pdfrwt beam="1">  1        2 0.28544862E+00 0.19156128E+04</pdfrwt>
<pdfrwt beam="2">  1       -2 0.76067794E-01 0.19156128E+04</pdfrwt>
<totfact> 0.11634484E+01</totfact>
</mgrwt>
</event>
<event>
 6    1  0.1637818E-005  0.8565728E+03  0.7818608E-02  0.9481557E-01
         -1   -1    0    0    0  501 -0.00000000000E+00  0.00000000000E+00  0.25562628738E+03  0.25562628738E+03  0.00000000000E+00 0.  1.
          1   -1    0    0  501    0  0.00000000000E+00 -0.00000000000E+00 -0.71756803466E+03  0.71756803466E+03  0.00000000000E+00 0. -1.
         23    2    1    2    0    0 -0.20400414762E+03  0.33188186376E+03 -0.42271001485E+03  0.58165582768E+03  0.88749543541E+02 0.  0.
         13    1    3    3    0    0 -0.18168232061E+03  0.28471202124E+03 -0.31439691758E+03  0.46142694161E+03  0.00000000000E+00 0. -1.
        -13    1    3    3    0    0 -0.22321827016E+02  0.47169842513E+02 -0.10831309727E+03  0.12022888607E+03  0.00000000000E+00 0.  1.
         22    1    1    2    0    0  0.20400414762E+03 -0.33188186376E+03 -0.39231732425E+02  0.39153849436E+03  0.00000000000E+00 0.  1.
<mgrwt>
<rscale>  0 0.85657283E+03</rscale>
<asrwt>0</asrwt>
<pdfrwt beam="1">  1        1 0.11039508E+00 0.85657283E+03</pdfrwt>
<pdfrwt beam="2">  1       -1 0.39327121E-01 0.85657283E+03</pdfrwt>
<totfact> 0.16621404E+02</totfact>
</mgrwt>
</event>
<event>
 6    1  0.1637818E-005  0.3830855E+03  0.7818608E-02  0.1049799E+00
         -1   -1    0    0    0  501 -0.00000000000E+00  0.00000000000E+00  0.22647654232E+02  0.22647654232E+02  0.00000000000E+00 0.  1.
          1   -1    0    0  501    0  0.00000000000E+00 -0.00000000000E+00 -0.16199749437E+04  0.16199749437E+04  0.00000000000E+00 0. -1.
         23    2    1    2    0    0  0.19622244359E+02 -0.98788814793E+02 -0.14874927573E+04  0.14935994895E+04  0.89780117576E+02 0.  0.
         11    1    3    3    0    0  0.24024655848E+02 -0.42864671726E+02 -0.24707575219E+03  0.25191465120E+03  0.00000000000E+00 0.  1.
        -11    1    3    3    0    0 -0.44024114892E+01 -0.55924143066E+02 -0.12404170051E+04  0.12416848383E+04  0.00000000000E+00 0. -1.
         22    1    1    2    0    0 -0.19622244359E+02  0.98788814793E+02 -0.10983453218E+03  0.14902310848E+03  0.00000000000E+00 0.  1.
<mgrwt>
<rscale>  0 0.38308554E+03</rscale>
<asrwt>0</asrwt>
<pdfrwt beam="1">  1        1 0.24922691E+00 0.38308554E+03</pdfrwt>
<pdfrwt beam="2">  1       -1 0.34842546E-02 0.38308554E+03</pdfrwt>
<totfact> 0.17958300E+03</totfact>
</mgrwt>
</event>
<event>
 6    1  0.1637818E-005  0.1441387E+04  0.7818608E-02  0.8924394E-01
         -1   -1    0    0    0  501 -0.00000000000E+00  0.00000000000E+00  0.60170685626E+03  0.60170685626E+03  0.00000000000E+00 0.  1.
          1   -1    0    0  501    0  0.00000000000E+00 -0.00000000000E+00 -0.86320947067E+03  0.86320947067E+03  0.00000000000E+00 0. -1.
         23    2    1    2    0    0  0.15802707941E+03  0.10947710164E+03  0.57153697679E+03  0.60998197032E+03  0.92009209742E+02 0.  0.
         11    1    3    3    0    0  0.84926499036E+02  0.70538517051E+02  0.19167728459E+03  0.22119759053E+03  0.00000000000E+00 0. -1.
        -11    1    3    3    0    0  0.73100580374E+02  0.38938584585E+02  0.37985969220E+03  0.38878437980E+03  0.00000000000E+00 0.  1.
         22    1    1    2    0    0 -0.15802707941E+03 -0.10947710164E+03 -0.83303959119E+03  0.85493435660E+03  0.00000000000E+00 0. -1.
<mgrwt>
<rscale>  0 0.14413869E+04</rscale>
<asrwt>0</asrwt>
<pdfrwt beam="1">  1        1 0.13280146E+00 0.14413869E+04</pdfrwt>
<pdfrwt beam="2">  1       -1 0.92570287E-01 0.14413869E+04</pdfrwt>
<totfact> 0.21536957E+01</totfact>
</mgrwt>
</event>
<event>
 6    1  0.1637818E-005  0.1843924E+04  0.7818608E-02  0.8683284E-01
         -2   -1    0    0    0  501 -0.00000000000E+00  0.00000000000E+00  0.94016069155E+03  0.94016069155E+03  0.00000000000E+00 0. -1.
          2   -1    0    0  501    0  0.00000000000E+00 -0.00000000000E+00 -0.90411516258E+03  0.90411516258E+03  0.00000000000E+00 0.  1.
         23    2    1    2    0    0 -0.40932766247E+03  0.38125402540E+03 -0.71211482869E+03  0.91011971734E+03  0.91140570018E+02 0.  0.
         11    1    3    3    0    0 -0.23409953121E+03  0.27771331543E+03 -0.45483080235E+03  0.58206385805E+03  0.00000000000E+00 0.  1.
        -11    1    3    3    0    0 -0.17522813126E+03  0.10354070997E+03 -0.25728402634E+03  0.32805585929E+03  0.00000000000E+00 0. -1.
         22    1    1    2    0    0  0.40932766247E+03 -0.38125402540E+03  0.74816035765E+03  0.93415613679E+03  0.00000000000E+00 0. -1.
<mgrwt>
<rscale>  0 0.18439236E+04</rscale>
<asrwt>0</asrwt>
<pdfrwt beam="1">  1        2 0.13909464E+00 0.18439236E+04</pdfrwt>
<pdfrwt beam="2">  1       -2 0.14464011E+00 0.18439236E+04</pdfrwt>
<totfact> 0.90381139E+00</totfact>
</mgrwt>
</event>
<event>
 6    1  0.1637818E-005  0.1190077E+04  0.7818608E-02  0.9121587E-01
          2   -1    0    0  501    0  0.00000000000E+00  0.00000000000E+00  0.12533505299E+04  0.12533505299E+04  0.00000000000E+00 0. -1.
         -2   -1    0    0    0  501 -0.00000000000E+00 -0.00000000000E+00 -0.28249919807E+03  0.28249919807E+03  0.00000000000E+00 0.  1.
         23    2    1    2    0    0 -0.50997565279E+03 -0.27751141383E+03  0.63467615435E+03  0.86495368448E+03  0.90792643718E+02 0.  0.
         13    1    3    3    0    0 -0.15028383341E+03 -0.12336231985E+03  0.17872833368E+03  0.26409715978E+03  0.00000000000E+00 0. -1.
        -13    1    3    3    0    0 -0.35969181938E+03 -0.15414909398E+03  0.45594782067E+03  0.60085652470E+03  0.00000000000E+00 0.  1.
         22    1    1    2    0    0  0.50997565279E+03  0.27751141383E+03  0.33617517751E+03  0.67089604353E+03  0.00000000000E+00 0.  1.
<mgrwt>
<rscale>  0 0.11900765E+04</rscale>
<asrwt>0</asrwt>
<pdfrwt beam="1">  1        2 0.19282315E+00 0.11900765E+04</pdfrwt>
<pdfrwt beam="2">  1       -2 0.43461416E-01 0.11900765E+04</pdfrwt>
<totfact> 0.87226091E+01</totfact>
</mgrwt>
</event>
<event>
 6    1  0.1637818E-005  0.2608530E+04  0.7818608E-02  0.8365310E-01
          1   -1    0    0  501    0  0.00000000000E+00  0.00000000000E+00  0.12596418785E+04  0.12596418785E+04  0.00000000000E+00 0. -1.
         -1   -1    0    0    0  501 -0.00000000000E+00 -0.00000000000E+00 -0.13504684733E+04  0.13504684733E+04  0.00000000000E+00 0.  1.
         23    2    1    2    0    0  0.38801744937E+03 -0.86805065367E+03  0.84546684878E+03  0.12756760556E+04  0.92009390882E+02 0.  0.
         13    1    3    3    0    0  0.32669141002E+03 -0.63279508690E+03  0.62992951996E+03  0.95077236997E+03  0.00000000000E+00 0. -1.
        -13    1    3    3    0    0  0.61326039351E+02 -0.23525556677E+03  0.21553732882E+03  0.32490368560E+03  0.00000000000E+00 0.  1.
         22    1    1    2    0    0 -0.38801744937E+03  0.86805065367E+03 -0.93629344362E+03  0.13344342962E+04  0.00000000000E+00 0.  1.
<mgrwt>
<rscale>  0 0.26085296E+04</rscale>
<asrwt>0</asrwt>
<pdfrwt beam="1">  1        1 0.19379106E+00 0.26085296E+04</pdfrwt>
<pdfrwt beam="2">  1       -1 0.20776438E+00 0.26085296E+04</pdfrwt>
<totfact> 0.11331574E+00</totfact>
</mgrwt>
</event>
<event>
 6    1  0.1637818E-005  0.1989219E+04  0.7818608E-02  0.8611678E-01
          2   -1    0    0  501    0  0.00000000000E+00  0.00000000000E+00  0.39186277617E+04  0.39186277617E+04  0.00000000000E+00 0. -1.
         -2   -1    0    0    0  501 -0.00000000000E+00 -0.00000000000E+00 -0.25244759741E+03  0.25244759741E+03  0.00000000000E+00 0.  1.
         23    2    1    2    0    0  0.48728174457E+03 -0.35700853863E+02  0.36485362973E+04  0.36821690740E+04  0.88509477274E+02 0.  0.
         11    1    3    3    0    0  0.33598424332E+03  0.14853250520E+02  0.23810592538E+04  0.24046931615E+04  0.00000000000E+00 0. -1.
        -11    1    3    3    0    0  0.15129750126E+03 -0.50554104383E+02  0.12674770435E+04  0.12774759125E+04  0.00000000000E+00 0.  1.
         22    1    1    2    0    0 -0.48728174457E+03  0.35700853863E+02  0.17643867008E+02  0.48890628509E+03  0.00000000000E+00 0.  1.
<mgrwt>
<rscale>  0 0.19892191E+04</rscale>
<asrwt>0</asrwt>
<pdfrwt beam="1">  1        2 0.60286577E+00 0.19892191E+04</pdfrwt>
<pdfrwt beam="2">  1       -2 0.38838095E-01 0.19892191E+04</pdfrwt>
<totfact> 0.23381927E+00</totfact>
</mgrwt>
</event>
<event>
 6    1  0.1637818E-005  0.3303007E+04  0.7818608E-02  0.8162131E-01
         -2   -1    0    0    0  501 -0.00000000000E+00  0.00000000000E+00  0.22300808025E+04  0.22300808025E+04  0.00000000000E+00 0. -1.
          2   -1    0    0  501    0  0.00000000000E+00 -0.00000000000E+00 -0.12230334497E+04  0.12230334497E+04  0.00000000000E+00 0.  1.
         23    2    1    2    0    0 -0.13348667424E+04  0.96692989295E+03  0.41900142361E+03  0.17030797803E+04  0.89977259668E+02 0.  0.
         13    1    3    3    0    0 -0.74609541080E+03  0.59060626832E+03  0.26020834869E+03  0.98650013224E+03  0.00000000000E+00 0.  1.
        -13    1    3    3    0    0 -0.58877133165E+03  0.37632362463E+03  0.15879307492E+03  0.71657964810E+03  0.00000000000E+00 0. -1.
         22    1    1    2    0    0  0.13348667424E+04 -0.96692989295E+03  0.58804592920E+03  0.17500344719E+04  0.00000000000E+00 0.  1.
<mgrwt>
<rscale>  0 0.33030068E+04</rscale>
<asrwt>0</asrwt>
<pdfrwt beam="1">  1        2 0.18815899E+00 0.33030068E+04</pdfrwt>
<pdfrwt beam="2">  1       -2 0.34308935E+00 0.33030068E+04</pdfrwt>
<totfact> 0.26340488E-01</totfact>
</mgrwt>
</event>
<event>
 6    1  0.1637818E-005  0.1830282E+04  0.7818608E-02  0.8690359E-01
          2   -1    0    0  501    0  0.00000000000E+00  0.00000000000E+00  0.17435153764E+04  0.17435153764E+04  0.00000000000E+00 0. -1.
         -2   -1    0    0    0  501 -0.00000000000E+00 -0.00000000000E+00 -0.48034175433E+03  0.48034175433E+03  0.00000000000E+00 0.  1.
         23    2    1    2    0    0 -0.86040617510E+03 -0.29645127368E+01  0.26245231307E+03  0.90410309579E+03  0.90629005840E+02 0.  0.
         11    1    3    3    0    0 -0.51136499157E+03  0.40166329038E+02  0.14004804284E+03  0.53171509561E+03  0.00000000000E+00 0.  1.
        -11    1    3    3    0    0 -0.34904118353E+03 -0.43130841775E+02  0.12240427023E+03  0.37238800018E+03  0.00000000000E+00 0. -1.
         22    1    1    2    0    0  0.86040617510E+03  0.29645127368E+01  0.10007213090E+04  0.13197540350E+04  0.00000000000E+00 0. -1.
<mgrwt>
<rscale>  0 0.18302822E+04</rscale>
<asrwt>0</asrwt>
<pdfrwt beam="1">  1        2 0.26823313E+00 0.18302822E+04</pdfrwt>
<pdfrwt beam="2">  1       -2 0.73898732E-01 0.18302822E+04</pdfrwt>
<totfact> 0.14411997E+01</totfact>
</mgrwt>
</event>
<event>
 6    1  0.1637818E-005  0.3312484E+04  0.7818608E-02  0.8159726E-01
          2   -1    0    0  501    0  0.00000000000E+00  0.00000000000E+00  0.29517978239E+04  0.29517978239E+04  0.00000000000E+00 0.  1.
         -2   -1    0    0    0  501 -0.00000000000E+00 -0.00000000000E+00 -0.92931082660E+03  0.92931082660E+03  0.00000000000E+00 0. -1.
         23    2    1    2    0    0  0.11405430944E+04  0.14422990310E+03 -0.38290883817E+03  0.12151060360E+04  0.90679023539E+02 0.  0.
         13    1    3    3    0    0  0.10136276699E+04  0.13325647016E+03 -0.30993778626E+03  0.10682976043E+04  0.00000000000E+00 0.  1.
        -13    1    3    3    0    0  0.12691542452E+03  0.10973432940E+02 -0.72971051911E+02  0.14680843174E+03  0.00000000000E+00 0. -1.
         22    1    1    2    0    0 -0.11405430944E+04 -0.14422990310E+03  0.24053958355E+04  0.26660026145E+04  0.00000000000E+00 0.  1.
<mgrwt>
<rscale>  0 0.33124841E+04</rscale>
<asrwt>0</asrwt>
<pdfrwt beam="1">  1        2 0.45412274E+00 0.33124841E+04</pdfrwt>
<pdfrwt beam="2">  1       -2 0.14297090E+00 0.33124841E+04</pdfrwt>
<totfact> 0.52905394E-01</totfact>
</mgrwt>
</event>
<event>
 6    1  0.1637818E-005  0.4950952E+04  0.7818608E-02  0.7836118E-01
          1   -1    0    0  501    0  0.00000000000E+00  0.00000000000E+00  0.39906878620E+04  0.39906878620E+04  0.00000000000E+00 0. -1.
         -1   -1    0    0    0  501 -0.00000000000E+00 -0.00000000000E+00 -0.15355701986E+04  0.15355701986E+04  0.00000000000E+00 0.  1.
         23    2    1    2    0    0  0.14543150464E+04  0.13568296809E+04  0.28713768108E+04  0.34941924329E+04  0.92503681240E+02 0.  0.
         11    1    3    3    0    0  0.45785333592E+03  0.46662240239E+03  0.10009086969E+04  0.11954849908E+04  0.00000000000E+00 0.  1.
        -11    1    3    3    0    0  0.99646171049E+03  0.89020727855E+03  0.18704681139E+04  0.22987074421E+04  0.00000000000E+00 0. -1.
         22    1    1    2    0    0 -0.14543150464E+04 -0.13568296809E+04 -0.41625914750E+03  0.20320656277E+04  0.00000000000E+00 0.  1.
<mgrwt>
<rscale>  0 0.49509520E+04</rscale>
<asrwt>0</asrwt>
<pdfrwt beam="1">  1        1 0.61395198E+00 0.49509520E+04</pdfrwt>
<pdfrwt beam="2">  1       -1 0.23624157E+00 0.49509520E+04</pdfrwt>
<totfact> 0.60617021E-03</totfact>
</mgrwt>
</event>
<event>
 6    1  0.1637818E-005  0.1796055E+04  0.7818608E-02  0.8708400E-01
          2   -1    0    0  501    0  0.00000000000E+00  0.00000000000E+00  0.17384418366E+04  0.17384418366E+04  0.00000000000E+00 0. -1.
         -2   -1    0    0    0  501 -0.00000000000E+00 -0.00000000000E+00 -0.46389452060E+03  0.46389452060E+03  0.00000000000E+00 0.  1.
         23    2    1    2    0    0 -0.42986914092E+03  0.76919167712E+03  0.44344030466E+03  0.99106339920E+03  0.95519856368E+02 0.  0.
         13    1    3    3    0    0 -0.28056104549E+03  0.44123521110E+03  0.22154348684E+03  0.56787721237E+03  0.00000000000E+00 0.  1.
        -13    1    3    3    0    0 -0.14930809543E+03  0.32795646602E+03  0.22189681782E+03  0.42318618683E+03  0.00000000000E+00 0. -1.
         22    1    1    2    0    0  0.42986914092E+03 -0.76919167712E+03  0.83110701130E+03  0.12112729580E+04  0.00000000000E+00 0.  1.
<mgrwt>
<rscale>  0 0.17960553E+04</rscale>
<asrwt>0</asrwt>
<pdfrwt beam="1">  1        2 0.26745259E+00 0.17960553E+04</pdfrwt>
<pdfrwt beam="2">  1       -2 0.71368389E-01 0.17960553E+04</pdfrwt>
<totfact> 0.15706487E+01</totfact>
</mgrwt>
</event>
<event>
 6    1  0.1637818E-005  0.2733742E+04  0.7818608E-02  0.8324139E-01
         -2   -1    0    0    0  501 -0.00000000000E+00  0.00000000000E+00  0.11538407864E+04  0.11538407864E+04  0.00000000000E+00 0.  1.
          2   -1    0    0  501    0  0.00000000000E+00 -0.00000000000E+00 -0.16192322040E+04  0.16192322040E+04  0.00000000000E+00 0. -1.
         23    2    1    2    0    0  0.11563226615E+04  0.38080735768E+03  0.39383928449E+03  0.12829811340E+04  0.93993973260E+02 0.  0.
         11    1    3    3    0    0  0.96188914898E+03  0.34692053875E+03  0.30949832713E+03  0.10683509768E+04  0.00000000000E+00 0. -1.
        -11    1    3    3    0    0  0.19443351251E+03  0.33886818932E+02  0.84340957361E+02  0.21463015719E+03  0.00000000000E+00 0.  1.
         22    1    1    2    0    0 -0.11563226615E+04 -0.38080735768E+03 -0.85923070209E+03  0.14900918564E+04  0.00000000000E+00 0. -1.
<mgrwt>
<rscale>  0 0.27337419E+04</rscale>
<asrwt>0</asrwt>
<pdfrwt beam="1">  1        2 0.24911265E+00 0.27337419E+04</pdfrwt>
<pdfrwt beam="2">  1       -2 0.17751397E+00 0.27337419E+04</pdfrwt>
<totfact> 0.17960911E+00</totfact>
</mgrwt>
</event>
<event>
 6    1  0.1637818E-005  0.2785476E+04  0.7818608E-02  0.8307792E-01
          2   -1    0    0  501    0  0.00000000000E+00  0.00000000000E+00  0.14756652843E+04  0.14756652843E+04  0.00000000000E+00 0. -1.
         -2   -1    0    0    0  501 -0.00000000000E+00 -0.00000000000E+00 -0.13144710034E+04  0.13144710034E+04  0.00000000000E+00 0.  1.
         23    2    1    2    0    0  0.40116308540E+03 -0.12437656609E+04  0.55846938231E+03  0.14242254755E+04  0.92980179647E+02 0.  0.
         13    1    3    3    0    0  0.24713835995E+03 -0.65547685068E+03  0.26461947445E+03  0.74883291661E+03  0.00000000000E+00 0.  1.
        -13    1    3    3    0    0  0.15402472545E+03 -0.58828881025E+03  0.29384990785E+03  0.67539255893E+03  0.00000000000E+00 0. -1.
         22    1    1    2    0    0 -0.40116308540E+03  0.12437656609E+04 -0.39727510140E+03  0.13659108121E+04  0.00000000000E+00 0.  1.
<mgrwt>
<rscale>  0 0.27854761E+04</rscale>
<asrwt>0</asrwt>
<pdfrwt beam="1">  1        2 0.22702543E+00 0.27854761E+04</pdfrwt>
<pdfrwt beam="2">  1       -2 0.20222631E+00 0.27854761E+04</pdfrwt>
<totfact> 0.14681818E+00</totfact>
</mgrwt>
</event>
<event>
 6    1  0.1637818E-005  0.3992832E+04  0.7818608E-02  0.8005994E-01
         -2   -1    0    0    0  501 -0.00000000000E+00  0.00000000000E+00  0.22900329843E+04  0.22900329843E+04  0.00000000000E+00 0.  1.
          2   -1    0    0  501    0  0.00000000000E+00 -0.00000000000E+00 -0.17404448248E+04  0.17404448248E+04  0.00000000000E+00 0. -1.
         23    2    1    2    0    0 -0.12583853639E+04 -0.10245984797E+04  0.14469861476E+04  0.21761156768E+04  0.91513708973E+02 0.  0.
         13    1    3    3    0    0 -0.10086730922E+04 -0.85424099283E+03  0.11437559088E+04  0.17479492726E+04  0.00000000000E+00 0. -1.
        -13    1    3    3    0    0 -0.24971227168E+03 -0.17035748689E+03  0.30323023879E+03  0.42816640420E+03  0.00000000000E+00 0.  1.
         22    1    1    2    0    0  0.12583853639E+04  0.10245984797E+04 -0.89739798812E+03  0.18543621323E+04  0.00000000000E+00 0. -1.
<mgrwt>
<rscale>  0 0.39928316E+04</rscale>
<asrwt>0</asrwt>
<pdfrwt beam="1">  1        2 0.26776074E+00 0.39928316E+04</pdfrwt>
<pdfrwt beam="2">  1       -2 0.35231277E+00 0.39928316E+04</pdfrwt>
<totfact> 0.11054450E-01</totfact>
</mgrwt>
</event>
<event>
 6    1  0.1637818E-005  0.1350611E+04  0.7818608E-02  0.8990366E-01
         -1   -1    0    0    0  501 -0.00000000000E+00  0.00000000000E+00  0.32953730061E+03  0.32953730061E+03  0.00000000000E+00 0. -1.
          1   -1    0    0  501    0  0.00000000000E+00 -0.00000000000E+00 -0.13838714050E+04  0.13838714050E+04  0.00000000000E+00 0.  1.
         23    2    1    2    0    0 -0.20612670115E+03  0.48341687201E+03  0.21948464110E+01  0.53339450528E+03  0.91240297257E+02 0.  0.
         13    1    3    3    0    0  0.85959394419E+01  0.37345865227E+02  0.85647825990E+00  0.38331936808E+02  0.00000000000E+00 0.  1.
        -13    1    3    3    0    0 -0.21472264059E+03  0.44607100679E+03  0.13383681511E+01  0.49506256848E+03  0.00000000000E+00 0. -1.
         22    1    1    2    0    0  0.20612670115E+03 -0.48341687201E+03 -0.10565289508E+04  0.11800142003E+04  0.00000000000E+00 0.  1.
<mgrwt>
<rscale>  0 0.13506106E+04</rscale>
<asrwt>0</asrwt>
<pdfrwt beam="1">  1        1 0.21290329E+00 0.13506106E+04</pdfrwt>
<pdfrwt beam="2">  1       -1 0.50698047E-01 0.13506106E+04</pdfrwt>
<totfact> 0.30169470E+01</totfact>
</mgrwt>
</event>
<event>
 6    1  0.1637818E-005  0.1158659E+04  0.7818608E-02  0.9149832E-01
          1   -1    0    0  501    0  0.00000000000E+00  0.00000000000E+00  0.46022298934E+03  0.46022298934E+03  0.00000000000E+00 0. -1.
         -1   -1    0    0    0  501 -0.00000000000E+00 -0.00000000000E+00 -0.72926160664E+03  0.72926160664E+03  0.00000000000E+00 0.  1.
         23    2    1    2    0    0  0.48652410655E+03 -0.19059920562E+03 -0.38286137640E+03  0.65470484325E+03  0.94983339582E+02 0.  0.
         11    1    3    3    0    0  0.39669323085E+03 -0.18167835142E+03 -0.28285005691E+03  0.51997759324E+03  0.00000000000E+00 0.  1.
        -11    1    3    3    0    0  0.89830875700E+02 -0.89208541942E+01 -0.10001131949E+03  0.13472725001E+03  0.00000000000E+00 0. -1.
         22    1    1    2    0    0 -0.48652410655E+03  0.19059920562E+03  0.11382275910E+03  0.53477975273E+03  0.00000000000E+00 0. -1.
<mgrwt>
<rscale>  0 0.11586595E+04</rscale>
<asrwt>0</asrwt>
<pdfrwt beam="1">  1        1 0.70803537E-01 0.11586595E+04</pdfrwt>
<pdfrwt beam="2">  1       -1 0.11219409E+00 0.11586595E+04</pdfrwt>
<totfact> 0.35914045E+01</totfact>
</mgrwt>
</event>
<event>
 6    1  0.1637818E-005  0.6552474E+04  0.7818608E-02  0.7625437E-01
          2   -1    0    0  501    0  0.00000000000E+00  0.00000000000E+00  0.24217330038E+04  0.24217330038E+04  0.00000000000E+00 0. -1.
         -2   -1    0    0    0  501 -0.00000000000E+00 -0.00000000000E+00 -0.44322517462E+04  0.44322517462E+04  0.00000000000E+00 0.  1.
         23    2    1    2    0    0 -0.24606268943E+04 -0.25696332074E+03 -0.32510334087E+04  0.40863880492E+04  0.92920410731E+02 0.  0.
         11    1    3    3    0    0 -0.13199450127E+04 -0.10698289361E+03 -0.16822494002E+04  0.21409491402E+04  0.00000000000E+00 0.  1.
        -11    1    3    3    0    0 -0.11406818816E+04 -0.14998042713E+03 -0.15687840085E+04  0.19454389090E+04  0.00000000000E+00 0. -1.
         22    1    1    2    0    0  0.24606268943E+04  0.25696332074E+03  0.12405146662E+04  0.27675967008E+04  0.00000000000E+00 0. -1.
<mgrwt>
<rscale>  0 0.65524744E+04</rscale>
<asrwt>0</asrwt>
<pdfrwt beam="1">  1        2 0.37257431E+00 0.65524744E+04</pdfrwt>
<pdfrwt beam="2">  1       -2 0.68188488E+00 0.65524744E+04</pdfrwt>
<totfact> 0.67125211E-04</totfact>
</mgrwt>
</event>
<event>
 6    1  0.1637818E-005  0.1195449E+04  0.7818608E-02  0.9116849E-01
         -2   -1    0    0    0  501 -0.00000000000E+00  0.00000000000E+00  0.19236835847E+03  0.19236835847E+03  0.00000000000E+00 0.  1.
          2   -1    0    0  501    0  0.00000000000E+00 -0.00000000000E+00 -0.18572430025E+04  0.18572430025E+04  0.00000000000E+00 0. -1.
         23    2    1    2    0    0 -0.21681916022E+03  0.52080027168E+03 -0.51812172375E+03  0.77161068358E+03  0.93217247166E+02 0.  0.
         11    1    3    3    0    0 -0.72551959557E+02  0.29528586591E+03 -0.27574086859E+03  0.41047601155E+03  0.00000000000E+00 0. -1.
        -11    1    3    3    0    0 -0.14426720067E+03  0.22551440577E+03 -0.24238085516E+03  0.36113467204E+03  0.00000000000E+00 0.  1.
         22    1    1    2    0    0  0.21681916022E+03 -0.52080027168E+03 -0.11467529202E+04  0.12780006774E+04  0.00000000000E+00 0.  1.
<mgrwt>
<rscale>  0 0.11954494E+04</rscale>
<asrwt>0</asrwt>
<pdfrwt beam="1">  1        2 0.28572970E+00 0.11954494E+04</pdfrwt>
<pdfrwt beam="2">  1       -2 0.29595131E-01 0.11954494E+04</pdfrwt>
<totfact> 0.83302389E+01</totfact>
</mgrwt>
</event>
<event>
 6    1  0.1637818E-005  0.4406871E+04  0.7818608E-02  0.7927147E-01
          1   -1    0    0  501    0  0.00000000000E+00  0.00000000000E+00  0.29988633361E+04  0.29988633361E+04  0.00000000000E+00 0. -1.
         -1   -1    0    0    0  501 -0.00000000000E+00 -0.00000000000E+00 -0.16189893844E+04  0.16189893844E+04  0.00000000000E+00 0.  1.
         23    2    1    2    0    0 -0.50329058796E+03 -0.20357433138E+04 -0.15214288536E+02  0.20991579288E+04  0.93168020835E+02 0.  0.
         11    1    3    3    0    0 -0.28774663152E+03 -0.97015529974E+03 -0.50548001382E+01  0.10119411942E+04  0.00000000000E+00 0.  1.
        -11    1    3    3    0    0 -0.21554395644E+03 -0.10655880140E+04 -0.10159488398E+02  0.10872167346E+04  0.00000000000E+00 0. -1.
         22    1    1    2    0    0  0.50329058796E+03  0.20357433138E+04  0.13950882403E+04  0.25186947917E+04  0.00000000000E+00 0.  1.
<mgrwt>
<rscale>  0 0.44068710E+04</rscale>
<asrwt>0</asrwt>
<pdfrwt beam="1">  1        1 0.46136359E+00 0.44068710E+04</pdfrwt>
<pdfrwt beam="2">  1       -1 0.24907529E+00 0.44068710E+04</pdfrwt>
<totfact> 0.32046856E-02</totfact>
</mgrwt>
</event>
<event>
 6    1  0.1637818E-005  0.4639309E+04  0.7818608E-02  0.7886692E-01
         -2   -1    0    0    0  501 -0.00000000000E+00  0.00000000000E+00  0.14051054850E+04  0.14051054850E+04  0.00000000000E+00 0.  1.
          2   -1    0    0  501    0  0.00000000000E+00 -0.00000000000E+00 -0.38294609853E+04  0.38294609853E+04  0.00000000000E+00 0. -1.
         23    2    1    2    0    0 -0.12621806712E+04  0.18746040239E+04 -0.17983800199E+04  0.28895535502E+04  0.90048488691E+02 0.  0.
         11    1    3    3    0    0 -0.11471379967E+03  0.15500612704E+03 -0.18474070588E+03  0.26704921581E+03  0.00000000000E+00 0. -1.
        -11    1    3    3    0    0 -0.11474668716E+04  0.17195978969E+04 -0.16136393140E+04  0.26225043344E+04  0.00000000000E+00 0.  1.
         22    1    1    2    0    0  0.12621806712E+04 -0.18746040239E+04 -0.62597548031E+03  0.23450129201E+04  0.00000000000E+00 0.  1.
<mgrwt>
<rscale>  0 0.46393088E+04</rscale>
<asrwt>0</asrwt>
<pdfrwt beam="1">  1        2 0.58914783E+00 0.46393088E+04</pdfrwt>
<pdfrwt beam="2">  1       -2 0.21617008E+00 0.46393088E+04</pdfrwt>
<totfact> 0.36398464E-02</totfact>
</mgrwt>
</event>
<event>
 6    1  0.1637818E-005  0.3106069E+04  0.7818608E-02  0.8214074E-01
          2   -1    0    0  501    0  0.00000000000E+00  0.00000000000E+00  0.28320181905E+04  0.28320181905E+04  0.00000000000E+00 0.  1.
         -2   -1    0    0    0  501 -0.00000000000E+00 -0.00000000000E+00 -0.85165974165E+03  0.85165974165E+03  0.00000000000E+00 0. -1.
         23    2    1    2    0    0 -0.70183651511E+03  0.60832274186E+03  0.24655856069E+04  0.26357865031E+04  0.75013683115E+02 0.  0.
         11    1    3    3    0    0 -0.29507111893E+03  0.20838825353E+03  0.97688169626E+03  0.10415327541E+04  0.00000000000E+00 0.  1.
        -11    1    3    3    0    0 -0.40676539618E+03  0.39993448833E+03  0.14887039106E+04  0.15942537490E+04  0.00000000000E+00 0. -1.
         22    1    1    2    0    0  0.70183651511E+03 -0.60832274186E+03 -0.48522715805E+03  0.10478914291E+04  0.00000000000E+00 0. -1.
<mgrwt>
<rscale>  0 0.31060688E+04</rscale>
<asrwt>0</asrwt>
<pdfrwt beam="1">  1        2 0.43569510E+00 0.31060688E+04</pdfrwt>
<pdfrwt beam="2">  1       -2 0.13102458E+00 0.31060688E+04</pdfrwt>
<totfact> 0.79844713E-01</totfact>
</mgrwt>
</event>
<event>
 6    1  0.1637818E-005  0.2628132E+04  0.7818608E-02  0.8358708E-01
         -1   -1    0    0    0  501 -0.00000000000E+00  0.00000000000E+00  0.63545235448E+03  0.63545235448E+03  0.00000000000E+00 0.  1.
          1   -1    0    0  501    0  0.00000000000E+00 -0.00000000000E+00 -0.27173869473E+04  0.27173869473E+04  0.00000000000E+00 0. -1.
         23    2    1    2    0    0 -0.70558405231E+03  0.92245167616E+03 -0.18233609978E+04  0.21630383715E+04  0.72963815437E+02 0.  0.
         11    1    3    3    0    0 -0.39124024354E+03  0.52852487751E+03 -0.10962140504E+04  0.12783163609E+04  0.00000000000E+00 0.  1.
        -11    1    3    3    0    0 -0.31434380877E+03  0.39392679865E+03 -0.72714694744E+03  0.88472201057E+03  0.00000000000E+00 0. -1.
         22    1    1    2    0    0  0.70558405231E+03 -0.92245167616E+03 -0.25857359501E+03  0.11898009303E+04  0.00000000000E+00 0. -1.
<mgrwt>
<rscale>  0 0.26281324E+04</rscale>
<asrwt>0</asrwt>
<pdfrwt beam="1">  1        1 0.41805953E+00 0.26281324E+04</pdfrwt>
<pdfrwt beam="2">  1       -1 0.97761901E-01 0.26281324E+04</pdfrwt>
<totfact> 0.84084179E-01</totfact>
</mgrwt>
</event>
<event>
 6    1  0.1911125E-005  0.2602289E+04  0.7818608E-02  0.8367424E-01
         -1   -1    0    0    0  501 -0.00000000000E+00  0.00000000000E+00  0.90323451188E+03  0.90323451188E+03  0.00000000000E+00 0.  1.
          1   -1    0    0  501    0  0.00000000000E+00 -0.00000000000E+00 -0.18743488651E+04  0.18743488651E+04  0.00000000000E+00 0. -1.
         23    2    1    2    0    0 -0.86374480809E+03 -0.25216053786E+03 -0.14870629789E+04  0.17403548512E+04  0.88536289624E+02 0.  0.
         11    1    3    3    0    0 -0.44101571104E+03 -0.17374546743E+03 -0.76156774693E+03  0.89703276306E+03  0.00000000000E+00 0. -1.
        -11    1    3    3    0    0 -0.42272909705E+03 -0.78415070426E+02 -0.72549523194E+03  0.84332208813E+03  0.00000000000E+00 0.  1.
         22    1    1    2    0    0  0.86374480809E+03  0.25216053786E+03  0.51594862567E+03  0.10372285258E+04  0.00000000000E+00 0.  1.
<mgrwt>
<rscale>  0 0.26022887E+04</rscale>
<asrwt>0</asrwt>
<pdfrwt beam="1">  1        1 0.28836136E+00 0.26022887E+04</pdfrwt>
<pdfrwt beam="2">  1       -1 0.13895916E+00 0.26022887E+04</pdfrwt>
<totfact> 0.13648554E+00</totfact>
</mgrwt>
</event>
<event>
 6    1  0.1637818E-005  0.1522633E+04  0.7818608E-02  0.8869540E-01
         -1   -1    0    0    0  501 -0.00000000000E+00  0.00000000000E+00  0.31196236038E+03  0.31196236038E+03  0.00000000000E+00 0.  1.
          1   -1    0    0  501    0  0.00000000000E+00 -0.00000000000E+00 -0.18579263221E+04  0.18579263221E+04  0.00000000000E+00 0. -1.
         23    2    1    2    0    0 -0.28202479220E+03 -0.17311682927E+03 -0.17486032222E+04  0.17818550629E+04  0.88807750253E+02 0.  0.
         13    1    3    3    0    0 -0.16277149399E+02 -0.26779913965E+02 -0.31191926645E+03  0.31348961413E+03  0.00000000000E+00 0.  1.
        -13    1    3    3    0    0 -0.26574764280E+03 -0.14633691531E+03 -0.14366839558E+04  0.14683654488E+04  0.00000000000E+00 0. -1.
         22    1    1    2    0    0  0.28202479220E+03  0.17311682927E+03  0.20263926052E+03  0.38803361955E+03  0.00000000000E+00 0.  1.
<mgrwt>
<rscale>  0 0.15226334E+04</rscale>
<asrwt>0</asrwt>
<pdfrwt beam="1">  1        1 0.28583481E+00 0.15226334E+04</pdfrwt>
<pdfrwt beam="2">  1       -1 0.47994210E-01 0.15226334E+04</pdfrwt>
<totfact> 0.15591982E+01</totfact>
</mgrwt>
</event>
<event>
 6    1  0.1637818E-005  0.1085922E+04  0.7818608E-02  0.9219023E-01
         -2   -1    0    0    0  501 -0.00000000000E+00  0.00000000000E+00  0.62741521479E+03  0.62741521479E+03  0.00000000000E+00 0.  1.
          2   -1    0    0  501    0  0.00000000000E+00 -0.00000000000E+00 -0.46987513738E+03  0.46987513738E+03  0.00000000000E+00 0. -1.
         23    2    1    2    0    0 -0.72448234605E+02  0.47856653146E+03 -0.16072721370E+03  0.51800739859E+03  0.90684927268E+02 0.  0.
         13    1    3    3    0    0 -0.76637322971E+02  0.23250370736E+03 -0.10058270573E+03  0.26466607999E+03  0.00000000000E+00 0. -1.
        -13    1    3    3    0    0  0.41890883659E+01  0.24606282410E+03 -0.60144507971E+02  0.25334131859E+03  0.00000000000E+00 0.  1.
         22    1    1    2    0    0  0.72448234605E+02 -0.47856653146E+03  0.31826729111E+03  0.57928295359E+03  0.00000000000E+00 0.  1.
<mgrwt>
<rscale>  0 0.10859223E+04</rscale>
<asrwt>0</asrwt>
<pdfrwt beam="1">  1        2 0.72288483E-01 0.10859223E+04</pdfrwt>
<pdfrwt beam="2">  1       -2 0.96525418E-01 0.10859223E+04</pdfrwt>
<totfact> 0.59063106E+01</totfact>
</mgrwt>
</event>
<event>
 6    1  0.1637818E-005  0.1985379E+04  0.7818608E-02  0.8613487E-01
          1   -1    0    0  501    0  0.00000000000E+00  0.00000000000E+00  0.15738517138E+04  0.15738517138E+04  0.00000000000E+00 0. -1.
         -1   -1    0    0    0  501 -0.00000000000E+00 -0.00000000000E+00 -0.62612798016E+03  0.62612798016E+03  0.00000000000E+00 0.  1.
         23    2    1    2    0    0  0.86867345756E+03 -0.87016965346E+02  0.99047909101E+03  0.13259124490E+04  0.12177628937E+03 0.  0.
         13    1    3    3    0    0  0.30184958206E+03 -0.31439050183E+00  0.41845409405E+03  0.51596230275E+03  0.00000000000E+00 0. -1.
        -13    1    3    3    0    0  0.56682387550E+03 -0.86702574845E+02  0.57202499696E+03  0.80995014629E+03  0.00000000000E+00 0.  1.
         22    1    1    2    0    0 -0.86867345756E+03  0.87016965346E+02 -0.42755357331E+02  0.87406724496E+03  0.00000000000E+00 0. -1.
<mgrwt>
<rscale>  0 0.19853792E+04</rscale>
<asrwt>0</asrwt>
<pdfrwt beam="1">  1        1 0.24213103E+00 0.19853792E+04</pdfrwt>
<pdfrwt beam="2">  1       -1 0.96327382E-01 0.19853792E+04</pdfrwt>
<totfact> 0.56058652E+00</totfact>
</mgrwt>
</event>
<event>
 6    1  0.1637818E-005  0.1601426E+04  0.7818608E-02  0.8819673E-01
         -1   -1    0    0    0  501 -0.00000000000E+00  0.00000000000E+00  0.11044673805E+04  0.11044673805E+04  0.00000000000E+00 0.  1.
          1   -1    0    0  501    0  0.00000000000E+00 -0.00000000000E+00 -0.58049792796E+03  0.58049792796E+03  0.00000000000E+00 0. -1.
         23    2    1    2    0    0  0.73359586961E+03  0.93925240714E+02  0.57858307992E+03  0.94336737218E+03  0.90547047282E+02 0.  0.
         11    1    3    3    0    0  0.17931253238E+03  0.37404460841E+02  0.19114059714E+03  0.26473912788E+03  0.00000000000E+00 0. -1.
        -11    1    3    3    0    0  0.55428333724E+03  0.56520779874E+02  0.38744248278E+03  0.67862824430E+03  0.00000000000E+00 0.  1.
         22    1    1    2    0    0 -0.73359586961E+03 -0.93925240714E+02 -0.54613627409E+02  0.74159793625E+03  0.00000000000E+00 0. -1.
<mgrwt>
<rscale>  0 0.16014256E+04</rscale>
<asrwt>0</asrwt>
<pdfrwt beam="1">  1        1 0.89307374E-01 0.16014256E+04</pdfrwt>
<pdfrwt beam="2">  1       -1 0.16991806E+00 0.16014256E+04</pdfrwt>
<totfact> 0.84909023E+00</totfact>
</mgrwt>
</event>
<event>
 6    1  0.1637818E-005  0.2834581E+04  0.7818608E-02  0.8292612E-01
         -2   -1    0    0    0  501 -0.00000000000E+00  0.00000000000E+00  0.11667283502E+04  0.11667283502E+04  0.00000000000E+00 0.  1.
          2   -1    0    0  501    0  0.00000000000E+00 -0.00000000000E+00 -0.17216618293E+04  0.17216618293E+04  0.00000000000E+00 0. -1.
         23    2    1    2    0    0  0.10936233524E+04  0.26785975174E+03 -0.11524185535E+04  0.16137336384E+04  0.91141921247E+02 0.  0.
         13    1    3    3    0    0  0.52510133681E+03  0.15646669462E+03 -0.61257365235E+03  0.82186356531E+03  0.00000000000E+00 0. -1.
        -13    1    3    3    0    0  0.56852201555E+03  0.11139305712E+03 -0.53984490120E+03  0.79187007311E+03  0.00000000000E+00 0.  1.
         22    1    1    2    0    0 -0.10936233524E+04 -0.26785975174E+03  0.59748507444E+03  0.12746565410E+04  0.00000000000E+00 0.  1.
<mgrwt>
<rscale>  0 0.28345805E+04</rscale>
<asrwt>0</asrwt>
<pdfrwt beam="1">  1        2 0.26487105E+00 0.28345805E+04</pdfrwt>
<pdfrwt beam="2">  1       -2 0.17949667E+00 0.28345805E+04</pdfrwt>
<totfact> 0.15130635E+00</totfact>
</mgrwt>
</event>
<event>
 6    1  0.1637818E-005  0.4304533E+04  0.7818608E-02  0.7945780E-01
          2   -1    0    0  501    0  0.00000000000E+00  0.00000000000E+00  0.33920187116E+04  0.33920187116E+04  0.00000000000E+00 0. -1.
         -2   -1    0    0    0  501 -0.00000000000E+00 -0.00000000000E+00 -0.13656324145E+04  0.13656324145E+04  0.00000000000E+00 0.  1.
         23    2    1    2    0    0  0.19676505904E+04  0.75678173601E+03  0.53970038056E+03  0.21779995108E+04  0.89654483103E+02 0.  0.
         13    1    3    3    0    0  0.57972978302E+03  0.22482563601E+03  0.20155251223E+03  0.65364868478E+03  0.00000000000E+00 0.  1.
        -13    1    3    3    0    0  0.13879208074E+04  0.53195610000E+03  0.33814786833E+03  0.15243508260E+04  0.00000000000E+00 0. -1.
         22    1    1    2    0    0 -0.19676505904E+04 -0.75678173601E+03  0.14866859165E+04  0.25796516153E+04  0.00000000000E+00 0.  1.
<mgrwt>
<rscale>  0 0.43045328E+04</rscale>
<asrwt>0</asrwt>
<pdfrwt beam="1">  1        2 0.52184903E+00 0.43045328E+04</pdfrwt>
<pdfrwt beam="2">  1       -2 0.21009730E+00 0.43045328E+04</pdfrwt>
<totfact> 0.84846133E-02</totfact>
</mgrwt>
</event>
<event>
 6    1  0.1637818E-005  0.1043919E+04  0.7818608E-02  0.9261645E-01
          2   -1    0    0  501    0  0.00000000000E+00  0.00000000000E+00  0.32602023937E+04  0.32602023937E+04  0.00000000000E+00 0. -1.
         -2   -1    0    0    0  501 -0.00000000000E+00 -0.00000000000E+00 -0.83565823161E+02  0.83565823161E+02  0.00000000000E+00 0.  1.
         23    2    1    2    0    0 -0.36497470914E+03  0.35745580859E+03  0.18718580387E+04  0.19425443909E+04  0.92978492200E+02 0.  0.
         11    1    3    3    0    0 -0.22696061275E+03  0.22951282283E+03  0.10077873628E+04  0.10582167189E+04  0.00000000000E+00 0.  1.
        -11    1    3    3    0    0 -0.13801409639E+03  0.12794298576E+03  0.86407067595E+03  0.88432767199E+03  0.00000000000E+00 0. -1.
         22    1    1    2    0    0  0.36497470914E+03 -0.35745580859E+03  0.13047785318E+04  0.14012238260E+04  0.00000000000E+00 0.  1.
<mgrwt>
<rscale>  0 0.10439186E+04</rscale>
<asrwt>0</asrwt>
<pdfrwt beam="1">  1        2 0.50156950E+00 0.10439186E+04</pdfrwt>
<pdfrwt beam="2">  1       -2 0.12856283E-01 0.10439186E+04</pdfrwt>
<totfact> 0.55208825E+01</totfact>
</mgrwt>
</event>
<event>
 6    1  0.1637818E-005  0.2770802E+04  0.7818608E-02  0.8312391E-01
         -2   -1    0    0    0  501 -0.00000000000E+00  0.00000000000E+00  0.88249089107E+03  0.88249089107E+03  0.00000000000E+00 0.  1.
          2   -1    0    0  501    0  0.00000000000E+00 -0.00000000000E+00 -0.21749079511E+04  0.21749079511E+04  0.00000000000E+00 0. -1.
         23    2    1    2    0    0  0.12567420841E+04 -0.40489398617E+03 -0.11038265035E+04  0.17236424161E+04  0.95762323650E+02 0.  0.
         11    1    3    3    0    0  0.95665661605E+02 -0.52635085055E+02 -0.70985675830E+02  0.13023569849E+03  0.00000000000E+00 0.  1.
        -11    1    3    3    0    0  0.11610764225E+04 -0.35225890112E+03 -0.10328408276E+04  0.15934067176E+04  0.00000000000E+00 0. -1.
         22    1    1    2    0    0 -0.12567420841E+04  0.40489398617E+03 -0.18859055656E+03  0.13337564261E+04  0.00000000000E+00 0.  1.
<mgrwt>
<rscale>  0 0.27708024E+04</rscale>
<asrwt>0</asrwt>
<pdfrwt beam="1">  1        2 0.33460122E+00 0.27708024E+04</pdfrwt>
<pdfrwt beam="2">  1       -2 0.13576783E+00 0.27708024E+04</pdfrwt>
<totfact> 0.18090881E+00</totfact>
</mgrwt>
</event>
<event>
 6    1  0.1637818E-005  0.1435094E+04  0.7818608E-02  0.8928800E-01
          1   -1    0    0  501    0  0.00000000000E+00  0.00000000000E+00  0.49771756100E+03  0.49771756100E+03  0.00000000000E+00 0. -1.
         -1   -1    0    0    0  501 -0.00000000000E+00 -0.00000000000E+00 -0.10344691534E+04  0.10344691534E+04  0.00000000000E+00 0.  1.
         23    2    1    2    0    0  0.61289592001E+03  0.25728846752E+03  0.13222467152E+02  0.66945255461E+03  0.78441857116E+02 0.  0.
         13    1    3    3    0    0  0.28666721255E+03  0.15256042541E+03 -0.19154745435E+02  0.32529936739E+03  0.00000000000E+00 0. -1.
        -13    1    3    3    0    0  0.32622870746E+03  0.10472804211E+03  0.32377212587E+02  0.34415318722E+03  0.00000000000E+00 0.  1.
         22    1    1    2    0    0 -0.61289592001E+03 -0.25728846752E+03 -0.54997405954E+03  0.86273415978E+03  0.00000000000E+00 0.  1.
<mgrwt>
<rscale>  0 0.14350937E+04</rscale>
<asrwt>0</asrwt>
<pdfrwt beam="1">  1        1 0.76571934E-01 0.14350937E+04</pdfrwt>
<pdfrwt beam="2">  1       -1 0.15914910E+00 0.14350937E+04</pdfrwt>
<totfact> 0.12864824E+01</totfact>
</mgrwt>
</event>
<event>
 6    1  0.1637818E-005  0.5375170E+04  0.7818608E-02  0.7773103E-01
          2   -1    0    0  501    0  0.00000000000E+00  0.00000000000E+00  0.21686335785E+04  0.21686335785E+04  0.00000000000E+00 0. -1.
         -2   -1    0    0    0  501 -0.00000000000E+00 -0.00000000000E+00 -0.33307214887E+04  0.33307214887E+04  0.00000000000E+00 0.  1.
         23    2    1    2    0    0 -0.20821284330E+04  0.39598294759E+02  0.11556858304E+04  0.23834439727E+04  0.91480029089E+02 0.  0.
         11    1    3    3    0    0 -0.11184818501E+04 -0.14258774076E+02  0.65307599359E+03  0.12952656929E+04  0.00000000000E+00 0.  1.
        -11    1    3    3    0    0 -0.96364658288E+03  0.53857068834E+02  0.50260983682E+03  0.10881782798E+04  0.00000000000E+00 0. -1.
         22    1    1    2    0    0  0.20821284330E+04 -0.39598294759E+02 -0.23177737406E+04  0.31159110946E+04  0.00000000000E+00 0.  1.
<mgrwt>
<rscale>  0 0.53751705E+04</rscale>
<asrwt>0</asrwt>
<pdfrwt beam="1">  1        2 0.33363594E+00 0.53751705E+04</pdfrwt>
<pdfrwt beam="2">  1       -2 0.51241869E+00 0.53751705E+04</pdfrwt>
<totfact> 0.53187544E-03</totfact>
</mgrwt>
</event>
<event>
 6    1  0.1637818E-005  0.3586986E+04  0.7818608E-02  0.8093479E-01
         -2   -1    0    0    0  501 -0.00000000000E+00  0.00000000000E+00  0.13930449471E+04  0.13930449471E+04  0.00000000000E+00 0.  1.
          2   -1    0    0  501    0  0.00000000000E+00 -0.00000000000E+00 -0.23090546022E+04  0.23090546022E+04  0.00000000000E+00 0. -1.
         23    2    1    2    0    0 -0.14107074079E+04 -0.43306505986E+03  0.59161417845E+03  0.15924620544E+04  0.91034728052E+02 0.  0.
         13    1    3    3    0    0 -0.86392140793E+03 -0.26183138795E+03  0.31399371802E+03  0.95577608766E+03  0.00000000000E+00 0.  1.
        -13    1    3    3    0    0 -0.54678599997E+03 -0.17123367191E+03  0.27762046043E+03  0.63668596671E+03  0.00000000000E+00 0. -1.
         22    1    1    2    0    0  0.14107074079E+04  0.43306505986E+03 -0.15076238335E+04  0.21096374950E+04  0.00000000000E+00 0. -1.
<mgrwt>
<rscale>  0 0.35869858E+04</rscale>
<asrwt>0</asrwt>
<pdfrwt beam="1">  1        2 0.35523916E+00 0.35869858E+04</pdfrwt>
<pdfrwt beam="2">  1       -2 0.21431461E+00 0.35869858E+04</pdfrwt>
<totfact> 0.39270486E-01</totfact>
</mgrwt>
</event>
<event>
 6    1  0.1637818E-005  0.1706213E+04  0.7818608E-02  0.8757829E-01
          1   -1    0    0  501    0  0.00000000000E+00  0.00000000000E+00  0.80332393858E+03  0.80332393858E+03  0.00000000000E+00 0. -1.
         -1   -1    0    0    0  501 -0.00000000000E+00 -0.00000000000E+00 -0.90597373209E+03  0.90597373209E+03  0.00000000000E+00 0.  1.
         23    2    1    2    0    0  0.22079137437E+03  0.45999713331E+03 -0.73338132351E+03  0.89802185038E+03  0.90823369474E+02 0.  0.
         13    1    3    3    0    0  0.71632586943E+02  0.20097506610E+03 -0.23966059183E+03  0.32087287823E+03  0.00000000000E+00 0. -1.
        -13    1    3    3    0    0  0.14915878743E+03  0.25902206720E+03 -0.49372073168E+03  0.57714897215E+03  0.00000000000E+00 0.  1.
         22    1    1    2    0    0 -0.22079137437E+03 -0.45999713331E+03  0.63073153000E+03  0.81127582029E+03  0.00000000000E+00 0. -1.
<mgrwt>
<rscale>  0 0.17062126E+04</rscale>
<asrwt>0</asrwt>
<pdfrwt beam="1">  1        1 0.12358830E+00 0.17062126E+04</pdfrwt>
<pdfrwt beam="2">  1       -1 0.13938057E+00 0.17062126E+04</pdfrwt>
<totfact> 0.88591887E+00</totfact>
</mgrwt>
</event>
<event>
 6    1  0.1637818E-005  0.1850657E+04  0.7818608E-02  0.8679815E-01
          2   -1    0    0  501    0  0.00000000000E+00  0.00000000000E+00  0.17205968969E+04  0.17205968969E+04  0.00000000000E+00 0. -1.
         -2   -1    0    0    0  501 -0.00000000000E+00 -0.00000000000E+00 -0.49763704835E+03  0.49763704835E+03  0.00000000000E+00 0.  1.
         23    2    1    2    0    0  0.34441612990E+03  0.58723685720E+03 -0.13419454245E+03  0.69990010910E+03  0.91555395804E+02 0.  0.
         11    1    3    3    0    0  0.14823048617E+03  0.23514870788E+03 -0.99941269742E+02  0.29539033370E+03  0.00000000000E+00 0. -1.
        -11    1    3    3    0    0  0.19618564373E+03  0.35208814932E+03 -0.34253272705E+02  0.40450977539E+03  0.00000000000E+00 0.  1.
         22    1    1    2    0    0 -0.34441612990E+03 -0.58723685720E+03  0.13571543910E+04  0.15183338362E+04  0.00000000000E+00 0.  1.
<mgrwt>
<rscale>  0 0.18506569E+04</rscale>
<asrwt>0</asrwt>
<pdfrwt beam="1">  1        2 0.26470721E+00 0.18506569E+04</pdfrwt>
<pdfrwt beam="2">  1       -2 0.76559546E-01 0.18506569E+04</pdfrwt>
<totfact> 0.13697710E+01</totfact>
</mgrwt>
</event>
<event>
 6    1  0.1637818E-005  0.2110646E+04  0.7818608E-02  0.8556568E-01
         -2   -1    0    0    0  501 -0.00000000000E+00  0.00000000000E+00  0.43485108814E+03  0.43485108814E+03  0.00000000000E+00 0.  1.
          2   -1    0    0  501    0  0.00000000000E+00 -0.00000000000E+00 -0.25611226337E+04  0.25611226337E+04  0.00000000000E+00 0. -1.
         23    2    1    2    0    0  0.17644561386E+03  0.96976501766E+03 -0.15924067576E+04  0.18749969799E+04  0.90978838194E+02 0.  0.
         13    1    3    3    0    0  0.99615406972E+02  0.35266834684E+03 -0.64172976359E+03  0.73899613101E+03  0.00000000000E+00 0.  1.
        -13    1    3    3    0    0  0.76830206889E+02  0.61709667082E+03 -0.95067699400E+03  0.11360008489E+04  0.00000000000E+00 0. -1.
         22    1    1    2    0    0 -0.17644561386E+03 -0.96976501766E+03 -0.53386478801E+03  0.11209767420E+04  0.00000000000E+00 0.  1.
<mgrwt>
<rscale>  0 0.21106463E+04</rscale>
<asrwt>0</asrwt>
<pdfrwt beam="1">  1        2 0.39401887E+00 0.21106463E+04</pdfrwt>
<pdfrwt beam="2">  1       -2 0.66900167E-01 0.21106463E+04</pdfrwt>
<totfact> 0.60604281E+00</totfact>
</mgrwt>
</event>
<event>
 6    1  0.1637818E-005  0.2308930E+04  0.7818608E-02  0.8474408E-01
          2   -1    0    0  501    0  0.00000000000E+00  0.00000000000E+00  0.54538921530E+03  0.54538921530E+03  0.00000000000E+00 0. -1.
         -2   -1    0    0    0  501 -0.00000000000E+00 -0.00000000000E+00 -0.24437405282E+04  0.24437405282E+04  0.00000000000E+00 0.  1.
         23    2    1    2    0    0  0.22090518510E+03 -0.10517853756E+04 -0.14893131775E+04  0.18391889739E+04  0.97523145414E+02 0.  0.
         11    1    3    3    0    0  0.99047887164E+02 -0.33960035949E+03 -0.42793076363E+03  0.55521493727E+03  0.00000000000E+00 0. -1.
        -11    1    3    3    0    0  0.12185729794E+03 -0.71218501616E+03 -0.10613824139E+04  0.12839740367E+04  0.00000000000E+00 0.  1.
         22    1    1    2    0    0 -0.22090518510E+03  0.10517853756E+04 -0.40903813535E+03  0.11499407695E+04  0.00000000000E+00 0.  1.
<mgrwt>
<rscale>  0 0.23089303E+04</rscale>
<asrwt>0</asrwt>
<pdfrwt beam="1">  1        2 0.83906033E-01 0.23089303E+04</pdfrwt>
<pdfrwt beam="2">  1       -2 0.37596008E+00 0.23089303E+04</pdfrwt>
<totfact> 0.53615587E-01</totfact>
</mgrwt>
</event>
<event>
 6    1  0.1637818E-005  0.7687481E+03  0.7818608E-02  0.9606388E-01
          1   -1    0    0  501    0  0.00000000000E+00  0.00000000000E+00  0.37554161674E+04  0.37554161674E+04  0.00000000000E+00 0. -1.
         -1   -1    0    0    0  501 -0.00000000000E+00 -0.00000000000E+00 -0.39341422023E+02  0.39341422023E+02  0.00000000000E+00 0.  1.
         23    2    1    2    0    0 -0.20633132256E+03 -0.31670733520E+03  0.20209413737E+04  0.20579924071E+04  0.90843606312E+02 0.  0.
         13    1    3    3    0    0 -0.16093178588E+03 -0.17449848673E+03  0.11343472588E+04  0.11589186620E+04  0.00000000000E+00 0.  1.
        -13    1    3    3    0    0 -0.45399536682E+02 -0.14220884847E+03  0.88659411492E+03  0.89907374510E+03  0.00000000000E+00 0. -1.
         22    1    1    2    0    0  0.20633132256E+03  0.31670733520E+03  0.16951333717E+04  0.17367651824E+04  0.00000000000E+00 0.  1.
<mgrwt>
<rscale>  0 0.76874811E+03</rscale>
<asrwt>0</asrwt>
<pdfrwt beam="1">  1        1 0.57775605E+00 0.76874811E+03</pdfrwt>
<pdfrwt beam="2">  1       -1 0.60525294E-02 0.76874811E+03</pdfrwt>
<totfact> 0.23266452E+01</totfact>
</mgrwt>
</event>
<event>
 6    1  0.1637818E-005  0.3545578E+04  0.7818608E-02  0.8103073E-01
          1   -1    0    0  501    0  0.00000000000E+00  0.00000000000E+00  0.27467580888E+04  0.27467580888E+04  0.00000000000E+00 0. -1.
         -1   -1    0    0    0  501 -0.00000000000E+00 -0.00000000000E+00 -0.11441779778E+04  0.11441779778E+04  0.00000000000E+00 0.  1.
         23    2    1    2    0    0  0.97368996410E+03  0.13901456043E+04  0.24431836866E+03  0.17171256084E+04  0.90840201736E+02 0.  0.
         13    1    3    3    0    0  0.91055070804E+03  0.12777764935E+04  0.20489970762E+03  0.15823398021E+04  0.00000000000E+00 0. -1.
        -13    1    3    3    0    0  0.63139256058E+02  0.11236911089E+03  0.39418661034E+02  0.13478580628E+03  0.00000000000E+00 0.  1.
         22    1    1    2    0    0 -0.97368996410E+03 -0.13901456043E+04  0.13582617424E+04  0.21738104582E+04  0.00000000000E+00 0. -1.
<mgrwt>
<rscale>  0 0.35455776E+04</rscale>
<asrwt>0</asrwt>
<pdfrwt beam="1">  1        1 0.42257817E+00 0.35455776E+04</pdfrwt>
<pdfrwt beam="2">  1       -1 0.17602738E+00 0.35455776E+04</pdfrwt>
<totfact> 0.16425200E-01</totfact>
</mgrwt>
</event>
<event>
 6    1  0.1637818E-005  0.2540953E+04  0.7818608E-02  0.8388539E-01
          1   -1    0    0  501    0  0.00000000000E+00  0.00000000000E+00  0.17741392590E+04  0.17741392590E+04  0.00000000000E+00 0. -1.
         -1   -1    0    0    0  501 -0.00000000000E+00 -0.00000000000E+00 -0.90979898677E+03  0.90979898677E+03  0.00000000000E+00 0.  1.
         23    2    1    2    0    0 -0.20882448235E+03 -0.33382022585E+03  0.17068010347E+04  0.17540007513E+04  0.91133176268E+02 0.  0.
         13    1    3    3    0    0 -0.20292339590E+03 -0.26446177942E+03  0.14600335553E+04  0.14976033921E+04  0.00000000000E+00 0. -1.
        -13    1    3    3    0    0 -0.59010864465E+01 -0.69358446422E+02  0.24676747933E+03  0.25639735912E+03  0.00000000000E+00 0.  1.
         22    1    1    2    0    0  0.20882448235E+03  0.33382022585E+03 -0.84246076240E+03  0.92993749457E+03  0.00000000000E+00 0.  1.
<mgrwt>
<rscale>  0 0.25409527E+04</rscale>
<asrwt>0</asrwt>
<pdfrwt beam="1">  1        1 0.27294450E+00 0.25409527E+04</pdfrwt>
<pdfrwt beam="2">  1       -1 0.13996907E+00 0.25409527E+04</pdfrwt>
<totfact> 0.15750650E+00</totfact>
</mgrwt>
</event>
<event>
 6    1  0.1637818E-005  0.1174307E+04  0.7818608E-02  0.9135648E-01
         -3   -1    0    0    0  501 -0.00000000000E+00  0.00000000000E+00  0.77317326376E+03  0.77317326376E+03  0.00000000000E+00 0.  1.
          3   -1    0    0  501    0  0.00000000000E+00 -0.00000000000E+00 -0.44588846276E+03  0.44588846276E+03  0.00000000000E+00 0. -1.
         23    2    1    2    0    0  0.14948176231E+03 -0.20480035168E+03  0.71019626857E+03  0.75981323898E+03  0.93002349041E+02 0.  0.
         11    1    3    3    0    0  0.95214077186E+01 -0.68301610290E+02  0.12414505557E+03  0.14201324585E+03  0.00000000000E+00 0. -1.
        -11    1    3    3    0    0  0.13996035459E+03 -0.13649874139E+03  0.58605121300E+03  0.61779999313E+03  0.00000000000E+00 0.  1.
         22    1    1    2    0    0 -0.14948176231E+03  0.20480035168E+03 -0.38291146757E+03  0.45924848754E+03  0.00000000000E+00 0. -1.
<mgrwt>
<rscale>  0 0.11743067E+04</rscale>
<asrwt>0</asrwt>
<pdfrwt beam="1">  1        3 0.68598225E-01 0.11743067E+04</pdfrwt>
<pdfrwt beam="2">  1       -3 0.11894973E+00 0.11743067E+04</pdfrwt>
<totfact> 0.30520294E+00</totfact>
</mgrwt>
</event>
<event>
 6    1  0.1637818E-005  0.1806697E+04  0.7818608E-02  0.8702746E-01
          1   -1    0    0  501    0  0.00000000000E+00  0.00000000000E+00  0.25862894986E+04  0.25862894986E+04  0.00000000000E+00 0. -1.
         -1   -1    0    0    0  501 -0.00000000000E+00 -0.00000000000E+00 -0.31552498407E+03  0.31552498407E+03  0.00000000000E+00 0.  1.
         23    2    1    2    0    0 -0.50262451379E+03 -0.36873959231E+03  0.21832661910E+04  0.22723256063E+04  0.90620702295E+02 0.  0.
         13    1    3    3    0    0 -0.18027310446E+03 -0.17465889503E+03  0.77333332775E+03  0.81304892695E+03  0.00000000000E+00 0. -1.
        -13    1    3    3    0    0 -0.32235140933E+03 -0.19408069728E+03  0.14099328632E+04  0.14592766794E+04  0.00000000000E+00 0.  1.
         22    1    1    2    0    0  0.50262451379E+03  0.36873959231E+03  0.87498323531E+02  0.62948887633E+03  0.00000000000E+00 0.  1.
<mgrwt>
<rscale>  0 0.18066975E+04</rscale>
<asrwt>0</asrwt>
<pdfrwt beam="1">  1        1 0.39789068E+00 0.18066975E+04</pdfrwt>
<pdfrwt beam="2">  1       -1 0.48542307E-01 0.18066975E+04</pdfrwt>
<totfact> 0.47300112E+00</totfact>
</mgrwt>
</event>
<event>
 6    1  0.1637818E-005  0.2053867E+04  0.7818608E-02  0.8581842E-01
         -2   -1    0    0    0  501 -0.00000000000E+00  0.00000000000E+00  0.77340890201E+03  0.77340890201E+03  0.00000000000E+00 0.  1.
          2   -1    0    0  501    0  0.00000000000E+00 -0.00000000000E+00 -0.13635633596E+04  0.13635633596E+04  0.00000000000E+00 0. -1.
         23    2    1    2    0    0 -0.80416832478E+03  0.62239889477E+03 -0.41247074522E+03  0.11046745427E+04  0.12691198098E+03 0.  0.
         13    1    3    3    0    0 -0.11249897364E+03  0.43798652388E+02 -0.73284045498E+02  0.14122638686E+03  0.00000000000E+00 0.  1.
        -13    1    3    3    0    0 -0.69166935114E+03  0.57860024239E+03 -0.33918669973E+03  0.96344815588E+03  0.00000000000E+00 0. -1.
         22    1    1    2    0    0  0.80416832478E+03 -0.62239889477E+03 -0.17768371240E+03  0.10322977189E+04  0.00000000000E+00 0. -1.
<mgrwt>
<rscale>  0 0.20538666E+04</rscale>
<asrwt>0</asrwt>
<pdfrwt beam="1">  1        2 0.20977898E+00 0.20538666E+04</pdfrwt>
<pdfrwt beam="2">  1       -2 0.11898599E+00 0.20538666E+04</pdfrwt>
<totfact> 0.76192840E+00</totfact>
</mgrwt>
</event>
<event>
 6    1  0.1637818E-005  0.1195298E+04  0.7818608E-02  0.9116982E-01
          2   -1    0    0  501    0  0.00000000000E+00  0.00000000000E+00  0.28923665867E+04  0.28923665867E+04  0.00000000000E+00 0. -1.
         -2   -1    0    0    0  501 -0.00000000000E+00 -0.00000000000E+00 -0.12349216461E+03  0.12349216461E+03  0.00000000000E+00 0.  1.
         23    2    1    2    0    0 -0.25693315098E+03 -0.52731894791E+03  0.16321847950E+04  0.17367406077E+04  0.90337238421E+02 0.  0.
         11    1    3    3    0    0 -0.12060625190E+03 -0.29097190734E+03  0.75396692884E+03  0.81711483198E+03  0.00000000000E+00 0.  1.
        -11    1    3    3    0    0 -0.13632689908E+03 -0.23634704057E+03  0.87821786612E+03  0.91962577572E+03  0.00000000000E+00 0. -1.
         22    1    1    2    0    0  0.25693315098E+03  0.52731894791E+03  0.11366896271E+04  0.12791181436E+04  0.00000000000E+00 0.  1.
<mgrwt>
<rscale>  0 0.11952985E+04</rscale>
<asrwt>0</asrwt>
<pdfrwt beam="1">  1        2 0.44497942E+00 0.11952985E+04</pdfrwt>
<pdfrwt beam="2">  1       -2 0.18998797E-01 0.11952985E+04</pdfrwt>
<totfact> 0.47483889E+01</totfact>
</mgrwt>
</event>
<event>
 6    1  0.1637818E-005  0.1063101E+04  0.7818608E-02  0.9241922E-01
         -2   -1    0    0    0  501 -0.00000000000E+00  0.00000000000E+00  0.55255508497E+03  0.55255508497E+03  0.00000000000E+00 0.  1.
          2   -1    0    0  501    0  0.00000000000E+00 -0.00000000000E+00 -0.51134402108E+03  0.51134402108E+03  0.00000000000E+00 0. -1.
         23    2    1    2    0    0  0.53755884158E+02  0.20602171673E+03 -0.46263447377E+03  0.51691193192E+03  0.88502238331E+02 0.  0.
         13    1    3    3    0    0  0.59582245055E+01  0.16563037236E+03 -0.36610336207E+03  0.40187136301E+03  0.00000000000E+00 0.  1.
        -13    1    3    3    0    0  0.47797659653E+02  0.40391344368E+02 -0.96531111704E+02  0.11504056891E+03  0.00000000000E+00 0. -1.
         22    1    1    2    0    0 -0.53755884158E+02 -0.20602171673E+03  0.50384553766E+03  0.54698717413E+03  0.00000000000E+00 0.  1.
<mgrwt>
<rscale>  0 0.10631006E+04</rscale>
<asrwt>0</asrwt>
<pdfrwt beam="1">  1        2 0.78668311E-01 0.10631006E+04</pdfrwt>
<pdfrwt beam="2">  1       -2 0.85008474E-01 0.10631006E+04</pdfrwt>
<totfact> 0.71944461E+01</totfact>
</mgrwt>
</event>
<event>
 6    1  0.1637818E-005  0.1778905E+04  0.7818608E-02  0.8717599E-01
          2   -1    0    0  501    0  0.00000000000E+00  0.00000000000E+00  0.11505174601E+04  0.11505174601E+04  0.00000000000E+00 0. -1.
         -2   -1    0    0    0  501 -0.00000000000E+00 -0.00000000000E+00 -0.68762587538E+03  0.68762587538E+03  0.00000000000E+00 0.  1.
         23    2    1    2    0    0  0.63355935713E+03 -0.17509191745E+02  0.87343683850E+03  0.10829933926E+04  0.90987618994E+02 0.  0.
         13    1    3    3    0    0  0.50745785759E+03 -0.50326853851E+02  0.69020152177E+03  0.85815174072E+03  0.00000000000E+00 0. -1.
        -13    1    3    3    0    0  0.12610149954E+03  0.32817662105E+02  0.18323531673E+03  0.22484165190E+03  0.00000000000E+00 0.  1.
         22    1    1    2    0    0 -0.63355935713E+03  0.17509191745E+02 -0.41054525378E+03  0.75514994286E+03  0.00000000000E+00 0.  1.
<mgrwt>
<rscale>  0 0.17789048E+04</rscale>
<asrwt>0</asrwt>
<pdfrwt beam="1">  1        2 0.17700269E+00 0.17789048E+04</pdfrwt>
<pdfrwt beam="2">  1       -2 0.10578860E+00 0.17789048E+04</pdfrwt>
<totfact> 0.13853660E+01</totfact>
</mgrwt>
</event>
<event>
 6    1  0.1637818E-005  0.1279136E+04  0.7818608E-02  0.9046276E-01
         -1   -1    0    0    0  501 -0.00000000000E+00  0.00000000000E+00  0.66040363743E+03  0.66040363743E+03  0.00000000000E+00 0.  1.
          1   -1    0    0  501    0  0.00000000000E+00 -0.00000000000E+00 -0.61938935753E+03  0.61938935753E+03  0.00000000000E+00 0. -1.
         23    2    1    2    0    0 -0.16284262707E+03 -0.55830612993E+03  0.27912488084E+03  0.65136629742E+03  0.90243550437E+02 0.  0.
         13    1    3    3    0    0 -0.81469542703E+02 -0.18203198565E+03  0.59339007458E+02  0.20807221822E+03  0.00000000000E+00 0. -1.
        -13    1    3    3    0    0 -0.81373084370E+02 -0.37627414428E+03  0.21978587338E+03  0.44329407920E+03  0.00000000000E+00 0.  1.
         22    1    1    2    0    0  0.16284262707E+03  0.55830612993E+03 -0.23811060094E+03  0.62842669755E+03  0.00000000000E+00 0.  1.
<mgrwt>
<rscale>  0 0.12791356E+04</rscale>
<asrwt>0</asrwt>
<pdfrwt beam="1">  1        1 0.95290670E-01 0.12791356E+04</pdfrwt>
<pdfrwt beam="2">  1       -1 0.10160056E+00 0.12791356E+04</pdfrwt>
<totfact> 0.29584370E+01</totfact>
</mgrwt>
</event>
<event>
 6    1  0.1758572E-005  0.1646128E+04  0.7818608E-02  0.8792700E-01
          2   -1    0    0  501    0  0.00000000000E+00  0.00000000000E+00  0.10302291445E+04  0.10302291445E+04  0.00000000000E+00 0. -1.
         -2   -1    0    0    0  501 -0.00000000000E+00 -0.00000000000E+00 -0.65755682906E+03  0.65755682906E+03  0.00000000000E+00 0.  1.
         23    2    1    2    0    0 -0.26511044564E+03 -0.75620148442E+03  0.36773151024E+03  0.88644419564E+03  0.91829270576E+02 0.  0.
         13    1    3    3    0    0 -0.10705855894E+03 -0.25206825136E+03  0.82392539825E+02  0.28598683362E+03  0.00000000000E+00 0.  1.
        -13    1    3    3    0    0 -0.15805188670E+03 -0.50413323306E+03  0.28533897042E+03  0.60045736202E+03  0.00000000000E+00 0. -1.
         22    1    1    2    0    0  0.26511044564E+03  0.75620148442E+03  0.49408051665E+01  0.80134177789E+03  0.00000000000E+00 0.  1.
<mgrwt>
<rscale>  0 0.16461278E+04</rscale>
<asrwt>0</asrwt>
<pdfrwt beam="1">  1        2 0.15849679E+00 0.16461278E+04</pdfrwt>
<pdfrwt beam="2">  1       -2 0.10116259E+00 0.16461278E+04</pdfrwt>
<totfact> 0.18503028E+01</totfact>
</mgrwt>
</event>
<event>
 6    1  0.1637818E-005  0.4189998E+04  0.7818608E-02  0.7967278E-01
          2   -1    0    0  501    0  0.00000000000E+00  0.00000000000E+00  0.28290306383E+04  0.28290306383E+04  0.00000000000E+00 0.  1.
         -2   -1    0    0    0  501 -0.00000000000E+00 -0.00000000000E+00 -0.15514221586E+04  0.15514221586E+04  0.00000000000E+00 0. -1.
         23    2    1    2    0    0  0.12798830737E+04 -0.16451636039E+04  0.84827912926E+03  0.22523109649E+04  0.93076503226E+02 0.  0.
         13    1    3    3    0    0  0.99059017047E+03 -0.12483730977E+04  0.60877169646E+03  0.17059622666E+04  0.00000000000E+00 0. -1.
        -13    1    3    3    0    0  0.28929290318E+03 -0.39679050627E+03  0.23950743281E+03  0.54634869824E+03  0.00000000000E+00 0.  1.
         22    1    1    2    0    0 -0.12798830737E+04  0.16451636039E+04  0.42932935036E+03  0.21281418320E+04  0.00000000000E+00 0.  1.
<mgrwt>
<rscale>  0 0.41899980E+04</rscale>
<asrwt>0</asrwt>
<pdfrwt beam="1">  1        2 0.43523548E+00 0.41899980E+04</pdfrwt>
<pdfrwt beam="2">  1       -2 0.23868033E+00 0.41899980E+04</pdfrwt>
<totfact> 0.13017637E-01</totfact>
</mgrwt>
</event>
<event>
 6    1  0.1637818E-005  0.4085352E+04  0.7818608E-02  0.7987546E-01
         -1   -1    0    0    0  501 -0.00000000000E+00  0.00000000000E+00  0.21438569062E+04  0.21438569062E+04  0.00000000000E+00 0.  1.
          1   -1    0    0  501    0  0.00000000000E+00 -0.00000000000E+00 -0.19462707395E+04  0.19462707395E+04  0.00000000000E+00 0. -1.
         23    2    1    2    0    0  0.22157994816E+03  0.40913348476E+03 -0.18914689430E+04  0.19498848714E+04  0.88929004640E+02 0.  0.
         13    1    3    3    0    0  0.12476924656E+03  0.27154904580E+03 -0.13591087618E+04  0.13915756809E+04  0.00000000000E+00 0.  1.
        -13    1    3    3    0    0  0.96810701595E+02  0.13758443896E+03 -0.53236018117E+03  0.55830919058E+03  0.00000000000E+00 0. -1.
         22    1    1    2    0    0 -0.22157994816E+03 -0.40913348476E+03  0.20890551097E+04  0.21402427743E+04  0.00000000000E+00 0.  1.
<mgrwt>
<rscale>  0 0.40853524E+04</rscale>
<asrwt>0</asrwt>
<pdfrwt beam="1">  1        1 0.29942627E+00 0.40853524E+04</pdfrwt>
<pdfrwt beam="2">  1       -1 0.32982414E+00 0.40853524E+04</pdfrwt>
<totfact> 0.53160397E-02</totfact>
</mgrwt>
</event>
<event>
 6    1  0.1637818E-005  0.5495153E+03  0.7818608E-02  0.1001606E+00
          1   -1    0    0  501    0  0.00000000000E+00  0.00000000000E+00  0.22325146989E+04  0.22325146989E+04  0.00000000000E+00 0. -1.
         -1   -1    0    0    0  501 -0.00000000000E+00 -0.00000000000E+00 -0.33814673324E+02  0.33814673324E+02  0.00000000000E+00 0.  1.
         23    2    1    2    0    0 -0.11549837839E+03  0.22443662371E+03  0.76712419190E+03  0.81267155793E+03  0.90795714680E+02 0.  0.
         13    1    3    3    0    0 -0.40854171403E+02  0.11671310692E+03  0.24613877403E+03  0.27545473082E+03  0.00000000000E+00 0.  1.
        -13    1    3    3    0    0 -0.74644206986E+02  0.10772351679E+03  0.52098541787E+03  0.53721682711E+03  0.00000000000E+00 0. -1.
         22    1    1    2    0    0  0.11549837839E+03 -0.22443662371E+03  0.14315758336E+04  0.14536578142E+04  0.00000000000E+00 0. -1.
<mgrwt>
<rscale>  0 0.54951526E+03</rscale>
<asrwt>0</asrwt>
<pdfrwt beam="1">  1        1 0.34346368E+00 0.54951526E+03</pdfrwt>
<pdfrwt beam="2">  1       -1 0.52022592E-02 0.54951526E+03</pdfrwt>
<totfact> 0.38078913E+02</totfact>
</mgrwt>
</event>
<event>
 6    1  0.1637818E-005  0.1340947E+04  0.7818608E-02  0.8997710E-01
          2   -1    0    0  501    0  0.00000000000E+00  0.00000000000E+00  0.21519637851E+04  0.21519637851E+04  0.00000000000E+00 0. -1.
         -2   -1    0    0    0  501 -0.00000000000E+00 -0.00000000000E+00 -0.20889499509E+03  0.20889499509E+03  0.00000000000E+00 0.  1.
         23    2    1    2    0    0  0.51280911429E+03 -0.85210131209E+02  0.23923743127E+03  0.57948985343E+03  0.91323532275E+02 0.  0.
         13    1    3    3    0    0  0.49771450884E+03 -0.64088387270E+02  0.22647844753E+03  0.55056293090E+03  0.00000000000E+00 0.  1.
        -13    1    3    3    0    0  0.15094605457E+02 -0.21121743938E+02  0.12758983743E+02  0.28926922530E+02  0.00000000000E+00 0. -1.
         22    1    1    2    0    0 -0.51280911429E+03  0.85210131209E+02  0.17038313587E+04  0.17813689267E+04  0.00000000000E+00 0. -1.
<mgrwt>
<rscale>  0 0.13409466E+04</rscale>
<asrwt>0</asrwt>
<pdfrwt beam="1">  1        2 0.33107134E+00 0.13409466E+04</pdfrwt>
<pdfrwt beam="2">  1       -2 0.32137693E-01 0.13409466E+04</pdfrwt>
<totfact> 0.48470094E+01</totfact>
</mgrwt>
</event>
<event>
 6    1  0.1637818E-005  0.1243029E+04  0.7818608E-02  0.9076005E-01
          2   -1    0    0  501    0  0.00000000000E+00  0.00000000000E+00  0.20506525193E+04  0.20506525193E+04  0.00000000000E+00 0. -1.
         -2   -1    0    0    0  501 -0.00000000000E+00 -0.00000000000E+00 -0.18836956882E+03  0.18836956882E+03  0.00000000000E+00 0.  1.
         23    2    1    2    0    0  0.12219244011E+03  0.39250814214E+03  0.10492350663E+03  0.43422130993E+03  0.92442250550E+02 0.  0.
         13    1    3    3    0    0  0.34301282916E+02  0.51504835102E+02 -0.12266779271E+02  0.63085655440E+02  0.00000000000E+00 0. -1.
        -13    1    3    3    0    0  0.87891157195E+02  0.34100330704E+03  0.11719028590E+03  0.37113565449E+03  0.00000000000E+00 0.  1.
         22    1    1    2    0    0 -0.12219244011E+03 -0.39250814214E+03  0.17573594438E+04  0.18048007782E+04  0.00000000000E+00 0. -1.
<mgrwt>
<rscale>  0 0.12430294E+04</rscale>
<asrwt>0</asrwt>
<pdfrwt beam="1">  1        2 0.31548499E+00 0.12430294E+04</pdfrwt>
<pdfrwt beam="2">  1       -2 0.28979935E-01 0.12430294E+04</pdfrwt>
<totfact> 0.67474350E+01</totfact>
</mgrwt>
</event>
<event>
 6    1  0.1637818E-005  0.3937157E+04  0.7818608E-02  0.8017345E-01
         -2   -1    0    0    0  501 -0.00000000000E+00  0.00000000000E+00  0.14039303946E+04  0.14039303946E+04  0.00000000000E+00 0.  1.
          2   -1    0    0  501    0  0.00000000000E+00 -0.00000000000E+00 -0.27603232916E+04  0.27603232916E+04  0.00000000000E+00 0. -1.
         23    2    1    2    0    0  0.31247554034E+03  0.18579868422E+04 -0.12778712792E+04  0.22785385132E+04  0.95008846830E+02 0.  0.
         11    1    3    3    0    0  0.16438761420E+03  0.90314310374E+03 -0.67799707559E+03  0.11412146109E+04  0.00000000000E+00 0. -1.
        -11    1    3    3    0    0  0.14808792614E+03  0.95484373845E+03 -0.59987420360E+03  0.11373239024E+04  0.00000000000E+00 0.  1.
         22    1    1    2    0    0 -0.31247554034E+03 -0.18579868422E+04 -0.78521617727E+02  0.18857151730E+04  0.00000000000E+00 0.  1.
<mgrwt>
<rscale>  0 0.39371572E+04</rscale>
<asrwt>0</asrwt>
<pdfrwt beam="1">  1        2 0.42466512E+00 0.39371572E+04</pdfrwt>
<pdfrwt beam="2">  1       -2 0.21598929E+00 0.39371572E+04</pdfrwt>
<totfact> 0.20302319E-01</totfact>
</mgrwt>
</event>
<event>
 6    1  0.1637818E-005  0.9997753E+03  0.7818608E-02  0.9308791E-01
         -2   -1    0    0    0  501 -0.00000000000E+00  0.00000000000E+00  0.10629982598E+03  0.10629982598E+03  0.00000000000E+00 0.  1.
          2   -1    0    0  501    0  0.00000000000E+00 -0.00000000000E+00 -0.23507812723E+04  0.23507812723E+04  0.00000000000E+00 0. -1.
         23    2    1    2    0    0 -0.17813164899E+03  0.38679701392E+03 -0.50852608872E+03  0.66965730468E+03  0.92191694075E+02 0.  0.
         13    1    3    3    0    0 -0.59895347514E+02  0.17861085787E+03 -0.16197231896E+03  0.24844380312E+03  0.00000000000E+00 0. -1.
        -13    1    3    3    0    0 -0.11823630148E+03  0.20818615605E+03 -0.34655376976E+03  0.42121350156E+03  0.00000000000E+00 0.  1.
         22    1    1    2    0    0  0.17813164899E+03 -0.38679701392E+03 -0.17359553576E+04  0.17874237936E+04  0.00000000000E+00 0. -1.
<mgrwt>
<rscale>  0 0.99977526E+03</rscale>
<asrwt>0</asrwt>
<pdfrwt beam="1">  1        2 0.36165863E+00 0.99977526E+03</pdfrwt>
<pdfrwt beam="2">  1       -2 0.16353821E-01 0.99977526E+03</pdfrwt>
<totfact> 0.12956683E+02</totfact>
</mgrwt>
</event>
<event>
 6    1  0.1637818E-005  0.1838173E+04  0.7818608E-02  0.8686259E-01
         -2   -1    0    0    0  501 -0.00000000000E+00  0.00000000000E+00  0.30012870625E+03  0.30012870625E+03  0.00000000000E+00 0. -1.
          2   -1    0    0  501    0  0.00000000000E+00 -0.00000000000E+00 -0.28145262858E+04  0.28145262858E+04  0.00000000000E+00 0.  1.
         23    2    1    2    0    0  0.73637688530E+03  0.29223871005E+03 -0.47884098159E+03  0.93035990110E+03  0.92878840737E+02 0.  0.
         11    1    3    3    0    0  0.18944772913E+03  0.93197331309E+02 -0.84948416087E+02  0.22757947629E+03  0.00000000000E+00 0.  1.
        -11    1    3    3    0    0  0.54692915617E+03  0.19904137875E+03 -0.39389256550E+03  0.70278042480E+03  0.00000000000E+00 0. -1.
         22    1    1    2    0    0 -0.73637688530E+03 -0.29223871005E+03 -0.20355565979E+04  0.21842950909E+04  0.00000000000E+00 0.  1.
<mgrwt>
<rscale>  0 0.18381732E+04</rscale>
<asrwt>0</asrwt>
<pdfrwt beam="1">  1        2 0.43300406E+00 0.18381732E+04</pdfrwt>
<pdfrwt beam="2">  1       -2 0.46173646E-01 0.18381732E+04</pdfrwt>
<totfact> 0.95077125E+00</totfact>
</mgrwt>
</event>
<event>
 6    1  0.1637818E-005  0.5185959E+03  0.7818608E-02  0.1009036E+00
          1   -1    0    0  501    0  0.00000000000E+00  0.00000000000E+00  0.55872648700E+03  0.55872648700E+03  0.00000000000E+00 0. -1.
         -1   -1    0    0    0  501 -0.00000000000E+00 -0.00000000000E+00 -0.12033690709E+03  0.12033690709E+03  0.00000000000E+00 0.  1.
         23    2    1    2    0    0  0.94511526448E+02  0.15275186029E+03 -0.41259937270E+01  0.20148032030E+03  0.91168723748E+02 0.  0.
         11    1    3    3    0    0  0.43670730491E+02  0.12363623838E+03 -0.34362923303E+02  0.13555022184E+03  0.00000000000E+00 0. -1.
        -11    1    3    3    0    0  0.50840795957E+02  0.29115621908E+02  0.30236929576E+02  0.65930098459E+02  0.00000000000E+00 0.  1.
         22    1    1    2    0    0 -0.94511526448E+02 -0.15275186029E+03  0.44251557364E+03  0.47758307379E+03  0.00000000000E+00 0. -1.
<mgrwt>
<rscale>  0 0.51859586E+03</rscale>
<asrwt>0</asrwt>
<pdfrwt beam="1">  1        1 0.85957920E-01 0.51859586E+03</pdfrwt>
<pdfrwt beam="2">  1       -1 0.18513371E-01 0.51859586E+03</pdfrwt>
<totfact> 0.88775765E+02</totfact>
</mgrwt>
</event>
<event>
 6    1  0.1637818E-005  0.2296816E+04  0.7818608E-02  0.8479178E-01
          2   -1    0    0  501    0  0.00000000000E+00  0.00000000000E+00  0.18161683873E+04  0.18161683873E+04  0.00000000000E+00 0. -1.
         -2   -1    0    0    0  501 -0.00000000000E+00 -0.00000000000E+00 -0.72616663495E+03  0.72616663495E+03  0.00000000000E+00 0.  1.
         23    2    1    2    0    0 -0.88477805887E+03 -0.59302142195E+03  0.76073306642E+02  0.10717713503E+04  0.91651835314E+02 0.  0.
         11    1    3    3    0    0 -0.50540550110E+03 -0.36149177953E+03  0.85471002318E+02  0.62722908052E+03  0.00000000000E+00 0.  1.
        -11    1    3    3    0    0 -0.37937255777E+03 -0.23152964241E+03 -0.93976956755E+01  0.44454226974E+03  0.00000000000E+00 0. -1.
         22    1    1    2    0    0  0.88477805887E+03  0.59302142195E+03  0.10139284457E+04  0.14705636720E+04  0.00000000000E+00 0. -1.
<mgrwt>
<rscale>  0 0.22968160E+04</rscale>
<asrwt>0</asrwt>
<pdfrwt beam="1">  1        2 0.27941052E+00 0.22968160E+04</pdfrwt>
<pdfrwt beam="2">  1       -2 0.11171794E+00 0.22968160E+04</pdfrwt>
<totfact> 0.48503038E+00</totfact>
</mgrwt>
</event>
<event>
 6    1  0.1637818E-005  0.2728662E+04  0.7818608E-02  0.8325765E-01
          2   -1    0    0  501    0  0.00000000000E+00  0.00000000000E+00  0.29348843118E+04  0.29348843118E+04  0.00000000000E+00 0. -1.
         -2   -1    0    0    0  501 -0.00000000000E+00 -0.00000000000E+00 -0.63423261053E+03  0.63423261053E+03  0.00000000000E+00 0.  1.
         23    2    1    2    0    0 -0.79270555784E+03  0.37008767465E+03 -0.21524440139E+03  0.90545774974E+03  0.90424531398E+02 0.  0.
         11    1    3    3    0    0 -0.35968864991E+03  0.13362523101E+03 -0.60940285625E+02  0.38851685376E+03  0.00000000000E+00 0. -1.
        -11    1    3    3    0    0 -0.43301690793E+03  0.23646244363E+03 -0.15430411576E+03  0.51694089598E+03  0.00000000000E+00 0.  1.
         22    1    1    2    0    0  0.79270555784E+03 -0.37008767465E+03  0.25158961027E+04  0.26636591726E+04  0.00000000000E+00 0. -1.
<mgrwt>
<rscale>  0 0.27286622E+04</rscale>
<asrwt>0</asrwt>
<pdfrwt beam="1">  1        2 0.45152066E+00 0.27286622E+04</pdfrwt>
<pdfrwt beam="2">  1       -2 0.97574249E-01 0.27286622E+04</pdfrwt>
<totfact> 0.14641825E+00</totfact>
</mgrwt>
</event>
<event>
 6    1  0.1637818E-005  0.4437719E+04  0.7818608E-02  0.7921632E-01
         -1   -1    0    0    0  501 -0.00000000000E+00  0.00000000000E+00  0.13737790872E+04  0.13737790872E+04  0.00000000000E+00 0.  1.
          1   -1    0    0  501    0  0.00000000000E+00 -0.00000000000E+00 -0.35837917313E+04  0.35837917313E+04  0.00000000000E+00 0. -1.
         23    2    1    2    0    0  0.62402907912E+03 -0.28905277743E+02  0.12723983071E+04  0.14195722544E+04  0.77072218019E+02 0.  0.
         13    1    3    3    0    0  0.24440389302E+03  0.21377905269E+02  0.53934285268E+03  0.59252087769E+03  0.00000000000E+00 0.  1.
        -13    1    3    3    0    0  0.37962518610E+03 -0.50283183012E+02  0.73305545442E+03  0.82705137668E+03  0.00000000000E+00 0. -1.
         22    1    1    2    0    0 -0.62402907912E+03  0.28905277743E+02 -0.34824109512E+04  0.35379985641E+04  0.00000000000E+00 0. -1.
<mgrwt>
<rscale>  0 0.44377193E+04</rscale>
<asrwt>0</asrwt>
<pdfrwt beam="1">  1        1 0.55135256E+00 0.44377193E+04</pdfrwt>
<pdfrwt beam="2">  1       -1 0.21135063E+00 0.44377193E+04</pdfrwt>
<totfact> 0.20343117E-02</totfact>
</mgrwt>
</event>
<event>
 6    1  0.1637818E-005  0.3545783E+04  0.7818608E-02  0.8103025E-01
         -2   -1    0    0    0  501 -0.00000000000E+00  0.00000000000E+00  0.94655796884E+03  0.94655796884E+03  0.00000000000E+00 0.  1.
          2   -1    0    0  501    0  0.00000000000E+00 -0.00000000000E+00 -0.33206040404E+04  0.33206040404E+04  0.00000000000E+00 0. -1.
         23    2    1    2    0    0 -0.63826862410E+03 -0.42751738596E+03  0.73338114578E+03  0.10661837427E+04  0.93498215981E+02 0.  0.
         13    1    3    3    0    0 -0.32527090420E+03 -0.21517195769E+03  0.30790193999E+03  0.49689409047E+03  0.00000000000E+00 0.  1.
        -13    1    3    3    0    0 -0.31299771990E+03 -0.21234542827E+03  0.42547920579E+03  0.56928965222E+03  0.00000000000E+00 0. -1.
         22    1    1    2    0    0  0.63826862410E+03  0.42751738596E+03 -0.31074272174E+04  0.32009782666E+04  0.00000000000E+00 0. -1.
<mgrwt>
<rscale>  0 0.35457830E+04</rscale>
<asrwt>0</asrwt>
<pdfrwt beam="1">  1        2 0.51086216E+00 0.35457830E+04</pdfrwt>
<pdfrwt beam="2">  1       -2 0.14562430E+00 0.35457830E+04</pdfrwt>
<totfact> 0.28583875E-01</totfact>
</mgrwt>
</event>
<event>
 6    1  0.1637818E-005  0.2539731E+04  0.7818608E-02  0.8388966E-01
         -3   -1    0    0    0  501 -0.00000000000E+00  0.00000000000E+00  0.91153189702E+03  0.91153189702E+03  0.00000000000E+00 0.  1.
          3   -1    0    0  501    0  0.00000000000E+00 -0.00000000000E+00 -0.17690644840E+04  0.17690644840E+04  0.00000000000E+00 0. -1.
         23    2    1    2    0    0  0.20153316942E+03  0.56872043838E+03  0.74798266810E+03  0.96544688616E+03  0.92471956919E+02 0.  0.
         11    1    3    3    0    0  0.11831410604E+03  0.24595221384E+03  0.28123056155E+03  0.39189456227E+03  0.00000000000E+00 0. -1.
        -11    1    3    3    0    0  0.83219063370E+02  0.32276822454E+03  0.46675210655E+03  0.57355232390E+03  0.00000000000E+00 0.  1.
         22    1    1    2    0    0 -0.20153316942E+03 -0.56872043838E+03 -0.16055152551E+04  0.17151494948E+04  0.00000000000E+00 0. -1.
<mgrwt>
<rscale>  0 0.25397312E+04</rscale>
<asrwt>0</asrwt>
<pdfrwt beam="1">  1        3 0.27216377E+00 0.25397312E+04</pdfrwt>
<pdfrwt beam="2">  1       -3 0.14023568E+00 0.25397312E+04</pdfrwt>
<totfact> 0.49065367E-02</totfact>
</mgrwt>
</event>
<event>
 6    1  0.1637818E-005  0.2567294E+04  0.7818608E-02  0.8379396E-01
         -2   -1    0    0    0  501 -0.00000000000E+00  0.00000000000E+00  0.61743733510E+03  0.61743733510E+03  0.00000000000E+00 0.  1.
          2   -1    0    0  501    0  0.00000000000E+00 -0.00000000000E+00 -0.26686913141E+04  0.26686913141E+04  0.00000000000E+00 0. -1.
         23    2    1    2    0    0 -0.71336469415E+03 -0.67875295696E+01  0.33608473586E+03  0.79447831319E+03  0.96475815829E+02 0.  0.
         11    1    3    3    0    0 -0.14119050611E+03 -0.34206092223E+02  0.45993979117E+02  0.15238196047E+03  0.00000000000E+00 0.  1.
        -11    1    3    3    0    0 -0.57217418804E+03  0.27418562654E+02  0.29009075674E+03  0.64209635273E+03  0.00000000000E+00 0. -1.
         22    1    1    2    0    0  0.71336469415E+03  0.67875295696E+01 -0.23873387149E+04  0.24916503360E+04  0.00000000000E+00 0. -1.
<mgrwt>
<rscale>  0 0.25672940E+04</rscale>
<asrwt>0</asrwt>
<pdfrwt beam="1">  1        2 0.41056789E+00 0.25672940E+04</pdfrwt>
<pdfrwt beam="2">  1       -2 0.94990360E-01 0.25672940E+04</pdfrwt>
<totfact> 0.22914313E+00</totfact>
</mgrwt>
</event>
<event>
 6    1  0.1637818E-005  0.2176506E+04  0.7818608E-02  0.8528271E-01
          2   -1    0    0  501    0  0.00000000000E+00  0.00000000000E+00  0.13317888232E+04  0.13317888232E+04  0.00000000000E+00 0. -1.
         -2   -1    0    0    0  501 -0.00000000000E+00 -0.00000000000E+00 -0.88925115601E+03  0.88925115601E+03  0.00000000000E+00 0.  1.
         23    2    1    2    0    0  0.16639947045E+03  0.13712553062E+03  0.13081936463E+04  0.13289343413E+04  0.90574126159E+02 0.  0.
         13    1    3    3    0    0  0.39342873116E+02 -0.79767939429E+01  0.18540581486E+03  0.18970189006E+03  0.00000000000E+00 0.  1.
        -13    1    3    3    0    0  0.12705659734E+03  0.14510232456E+03  0.11227878314E+04  0.11392324512E+04  0.00000000000E+00 0. -1.
         22    1    1    2    0    0 -0.16639947045E+03 -0.13712553062E+03 -0.86565597915E+03  0.89210563789E+03  0.00000000000E+00 0.  1.
<mgrwt>
<rscale>  0 0.21765061E+04</rscale>
<asrwt>0</asrwt>
<pdfrwt beam="1">  1        2 0.20489059E+00 0.21765061E+04</pdfrwt>
<pdfrwt beam="2">  1       -2 0.13680787E+00 0.21765061E+04</pdfrwt>
<totfact> 0.55327455E+00</totfact>
</mgrwt>
</event>
<event>
 6    1  0.1637818E-005  0.9056181E+03  0.7818608E-02  0.9418586E-01
          1   -1    0    0  501    0  0.00000000000E+00  0.00000000000E+00  0.17801491106E+03  0.17801491106E+03  0.00000000000E+00 0. -1.
         -1   -1    0    0    0  501 -0.00000000000E+00 -0.00000000000E+00 -0.11517914321E+04  0.11517914321E+04  0.00000000000E+00 0.  1.
         23    2    1    2    0    0 -0.21718910021E+03  0.29617332573E+03 -0.11801412285E+03  0.39856038947E+03  0.10016639522E+03 0.  0.
         11    1    3    3    0    0 -0.14789289530E+02  0.83471340137E+02 -0.45138082857E+02  0.96039753399E+02  0.00000000000E+00 0.  1.
        -11    1    3    3    0    0 -0.20239981068E+03  0.21270198560E+03 -0.72876039998E+02  0.30252063607E+03  0.00000000000E+00 0. -1.
         22    1    1    2    0    0  0.21718910021E+03 -0.29617332573E+03 -0.85576239820E+03  0.93124595371E+03  0.00000000000E+00 0.  1.
<mgrwt>
<rscale>  0 0.90561813E+03</rscale>
<asrwt>0</asrwt>
<pdfrwt beam="1">  1        1 0.27386909E-01 0.90561813E+03</pdfrwt>
<pdfrwt beam="2">  1       -1 0.17719868E+00 0.90561813E+03</pdfrwt>
<totfact> 0.38143931E+01</totfact>
</mgrwt>
</event>
<event>
 6    1  0.1637818E-005  0.7268271E+03  0.7818608E-02  0.9672423E-01
         -2   -1    0    0    0  501 -0.00000000000E+00  0.00000000000E+00  0.73401692663E+02  0.73401692663E+02  0.00000000000E+00 0.  1.
          2   -1    0    0  501    0  0.00000000000E+00 -0.00000000000E+00 -0.17992692850E+04  0.17992692850E+04  0.00000000000E+00 0. -1.
         23    2    1    2    0    0  0.25389350871E+03  0.14581038362E+03 -0.14062447818E+04  0.14392181859E+04  0.90011212157E+02 0.  0.
         13    1    3    3    0    0  0.18512550498E+03  0.83048492224E+02 -0.77389310079E+03  0.80004939604E+03  0.00000000000E+00 0.  1.
        -13    1    3    3    0    0  0.68768003730E+02  0.62761891395E+02 -0.63235168106E+03  0.63916878982E+03  0.00000000000E+00 0. -1.
         22    1    1    2    0    0 -0.25389350871E+03 -0.14581038362E+03 -0.31962281052E+03  0.43345279182E+03  0.00000000000E+00 0. -1.
<mgrwt>
<rscale>  0 0.72682711E+03</rscale>
<asrwt>0</asrwt>
<pdfrwt beam="1">  1        2 0.27681070E+00 0.72682711E+03</pdfrwt>
<pdfrwt beam="2">  1       -2 0.11292567E-01 0.72682711E+03</pdfrwt>
<totfact> 0.49570276E+02</totfact>
</mgrwt>
</event>
<event>
 6    1  0.1637818E-005  0.3256957E+04  0.7818608E-02  0.8173935E-01
         -2   -1    0    0    0  501 -0.00000000000E+00  0.00000000000E+00  0.17385555914E+04  0.17385555914E+04  0.00000000000E+00 0.  1.
          2   -1    0    0  501    0  0.00000000000E+00 -0.00000000000E+00 -0.15253708535E+04  0.15253708535E+04  0.00000000000E+00 0. -1.
         23    2    1    2    0    0  0.81165956777E+03  0.24572915310E+03 -0.12849877216E+04  0.15423879500E+04  0.92698829623E+02 0.  0.
         13    1    3    3    0    0  0.64450488932E+03  0.21212869759E+03 -0.96277024730E+03  0.11778419613E+04  0.00000000000E+00 0. -1.
        -13    1    3    3    0    0  0.16715467845E+03  0.33600455509E+02 -0.32221747432E+03  0.36454598873E+03  0.00000000000E+00 0.  1.
         22    1    1    2    0    0 -0.81165956777E+03 -0.24572915310E+03  0.14981724595E+04  0.17215384948E+04  0.00000000000E+00 0.  1.
<mgrwt>
<rscale>  0 0.32569569E+04</rscale>
<asrwt>0</asrwt>
<pdfrwt beam="1">  1        2 0.23467244E+00 0.32569569E+04</pdfrwt>
<pdfrwt beam="2">  1       -2 0.26747009E+00 0.32569569E+04</pdfrwt>
<totfact> 0.51699678E-01</totfact>
</mgrwt>
</event>
<event>
 6    1  0.1637818E-005  0.1850809E+04  0.7818608E-02  0.8679737E-01
         -2   -1    0    0    0  501 -0.00000000000E+00  0.00000000000E+00  0.10474290526E+04  0.10474290526E+04  0.00000000000E+00 0.  1.
          2   -1    0    0  501    0  0.00000000000E+00 -0.00000000000E+00 -0.81759572106E+03  0.81759572106E+03  0.00000000000E+00 0. -1.
         23    2    1    2    0    0 -0.19806278845E+02  0.90476848310E+03 -0.67940141569E+02  0.91230900387E+03  0.93239256888E+02 0.  0.
         11    1    3    3    0    0 -0.45682157964E+02  0.52318892331E+03 -0.70170524221E+02  0.52984659242E+03  0.00000000000E+00 0. -1.
        -11    1    3    3    0    0  0.25875879119E+02  0.38157955979E+03  0.22303826522E+01  0.38246241146E+03  0.00000000000E+00 0.  1.
         22    1    1    2    0    0  0.19806278845E+02 -0.90476848310E+03  0.29777347307E+03  0.95271576976E+03  0.00000000000E+00 0. -1.
<mgrwt>
<rscale>  0 0.18508090E+04</rscale>
<asrwt>0</asrwt>
<pdfrwt beam="1">  1        2 0.12578396E+00 0.18508090E+04</pdfrwt>
<pdfrwt beam="2">  1       -2 0.16114293E+00 0.18508090E+04</pdfrwt>
<totfact> 0.77681947E+00</totfact>
</mgrwt>
</event>
<event>
 6    1  0.1637818E-005  0.2014358E+04  0.7818608E-02  0.8599937E-01
         -2   -1    0    0    0  501 -0.00000000000E+00  0.00000000000E+00  0.48848535137E+03  0.48848535137E+03  0.00000000000E+00 0.  1.
          2   -1    0    0  501    0  0.00000000000E+00 -0.00000000000E+00 -0.20766419639E+04  0.20766419639E+04  0.00000000000E+00 0. -1.
         23    2    1    2    0    0 -0.82058433106E+03 -0.11840305367E+03 -0.72077488593E+02  0.83715919128E+03  0.90897852962E+02 0.  0.
         11    1    3    3    0    0 -0.53954474005E+03 -0.61776546269E+02 -0.87421269707E+02  0.55006122076E+03  0.00000000000E+00 0.  1.
        -11    1    3    3    0    0 -0.28103959101E+03 -0.56626507402E+02  0.15343781114E+02  0.28709797052E+03  0.00000000000E+00 0. -1.
         22    1    1    2    0    0  0.82058433106E+03  0.11840305367E+03 -0.15160791239E+04  0.17279681240E+04  0.00000000000E+00 0. -1.
<mgrwt>
<rscale>  0 0.20143576E+04</rscale>
<asrwt>0</asrwt>
<pdfrwt beam="1">  1        2 0.31948338E+00 0.20143576E+04</pdfrwt>
<pdfrwt beam="2">  1       -2 0.75151593E-01 0.20143576E+04</pdfrwt>
<totfact> 0.89318780E+00</totfact>
</mgrwt>
</event>
<event>
 6    1  0.1637818E-005  0.4380920E+04  0.7818608E-02  0.7931822E-01
         -2   -1    0    0    0  501 -0.00000000000E+00  0.00000000000E+00  0.11898351715E+04  0.11898351715E+04  0.00000000000E+00 0.  1.
          2   -1    0    0  501    0  0.00000000000E+00 -0.00000000000E+00 -0.40325872265E+04  0.40325872265E+04  0.00000000000E+00 0. -1.
         23    2    1    2    0    0 -0.86854251259E+03  0.16189721354E+04 -0.28417763326E+04  0.33851859343E+04  0.91401390556E+02 0.  0.
         13    1    3    3    0    0 -0.56710195046E+03  0.10460570527E+04 -0.19192161320E+04  0.22581475906E+04  0.00000000000E+00 0.  1.
        -13    1    3    3    0    0 -0.30144056213E+03  0.57291508271E+03 -0.92256020057E+03  0.11270383437E+04  0.00000000000E+00 0. -1.
         22    1    1    2    0    0  0.86854251259E+03 -0.16189721354E+04 -0.97572237932E+00  0.18372364636E+04  0.00000000000E+00 0.  1.
<mgrwt>
<rscale>  0 0.43809196E+04</rscale>
<asrwt>0</asrwt>
<pdfrwt beam="1">  1        2 0.62039803E+00 0.43809196E+04</pdfrwt>
<pdfrwt beam="2">  1       -2 0.18305157E+00 0.43809196E+04</pdfrwt>
<totfact> 0.42354453E-02</totfact>
</mgrwt>
</event>
<event>
 6    1  0.1637818E-005  0.2004023E+04  0.7818608E-02  0.8604742E-01
         -2   -1    0    0    0  501 -0.00000000000E+00  0.00000000000E+00  0.21036988311E+04  0.21036988311E+04  0.00000000000E+00 0.  1.
          2   -1    0    0  501    0  0.00000000000E+00 -0.00000000000E+00 -0.47726742369E+03  0.47726742369E+03  0.00000000000E+00 0. -1.
         23    2    1    2    0    0 -0.36325457174E+03 -0.21258288323E+03  0.19830696178E+04  0.20292995264E+04  0.91356951872E+02 0.  0.
         13    1    3    3    0    0 -0.15601950525E+03 -0.13823797068E+03  0.86538912399E+03  0.89014052738E+03  0.00000000000E+00 0. -1.
        -13    1    3    3    0    0 -0.20723506648E+03 -0.74344912553E+02  0.11176804938E+04  0.11391589990E+04  0.00000000000E+00 0.  1.
         22    1    1    2    0    0  0.36325457174E+03  0.21258288323E+03 -0.35663821037E+03  0.55166672841E+03  0.00000000000E+00 0. -1.
<mgrwt>
<rscale>  0 0.20040229E+04</rscale>
<asrwt>0</asrwt>
<pdfrwt beam="1">  1        2 0.73425758E-01 0.20040229E+04</pdfrwt>
<pdfrwt beam="2">  1       -2 0.32364597E+00 0.20040229E+04</pdfrwt>
<totfact> 0.13745550E+00</totfact>
</mgrwt>
</event>
<event>
 6    1  0.1637818E-005  0.2358571E+04  0.7818608E-02  0.8455179E-01
         -2   -1    0    0    0  501 -0.00000000000E+00  0.00000000000E+00  0.10747109291E+04  0.10747109291E+04  0.00000000000E+00 0. -1.
          2   -1    0    0  501    0  0.00000000000E+00 -0.00000000000E+00 -0.12940353202E+04  0.12940353202E+04  0.00000000000E+00 0.  1.
         23    2    1    2    0    0  0.32465134586E+03 -0.22228644331E+03 -0.12243720064E+04  0.12894268025E+04  0.93407225072E+02 0.  0.
         13    1    3    3    0    0  0.16837120149E+02 -0.49841981501E+01 -0.14746486587E+03  0.14850662448E+03  0.00000000000E+00 0. -1.
        -13    1    3    3    0    0  0.30781422571E+03 -0.21730224516E+03 -0.10769071406E+04  0.11409201781E+04  0.00000000000E+00 0.  1.
         22    1    1    2    0    0 -0.32465134586E+03  0.22228644331E+03  0.10050476153E+04  0.10793194468E+04  0.00000000000E+00 0. -1.
<mgrwt>
<rscale>  0 0.23585707E+04</rscale>
<asrwt>0</asrwt>
<pdfrwt beam="1">  1        2 0.19908236E+00 0.23585707E+04</pdfrwt>
<pdfrwt beam="2">  1       -2 0.16534014E+00 0.23585707E+04</pdfrwt>
<totfact> 0.34617760E+00</totfact>
</mgrwt>
</event>
<event>
 6    1  0.1637818E-005  0.2701843E+04  0.7818608E-02  0.8334407E-01
         -1   -1    0    0    0  501 -0.00000000000E+00  0.00000000000E+00  0.89748373995E+03  0.89748373995E+03  0.00000000000E+00 0.  1.
          1   -1    0    0  501    0  0.00000000000E+00 -0.00000000000E+00 -0.20334504513E+04  0.20334504513E+04  0.00000000000E+00 0. -1.
         23    2    1    2    0    0 -0.82637575995E+03  0.10365457453E+04 -0.29521911028E+03  0.13611633457E+04  0.91034894092E+02 0.  0.
         11    1    3    3    0    0 -0.25417132619E+03  0.29517578520E+03 -0.12669067343E+03  0.40961241920E+03  0.00000000000E+00 0. -1.
        -11    1    3    3    0    0 -0.57220443376E+03  0.74136996011E+03 -0.16852843685E+03  0.95155092654E+03  0.00000000000E+00 0.  1.
         22    1    1    2    0    0  0.82637575995E+03 -0.10365457453E+04 -0.84074760111E+03  0.15697708456E+04  0.00000000000E+00 0. -1.
<mgrwt>
<rscale>  0 0.27018429E+04</rscale>
<asrwt>0</asrwt>
<pdfrwt beam="1">  1        1 0.31283852E+00 0.27018429E+04</pdfrwt>
<pdfrwt beam="2">  1       -1 0.13807442E+00 0.27018429E+04</pdfrwt>
<totfact> 0.10728726E+00</totfact>
</mgrwt>
</event>
<event>
 6    1  0.1637818E-005  0.1725768E+04  0.7818608E-02  0.8746803E-01
          1   -1    0    0  501    0  0.00000000000E+00  0.00000000000E+00  0.14627936230E+04  0.14627936230E+04  0.00000000000E+00 0. -1.
         -1   -1    0    0    0  501 -0.00000000000E+00 -0.00000000000E+00 -0.50900439828E+03  0.50900439828E+03  0.00000000000E+00 0.  1.
         23    2    1    2    0    0  0.27696222325E+03 -0.46355321207E+03 -0.28714298850E+03  0.61846790215E+03  0.91988024254E+02 0.  0.
         11    1    3    3    0    0  0.11409263653E+03 -0.11430204328E+03 -0.10124980984E+03  0.19061377390E+03  0.00000000000E+00 0. -1.
        -11    1    3    3    0    0  0.16286958672E+03 -0.34925116879E+03 -0.18589317866E+03  0.42785412824E+03  0.00000000000E+00 0.  1.
         22    1    1    2    0    0 -0.27696222325E+03  0.46355321207E+03  0.12409322132E+04  0.13533301191E+04  0.00000000000E+00 0. -1.
<mgrwt>
<rscale>  0 0.17257675E+04</rscale>
<asrwt>0</asrwt>
<pdfrwt beam="1">  1        1 0.22504517E+00 0.17257675E+04</pdfrwt>
<pdfrwt beam="2">  1       -1 0.78308370E-01 0.17257675E+04</pdfrwt>
<totfact> 0.10762352E+01</totfact>
</mgrwt>
</event>
<event>
 6    1  0.1637818E-005  0.1106665E+04  0.7818608E-02  0.9198720E-01
         -1   -1    0    0    0  501 -0.00000000000E+00  0.00000000000E+00  0.19921533169E+03  0.19921533169E+03  0.00000000000E+00 0.  1.
          1   -1    0    0  501    0  0.00000000000E+00 -0.00000000000E+00 -0.15369138580E+04  0.15369138580E+04  0.00000000000E+00 0. -1.
         23    2    1    2    0    0  0.28818827663E+03  0.36995700824E+03 -0.22468037789E+03  0.52835020765E+03  0.93552119042E+02 0.  0.
         11    1    3    3    0    0  0.69698110134E+02  0.65615534208E+02 -0.86543340317E+02  0.12904640498E+03  0.00000000000E+00 0. -1.
        -11    1    3    3    0    0  0.21849016650E+03  0.30434147403E+03 -0.13813703757E+03  0.39930380267E+03  0.00000000000E+00 0.  1.
         22    1    1    2    0    0 -0.28818827663E+03 -0.36995700824E+03 -0.11130181484E+04  0.12077789820E+04  0.00000000000E+00 0. -1.
<mgrwt>
<rscale>  0 0.11066649E+04</rscale>
<asrwt>0</asrwt>
<pdfrwt beam="1">  1        1 0.23644828E+00 0.11066649E+04</pdfrwt>
<pdfrwt beam="2">  1       -1 0.30648513E-01 0.11066649E+04</pdfrwt>
<totfact> 0.60362127E+01</totfact>
</mgrwt>
</event>
<event>
 6    1  0.1637818E-005  0.1987871E+04  0.7818608E-02  0.8612312E-01
         -2   -1    0    0    0  501 -0.00000000000E+00  0.00000000000E+00  0.51345094927E+03  0.51345094927E+03  0.00000000000E+00 0.  1.
          2   -1    0    0  501    0  0.00000000000E+00 -0.00000000000E+00 -0.19240549235E+04  0.19240549235E+04  0.00000000000E+00 0. -1.
         23    2    1    2    0    0  0.12721068877E+03 -0.83317869992E+03 -0.13478692228E+04  0.15923402355E+04  0.91796941140E+02 0.  0.
         11    1    3    3    0    0  0.12540572765E+02 -0.38453632572E+03 -0.60735570965E+03  0.71896203641E+03  0.00000000000E+00 0. -1.
        -11    1    3    3    0    0  0.11467011601E+03 -0.44864237420E+03 -0.74051351319E+03  0.87337819909E+03  0.00000000000E+00 0.  1.
         22    1    1    2    0    0 -0.12721068877E+03  0.83317869992E+03 -0.62734751372E+02  0.84516563724E+03  0.00000000000E+00 0.  1.
<mgrwt>
<rscale>  0 0.19878710E+04</rscale>
<asrwt>0</asrwt>
<pdfrwt beam="1">  1        2 0.29600844E+00 0.19878710E+04</pdfrwt>
<pdfrwt beam="2">  1       -2 0.78992455E-01 0.19878710E+04</pdfrwt>
<totfact> 0.97383960E+00</totfact>
</mgrwt>
</event>
<event>
 6    1  0.1637818E-005  0.1469405E+04  0.7818608E-02  0.8905057E-01
         -2   -1    0    0    0  501 -0.00000000000E+00  0.00000000000E+00  0.39105690541E+03  0.39105690541E+03  0.00000000000E+00 0.  1.
          2   -1    0    0  501    0  0.00000000000E+00 -0.00000000000E+00 -0.13803312470E+04  0.13803312470E+04  0.00000000000E+00 0. -1.
         23    2    1    2    0    0 -0.39573620047E+03  0.60925676532E+03 -0.38785773680E+03  0.82825354962E+03  0.88144041298E+02 0.  0.
         13    1    3    3    0    0 -0.21786770706E+03  0.26384738724E+03 -0.20471016535E+03  0.39873303516E+03  0.00000000000E+00 0.  1.
        -13    1    3    3    0    0 -0.17786849341E+03  0.34540937808E+03 -0.18314757145E+03  0.42952051446E+03  0.00000000000E+00 0. -1.
         22    1    1    2    0    0  0.39573620047E+03 -0.60925676532E+03 -0.60141660480E+03  0.94313460279E+03  0.00000000000E+00 0.  1.
<mgrwt>
<rscale>  0 0.14694054E+04</rscale>
<asrwt>0</asrwt>
<pdfrwt beam="1">  1        2 0.21235866E+00 0.14694054E+04</pdfrwt>
<pdfrwt beam="2">  1       -2 0.60162600E-01 0.14694054E+04</pdfrwt>
<totfact> 0.37032879E+01</totfact>
</mgrwt>
</event>
<event>
 6    1  0.1637818E-005  0.2950092E+04  0.7818608E-02  0.8258128E-01
         -2   -1    0    0    0  501 -0.00000000000E+00  0.00000000000E+00  0.84987126044E+03  0.84987126044E+03  0.00000000000E+00 0.  1.
          2   -1    0    0  501    0  0.00000000000E+00 -0.00000000000E+00 -0.25601060469E+04  0.25601060469E+04  0.00000000000E+00 0. -1.
         23    2    1    2    0    0 -0.60944469245E+03 -0.41547027384E+03 -0.23305865078E+04  0.24461958799E+04  0.90567271477E+02 0.  0.
         11    1    3    3    0    0 -0.46790327830E+03 -0.35477055729E+03 -0.19143483303E+04  0.20023798731E+04  0.00000000000E+00 0. -1.
        -11    1    3    3    0    0 -0.14154141414E+03 -0.60699716550E+02 -0.41623817747E+03  0.44381600680E+03  0.00000000000E+00 0.  1.
         22    1    1    2    0    0  0.60944469245E+03  0.41547027384E+03  0.62035172140E+03  0.96378142742E+03  0.00000000000E+00 0.  1.
<mgrwt>
<rscale>  0 0.29500919E+04</rscale>
<asrwt>0</asrwt>
<pdfrwt beam="1">  1        2 0.39386247E+00 0.29500919E+04</pdfrwt>
<pdfrwt beam="2">  1       -2 0.13074943E+00 0.29500919E+04</pdfrwt>
<totfact> 0.11811988E+00</totfact>
</mgrwt>
</event>
<event>
 6    1  0.1637818E-005  0.3773221E+04  0.7818608E-02  0.8051926E-01
          2   -1    0    0  501    0  0.00000000000E+00  0.00000000000E+00  0.20235176924E+04  0.20235176924E+04  0.00000000000E+00 0. -1.
         -2   -1    0    0    0  501 -0.00000000000E+00 -0.00000000000E+00 -0.17589659226E+04  0.17589659226E+04  0.00000000000E+00 0.  1.
         23    2    1    2    0    0 -0.64611588722E+03 -0.81049048077E+03  0.17112984993E+04  0.20027542372E+04  0.90118929406E+02 0.  0.
         13    1    3    3    0    0 -0.58147790067E+03 -0.74768150526E+03  0.16023053610E+04  0.18613238977E+04  0.00000000000E+00 0.  1.
        -13    1    3    3    0    0 -0.64637986545E+02 -0.62808975503E+02  0.10899313832E+03  0.14143033942E+03  0.00000000000E+00 0. -1.
         22    1    1    2    0    0  0.64611588722E+03  0.81049048077E+03 -0.14467467296E+04  0.17797293779E+04  0.00000000000E+00 0.  1.
<mgrwt>
<rscale>  0 0.37732207E+04</rscale>
<asrwt>0</asrwt>
<pdfrwt beam="1">  1        2 0.31131041E+00 0.37732207E+04</pdfrwt>
<pdfrwt beam="2">  1       -2 0.27061014E+00 0.37732207E+04</pdfrwt>
<totfact> 0.25034006E-01</totfact>
</mgrwt>
</event>
<event>
 6    1  0.1637818E-005  0.2035671E+04  0.7818608E-02  0.8590122E-01
         -1   -1    0    0    0  501 -0.00000000000E+00  0.00000000000E+00  0.31279991019E+03  0.31279991019E+03  0.00000000000E+00 0.  1.
          1   -1    0    0  501    0  0.00000000000E+00 -0.00000000000E+00 -0.33119874792E+04  0.33119874792E+04  0.00000000000E+00 0. -1.
         23    2    1    2    0    0 -0.80750868205E+03 -0.15254392185E+03 -0.44110169335E+03  0.93794104713E+03  0.99109960904E+02 0.  0.
         11    1    3    3    0    0 -0.44567316468E+03 -0.97847307654E+02 -0.29816705934E+03  0.54507087669E+03  0.00000000000E+00 0.  1.
        -11    1    3    3    0    0 -0.36183551736E+03 -0.54696614194E+02 -0.14293463401E+03  0.39287017045E+03  0.00000000000E+00 0. -1.
         22    1    1    2    0    0  0.80750868205E+03  0.15254392185E+03 -0.25580858757E+04  0.26868463423E+04  0.00000000000E+00 0. -1.
<mgrwt>
<rscale>  0 0.20356713E+04</rscale>
<asrwt>0</asrwt>
<pdfrwt beam="1">  1        1 0.50953654E+00 0.20356713E+04</pdfrwt>
<pdfrwt beam="2">  1       -1 0.48123063E-01 0.20356713E+04</pdfrwt>
<totfact> 0.14001970E+00</totfact>
</mgrwt>
</event>
<event>
 6    1  0.1637818E-005  0.4004693E+04  0.7818608E-02  0.8003601E-01
         -2   -1    0    0    0  501 -0.00000000000E+00  0.00000000000E+00  0.21600564649E+04  0.21600564649E+04  0.00000000000E+00 0.  1.
          2   -1    0    0  501    0  0.00000000000E+00 -0.00000000000E+00 -0.18561509979E+04  0.18561509979E+04  0.00000000000E+00 0. -1.
         23    2    1    2    0    0  0.66327370147E+03 -0.14995935959E+04  0.13026722181E+04  0.20962470519E+04  0.92649009658E+02 0.  0.
         13    1    3    3    0    0  0.41911041513E+03 -0.88307478893E+03  0.72835055707E+03  0.12190033457E+04  0.00000000000E+00 0.  1.
        -13    1    3    3    0    0  0.24416328634E+03 -0.61651880700E+03  0.57432166100E+03  0.87724370620E+03  0.00000000000E+00 0. -1.
         22    1    1    2    0    0 -0.66327370147E+03  0.14995935959E+04 -0.99876675115E+03  0.19199604109E+04  0.00000000000E+00 0. -1.
<mgrwt>
<rscale>  0 0.40046927E+04</rscale>
<asrwt>0</asrwt>
<pdfrwt beam="1">  1        2 0.28556169E+00 0.40046927E+04</pdfrwt>
<pdfrwt beam="2">  1       -2 0.33231638E+00 0.40046927E+04</pdfrwt>
<totfact> 0.12716076E-01</totfact>
</mgrwt>
</event>
<event>
 6    1  0.1637818E-005  0.2272284E+04  0.7818608E-02  0.8488930E-01
         -2   -1    0    0    0  501 -0.00000000000E+00  0.00000000000E+00  0.51133499641E+03  0.51133499641E+03  0.00000000000E+00 0.  1.
          2   -1    0    0  501    0  0.00000000000E+00 -0.00000000000E+00 -0.25244089997E+04  0.25244089997E+04  0.00000000000E+00 0. -1.
         23    2    1    2    0    0  0.22774497322E+03 -0.23913727751E+03 -0.24580141775E+04  0.24816445746E+04  0.87588171702E+02 0.  0.
         11    1    3    3    0    0  0.78820530526E+02 -0.14332320984E+03 -0.10857036588E+04  0.10979556700E+04  0.00000000000E+00 0. -1.
        -11    1    3    3    0    0  0.14892444269E+03 -0.95814067670E+02 -0.13723105187E+04  0.13836889047E+04  0.00000000000E+00 0.  1.
         22    1    1    2    0    0 -0.22774497322E+03  0.23913727751E+03  0.44494017416E+03  0.55409942150E+03  0.00000000000E+00 0.  1.
<mgrwt>
<rscale>  0 0.22722840E+04</rscale>
<asrwt>0</asrwt>
<pdfrwt beam="1">  1        2 0.38837061E+00 0.22722840E+04</pdfrwt>
<pdfrwt beam="2">  1       -2 0.78666923E-01 0.22722840E+04</pdfrwt>
<totfact> 0.43949261E+00</totfact>
</mgrwt>
</event>
<event>
 6    1  0.1637818E-005  0.1686079E+04  0.7818608E-02  0.8769344E-01
          2   -1    0    0  501    0  0.00000000000E+00  0.00000000000E+00  0.93997931129E+03  0.93997931129E+03  0.00000000000E+00 0.  1.
         -2   -1    0    0    0  501 -0.00000000000E+00 -0.00000000000E+00 -0.75609704744E+03  0.75609704744E+03  0.00000000000E+00 0. -1.
         23    2    1    2    0    0  0.19281399630E+03  0.50876016718E+03  0.73699376239E+03  0.92022426284E+03  0.87399904040E+02 0.  0.
         11    1    3    3    0    0  0.14872424229E+03  0.40550377969E+03  0.52065674944E+03  0.67648774292E+03  0.00000000000E+00 0. -1.
        -11    1    3    3    0    0  0.44089754009E+02  0.10325638750E+03  0.21633701295E+03  0.24373651991E+03  0.00000000000E+00 0.  1.
         22    1    1    2    0    0 -0.19281399630E+03 -0.50876016718E+03 -0.55311149854E+03  0.77585209589E+03  0.00000000000E+00 0. -1.
<mgrwt>
<rscale>  0 0.16860790E+04</rscale>
<asrwt>0</asrwt>
<pdfrwt beam="1">  1        2 0.14461220E+00 0.16860790E+04</pdfrwt>
<pdfrwt beam="2">  1       -2 0.11632262E+00 0.16860790E+04</pdfrwt>
<totfact> 0.15057965E+01</totfact>
</mgrwt>
</event>
<event>
 6    1  0.1637818E-005  0.1218290E+04  0.7818608E-02  0.9096996E-01
          1   -1    0    0  501    0  0.00000000000E+00  0.00000000000E+00  0.93682295973E+03  0.93682295973E+03  0.00000000000E+00 0. -1.
         -1   -1    0    0    0  501 -0.00000000000E+00 -0.00000000000E+00 -0.39608094049E+03  0.39608094049E+03  0.00000000000E+00 0.  1.
         23    2    1    2    0    0 -0.19748144785E+03 -0.53418287442E+03  0.44360073065E+02  0.57742702959E+03  0.84284594381E+02 0.  0.
         13    1    3    3    0    0 -0.95977235126E+02 -0.16986320972E+03 -0.99257317435E+01  0.19535521449E+03  0.00000000000E+00 0. -1.
        -13    1    3    3    0    0 -0.10150421272E+03 -0.36431966470E+03  0.54285804808E+02  0.38207181510E+03  0.00000000000E+00 0.  1.
         22    1    1    2    0    0  0.19748144785E+03  0.53418287442E+03  0.49638194617E+03  0.75547687063E+03  0.00000000000E+00 0.  1.
<mgrwt>
<rscale>  0 0.12182901E+04</rscale>
<asrwt>0</asrwt>
<pdfrwt beam="1">  1        1 0.14412661E+00 0.12182901E+04</pdfrwt>
<pdfrwt beam="2">  1       -1 0.60935530E-01 0.12182901E+04</pdfrwt>
<totfact> 0.45853131E+01</totfact>
</mgrwt>
</event>
<event>
 6    1  0.1637818E-005  0.2222596E+04  0.7818608E-02  0.8509082E-01
         -1   -1    0    0    0  501 -0.00000000000E+00  0.00000000000E+00  0.10969829132E+04  0.10969829132E+04  0.00000000000E+00 0.  1.
          1   -1    0    0  501    0  0.00000000000E+00 -0.00000000000E+00 -0.11257999544E+04  0.11257999544E+04  0.00000000000E+00 0. -1.
         23    2    1    2    0    0  0.89619005495E+02  0.68893771638E+03 -0.87942895145E+03  0.11245081456E+04  0.91959478315E+02 0.  0.
         13    1    3    3    0    0  0.84793601080E+02  0.34803835692E+03 -0.41199025164E+03  0.54594562011E+03  0.00000000000E+00 0. -1.
        -13    1    3    3    0    0  0.48254044154E+01  0.34089935946E+03 -0.46743869981E+03  0.57856252548E+03  0.00000000000E+00 0.  1.
         22    1    1    2    0    0 -0.89619005495E+02 -0.68893771638E+03  0.85061191019E+03  0.10982747220E+04  0.00000000000E+00 0.  1.
<mgrwt>
<rscale>  0 0.22225961E+04</rscale>
<asrwt>0</asrwt>
<pdfrwt beam="1">  1        1 0.17319999E+00 0.22225961E+04</pdfrwt>
<pdfrwt beam="2">  1       -1 0.16876660E+00 0.22225961E+04</pdfrwt>
<totfact> 0.27725159E+00</totfact>
</mgrwt>
</event>
<event>
 6    1  0.1637818E-005  0.5109330E+04  0.7818608E-02  0.7811860E-01
         -2   -1    0    0    0  501 -0.00000000000E+00  0.00000000000E+00  0.32945149597E+04  0.32945149597E+04  0.00000000000E+00 0.  1.
          2   -1    0    0  501    0  0.00000000000E+00 -0.00000000000E+00 -0.19809635630E+04  0.19809635630E+04  0.00000000000E+00 0. -1.
         23    2    1    2    0    0  0.99070740085E+03 -0.89902622568E+03  0.29031128283E+04  0.31978705583E+04  0.92534887921E+02 0.  0.
         11    1    3    3    0    0  0.65666989812E+03 -0.64452666787E+03  0.19369101108E+04  0.21443532260E+04  0.00000000000E+00 0. -1.
        -11    1    3    3    0    0  0.33403750273E+03 -0.25449955781E+03  0.96620271748E+03  0.10535173323E+04  0.00000000000E+00 0.  1.
         22    1    1    2    0    0 -0.99070740085E+03  0.89902622568E+03 -0.15895614316E+04  0.20776079643E+04  0.00000000000E+00 0. -1.
<mgrwt>
<rscale>  0 0.51093303E+04</rscale>
<asrwt>0</asrwt>
<pdfrwt beam="1">  1        2 0.30476363E+00 0.51093303E+04</pdfrwt>
<pdfrwt beam="2">  1       -2 0.50684845E+00 0.51093303E+04</pdfrwt>
<totfact> 0.74568900E-03</totfact>
</mgrwt>
</event>
<event>
 6    1  0.1637818E-005  0.1202567E+04  0.7818608E-02  0.9110613E-01
         -2   -1    0    0    0  501 -0.00000000000E+00  0.00000000000E+00  0.16384598685E+03  0.16384598685E+03  0.00000000000E+00 0.  1.
          2   -1    0    0  501    0  0.00000000000E+00 -0.00000000000E+00 -0.22065954025E+04  0.22065954025E+04  0.00000000000E+00 0. -1.
         23    2    1    2    0    0 -0.41996491921E+03  0.40322935535E+03 -0.12982090336E+04  0.14252933444E+04  0.84557532255E+02 0.  0.
         13    1    3    3    0    0 -0.18405745153E+03  0.22710256089E+03 -0.69916093745E+03  0.75781180717E+03  0.00000000000E+00 0.  1.
        -13    1    3    3    0    0 -0.23590746768E+03  0.17612679447E+03 -0.59904809619E+03  0.66748153726E+03  0.00000000000E+00 0. -1.
         22    1    1    2    0    0  0.41996491921E+03 -0.40322935535E+03 -0.74454038204E+03  0.94514804495E+03  0.00000000000E+00 0.  1.
<mgrwt>
<rscale>  0 0.12025669E+04</rscale>
<asrwt>0</asrwt>
<pdfrwt beam="1">  1        2 0.33947621E+00 0.12025669E+04</pdfrwt>
<pdfrwt beam="2">  1       -2 0.25207075E-01 0.12025669E+04</pdfrwt>
<totfact> 0.71602456E+01</totfact>
</mgrwt>
</event>
<event>
 6    1  0.1637818E-005  0.1468587E+04  0.7818608E-02  0.8905615E-01
         -1   -1    0    0    0  501 -0.00000000000E+00  0.00000000000E+00  0.21633230691E+03  0.21633230691E+03  0.00000000000E+00 0.  1.
          1   -1    0    0  501    0  0.00000000000E+00 -0.00000000000E+00 -0.24924025168E+04  0.24924025168E+04  0.00000000000E+00 0. -1.
         23    2    1    2    0    0  0.33259478860E+03  0.21038926792E+03 -0.12856569561E+01  0.40015783784E+03  0.72399618815E+02 0.  0.
         13    1    3    3    0    0  0.28420443346E+03  0.19583839104E+03 -0.21315124142E+02  0.34580221214E+03  0.00000000000E+00 0.  1.
        -13    1    3    3    0    0  0.48390355143E+02  0.14550876877E+02  0.20029467186E+02  0.54355625693E+02  0.00000000000E+00 0. -1.
         22    1    1    2    0    0 -0.33259478860E+03 -0.21038926792E+03 -0.22747845529E+04  0.23085769859E+04  0.00000000000E+00 0. -1.
<mgrwt>
<rscale>  0 0.14685873E+04</rscale>
<asrwt>0</asrwt>
<pdfrwt beam="1">  1        1 0.38344649E+00 0.14685873E+04</pdfrwt>
<pdfrwt beam="2">  1       -1 0.33281897E-01 0.14685873E+04</pdfrwt>
<totfact> 0.11324145E+01</totfact>
</mgrwt>
</event>
<event>
 6    1  0.1637818E-005  0.1304668E+04  0.7818608E-02  0.9025872E-01
         -2   -1    0    0    0  501 -0.00000000000E+00  0.00000000000E+00  0.92553259432E+03  0.92553259432E+03  0.00000000000E+00 0.  1.
          2   -1    0    0  501    0  0.00000000000E+00 -0.00000000000E+00 -0.45977799878E+03  0.45977799878E+03  0.00000000000E+00 0. -1.
         23    2    1    2    0    0  0.45539384377E+03 -0.43072306178E+03  0.41512271192E+03  0.75644693814E+03  0.83541578758E+02 0.  0.
         11    1    3    3    0    0  0.12972940049E+03 -0.85975016984E+02  0.13234177701E+03  0.20429333528E+03  0.00000000000E+00 0. -1.
        -11    1    3    3    0    0  0.32566444327E+03 -0.34474804480E+03  0.28278093491E+03  0.55215360286E+03  0.00000000000E+00 0.  1.
         22    1    1    2    0    0 -0.45539384377E+03  0.43072306178E+03  0.50631883620E+02  0.62886365496E+03  0.00000000000E+00 0. -1.
<mgrwt>
<rscale>  0 0.13046678E+04</rscale>
<asrwt>0</asrwt>
<pdfrwt beam="1">  1        2 0.70735077E-01 0.13046678E+04</pdfrwt>
<pdfrwt beam="2">  1       -2 0.14238963E+00 0.13046678E+04</pdfrwt>
<totfact> 0.22829530E+01</totfact>
</mgrwt>
</event>
<event>
 6    1  0.1637818E-005  0.1383237E+04  0.7818608E-02  0.8966043E-01
          2   -1    0    0  501    0  0.00000000000E+00  0.00000000000E+00  0.33731605530E+04  0.33731605530E+04  0.00000000000E+00 0. -1.
         -2   -1    0    0    0  501 -0.00000000000E+00 -0.00000000000E+00 -0.14180649330E+03  0.14180649330E+03  0.00000000000E+00 0.  1.
         23    2    1    2    0    0  0.48928225182E+03  0.31090371900E+03  0.67834755313E+03  0.89697154076E+03  0.91347127223E+02 0.  0.
         13    1    3    3    0    0  0.24587883618E+03  0.14859397342E+03  0.40527298274E+03  0.49677234379E+03  0.00000000000E+00 0. -1.
        -13    1    3    3    0    0  0.24340341564E+03  0.16230974558E+03  0.27307457039E+03  0.40019919696E+03  0.00000000000E+00 0.  1.
         22    1    1    2    0    0 -0.48928225182E+03 -0.31090371900E+03  0.25530065066E+04  0.26179955056E+04  0.00000000000E+00 0. -1.
<mgrwt>
<rscale>  0 0.13832369E+04</rscale>
<asrwt>0</asrwt>
<pdfrwt beam="1">  1        2 0.51894772E+00 0.13832369E+04</pdfrwt>
<pdfrwt beam="2">  1       -2 0.21816386E-01 0.13832369E+04</pdfrwt>
<totfact> 0.18035508E+01</totfact>
</mgrwt>
</event>
<event>
 6    1  0.1637818E-005  0.2111027E+04  0.7818608E-02  0.8556401E-01
          2   -1    0    0  501    0  0.00000000000E+00  0.00000000000E+00  0.21133317876E+04  0.21133317876E+04  0.00000000000E+00 0. -1.
         -2   -1    0    0    0  501 -0.00000000000E+00 -0.00000000000E+00 -0.52718121997E+03  0.52718121997E+03  0.00000000000E+00 0.  1.
         23    2    1    2    0    0 -0.56687072927E+03 -0.48561320801E+03  0.17246166695E+04  0.18813453891E+04  0.89415909646E+02 0.  0.
         11    1    3    3    0    0 -0.40718987502E+03 -0.32306146953E+03  0.12860180539E+04  0.13870885849E+04  0.00000000000E+00 0. -1.
        -11    1    3    3    0    0 -0.15968085425E+03 -0.16255173848E+03  0.43859861569E+03  0.49425680428E+03  0.00000000000E+00 0.  1.
         22    1    1    2    0    0  0.56687072927E+03  0.48561320801E+03 -0.13846610190E+03  0.75916761843E+03  0.00000000000E+00 0. -1.
<mgrwt>
<rscale>  0 0.21110271E+04</rscale>
<asrwt>0</asrwt>
<pdfrwt beam="1">  1        2 0.32512796E+00 0.21110271E+04</pdfrwt>
<pdfrwt beam="2">  1       -2 0.81104804E-01 0.21110271E+04</pdfrwt>
<totfact> 0.71264583E+00</totfact>
</mgrwt>
</event>
<event>
 6    1  0.1637818E-005  0.1043653E+04  0.7818608E-02  0.9261921E-01
         -2   -1    0    0    0  501 -0.00000000000E+00  0.00000000000E+00  0.42129957403E+03  0.42129957403E+03  0.00000000000E+00 0.  1.
          2   -1    0    0  501    0  0.00000000000E+00 -0.00000000000E+00 -0.64634037346E+03  0.64634037346E+03  0.00000000000E+00 0. -1.
         23    2    1    2    0    0  0.38162219855E+03  0.81603906875E+02 -0.46178161201E+03  0.61119618054E+03  0.89575743761E+02 0.  0.
         11    1    3    3    0    0  0.13767146061E+03  0.70325161552E+02 -0.20596336726E+03  0.25752663564E+03  0.00000000000E+00 0. -1.
        -11    1    3    3    0    0  0.24395073794E+03  0.11278745323E+02 -0.25581824475E+03  0.35366954490E+03  0.00000000000E+00 0.  1.
         22    1    1    2    0    0 -0.38162219855E+03 -0.81603906875E+02  0.23674081259E+03  0.45644376695E+03  0.00000000000E+00 0.  1.
<mgrwt>
<rscale>  0 0.10436531E+04</rscale>
<asrwt>0</asrwt>
<pdfrwt beam="1">  1        2 0.99436981E-01 0.10436531E+04</pdfrwt>
<pdfrwt beam="2">  1       -2 0.64815319E-01 0.10436531E+04</pdfrwt>
<totfact> 0.99126844E+01</totfact>
</mgrwt>
</event>
<event>
 6    1  0.1637818E-005  0.9506372E+03  0.7818608E-02  0.9364406E-01
         -1   -1    0    0    0  501 -0.00000000000E+00  0.00000000000E+00  0.54230447896E+03  0.54230447896E+03  0.00000000000E+00 0.  1.
          1   -1    0    0  501    0  0.00000000000E+00 -0.00000000000E+00 -0.41660686942E+03  0.41660686942E+03  0.00000000000E+00 0. -1.
         23    2    1    2    0    0 -0.40283675169E+03 -0.52844187913E+02 -0.17608851061E+03  0.45280383113E+03  0.94626577738E+02 0.  0.
         11    1    3    3    0    0 -0.22365127278E+03 -0.21210432149E+02 -0.14715904851E+03  0.26856202227E+03  0.00000000000E+00 0.  1.
        -11    1    3    3    0    0 -0.17918547891E+03 -0.31633755764E+02 -0.28929462095E+02  0.18424180886E+03  0.00000000000E+00 0. -1.
         22    1    1    2    0    0  0.40283675169E+03  0.52844187913E+02  0.30178612014E+03  0.50610751725E+03  0.00000000000E+00 0.  1.
<mgrwt>
<rscale>  0 0.95063720E+03</rscale>
<asrwt>0</asrwt>
<pdfrwt beam="1">  1        1 0.64093365E-01 0.95063720E+03</pdfrwt>
<pdfrwt beam="2">  1       -1 0.83431458E-01 0.95063720E+03</pdfrwt>
<totfact> 0.81475545E+01</totfact>
</mgrwt>
</event>
<event>
 6    1  0.1637818E-005  0.5202275E+04  0.7818608E-02  0.7798040E-01
          3   -1    0    0  501    0  0.00000000000E+00  0.00000000000E+00  0.37964418092E+04  0.37964418092E+04  0.00000000000E+00 0. -1.
         -3   -1    0    0    0  501 -0.00000000000E+00 -0.00000000000E+00 -0.17821732079E+04  0.17821732079E+04  0.00000000000E+00 0.  1.
         23    2    1    2    0    0  0.15140619606E+04  0.28919126159E+03  0.32531902942E+04  0.36010048008E+04  0.89293219559E+02 0.  0.
         13    1    3    3    0    0  0.56796228370E+03  0.65831654294E+02  0.11811194121E+04  0.13122339838E+04  0.00000000000E+00 0.  1.
        -13    1    3    3    0    0  0.94609967688E+03  0.22335960730E+03  0.20720708820E+04  0.22887708170E+04  0.00000000000E+00 0. -1.
         22    1    1    2    0    0 -0.15140619606E+04 -0.28919126159E+03 -0.12389216929E+04  0.19776102162E+04  0.00000000000E+00 0.  1.
<mgrwt>
<rscale>  0 0.52022752E+04</rscale>
<asrwt>0</asrwt>
<pdfrwt beam="1">  1        3 0.58406797E+00 0.52022752E+04</pdfrwt>
<pdfrwt beam="2">  1       -3 0.27418049E+00 0.52022752E+04</pdfrwt>
<totfact> 0.13173113E-04</totfact>
</mgrwt>
</event>
<event>
 6    1  0.1637818E-005  0.2520164E+04  0.7818608E-02  0.8395837E-01
          2   -1    0    0  501    0  0.00000000000E+00  0.00000000000E+00  0.37548167596E+04  0.37548167596E+04  0.00000000000E+00 0. -1.
         -2   -1    0    0    0  501 -0.00000000000E+00 -0.00000000000E+00 -0.42287184959E+03  0.42287184959E+03  0.00000000000E+00 0.  1.
         23    2    1    2    0    0 -0.10767474492E+04 -0.15714600308E+03  0.27161826621E+04  0.29273914119E+04  0.88838556997E+02 0.  0.
         11    1    3    3    0    0 -0.77997159394E+03 -0.97311849439E+02  0.20549622082E+04  0.22001579399E+04  0.00000000000E+00 0. -1.
        -11    1    3    3    0    0 -0.29677585522E+03 -0.59834153643E+02  0.66122045390E+03  0.72723347203E+03  0.00000000000E+00 0.  1.
         22    1    1    2    0    0  0.10767474492E+04  0.15714600308E+03  0.61576224794E+03  0.12502971973E+04  0.00000000000E+00 0.  1.
<mgrwt>
<rscale>  0 0.25201637E+04</rscale>
<asrwt>0</asrwt>
<pdfrwt beam="1">  1        2 0.57766409E+00 0.25201637E+04</pdfrwt>
<pdfrwt beam="2">  1       -2 0.65057210E-01 0.25201637E+04</pdfrwt>
<totfact> 0.10330163E+00</totfact>
</mgrwt>
</event>
<event>
 6    1  0.1637818E-005  0.1706771E+04  0.7818608E-02  0.8757512E-01
          1   -1    0    0  501    0  0.00000000000E+00  0.00000000000E+00  0.10834824236E+04  0.10834824236E+04  0.00000000000E+00 0. -1.
         -1   -1    0    0    0  501 -0.00000000000E+00 -0.00000000000E+00 -0.67215359375E+03  0.67215359375E+03  0.00000000000E+00 0.  1.
         23    2    1    2    0    0 -0.15820698161E+03  0.53933847791E+03  0.86338126132E+03  0.10343407632E+04  0.92293928688E+02 0.  0.
         11    1    3    3    0    0 -0.75522652419E+02  0.19276978056E+03  0.24602271013E+03  0.32154476084E+03  0.00000000000E+00 0.  1.
        -11    1    3    3    0    0 -0.82684329193E+02  0.34656869735E+03  0.61735855119E+03  0.71279600237E+03  0.00000000000E+00 0. -1.
         22    1    1    2    0    0  0.15820698161E+03 -0.53933847791E+03 -0.45205243149E+03  0.72129525411E+03  0.00000000000E+00 0.  1.
<mgrwt>
<rscale>  0 0.17067708E+04</rscale>
<asrwt>0</asrwt>
<pdfrwt beam="1">  1        1 0.16668960E+00 0.17067708E+04</pdfrwt>
<pdfrwt beam="2">  1       -1 0.10340825E+00 0.17067708E+04</pdfrwt>
<totfact> 0.10949849E+01</totfact>
</mgrwt>
</event>
<event>
 6    1  0.1637818E-005  0.2565745E+04  0.7818608E-02  0.8379931E-01
         -2   -1    0    0    0  501 -0.00000000000E+00  0.00000000000E+00  0.65116031698E+03  0.65116031698E+03  0.00000000000E+00 0.  1.
          2   -1    0    0  501    0  0.00000000000E+00 -0.00000000000E+00 -0.25274288232E+04  0.25274288232E+04  0.00000000000E+00 0. -1.
         23    2    1    2    0    0  0.51391877597E+03 -0.77517111319E+03  0.15285844885E+03  0.94646930404E+03  0.86230360581E+02 0.  0.
         13    1    3    3    0    0  0.23598767967E+02 -0.40800375496E+02 -0.10951786242E+02  0.48389194166E+02  0.00000000000E+00 0. -1.
        -13    1    3    3    0    0  0.49032000800E+03 -0.73437073770E+03  0.16381023509E+03  0.89808010988E+03  0.00000000000E+00 0.  1.
         22    1    1    2    0    0 -0.51391877597E+03  0.77517111319E+03 -0.20291269550E+04  0.22321198361E+04  0.00000000000E+00 0. -1.
<mgrwt>
<rscale>  0 0.25657446E+04</rscale>
<asrwt>0</asrwt>
<pdfrwt beam="1">  1        2 0.38883520E+00 0.25657446E+04</pdfrwt>
<pdfrwt beam="2">  1       -2 0.10017851E+00 0.25657446E+04</pdfrwt>
<totfact> 0.24479011E+00</totfact>
</mgrwt>
</event>
<event>
 6    1  0.1637818E-005  0.1505447E+04  0.7818608E-02  0.8880839E-01
         -1   -1    0    0    0  501 -0.00000000000E+00  0.00000000000E+00  0.78577570558E+03  0.78577570558E+03  0.00000000000E+00 0.  1.
          1   -1    0    0  501    0  0.00000000000E+00 -0.00000000000E+00 -0.72106187495E+03  0.72106187495E+03  0.00000000000E+00 0. -1.
         23    2    1    2    0    0 -0.64448418540E+03  0.38296496103E+03  0.43107096351E+02  0.75684499552E+03  0.94520362210E+02 0.  0.
         11    1    3    3    0    0 -0.49577387080E+03  0.27721149748E+03  0.70318480255E+02  0.57234835019E+03  0.00000000000E+00 0. -1.
        -11    1    3    3    0    0 -0.14871031461E+03  0.10575346355E+03 -0.27211383904E+02  0.18449664533E+03  0.00000000000E+00 0.  1.
         22    1    1    2    0    0  0.64448418540E+03 -0.38296496103E+03  0.21606734283E+02  0.74999258501E+03  0.00000000000E+00 0. -1.
<mgrwt>
<rscale>  0 0.15054473E+04</rscale>
<asrwt>0</asrwt>
<pdfrwt beam="1">  1        1 0.11093260E+00 0.15054473E+04</pdfrwt>
<pdfrwt beam="2">  1       -1 0.12088857E+00 0.15054473E+04</pdfrwt>
<totfact> 0.15309194E+01</totfact>
</mgrwt>
</event>
<event>
 6    1  0.1637818E-005  0.2862942E+04  0.7818608E-02  0.8283990E-01
          2   -1    0    0  501    0  0.00000000000E+00  0.00000000000E+00  0.33808971459E+04  0.33808971459E+04  0.00000000000E+00 0. -1.
         -2   -1    0    0    0  501 -0.00000000000E+00 -0.00000000000E+00 -0.60608433494E+03  0.60608433494E+03  0.00000000000E+00 0.  1.
         23    2    1    2    0    0  0.18396009227E+03 -0.13431320407E+04  0.75439396630E+03  0.15538893531E+04  0.87274685675E+02 0.  0.
         11    1    3    3    0    0  0.90794722555E+02 -0.83118159915E+03  0.50566560318E+03  0.97714084688E+03  0.00000000000E+00 0. -1.
        -11    1    3    3    0    0  0.93165369717E+02 -0.51195044160E+03  0.24872836312E+03  0.57674850619E+03  0.00000000000E+00 0.  1.
         22    1    1    2    0    0 -0.18396009227E+03  0.13431320407E+04  0.20204188447E+04  0.24330921278E+04  0.00000000000E+00 0. -1.
<mgrwt>
<rscale>  0 0.28629417E+04</rscale>
<asrwt>0</asrwt>
<pdfrwt beam="1">  1        2 0.52013801E+00 0.28629417E+04</pdfrwt>
<pdfrwt beam="2">  1       -2 0.93243746E-01 0.28629417E+04</pdfrwt>
<totfact> 0.82756639E-01</totfact>
</mgrwt>
</event>
<event>
 6    1  0.1756863E-005  0.2038162E+04  0.7818608E-02  0.8588983E-01
         -1   -1    0    0    0  501 -0.00000000000E+00  0.00000000000E+00  0.89976609466E+03  0.89976609466E+03  0.00000000000E+00 0.  1.
          1   -1    0    0  501    0  0.00000000000E+00 -0.00000000000E+00 -0.11542182517E+04  0.11542182517E+04  0.00000000000E+00 0. -1.
         23    2    1    2    0    0 -0.44137495333E+03 -0.45541249474E+03 -0.92888758132E+03  0.11282006075E+04  0.88272771316E+02 0.  0.
         11    1    3    3    0    0 -0.27148206427E+03 -0.26824516722E+03 -0.48229338788E+03  0.61503243244E+03  0.00000000000E+00 0.  1.
        -11    1    3    3    0    0 -0.16989288906E+03 -0.18716732752E+03 -0.44659419344E+03  0.51316817502E+03  0.00000000000E+00 0. -1.
         22    1    1    2    0    0  0.44137495333E+03  0.45541249474E+03  0.67443542425E+03  0.92578373893E+03  0.00000000000E+00 0.  1.
<mgrwt>
<rscale>  0 0.20381624E+04</rscale>
<asrwt>0</asrwt>
<pdfrwt beam="1">  1        1 0.17757204E+00 0.20381624E+04</pdfrwt>
<pdfrwt beam="2">  1       -1 0.13842555E+00 0.20381624E+04</pdfrwt>
<totfact> 0.46105042E+00</totfact>
</mgrwt>
</event>
<event>
 6    1  0.1637818E-005  0.2075636E+04  0.7818608E-02  0.8572053E-01
         -2   -1    0    0    0  501 -0.00000000000E+00  0.00000000000E+00  0.50224851397E+03  0.50224851397E+03  0.00000000000E+00 0. -1.
          2   -1    0    0  501    0  0.00000000000E+00 -0.00000000000E+00 -0.21444881621E+04  0.21444881621E+04  0.00000000000E+00 0.  1.
         23    2    1    2    0    0 -0.10362002979E+03 -0.29813261096E+03 -0.20806226027E+04  0.21065517270E+04  0.94602322500E+02 0.  0.
         13    1    3    3    0    0 -0.64221558732E+02 -0.20994130070E+03 -0.11372886618E+04  0.11582854823E+04  0.00000000000E+00 0. -1.
        -13    1    3    3    0    0 -0.39398471058E+02 -0.88191310253E+02 -0.94333394089E+03  0.94826624465E+03  0.00000000000E+00 0.  1.
         22    1    1    2    0    0  0.10362002979E+03  0.29813261096E+03  0.43838295459E+03  0.54018494904E+03  0.00000000000E+00 0. -1.
<mgrwt>
<rscale>  0 0.20756358E+04</rscale>
<asrwt>0</asrwt>
<pdfrwt beam="1">  1        2 0.32992125E+00 0.20756358E+04</pdfrwt>
<pdfrwt beam="2">  1       -2 0.77269003E-01 0.20756358E+04</pdfrwt>
<totfact> 0.76549138E+00</totfact>
</mgrwt>
</event>
<event>
 6    1  0.1637818E-005  0.9129330E+03  0.7818608E-02  0.9409557E-01
         -2   -1    0    0    0  501 -0.00000000000E+00  0.00000000000E+00  0.39195927454E+03  0.39195927454E+03  0.00000000000E+00 0. -1.
          2   -1    0    0  501    0  0.00000000000E+00 -0.00000000000E+00 -0.53159006197E+03  0.53159006197E+03  0.00000000000E+00 0.  1.
         23    2    1    2    0    0  0.80256758736E+02  0.34021964985E+03  0.21941243807E+03  0.42244795432E+03  0.90165950674E+02 0.  0.
         13    1    3    3    0    0  0.62918588730E+02  0.30461884756E+03  0.22294026880E+03  0.38269276783E+03  0.00000000000E+00 0. -1.
        -13    1    3    3    0    0  0.17338170006E+02  0.35600802292E+02 -0.35278307341E+01  0.39755186488E+02  0.00000000000E+00 0.  1.
         22    1    1    2    0    0 -0.80256758736E+02 -0.34021964985E+03 -0.35904322549E+03  0.50110138220E+03  0.00000000000E+00 0.  1.
<mgrwt>
<rscale>  0 0.91293298E+03</rscale>
<asrwt>0</asrwt>
<pdfrwt beam="1">  1        2 0.81783086E-01 0.91293298E+03</pdfrwt>
<pdfrwt beam="2">  1       -2 0.60301427E-01 0.91293298E+03</pdfrwt>
<totfact> 0.14735821E+02</totfact>
</mgrwt>
</event>
<event>
 6    1  0.1637818E-005  0.7422901E+03  0.7818608E-02  0.9647524E-01
         -4   -1    0    0    0  501 -0.00000000000E+00  0.00000000000E+00  0.40449238846E+03  0.40449238846E+03  0.00000000000E+00 0.  1.
          4   -1    0    0  501    0  0.00000000000E+00 -0.00000000000E+00 -0.34054698192E+03  0.34054698192E+03  0.00000000000E+00 0. -1.
         23    2    1    2    0    0  0.32509591496E+03 -0.74727107458E+02 -0.11798897778E+03  0.36507672128E+03  0.89933970382E+02 0.  0.
         11    1    3    3    0    0  0.12866598649E+03 -0.42463098941E+01 -0.75325018010E+01  0.12895621664E+03  0.00000000000E+00 0.  1.
        -11    1    3    3    0    0  0.19642992847E+03 -0.70480797563E+02 -0.11045647598E+03  0.23612050464E+03  0.00000000000E+00 0. -1.
         22    1    1    2    0    0 -0.32509591496E+03  0.74727107458E+02  0.18193438432E+03  0.37996264910E+03  0.00000000000E+00 0.  1.
<mgrwt>
<rscale>  0 0.74229014E+03</rscale>
<asrwt>0</asrwt>
<pdfrwt beam="1">  1        4 0.52391843E-01 0.74229014E+03</pdfrwt>
<pdfrwt beam="2">  1       -4 0.62229598E-01 0.74229014E+03</pdfrwt>
<totfact> 0.16840170E+01</totfact>
</mgrwt>
</event>
<event>
 6    1  0.1637818E-005  0.1086630E+04  0.7818608E-02  0.9218322E-01
          2   -1    0    0  501    0  0.00000000000E+00  0.00000000000E+00  0.39049192189E+03  0.39049192189E+03  0.00000000000E+00 0. -1.
         -2   -1    0    0    0  501 -0.00000000000E+00 -0.00000000000E+00 -0.75594640617E+03  0.75594640617E+03  0.00000000000E+00 0.  1.
         23    2    1    2    0    0  0.15208088596E+03  0.46995440103E+03  0.44506802544E+02  0.50452401010E+03  0.92616879520E+02 0.  0.
         13    1    3    3    0    0  0.60340937135E+01  0.39952390575E+02  0.29715889893E+02  0.50156135335E+02  0.00000000000E+00 0. -1.
        -13    1    3    3    0    0  0.14604679224E+03  0.43000201046E+03  0.14790912651E+02  0.45436787476E+03  0.00000000000E+00 0.  1.
         22    1    1    2    0    0 -0.15208088596E+03 -0.46995440103E+03 -0.40996128682E+03  0.64191431797E+03  0.00000000000E+00 0.  1.
<mgrwt>
<rscale>  0 0.10866296E+04</rscale>
<asrwt>0</asrwt>
<pdfrwt beam="1">  1        2 0.60075681E-01 0.10866296E+04</pdfrwt>
<pdfrwt beam="2">  1       -2 0.11629945E+00 0.10866296E+04</pdfrwt>
<totfact> 0.46562001E+01</totfact>
</mgrwt>
</event>
<event>
 6    1  0.1637818E-005  0.3868030E+04  0.7818608E-02  0.8031711E-01
          2   -1    0    0  501    0  0.00000000000E+00  0.00000000000E+00  0.17140606066E+04  0.17140606066E+04  0.00000000000E+00 0. -1.
         -2   -1    0    0    0  501 -0.00000000000E+00 -0.00000000000E+00 -0.21821951197E+04  0.21821951197E+04  0.00000000000E+00 0.  1.
         23    2    1    2    0    0 -0.16509016689E+04 -0.70628484828E+03  0.48652785359E+03  0.18626149414E+04  0.91161725553E+02 0.  0.
         13    1    3    3    0    0 -0.45750381219E+03 -0.19647560891E+03  0.92901951195E+02  0.50650091372E+03  0.00000000000E+00 0.  1.
        -13    1    3    3    0    0 -0.11933978568E+04 -0.50980923937E+03  0.39362590240E+03  0.13561140277E+04  0.00000000000E+00 0. -1.
         22    1    1    2    0    0  0.16509016689E+04  0.70628484828E+03 -0.95466236668E+03  0.20336407848E+04  0.00000000000E+00 0. -1.
<mgrwt>
<rscale>  0 0.38680303E+04</rscale>
<asrwt>0</asrwt>
<pdfrwt beam="1">  1        2 0.26370163E+00 0.38680303E+04</pdfrwt>
<pdfrwt beam="2">  1       -2 0.33572233E+00 0.38680303E+04</pdfrwt>
<totfact> 0.14683151E-01</totfact>
</mgrwt>
</event>
<event>
 6    1  0.1637818E-005  0.2767263E+04  0.7818608E-02  0.8313505E-01
          1   -1    0    0  501    0  0.00000000000E+00  0.00000000000E+00  0.69196525957E+03  0.69196525957E+03  0.00000000000E+00 0. -1.
         -1   -1    0    0    0  501 -0.00000000000E+00 -0.00000000000E+00 -0.27666645067E+04  0.27666645067E+04  0.00000000000E+00 0.  1.
         23    2    1    2    0    0 -0.96501060973E+02 -0.57163010905E+03 -0.26066402293E+04  0.26718422188E+04  0.89967331653E+02 0.  0.
         11    1    3    3    0    0 -0.47052411220E+02 -0.23551063624E+03 -0.88543551386E+03  0.91742860125E+03  0.00000000000E+00 0.  1.
        -11    1    3    3    0    0 -0.49448649754E+02 -0.33611947281E+03 -0.17212047155E+04  0.17544136176E+04  0.00000000000E+00 0. -1.
         22    1    1    2    0    0  0.96501060973E+02  0.57163010905E+03  0.53194098217E+03  0.78678754747E+03  0.00000000000E+00 0. -1.
<mgrwt>
<rscale>  0 0.27672627E+04</rscale>
<asrwt>0</asrwt>
<pdfrwt beam="1">  1        1 0.10645619E+00 0.27672627E+04</pdfrwt>
<pdfrwt beam="2">  1       -1 0.42564069E+00 0.27672627E+04</pdfrwt>
<totfact> 0.11465901E-01</totfact>
</mgrwt>
</event>
<event>
 6    1  0.1637818E-005  0.2583630E+04  0.7818608E-02  0.8373783E-01
         -1   -1    0    0    0  501 -0.00000000000E+00  0.00000000000E+00  0.91899445924E+03  0.91899445924E+03  0.00000000000E+00 0.  1.
          1   -1    0    0  501    0  0.00000000000E+00 -0.00000000000E+00 -0.18158818680E+04  0.18158818680E+04  0.00000000000E+00 0. -1.
         23    2    1    2    0    0 -0.16233533867E+03 -0.12633427694E+04 -0.66694607541E+03  0.14405576910E+04  0.89452101133E+02 0.  0.
         11    1    3    3    0    0 -0.11465635398E+03 -0.54433939640E+03 -0.28971018438E+03  0.62720287700E+03  0.00000000000E+00 0.  1.
        -11    1    3    3    0    0 -0.47678984691E+02 -0.71900337304E+03 -0.37723589103E+03  0.81335481403E+03  0.00000000000E+00 0. -1.
         22    1    1    2    0    0  0.16233533867E+03  0.12633427694E+04 -0.22994133335E+03  0.12943186362E+04  0.00000000000E+00 0. -1.
<mgrwt>
<rscale>  0 0.25836295E+04</rscale>
<asrwt>0</asrwt>
<pdfrwt beam="1">  1        1 0.27936644E+00 0.25836295E+04</pdfrwt>
<pdfrwt beam="2">  1       -1 0.14138377E+00 0.25836295E+04</pdfrwt>
<totfact> 0.14316332E+00</totfact>
</mgrwt>
</event>
<event>
 6    1  0.1637818E-005  0.6545651E+03  0.7818608E-02  0.9798251E-01
          2   -1    0    0  501    0  0.00000000000E+00  0.00000000000E+00  0.16140056711E+04  0.16140056711E+04  0.00000000000E+00 0. -1.
         -2   -1    0    0    0  501 -0.00000000000E+00 -0.00000000000E+00 -0.66365240767E+02  0.66365240767E+02  0.00000000000E+00 0.  1.
         23    2    1    2    0    0  0.28423676835E+03  0.12373819421E+03  0.57784879114E+03  0.66223658643E+03  0.92446686223E+02 0.  0.
         13    1    3    3    0    0  0.38832382234E+02  0.36939701761E+02  0.48207586171E+02  0.72086523294E+02  0.00000000000E+00 0.  1.
        -13    1    3    3    0    0  0.24540438612E+03  0.86798492447E+02  0.52964120497E+03  0.59015006313E+03  0.00000000000E+00 0. -1.
         22    1    1    2    0    0 -0.28423676835E+03 -0.12373819421E+03  0.96979163922E+03  0.10181343255E+04  0.00000000000E+00 0. -1.
<mgrwt>
<rscale>  0 0.65456512E+03</rscale>
<asrwt>0</asrwt>
<pdfrwt beam="1">  1        2 0.24830853E+00 0.65456512E+03</pdfrwt>
<pdfrwt beam="2">  1       -2 0.10210038E-01 0.65456512E+03</pdfrwt>
<totfact> 0.74100620E+02</totfact>
</mgrwt>
</event>
<event>
 6    1  0.1965974E-005  0.4009441E+04  0.7818608E-02  0.8002645E-01
          2   -1    0    0  501    0  0.00000000000E+00  0.00000000000E+00  0.14368508529E+04  0.14368508529E+04  0.00000000000E+00 0. -1.
         -2   -1    0    0    0  501 -0.00000000000E+00 -0.00000000000E+00 -0.27970231560E+04  0.27970231560E+04  0.00000000000E+00 0.  1.
         23    2    1    2    0    0 -0.44643399567E+03 -0.90027538608E+03  0.11501145330E+04  0.15299252145E+04  0.90047985643E+02 0.  0.
         11    1    3    3    0    0 -0.23793874857E+03 -0.42578682703E+03  0.49999122762E+03  0.69849874577E+03  0.00000000000E+00 0. -1.
        -11    1    3    3    0    0 -0.20849524710E+03 -0.47448855905E+03  0.65012330541E+03  0.83142646877E+03  0.00000000000E+00 0.  1.
         22    1    1    2    0    0  0.44643399567E+03  0.90027538608E+03 -0.25102868361E+04  0.27039487944E+04  0.00000000000E+00 0.  1.
<mgrwt>
<rscale>  0 0.40094414E+04</rscale>
<asrwt>0</asrwt>
<pdfrwt beam="1">  1        2 0.22105398E+00 0.40094414E+04</pdfrwt>
<pdfrwt beam="2">  1       -2 0.43031125E+00 0.40094414E+04</pdfrwt>
<totfact> 0.50910056E-02</totfact>
</mgrwt>
</event>
<event>
 6    1  0.1637818E-005  0.1094362E+04  0.7818608E-02  0.9210704E-01
          2   -1    0    0  501    0  0.00000000000E+00  0.00000000000E+00  0.46204946824E+03  0.46204946824E+03  0.00000000000E+00 0. -1.
         -2   -1    0    0    0  501 -0.00000000000E+00 -0.00000000000E+00 -0.64799805013E+03  0.64799805013E+03  0.00000000000E+00 0.  1.
         23    2    1    2    0    0 -0.47293617740E+03  0.81819853660E+02 -0.35190203798E+03  0.60220535200E+03  0.91940879359E+02 0.  0.
         13    1    3    3    0    0 -0.14670065934E+03  0.40473716045E+02 -0.63823894625E+02  0.16502331552E+03  0.00000000000E+00 0.  1.
        -13    1    3    3    0    0 -0.32623551806E+03  0.41346137616E+02 -0.28807814336E+03  0.43718203648E+03  0.00000000000E+00 0. -1.
         22    1    1    2    0    0  0.47293617740E+03 -0.81819853660E+02  0.16595345609E+03  0.50784216637E+03  0.00000000000E+00 0. -1.
<mgrwt>
<rscale>  0 0.10943622E+04</rscale>
<asrwt>0</asrwt>
<pdfrwt beam="1">  1        2 0.71084534E-01 0.10943622E+04</pdfrwt>
<pdfrwt beam="2">  1       -2 0.99692007E-01 0.10943622E+04</pdfrwt>
<totfact> 0.55772201E+01</totfact>
</mgrwt>
</event>
<event>
 6    1  0.1637818E-005  0.5097653E+04  0.7818608E-02  0.7813617E-01
         -1   -1    0    0    0  501 -0.00000000000E+00  0.00000000000E+00  0.24065640637E+04  0.24065640637E+04  0.00000000000E+00 0.  1.
          1   -1    0    0  501    0  0.00000000000E+00 -0.00000000000E+00 -0.26994987563E+04  0.26994987563E+04  0.00000000000E+00 0. -1.
         23    2    1    2    0    0  0.18131694226E+04  0.81964275295E+03 -0.17407193580E+04  0.26452747278E+04  0.89313520513E+02 0.  0.
         13    1    3    3    0    0  0.77736529096E+03  0.31154827208E+03 -0.69902524563E+03  0.10908691101E+04  0.00000000000E+00 0. -1.
        -13    1    3    3    0    0  0.10358041316E+04  0.50809448087E+03 -0.10416941123E+04  0.15544056177E+04  0.00000000000E+00 0.  1.
         22    1    1    2    0    0 -0.18131694226E+04 -0.81964275295E+03  0.14477846654E+04  0.24607880922E+04  0.00000000000E+00 0. -1.
<mgrwt>
<rscale>  0 0.50976531E+04</rscale>
<asrwt>0</asrwt>
<pdfrwt beam="1">  1        1 0.41530750E+00 0.50976531E+04</pdfrwt>
<pdfrwt beam="2">  1       -1 0.37024063E+00 0.50976531E+04</pdfrwt>
<totfact> 0.80119190E-03</totfact>
</mgrwt>
</event>
<event>
 6    1  0.1637818E-005  0.1091579E+04  0.7818608E-02  0.9213438E-01
         -2   -1    0    0    0  501 -0.00000000000E+00  0.00000000000E+00  0.48885382767E+03  0.48885382767E+03  0.00000000000E+00 0. -1.
          2   -1    0    0  501    0  0.00000000000E+00 -0.00000000000E+00 -0.60935685993E+03  0.60935685993E+03  0.00000000000E+00 0.  1.
         23    2    1    2    0    0  0.14459887096E+03  0.21831846097E+03  0.41634192232E+03  0.50090482865E+03  0.94832838153E+02 0.  0.
         11    1    3    3    0    0  0.11380343367E+03  0.19024747547E+03  0.27324223101E+03  0.35186167772E+03  0.00000000000E+00 0.  1.
        -11    1    3    3    0    0  0.30795437295E+02  0.28070985500E+02  0.14309969131E+03  0.14904315093E+03  0.00000000000E+00 0. -1.
         22    1    1    2    0    0 -0.14459887096E+03 -0.21831846097E+03 -0.53684495458E+03  0.59730585895E+03  0.00000000000E+00 0.  1.
<mgrwt>
<rscale>  0 0.10915795E+04</rscale>
<asrwt>0</asrwt>
<pdfrwt beam="1">  1        2 0.93747209E-01 0.10915795E+04</pdfrwt>
<pdfrwt beam="2">  1       -2 0.75208281E-01 0.10915795E+04</pdfrwt>
<totfact> 0.76781376E+01</totfact>
</mgrwt>
</event>
<event>
 6    1  0.1637818E-005  0.1631910E+04  0.7818608E-02  0.8801181E-01
         -1   -1    0    0    0  501 -0.00000000000E+00  0.00000000000E+00  0.12544654443E+04  0.12544654443E+04  0.00000000000E+00 0.  1.
          1   -1    0    0  501    0  0.00000000000E+00 -0.00000000000E+00 -0.53072979735E+03  0.53072979735E+03  0.00000000000E+00 0. -1.
         23    2    1    2    0    0 -0.15208891051E+02 -0.81140478510E+03  0.42053393450E+03  0.91885794354E+03  0.94032412993E+02 0.  0.
         11    1    3    3    0    0 -0.11554181907E+02 -0.71645836123E+03  0.40342716114E+03  0.82231353925E+03  0.00000000000E+00 0. -1.
        -11    1    3    3    0    0 -0.36547091439E+01 -0.94946423872E+02  0.17106773366E+02  0.96544404292E+02  0.00000000000E+00 0.  1.
         22    1    1    2    0    0  0.15208891051E+02  0.81140478510E+03  0.30320171244E+03  0.86633729810E+03  0.00000000000E+00 0.  1.
<mgrwt>
<rscale>  0 0.16319095E+04</rscale>
<asrwt>0</asrwt>
<pdfrwt beam="1">  1        1 0.81650738E-01 0.16319095E+04</pdfrwt>
<pdfrwt beam="2">  1       -1 0.19299468E+00 0.16319095E+04</pdfrwt>
<totfact> 0.65709631E+00</totfact>
</mgrwt>
</event>
<event>
 6    1  0.1637818E-005  0.5513296E+04  0.7818608E-02  0.7753862E-01
         -2   -1    0    0    0  501 -0.00000000000E+00  0.00000000000E+00  0.26136995172E+04  0.26136995172E+04  0.00000000000E+00 0. -1.
          2   -1    0    0  501    0  0.00000000000E+00 -0.00000000000E+00 -0.29074146639E+04  0.29074146639E+04  0.00000000000E+00 0.  1.
         23    2    1    2    0    0  0.78681386562E+03  0.24840488951E+04  0.75160861594E+03  0.27135749131E+04  0.94859501832E+02 0.  0.
         13    1    3    3    0    0  0.65737883255E+02  0.30642786924E+03  0.82409344748E+02  0.32405371228E+03  0.00000000000E+00 0. -1.
        -13    1    3    3    0    0  0.72107598237E+03  0.21776210259E+04  0.66919927119E+03  0.23895212009E+04  0.00000000000E+00 0.  1.
         22    1    1    2    0    0 -0.78681386562E+03 -0.24840488951E+04 -0.10453237626E+04  0.28075392680E+04  0.00000000000E+00 0. -1.
<mgrwt>
<rscale>  0 0.55132960E+04</rscale>
<asrwt>0</asrwt>
<pdfrwt beam="1">  1        2 0.44729456E+00 0.55132960E+04</pdfrwt>
<pdfrwt beam="2">  1       -2 0.40210762E+00 0.55132960E+04</pdfrwt>
<totfact> 0.10001144E-02</totfact>
</mgrwt>
</event>
<event>
 6    1  0.1637818E-005  0.2649432E+04  0.7818608E-02  0.8351601E-01
          2   -1    0    0  501    0  0.00000000000E+00  0.00000000000E+00  0.18556643819E+04  0.18556643819E+04  0.00000000000E+00 0. -1.
         -2   -1    0    0    0  501 -0.00000000000E+00 -0.00000000000E+00 -0.94568446420E+03  0.94568446420E+03  0.00000000000E+00 0.  1.
         23    2    1    2    0    0 -0.71028328628E+03  0.98045518933E+03 -0.10890458889E+03  0.12189707741E+04  0.90745873162E+02 0.  0.
         13    1    3    3    0    0 -0.44614456643E+03  0.67306859029E+03 -0.45815136548E+02  0.80880487643E+03  0.00000000000E+00 0.  1.
        -13    1    3    3    0    0 -0.26413871984E+03  0.30738659904E+03 -0.63089452344E+02  0.41016589764E+03  0.00000000000E+00 0. -1.
         22    1    1    2    0    0  0.71028328628E+03 -0.98045518933E+03  0.10188845066E+04  0.15823780720E+04  0.00000000000E+00 0. -1.
<mgrwt>
<rscale>  0 0.26494324E+04</rscale>
<asrwt>0</asrwt>
<pdfrwt beam="1">  1        2 0.28548683E+00 0.26494324E+04</pdfrwt>
<pdfrwt beam="2">  1       -2 0.14548992E+00 0.26494324E+04</pdfrwt>
<totfact> 0.22995989E+00</totfact>
</mgrwt>
</event>
<event>
 6    1  0.1637818E-005  0.3412949E+04  0.7818608E-02  0.8134736E-01
          1   -1    0    0  501    0  0.00000000000E+00  0.00000000000E+00  0.15300516704E+04  0.15300516704E+04  0.00000000000E+00 0. -1.
         -1   -1    0    0    0  501 -0.00000000000E+00 -0.00000000000E+00 -0.19032398135E+04  0.19032398135E+04  0.00000000000E+00 0.  1.
         23    2    1    2    0    0 -0.64080430947E+03 -0.83655178413E+03  0.11619402060E+04  0.15712850128E+04  0.91555986763E+02 0.  0.
         11    1    3    3    0    0 -0.57931092584E+03 -0.72053376863E+03  0.10470329038E+04  0.13967991846E+04  0.00000000000E+00 0. -1.
        -11    1    3    3    0    0 -0.61493383628E+02 -0.11601801550E+03  0.11490730220E+03  0.17448582822E+03  0.00000000000E+00 0.  1.
         22    1    1    2    0    0  0.64080430947E+03  0.83655178413E+03 -0.15351283491E+04  0.18620064712E+04  0.00000000000E+00 0.  1.
<mgrwt>
<rscale>  0 0.34129490E+04</rscale>
<asrwt>0</asrwt>
<pdfrwt beam="1">  1        1 0.23539256E+00 0.34129490E+04</pdfrwt>
<pdfrwt beam="2">  1       -1 0.29280613E+00 0.34129490E+04</pdfrwt>
<totfact> 0.18839275E-01</totfact>
</mgrwt>
</event>
<event>
 6    1  0.1637818E-005  0.1222458E+04  0.7818608E-02  0.9093423E-01
         -2   -1    0    0    0  501 -0.00000000000E+00  0.00000000000E+00  0.88439862014E+03  0.88439862014E+03  0.00000000000E+00 0.  1.
          2   -1    0    0  501    0  0.00000000000E+00 -0.00000000000E+00 -0.42243485429E+03  0.42243485429E+03  0.00000000000E+00 0. -1.
         23    2    1    2    0    0 -0.57623786258E+03 -0.56896174223E+01  0.25681960882E+02  0.58404425248E+03  0.91464089812E+02 0.  0.
         11    1    3    3    0    0 -0.84348802322E+02 -0.33169978758E+02 -0.13584847334E+01  0.90646640450E+02  0.00000000000E+00 0. -1.
        -11    1    3    3    0    0 -0.49188906025E+03  0.27480361335E+02  0.27040445616E+02  0.49339761203E+03  0.00000000000E+00 0.  1.
         22    1    1    2    0    0  0.57623786258E+03  0.56896174223E+01  0.43628180497E+03  0.72278922194E+03  0.00000000000E+00 0.  1.
<mgrwt>
<rscale>  0 0.12224579E+04</rscale>
<asrwt>0</asrwt>
<pdfrwt beam="1">  1        2 0.64989978E-01 0.12224579E+04</pdfrwt>
<pdfrwt beam="2">  1       -2 0.13606133E+00 0.12224579E+04</pdfrwt>
<totfact> 0.28457555E+01</totfact>
</mgrwt>
</event>
<event>
 6    1  0.1637818E-005  0.2653726E+04  0.7818608E-02  0.8350177E-01
         -2   -1    0    0    0  501 -0.00000000000E+00  0.00000000000E+00  0.50993752944E+03  0.50993752944E+03  0.00000000000E+00 0.  1.
          2   -1    0    0  501    0  0.00000000000E+00 -0.00000000000E+00 -0.34525123989E+04  0.34525123989E+04  0.00000000000E+00 0. -1.
         23    2    1    2    0    0  0.78317868670E+03  0.27918347963E+03  0.67954383551E+02  0.83921464200E+03  0.91384607555E+02 0.  0.
         11    1    3    3    0    0  0.20181441696E+03  0.72031171351E+02  0.57884671993E+02  0.22196437505E+03  0.00000000000E+00 0.  1.
        -11    1    3    3    0    0  0.58136426975E+03  0.20715230828E+03  0.10069711557E+02  0.61725026696E+03  0.00000000000E+00 0. -1.
         22    1    1    2    0    0 -0.78317868670E+03 -0.27918347963E+03 -0.30105292530E+04  0.31232352863E+04  0.00000000000E+00 0. -1.
<mgrwt>
<rscale>  0 0.26537262E+04</rscale>
<asrwt>0</asrwt>
<pdfrwt beam="1">  1        2 0.53115575E+00 0.26537262E+04</pdfrwt>
<pdfrwt beam="2">  1       -2 0.78451928E-01 0.26537262E+04</pdfrwt>
<totfact> 0.11162555E+00</totfact>
</mgrwt>
</event>
<event>
 6    1  0.1637818E-005  0.2848615E+04  0.7818608E-02  0.8288332E-01
         -2   -1    0    0    0  501 -0.00000000000E+00  0.00000000000E+00  0.93785258442E+03  0.93785258442E+03  0.00000000000E+00 0.  1.
          2   -1    0    0  501    0  0.00000000000E+00 -0.00000000000E+00 -0.21630817315E+04  0.21630817315E+04  0.00000000000E+00 0. -1.
         23    2    1    2    0    0 -0.41909235713E+03  0.12811115987E+04 -0.11094014665E+04  0.17480480000E+04  0.89525775178E+02 0.  0.
         11    1    3    3    0    0 -0.31872978902E+03  0.10559554152E+04 -0.93644206499E+03  0.14469119732E+04  0.00000000000E+00 0. -1.
        -11    1    3    3    0    0 -0.10036256811E+03  0.22515618356E+03 -0.17295940151E+03  0.30113602681E+03  0.00000000000E+00 0.  1.
         22    1    1    2    0    0  0.41909235713E+03 -0.12811115987E+04 -0.11582768063E+03  0.13528863159E+04  0.00000000000E+00 0.  1.
<mgrwt>
<rscale>  0 0.28486150E+04</rscale>
<asrwt>0</asrwt>
<pdfrwt beam="1">  1        2 0.33278180E+00 0.28486150E+04</pdfrwt>
<pdfrwt beam="2">  1       -2 0.14428502E+00 0.28486150E+04</pdfrwt>
<totfact> 0.15583761E+00</totfact>
</mgrwt>
</event>
<event>
 6    1  0.1637818E-005  0.3007898E+04  0.7818608E-02  0.8241479E-01
          1   -1    0    0  501    0  0.00000000000E+00  0.00000000000E+00  0.30305064365E+04  0.30305064365E+04  0.00000000000E+00 0. -1.
         -1   -1    0    0    0  501 -0.00000000000E+00 -0.00000000000E+00 -0.74636442879E+03  0.74636442879E+03  0.00000000000E+00 0.  1.
         23    2    1    2    0    0  0.76162142575E+03 -0.44421819103E+03 -0.38449788356E+03  0.96634851763E+03  0.92702953931E+02 0.  0.
         11    1    3    3    0    0  0.33067971133E+03 -0.15779802426E+03 -0.19684746214E+03  0.41593053663E+03  0.00000000000E+00 0. -1.
        -11    1    3    3    0    0  0.43094171442E+03 -0.28642016676E+03 -0.18765042142E+03  0.55041798100E+03  0.00000000000E+00 0.  1.
         22    1    1    2    0    0 -0.76162142575E+03  0.44421819103E+03  0.26686398913E+04  0.28105223477E+04  0.00000000000E+00 0. -1.
<mgrwt>
<rscale>  0 0.30078977E+04</rscale>
<asrwt>0</asrwt>
<pdfrwt beam="1">  1        1 0.46623175E+00 0.30078977E+04</pdfrwt>
<pdfrwt beam="2">  1       -1 0.11482530E+00 0.30078977E+04</pdfrwt>
<totfact> 0.33241841E-01</totfact>
</mgrwt>
</event>
<event>
 6    1  0.1637818E-005  0.2805510E+04  0.7818608E-02  0.8301560E-01
         -2   -1    0    0    0  501 -0.00000000000E+00  0.00000000000E+00  0.78363669956E+03  0.78363669956E+03  0.00000000000E+00 0.  1.
          2   -1    0    0  501    0  0.00000000000E+00 -0.00000000000E+00 -0.25110129599E+04  0.25110129599E+04  0.00000000000E+00 0. -1.
         23    2    1    2    0    0 -0.13751268366E+04  0.14674283662E+02 -0.54950131541E+03  0.14839651101E+04  0.94929452525E+02 0.  0.
         11    1    3    3    0    0 -0.73111721390E+03  0.48131573476E+02 -0.26549378279E+03  0.77931763583E+03  0.00000000000E+00 0.  1.
        -11    1    3    3    0    0 -0.64400962272E+03 -0.33457289814E+02 -0.28400753262E+03  0.70464747426E+03  0.00000000000E+00 0. -1.
         22    1    1    2    0    0  0.13751268366E+04 -0.14674283662E+02 -0.11778749449E+04  0.18106845494E+04  0.00000000000E+00 0.  1.
<mgrwt>
<rscale>  0 0.28055102E+04</rscale>
<asrwt>0</asrwt>
<pdfrwt beam="1">  1        2 0.38630969E+00 0.28055102E+04</pdfrwt>
<pdfrwt beam="2">  1       -2 0.12055949E+00 0.28055102E+04</pdfrwt>
<totfact> 0.15656447E+00</totfact>
</mgrwt>
</event>
<event>
 6    1  0.1637818E-005  0.3777503E+04  0.7818608E-02  0.8051000E-01
          2   -1    0    0  501    0  0.00000000000E+00  0.00000000000E+00  0.35694094934E+04  0.35694094934E+04  0.00000000000E+00 0. -1.
         -2   -1    0    0    0  501 -0.00000000000E+00 -0.00000000000E+00 -0.99943200632E+03  0.99943200632E+03  0.00000000000E+00 0.  1.
         23    2    1    2    0    0  0.53469609411E+03  0.14844105051E+04  0.25390799535E+04  0.29907638342E+04  0.91470436883E+02 0.  0.
         11    1    3    3    0    0  0.15813103885E+03  0.38019397592E+03  0.72992333784E+03  0.83805785236E+03  0.00000000000E+00 0. -1.
        -11    1    3    3    0    0  0.37656505526E+03  0.11042165292E+04  0.18091566156E+04  0.21527059818E+04  0.00000000000E+00 0.  1.
         22    1    1    2    0    0 -0.53469609411E+03 -0.14844105051E+04  0.30897533561E+02  0.15780776655E+04  0.00000000000E+00 0.  1.
<mgrwt>
<rscale>  0 0.37775029E+04</rscale>
<asrwt>0</asrwt>
<pdfrwt beam="1">  1        2 0.54913992E+00 0.37775029E+04</pdfrwt>
<pdfrwt beam="2">  1       -2 0.15375877E+00 0.37775029E+04</pdfrwt>
<totfact> 0.16329266E-01</totfact>
</mgrwt>
</event>
<event>
 6    1  0.1637818E-005  0.3774656E+04  0.7818608E-02  0.8051616E-01
          2   -1    0    0  501    0  0.00000000000E+00  0.00000000000E+00  0.12889450468E+04  0.12889450468E+04  0.00000000000E+00 0. -1.
         -2   -1    0    0    0  501 -0.00000000000E+00 -0.00000000000E+00 -0.27635058898E+04  0.27635058898E+04  0.00000000000E+00 0.  1.
         23    2    1    2    0    0  0.11666592951E+03 -0.12803690969E+04 -0.22191465279E+04  0.25667309746E+04  0.10266752366E+03 0.  0.
         11    1    3    3    0    0  0.45013212052E+01 -0.16121193853E+03 -0.21827092132E+03  0.27138855192E+03  0.00000000000E+00 0. -1.
        -11    1    3    3    0    0  0.11216460831E+03 -0.11191571583E+04 -0.20008756066E+04  0.22953424227E+04  0.00000000000E+00 0.  1.
         22    1    1    2    0    0 -0.11666592951E+03  0.12803690969E+04  0.74458568490E+03  0.14857199620E+04  0.00000000000E+00 0. -1.
<mgrwt>
<rscale>  0 0.37746561E+04</rscale>
<asrwt>0</asrwt>
<pdfrwt beam="1">  1        2 0.19829924E+00 0.37746561E+04</pdfrwt>
<pdfrwt beam="2">  1       -2 0.42515475E+00 0.37746561E+04</pdfrwt>
<totfact> 0.68294179E-02</totfact>
</mgrwt>
</event>
<event>
 6    1  0.1637818E-005  0.3150331E+03  0.7818608E-02  0.1077958E+00
         -3   -1    0    0    0  501 -0.00000000000E+00  0.00000000000E+00  0.50592065011E+03  0.50592065011E+03  0.00000000000E+00 0.  1.
          3   -1    0    0  501    0  0.00000000000E+00 -0.00000000000E+00 -0.49042194440E+02  0.49042194440E+02  0.00000000000E+00 0. -1.
         23    2    1    2    0    0  0.13794774048E+03  0.33818668534E+02  0.29627620187E+03  0.34056516413E+03  0.89620096961E+02 0.  0.
         11    1    3    3    0    0  0.44576237248E+02 -0.30984710859E+02  0.96074576951E+02  0.11035133697E+03  0.00000000000E+00 0. -1.
        -11    1    3    3    0    0  0.93371503230E+02  0.64803379393E+02  0.20020162492E+03  0.23021382716E+03  0.00000000000E+00 0.  1.
         22    1    1    2    0    0 -0.13794774048E+03 -0.33818668534E+02  0.16060225380E+03  0.21439768042E+03  0.00000000000E+00 0. -1.
<mgrwt>
<rscale>  0 0.31503307E+03</rscale>
<asrwt>0</asrwt>
<pdfrwt beam="1">  1        3 0.75449533E-02 0.31503307E+03</pdfrwt>
<pdfrwt beam="2">  1       -3 0.77833943E-01 0.31503307E+03</pdfrwt>
<totfact> 0.47726917E+02</totfact>
</mgrwt>
</event>
<event>
 6    1  0.1637818E-005  0.8910178E+03  0.7818608E-02  0.9436880E-01
          1   -1    0    0  501    0  0.00000000000E+00  0.00000000000E+00  0.50065119803E+03  0.50065119803E+03  0.00000000000E+00 0. -1.
         -1   -1    0    0    0  501 -0.00000000000E+00 -0.00000000000E+00 -0.39644004808E+03  0.39644004808E+03  0.00000000000E+00 0.  1.
         23    2    1    2    0    0  0.36834746592E+03  0.20163413648E+03  0.18702982430E+03  0.46907826329E+03  0.93370665985E+02 0.  0.
         13    1    3    3    0    0  0.11126594099E+03  0.32980794331E+02  0.89373801315E+02  0.14647702476E+03  0.00000000000E+00 0. -1.
        -13    1    3    3    0    0  0.25708152493E+03  0.16865334214E+03  0.97656022988E+02  0.32260123853E+03  0.00000000000E+00 0.  1.
         22    1    1    2    0    0 -0.36834746592E+03 -0.20163413648E+03 -0.82818674349E+02  0.42801298282E+03  0.00000000000E+00 0.  1.
<mgrwt>
<rscale>  0 0.89101781E+03</rscale>
<asrwt>0</asrwt>
<pdfrwt beam="1">  1        1 0.77023261E-01 0.89101781E+03</pdfrwt>
<pdfrwt beam="2">  1       -1 0.60990777E-01 0.89101781E+03</pdfrwt>
<totfact> 0.12165149E+02</totfact>
</mgrwt>
</event>
<event>
 6    1  0.1637818E-005  0.2157002E+04  0.7818608E-02  0.8536541E-01
         -2   -1    0    0    0  501 -0.00000000000E+00  0.00000000000E+00  0.46231611312E+03  0.46231611312E+03  0.00000000000E+00 0.  1.
          2   -1    0    0  501    0  0.00000000000E+00 -0.00000000000E+00 -0.25159497931E+04  0.25159497931E+04  0.00000000000E+00 0. -1.
         23    2    1    2    0    0  0.59426854731E+03  0.77459510083E+03 -0.16551914399E+04  0.19237949985E+04  0.90420225549E+02 0.  0.
         11    1    3    3    0    0  0.94282024010E+02  0.15143708193E+03 -0.36503890243E+03  0.40629507765E+03  0.00000000000E+00 0.  1.
        -11    1    3    3    0    0  0.49998652330E+03  0.62315801889E+03 -0.12901525374E+04  0.15174999209E+04  0.00000000000E+00 0. -1.
         22    1    1    2    0    0 -0.59426854731E+03 -0.77459510083E+03 -0.39844224018E+03  0.10544709078E+04  0.00000000000E+00 0.  1.
<mgrwt>
<rscale>  0 0.21570017E+04</rscale>
<asrwt>0</asrwt>
<pdfrwt beam="1">  1        2 0.38706919E+00 0.21570017E+04</pdfrwt>
<pdfrwt beam="2">  1       -2 0.71125558E-01 0.21570017E+04</pdfrwt>
<totfact> 0.56121649E+00</totfact>
</mgrwt>
</event>
<event>
 6    1  0.1637818E-005  0.1876347E+04  0.7818608E-02  0.8666720E-01
          2   -1    0    0  501    0  0.00000000000E+00  0.00000000000E+00  0.28305660386E+04  0.28305660386E+04  0.00000000000E+00 0. -1.
         -2   -1    0    0    0  501 -0.00000000000E+00 -0.00000000000E+00 -0.31095188977E+03  0.31095188977E+03  0.00000000000E+00 0.  1.
         23    2    1    2    0    0 -0.62333590269E+03  0.19683147477E+03  0.14110313654E+03  0.67481873459E+03  0.90443089084E+02 0.  0.
         11    1    3    3    0    0 -0.60012976073E+03  0.19966159786E+03  0.14963643490E+03  0.64993195491E+03  0.00000000000E+00 0. -1.
        -11    1    3    3    0    0 -0.23206141965E+02 -0.28301230928E+01 -0.85332983553E+01  0.24886779672E+02  0.00000000000E+00 0.  1.
         22    1    1    2    0    0  0.62333590269E+03 -0.19683147477E+03  0.23785110123E+04  0.24666991938E+04  0.00000000000E+00 0. -1.
<mgrwt>
<rscale>  0 0.18763474E+04</rscale>
<asrwt>0</asrwt>
<pdfrwt beam="1">  1        2 0.43547168E+00 0.18763474E+04</pdfrwt>
<pdfrwt beam="2">  1       -2 0.47838754E-01 0.18763474E+04</pdfrwt>
<totfact> 0.86273837E+00</totfact>
</mgrwt>
</event>
<event>
 6    1  0.1637818E-005  0.1027483E+04  0.7818608E-02  0.9278905E-01
          1   -1    0    0  501    0  0.00000000000E+00  0.00000000000E+00  0.28577745457E+03  0.28577745457E+03  0.00000000000E+00 0. -1.
         -1   -1    0    0    0  501 -0.00000000000E+00 -0.00000000000E+00 -0.92355138429E+03  0.92355138429E+03  0.00000000000E+00 0.  1.
         23    2    1    2    0    0  0.38110068865E+02  0.50806858188E+03 -0.31334178085E+03  0.60530708390E+03  0.92884514016E+02 0.  0.
         11    1    3    3    0    0  0.62385798543E+01  0.71789493709E+02 -0.94728049437E+01  0.72680020081E+02  0.00000000000E+00 0. -1.
        -11    1    3    3    0    0  0.31871489011E+02  0.43627908818E+03 -0.30386897591E+03  0.53262706382E+03  0.00000000000E+00 0.  1.
         22    1    1    2    0    0 -0.38110068865E+02 -0.50806858188E+03 -0.32443214886E+03  0.60402175496E+03  0.00000000000E+00 0.  1.
<mgrwt>
<rscale>  0 0.10274827E+04</rscale>
<asrwt>0</asrwt>
<pdfrwt beam="1">  1        1 0.43965763E-01 0.10274827E+04</pdfrwt>
<pdfrwt beam="2">  1       -1 0.14208483E+00 0.10274827E+04</pdfrwt>
<totfact> 0.37711169E+01</totfact>
</mgrwt>
</event>
<event>
 6    1  0.1637818E-005  0.2786808E+04  0.7818608E-02  0.8307376E-01
          2   -1    0    0  501    0  0.00000000000E+00  0.00000000000E+00  0.12915182383E+04  0.12915182383E+04  0.00000000000E+00 0. -1.
         -2   -1    0    0    0  501 -0.00000000000E+00 -0.00000000000E+00 -0.15033275947E+04  0.15033275947E+04  0.00000000000E+00 0.  1.
         23    2    1    2    0    0  0.12020671136E+04 -0.26007121055E+03 -0.75962359388E+03  0.14484793083E+04  0.91988705812E+02 0.  0.
         13    1    3    3    0    0  0.93184047543E+03 -0.19219453331E+03 -0.63043406225E+03  0.11413643227E+04  0.00000000000E+00 0. -1.
        -13    1    3    3    0    0  0.27022663817E+03 -0.67876677247E+02 -0.12918953164E+03  0.30711498559E+03  0.00000000000E+00 0.  1.
         22    1    1    2    0    0 -0.12020671136E+04  0.26007121055E+03  0.54781423749E+03  0.13463665247E+04  0.00000000000E+00 0. -1.
<mgrwt>
<rscale>  0 0.27868082E+04</rscale>
<asrwt>0</asrwt>
<pdfrwt beam="1">  1        2 0.19869512E+00 0.27868082E+04</pdfrwt>
<pdfrwt beam="2">  1       -2 0.23128117E+00 0.27868082E+04</pdfrwt>
<totfact> 0.12225874E+00</totfact>
</mgrwt>
</event>
<event>
 6    1  0.1637818E-005  0.3708721E+04  0.7818608E-02  0.8066032E-01
         -1   -1    0    0    0  501 -0.00000000000E+00  0.00000000000E+00  0.11243876738E+04  0.11243876738E+04  0.00000000000E+00 0.  1.
          1   -1    0    0  501    0  0.00000000000E+00 -0.00000000000E+00 -0.30582456825E+04  0.30582456825E+04  0.00000000000E+00 0. -1.
         23    2    1    2    0    0 -0.12552161305E+04  0.13567090963E+04 -0.81471670886E+03  0.20219148750E+04  0.90273694523E+02 0.  0.
         11    1    3    3    0    0 -0.27807564682E+03  0.33653061037E+03 -0.16035264325E+03  0.46507191623E+03  0.00000000000E+00 0. -1.
        -11    1    3    3    0    0 -0.97714048364E+03  0.10201784860E+04 -0.65436406562E+03  0.15568429588E+04  0.00000000000E+00 0.  1.
         22    1    1    2    0    0  0.12552161305E+04 -0.13567090963E+04 -0.11191412998E+04  0.21607184813E+04  0.00000000000E+00 0.  1.
<mgrwt>
<rscale>  0 0.37087215E+04</rscale>
<asrwt>0</asrwt>
<pdfrwt beam="1">  1        1 0.47049933E+00 0.37087215E+04</pdfrwt>
<pdfrwt beam="2">  1       -1 0.17298272E+00 0.37087215E+04</pdfrwt>
<totfact> 0.10155651E-01</totfact>
</mgrwt>
</event>
<event>
 6    1  0.1637818E-005  0.2659217E+04  0.7818608E-02  0.8348360E-01
          2   -1    0    0  501    0  0.00000000000E+00  0.00000000000E+00  0.16349063258E+04  0.16349063258E+04  0.00000000000E+00 0. -1.
         -2   -1    0    0    0  501 -0.00000000000E+00 -0.00000000000E+00 -0.10813211226E+04  0.10813211226E+04  0.00000000000E+00 0.  1.
         23    2    1    2    0    0  0.72065284866E+03  0.88939502206E+03  0.96498603235E+03  0.14998333199E+04  0.89094956799E+02 0.  0.
         13    1    3    3    0    0  0.38313266084E+03  0.43031591635E+03  0.43865286903E+03  0.72414001628E+03  0.00000000000E+00 0. -1.
        -13    1    3    3    0    0  0.33752018782E+03  0.45907910570E+03  0.52633316332E+03  0.77569330362E+03  0.00000000000E+00 0.  1.
         22    1    1    2    0    0 -0.72065284866E+03 -0.88939502206E+03 -0.41140082918E+03  0.12163941285E+04  0.00000000000E+00 0.  1.
<mgrwt>
<rscale>  0 0.26592170E+04</rscale>
<asrwt>0</asrwt>
<pdfrwt beam="1">  1        2 0.25152405E+00 0.26592170E+04</pdfrwt>
<pdfrwt beam="2">  1       -2 0.16635710E+00 0.26592170E+04</pdfrwt>
<totfact> 0.21245593E+00</totfact>
</mgrwt>
</event>
<event>
 6    1  0.1637818E-005  0.1881706E+04  0.7818608E-02  0.8664017E-01
         -1   -1    0    0    0  501 -0.00000000000E+00  0.00000000000E+00  0.22512347750E+03  0.22512347750E+03  0.00000000000E+00 0.  1.
          1   -1    0    0  501    0  0.00000000000E+00 -0.00000000000E+00 -0.39320830214E+04  0.39320830214E+04  0.00000000000E+00 0. -1.
         23    2    1    2    0    0 -0.52844936803E+03 -0.57610152312E+03 -0.30057287344E+04  0.31070273010E+04  0.89787108427E+02 0.  0.
         11    1    3    3    0    0 -0.23804983287E+03 -0.31994578237E+03 -0.14514336308E+04  0.15052217814E+04  0.00000000000E+00 0. -1.
        -11    1    3    3    0    0 -0.29039953516E+03 -0.25615574076E+03 -0.15542951036E+04  0.16018055196E+04  0.00000000000E+00 0.  1.
         22    1    1    2    0    0  0.52844936803E+03  0.57610152312E+03 -0.70123080948E+03  0.10501791979E+04  0.00000000000E+00 0.  1.
<mgrwt>
<rscale>  0 0.18817058E+04</rscale>
<asrwt>0</asrwt>
<pdfrwt beam="1">  1        1 0.60493584E+00 0.18817058E+04</pdfrwt>
<pdfrwt beam="2">  1       -1 0.34634381E-01 0.18817058E+04</pdfrwt>
<totfact> 0.82269131E-01</totfact>
</mgrwt>
</event>
<event>
 6    1  0.1637818E-005  0.2264519E+04  0.7818608E-02  0.8492044E-01
          2   -1    0    0  501    0  0.00000000000E+00  0.00000000000E+00  0.42388369621E+04  0.42388369621E+04  0.00000000000E+00 0. -1.
         -2   -1    0    0    0  501 -0.00000000000E+00 -0.00000000000E+00 -0.30244415617E+03  0.30244415617E+03  0.00000000000E+00 0.  1.
         23    2    1    2    0    0  0.10792592930E+04 -0.11279541653E+02  0.12972504900E+04  0.16899656300E+04  0.90538099469E+02 0.  0.
         11    1    3    3    0    0  0.92638958177E+03 -0.39033928188E+02  0.11291398437E+04  0.14610537606E+04  0.00000000000E+00 0. -1.
        -11    1    3    3    0    0  0.15286971120E+03  0.27754386535E+02  0.16811064623E+03  0.22891186939E+03  0.00000000000E+00 0.  1.
         22    1    1    2    0    0 -0.10792592930E+04  0.11279541653E+02  0.26391423159E+04  0.28513154882E+04  0.00000000000E+00 0.  1.
<mgrwt>
<rscale>  0 0.22645189E+04</rscale>
<asrwt>0</asrwt>
<pdfrwt beam="1">  1        2 0.65212872E+00 0.22645189E+04</pdfrwt>
<pdfrwt beam="2">  1       -2 0.46529873E-01 0.22645189E+04</pdfrwt>
<totfact> 0.86312971E-01</totfact>
</mgrwt>
</event>
<event>
 6    1  0.2213840E-005  0.3622160E+04  0.7818608E-02  0.8085435E-01
          2   -1    0    0  501    0  0.00000000000E+00  0.00000000000E+00  0.21015104995E+04  0.21015104995E+04  0.00000000000E+00 0. -1.
         -2   -1    0    0    0  501 -0.00000000000E+00 -0.00000000000E+00 -0.15607869615E+04  0.15607869615E+04  0.00000000000E+00 0.  1.
         23    2    1    2    0    0 -0.17896687936E+04 -0.12819672049E+03  0.50965295521E+03  0.18677740784E+04  0.97391392351E+02 0.  0.
         13    1    3    3    0    0 -0.54740468615E+03 -0.56921223061E+02  0.11361065045E+03  0.56196022630E+03  0.00000000000E+00 0. -1.
        -13    1    3    3    0    0 -0.12422641074E+04 -0.71275497426E+02  0.39604230476E+03  0.13058138521E+04  0.00000000000E+00 0.  1.
         22    1    1    2    0    0  0.17896687936E+04  0.12819672049E+03  0.31070582753E+02  0.17945233827E+04  0.00000000000E+00 0.  1.
<mgrwt>
<rscale>  0 0.36221597E+04</rscale>
<asrwt>0</asrwt>
<pdfrwt beam="1">  1        2 0.32330931E+00 0.36221597E+04</pdfrwt>
<pdfrwt beam="2">  1       -2 0.24012107E+00 0.36221597E+04</pdfrwt>
<totfact> 0.35283204E-01</totfact>
</mgrwt>
</event>
<event>
 6    1  0.1637818E-005  0.2849687E+04  0.7818608E-02  0.8288006E-01
          1   -1    0    0  501    0  0.00000000000E+00  0.00000000000E+00  0.15234352560E+04  0.15234352560E+04  0.00000000000E+00 0. -1.
         -1   -1    0    0    0  501 -0.00000000000E+00 -0.00000000000E+00 -0.13326323198E+04  0.13326323198E+04  0.00000000000E+00 0.  1.
         23    2    1    2    0    0  0.10625938939E+04 -0.29634652790E+03  0.99704692582E+03  0.14897014394E+04  0.90447544916E+02 0.  0.
         13    1    3    3    0    0  0.62269208210E+03 -0.15220939168E+03  0.63178023531E+03  0.90003299593E+03  0.00000000000E+00 0. -1.
        -13    1    3    3    0    0  0.43990181176E+03 -0.14413713622E+03  0.36526669051E+03  0.58966844347E+03  0.00000000000E+00 0.  1.
         22    1    1    2    0    0 -0.10625938939E+04  0.29634652790E+03 -0.80624398966E+03  0.13663661364E+04  0.00000000000E+00 0.  1.
<mgrwt>
<rscale>  0 0.28496870E+04</rscale>
<asrwt>0</asrwt>
<pdfrwt beam="1">  1        1 0.23437465E+00 0.28496870E+04</pdfrwt>
<pdfrwt beam="2">  1       -1 0.20502036E+00 0.28496870E+04</pdfrwt>
<totfact> 0.75517025E-01</totfact>
</mgrwt>
</event>
<event>
 6    1  0.1637818E-005  0.1983483E+04  0.7818608E-02  0.8614382E-01
         -1   -1    0    0    0  501 -0.00000000000E+00  0.00000000000E+00  0.31907298295E+03  0.31907298295E+03  0.00000000000E+00 0.  1.
          1   -1    0    0  501    0  0.00000000000E+00 -0.00000000000E+00 -0.30825284525E+04  0.30825284525E+04  0.00000000000E+00 0. -1.
         23    2    1    2    0    0 -0.12749928133E+03  0.94705076423E+03 -0.18259911043E+04  0.20629451491E+04  0.91312422881E+02 0.  0.
         11    1    3    3    0    0 -0.13453294208E+03  0.75152083944E+03 -0.14181282850E+04  0.16105808012E+04  0.00000000000E+00 0. -1.
        -11    1    3    3    0    0  0.70336607528E+01  0.19552992479E+03 -0.40786281931E+03  0.45236434790E+03  0.00000000000E+00 0.  1.
         22    1    1    2    0    0  0.12749928133E+03 -0.94705076423E+03 -0.93746436521E+03  0.13386562863E+04  0.00000000000E+00 0.  1.
<mgrwt>
<rscale>  0 0.19834833E+04</rscale>
<asrwt>0</asrwt>
<pdfrwt beam="1">  1        1 0.47423513E+00 0.19834833E+04</pdfrwt>
<pdfrwt beam="2">  1       -1 0.49088153E-01 0.19834833E+04</pdfrwt>
<totfact> 0.20123648E+00</totfact>
</mgrwt>
</event>
<event>
 6    1  0.1637818E-005  0.3688623E+04  0.7818608E-02  0.8070488E-01
         -1   -1    0    0    0  501 -0.00000000000E+00  0.00000000000E+00  0.12466555727E+04  0.12466555727E+04  0.00000000000E+00 0.  1.
          1   -1    0    0  501    0  0.00000000000E+00 -0.00000000000E+00 -0.27284883529E+04  0.27284883529E+04  0.00000000000E+00 0. -1.
         23    2    1    2    0    0  0.13575465296E+04  0.10554695498E+04 -0.26282814346E+02  0.17222404093E+04  0.92047219133E+02 0.  0.
         11    1    3    3    0    0  0.56073875376E+03  0.38374156811E+03  0.76332367086E+01  0.67951733412E+03  0.00000000000E+00 0.  1.
        -11    1    3    3    0    0  0.79680777586E+03  0.67172798166E+03 -0.33916051055E+02  0.10427230752E+04  0.00000000000E+00 0. -1.
         22    1    1    2    0    0 -0.13575465296E+04 -0.10554695498E+04 -0.14555499658E+04  0.22529035163E+04  0.00000000000E+00 0. -1.
<mgrwt>
<rscale>  0 0.36886232E+04</rscale>
<asrwt>0</asrwt>
<pdfrwt beam="1">  1        1 0.41976743E+00 0.36886232E+04</pdfrwt>
<pdfrwt beam="2">  1       -1 0.19179317E+00 0.36886232E+04</pdfrwt>
<totfact> 0.12911596E-01</totfact>
</mgrwt>
</event>
<event>
 6    1  0.1696661E-005  0.1457165E+04  0.7818608E-02  0.8913448E-01
          2   -1    0    0  501    0  0.00000000000E+00  0.00000000000E+00  0.53698330588E+03  0.53698330588E+03  0.00000000000E+00 0. -1.
         -2   -1    0    0    0  501 -0.00000000000E+00 -0.00000000000E+00 -0.98854520419E+03  0.98854520419E+03  0.00000000000E+00 0.  1.
         23    2    1    2    0    0 -0.67029365982E+02 -0.18419030796E+03 -0.95834475414E+03  0.98216135204E+03  0.88302028319E+02 0.  0.
         11    1    3    3    0    0 -0.14157463235E+02 -0.11663799134E+02 -0.26787277555E+03  0.26850009657E+03  0.00000000000E+00 0. -1.
        -11    1    3    3    0    0 -0.52871902747E+02 -0.17252650882E+03 -0.69047197859E+03  0.71366125548E+03  0.00000000000E+00 0.  1.
         22    1    1    2    0    0  0.67029365982E+02  0.18419030796E+03  0.50678285583E+03  0.54336715802E+03  0.00000000000E+00 0. -1.
<mgrwt>
<rscale>  0 0.14571647E+04</rscale>
<asrwt>0</asrwt>
<pdfrwt beam="1">  1        2 0.82612817E-01 0.14571647E+04</pdfrwt>
<pdfrwt beam="2">  1       -2 0.15208388E+00 0.14571647E+04</pdfrwt>
<totfact> 0.15841297E+01</totfact>
</mgrwt>
</event>
<event>
 6    1  0.1908235E-005  0.3903724E+04  0.7818608E-02  0.8024255E-01
         -2   -1    0    0    0  501 -0.00000000000E+00  0.00000000000E+00  0.15624816262E+04  0.15624816262E+04  0.00000000000E+00 0.  1.
          2   -1    0    0  501    0  0.00000000000E+00 -0.00000000000E+00 -0.24382787437E+04  0.24382787437E+04  0.00000000000E+00 0. -1.
         23    2    1    2    0    0  0.11536640402E+04 -0.10866126691E+04 -0.16039730480E+04  0.22566537229E+04  0.89937067376E+02 0.  0.
         11    1    3    3    0    0  0.65094237756E+03 -0.65014562482E+03 -0.88018266385E+03  0.12732387184E+04  0.00000000000E+00 0.  1.
        -11    1    3    3    0    0  0.50272166267E+03 -0.43646704428E+03 -0.72379038415E+03  0.98341500449E+03  0.00000000000E+00 0. -1.
         22    1    1    2    0    0 -0.11536640402E+04  0.10866126691E+04  0.72817593045E+03  0.17441066470E+04  0.00000000000E+00 0.  1.
<mgrwt>
<rscale>  0 0.39037242E+04</rscale>
<asrwt>0</asrwt>
<pdfrwt beam="1">  1        2 0.37511981E+00 0.39037242E+04</pdfrwt>
<pdfrwt beam="2">  1       -2 0.24038179E+00 0.39037242E+04</pdfrwt>
<totfact> 0.22135852E-01</totfact>
</mgrwt>
</event>
<event>
 6    1  0.1637818E-005  0.2962849E+04  0.7818608E-02  0.8254420E-01
          2   -1    0    0  501    0  0.00000000000E+00  0.00000000000E+00  0.21850183101E+04  0.21850183101E+04  0.00000000000E+00 0. -1.
         -2   -1    0    0    0  501 -0.00000000000E+00 -0.00000000000E+00 -0.10043938469E+04  0.10043938469E+04  0.00000000000E+00 0.  1.
         23    2    1    2    0    0  0.38571935973E+03  0.17830790704E+02 -0.94719422649E+03  0.10268419876E+04  0.90167640125E+02 0.  0.
         11    1    3    3    0    0  0.94803354135E+02  0.29584661451E+02 -0.16974701211E+03  0.19666462892E+03  0.00000000000E+00 0. -1.
        -11    1    3    3    0    0  0.29091600560E+03 -0.11753870748E+02 -0.77744721438E+03  0.83017735872E+03  0.00000000000E+00 0.  1.
         22    1    1    2    0    0 -0.38571935973E+03 -0.17830790704E+02  0.21278186896E+04  0.21625701694E+04  0.00000000000E+00 0. -1.
<mgrwt>
<rscale>  0 0.29628493E+04</rscale>
<asrwt>0</asrwt>
<pdfrwt beam="1">  1        2 0.33615666E+00 0.29628493E+04</pdfrwt>
<pdfrwt beam="2">  1       -2 0.15452213E+00 0.29628493E+04</pdfrwt>
<totfact> 0.12513424E+00</totfact>
</mgrwt>
</event>
<event>
 6    1  0.1637818E-005  0.4042235E+04  0.7818608E-02  0.7996080E-01
          2   -1    0    0  501    0  0.00000000000E+00  0.00000000000E+00  0.27686526926E+04  0.27686526926E+04  0.00000000000E+00 0. -1.
         -2   -1    0    0    0  501 -0.00000000000E+00 -0.00000000000E+00 -0.14754164287E+04  0.14754164287E+04  0.00000000000E+00 0.  1.
         23    2    1    2    0    0 -0.10075591164E+03 -0.84616506863E+03 -0.12760376322E+04  0.15371676768E+04  0.92007340201E+02 0.  0.
         13    1    3    3    0    0 -0.70182056280E+02 -0.37836050864E+03 -0.50691278995E+03  0.63642970714E+03  0.00000000000E+00 0.  1.
        -13    1    3    3    0    0 -0.30573855355E+02 -0.46780455999E+03 -0.76912484223E+03  0.90073796962E+03  0.00000000000E+00 0. -1.
         22    1    1    2    0    0  0.10075591164E+03  0.84616506863E+03  0.25692738961E+04  0.27069014445E+04  0.00000000000E+00 0. -1.
<mgrwt>
<rscale>  0 0.40422349E+04</rscale>
<asrwt>0</asrwt>
<pdfrwt beam="1">  1        2 0.42594657E+00 0.40422349E+04</pdfrwt>
<pdfrwt beam="2">  1       -2 0.22698714E+00 0.40422349E+04</pdfrwt>
<totfact> 0.16954357E-01</totfact>
</mgrwt>
</event>
<event>
 6    1  0.1637818E-005  0.3337983E+04  0.7818608E-02  0.8153297E-01
         -2   -1    0    0    0  501 -0.00000000000E+00  0.00000000000E+00  0.17937786605E+04  0.17937786605E+04  0.00000000000E+00 0.  1.
          2   -1    0    0  501    0  0.00000000000E+00 -0.00000000000E+00 -0.15528849702E+04  0.15528849702E+04  0.00000000000E+00 0. -1.
         23    2    1    2    0    0 -0.49297823881E+03  0.17451704842E+03  0.17083172997E+04  0.17888395734E+04  0.90084842187E+02 0.  0.
         13    1    3    3    0    0 -0.37697141295E+03  0.14254138249E+03  0.14280832909E+04  0.14838623176E+04  0.00000000000E+00 0. -1.
        -13    1    3    3    0    0 -0.11600682586E+03  0.31975665933E+02  0.28023400882E+03  0.30497725580E+03  0.00000000000E+00 0.  1.
         22    1    1    2    0    0  0.49297823881E+03 -0.17451704842E+03 -0.14674236094E+04  0.15578240573E+04  0.00000000000E+00 0. -1.
<mgrwt>
<rscale>  0 0.33379826E+04</rscale>
<asrwt>0</asrwt>
<pdfrwt beam="1">  1        2 0.23890538E+00 0.33379826E+04</pdfrwt>
<pdfrwt beam="2">  1       -2 0.27596595E+00 0.33379826E+04</pdfrwt>
<totfact> 0.43979196E-01</totfact>
</mgrwt>
</event>
<event>
 6    1  0.1637818E-005  0.3327015E+04  0.7818608E-02  0.8156055E-01
          2   -1    0    0  501    0  0.00000000000E+00  0.00000000000E+00  0.17598222133E+04  0.17598222133E+04  0.00000000000E+00 0. -1.
         -2   -1    0    0    0  501 -0.00000000000E+00 -0.00000000000E+00 -0.15724636340E+04  0.15724636340E+04  0.00000000000E+00 0.  1.
         23    2    1    2    0    0 -0.15448836210E+04 -0.43942127976E+03 -0.33468825345E+03  0.16434136321E+04  0.95056170490E+02 0.  0.
         11    1    3    3    0    0 -0.12521077355E+04 -0.36510761870E+03 -0.30834774625E+03  0.13402073299E+04  0.00000000000E+00 0.  1.
        -11    1    3    3    0    0 -0.29277588556E+03 -0.74313661068E+02 -0.26340507202E+02  0.30320630222E+03  0.00000000000E+00 0. -1.
         22    1    1    2    0    0  0.15448836210E+04  0.43942127976E+03  0.52204683274E+03  0.16888722152E+04  0.00000000000E+00 0.  1.
<mgrwt>
<rscale>  0 0.33270145E+04</rscale>
<asrwt>0</asrwt>
<pdfrwt beam="1">  1        2 0.27074188E+00 0.33270145E+04</pdfrwt>
<pdfrwt beam="2">  1       -2 0.24191748E+00 0.33270145E+04</pdfrwt>
<totfact> 0.54567542E-01</totfact>
</mgrwt>
</event>
<event>
 6    1  0.1637818E-005  0.1885674E+04  0.7818608E-02  0.8662021E-01
         -1   -1    0    0    0  501 -0.00000000000E+00  0.00000000000E+00  0.82587809908E+03  0.82587809908E+03  0.00000000000E+00 0.  1.
          1   -1    0    0  501    0  0.00000000000E+00 -0.00000000000E+00 -0.10763589547E+04  0.10763589547E+04  0.00000000000E+00 0. -1.
         23    2    1    2    0    0 -0.85777873134E+03  0.15274857094E+03 -0.48314354287E+03  0.10004341907E+04  0.91238199204E+02 0.  0.
         11    1    3    3    0    0 -0.33256848810E+03  0.10446442865E+03 -0.19577112963E+03  0.39980113972E+03  0.00000000000E+00 0. -1.
        -11    1    3    3    0    0 -0.52521024324E+03  0.48284142285E+02 -0.28737241324E+03  0.60063305095E+03  0.00000000000E+00 0.  1.
         22    1    1    2    0    0  0.85777873134E+03 -0.15274857094E+03  0.23266268726E+03  0.90180286310E+03  0.00000000000E+00 0.  1.
<mgrwt>
<rscale>  0 0.18856737E+04</rscale>
<asrwt>0</asrwt>
<pdfrwt beam="1">  1        1 0.16559368E+00 0.18856737E+04</pdfrwt>
<pdfrwt beam="2">  1       -1 0.12705817E+00 0.18856737E+04</pdfrwt>
<totfact> 0.66501115E+00</totfact>
</mgrwt>
</event>
<event>
 6    1  0.1637818E-005  0.1239900E+04  0.7818608E-02  0.9078631E-01
          2   -1    0    0  501    0  0.00000000000E+00  0.00000000000E+00  0.12498783143E+04  0.12498783143E+04  0.00000000000E+00 0. -1.
         -2   -1    0    0    0  501 -0.00000000000E+00 -0.00000000000E+00 -0.30750051793E+03  0.30750051793E+03  0.00000000000E+00 0.  1.
         23    2    1    2    0    0 -0.14716094656E+03  0.36951158852E+03  0.10657363934E+04  0.11409505650E+04  0.88198487758E+02 0.  0.
         11    1    3    3    0    0 -0.88154679737E+02  0.10848720098E+03  0.36489028430E+03  0.39075009906E+03  0.00000000000E+00 0. -1.
        -11    1    3    3    0    0 -0.59006266819E+02  0.26102438754E+03  0.70084610913E+03  0.75020046594E+03  0.00000000000E+00 0.  1.
         22    1    1    2    0    0  0.14716094656E+03 -0.36951158852E+03 -0.12335859710E+03  0.41642826720E+03  0.00000000000E+00 0.  1.
<mgrwt>
<rscale>  0 0.12399004E+04</rscale>
<asrwt>0</asrwt>
<pdfrwt beam="1">  1        2 0.19228897E+00 0.12399004E+04</pdfrwt>
<pdfrwt beam="2">  1       -2 0.47307773E-01 0.12399004E+04</pdfrwt>
<totfact> 0.73703074E+01</totfact>
</mgrwt>
</event>
<event>
 6    1  0.1637818E-005  0.2780107E+04  0.7818608E-02  0.8309471E-01
          2   -1    0    0  501    0  0.00000000000E+00  0.00000000000E+00  0.17084061450E+04  0.17084061450E+04  0.00000000000E+00 0. -1.
         -2   -1    0    0    0  501 -0.00000000000E+00 -0.00000000000E+00 -0.11310244449E+04  0.11310244449E+04  0.00000000000E+00 0.  1.
         23    2    1    2    0    0  0.95068710799E+03 -0.90081602746E+03 -0.18238029887E+03  0.13253256438E+04  0.89162750710E+02 0.  0.
         13    1    3    3    0    0  0.84256313287E+03 -0.76909385456E+03 -0.13716515170E+03  0.11490136069E+04  0.00000000000E+00 0.  1.
        -13    1    3    3    0    0  0.10812397512E+03 -0.13172217290E+03 -0.45215147169E+02  0.17631203692E+03  0.00000000000E+00 0. -1.
         22    1    1    2    0    0 -0.95068710799E+03  0.90081602746E+03  0.75976199901E+03  0.15141049461E+04  0.00000000000E+00 0. -1.
<mgrwt>
<rscale>  0 0.27801073E+04</rscale>
<asrwt>0</asrwt>
<pdfrwt beam="1">  1        2 0.26283171E+00 0.27801073E+04</pdfrwt>
<pdfrwt beam="2">  1       -2 0.17400376E+00 0.27801073E+04</pdfrwt>
<totfact> 0.16886926E+00</totfact>
</mgrwt>
</event>
<event>
 6    1  0.1637818E-005  0.1795310E+04  0.7818608E-02  0.8708797E-01
         -2   -1    0    0    0  501 -0.00000000000E+00  0.00000000000E+00  0.80294489643E+03  0.80294489643E+03  0.00000000000E+00 0.  1.
          2   -1    0    0  501    0  0.00000000000E+00 -0.00000000000E+00 -0.10035368686E+04  0.10035368686E+04  0.00000000000E+00 0. -1.
         23    2    1    2    0    0  0.25749852381E+03 -0.39944013432E+03 -0.86403748039E+03  0.99038259647E+03  0.91864080028E+02 0.  0.
         11    1    3    3    0    0  0.12266826368E+03 -0.23705801285E+03 -0.55886452536E+03  0.61933315919E+03  0.00000000000E+00 0.  1.
        -11    1    3    3    0    0  0.13483026014E+03 -0.16238212147E+03 -0.30517295503E+03  0.37104943728E+03  0.00000000000E+00 0. -1.
         22    1    1    2    0    0 -0.25749852381E+03  0.39944013432E+03  0.66344550818E+03  0.81609916860E+03  0.00000000000E+00 0.  1.
<mgrwt>
<rscale>  0 0.17953103E+04</rscale>
<asrwt>0</asrwt>
<pdfrwt beam="1">  1        2 0.15439029E+00 0.17953103E+04</pdfrwt>
<pdfrwt beam="2">  1       -2 0.12352998E+00 0.17953103E+04</pdfrwt>
<totfact> 0.11688894E+01</totfact>
</mgrwt>
</event>
<event>
 6    1  0.1637818E-005  0.3498701E+04  0.7818608E-02  0.8114098E-01
         -2   -1    0    0    0  501 -0.00000000000E+00  0.00000000000E+00  0.23853822166E+04  0.23853822166E+04  0.00000000000E+00 0.  1.
          2   -1    0    0  501    0  0.00000000000E+00 -0.00000000000E+00 -0.12829086441E+04  0.12829086441E+04  0.00000000000E+00 0. -1.
         23    2    1    2    0    0  0.55378471981E+03  0.16567406498E+04  0.62251093568E+03  0.18567083399E+04  0.91536319679E+02 0.  0.
         11    1    3    3    0    0  0.18338183762E+03  0.63204256313E+03  0.19675469643E+03  0.68689090149E+03  0.00000000000E+00 0. -1.
        -11    1    3    3    0    0  0.37040288219E+03  0.10246980867E+04  0.42575623925E+03  0.11698174384E+04  0.00000000000E+00 0.  1.
         22    1    1    2    0    0 -0.55378471981E+03 -0.16567406498E+04  0.47996263683E+03  0.18115825207E+04  0.00000000000E+00 0. -1.
<mgrwt>
<rscale>  0 0.34987012E+04</rscale>
<asrwt>0</asrwt>
<pdfrwt beam="1">  1        2 0.19737056E+00 0.34987012E+04</pdfrwt>
<pdfrwt beam="2">  1       -2 0.36698188E+00 0.34987012E+04</pdfrwt>
<totfact> 0.16864092E-01</totfact>
</mgrwt>
</event>
<event>
 6    1  0.1637818E-005  0.8629694E+03  0.7818608E-02  0.9473093E-01
         -2   -1    0    0    0  501 -0.00000000000E+00  0.00000000000E+00  0.34773336774E+03  0.34773336774E+03  0.00000000000E+00 0.  1.
          2   -1    0    0  501    0  0.00000000000E+00 -0.00000000000E+00 -0.53540754013E+03  0.53540754013E+03  0.00000000000E+00 0. -1.
         23    2    1    2    0    0  0.50982442760E+02 -0.16719594846E+03 -0.49236273295E+03  0.53187346902E+03  0.99572243108E+02 0.  0.
         11    1    3    3    0    0  0.73351524064E+02 -0.71768804114E+02 -0.27112597188E+03  0.28989739556E+03  0.00000000000E+00 0. -1.
        -11    1    3    3    0    0 -0.22369081305E+02 -0.95427144350E+02 -0.22123676108E+03  0.24197607346E+03  0.00000000000E+00 0.  1.
         22    1    1    2    0    0 -0.50982442760E+02  0.16719594846E+03  0.30468856057E+03  0.35126743884E+03  0.00000000000E+00 0.  1.
<mgrwt>
<rscale>  0 0.86296945E+03</rscale>
<asrwt>0</asrwt>
<pdfrwt beam="1">  1        2 0.82370390E-01 0.86296945E+03</pdfrwt>
<pdfrwt beam="2">  1       -2 0.53497442E-01 0.86296945E+03</pdfrwt>
<totfact> 0.18810694E+02</totfact>
</mgrwt>
</event>
<event>
 6    1  0.1637818E-005  0.7251248E+03  0.7818608E-02  0.9675205E-01
          4   -1    0    0  501    0  0.00000000000E+00  0.00000000000E+00  0.30280481082E+03  0.30280481082E+03  0.00000000000E+00 0. -1.
         -4   -1    0    0    0  501 -0.00000000000E+00 -0.00000000000E+00 -0.43411290426E+03  0.43411290426E+03  0.00000000000E+00 0.  1.
         23    2    1    2    0    0 -0.14666308268E+03  0.86944673049E+02 -0.38527419136E+03  0.43102849514E+03  0.90994093778E+02 0.  0.
         11    1    3    3    0    0 -0.41356919742E+02  0.72480215881E+02 -0.12964579587E+03  0.15418109122E+03  0.00000000000E+00 0. -1.
        -11    1    3    3    0    0 -0.10530616294E+03  0.14464457168E+02 -0.25562839549E+03  0.27684740391E+03  0.00000000000E+00 0.  1.
         22    1    1    2    0    0  0.14666308268E+03 -0.86944673049E+02  0.25396609791E+03  0.30588921995E+03  0.00000000000E+00 0. -1.
<mgrwt>
<rscale>  0 0.72512475E+03</rscale>
<asrwt>0</asrwt>
<pdfrwt beam="1">  1        4 0.46585356E-01 0.72512475E+03</pdfrwt>
<pdfrwt beam="2">  1       -4 0.66786600E-01 0.72512475E+03</pdfrwt>
<totfact> 0.18427812E+01</totfact>
</mgrwt>
</event>
<event>
 6    1  0.1637818E-005  0.2739179E+04  0.7818608E-02  0.8322403E-01
          1   -1    0    0  501    0  0.00000000000E+00  0.00000000000E+00  0.91417483542E+03  0.91417483542E+03  0.00000000000E+00 0.  1.
         -1   -1    0    0    0  501 -0.00000000000E+00 -0.00000000000E+00 -0.20518786962E+04  0.20518786962E+04  0.00000000000E+00 0. -1.
         23    2    1    2    0    0  0.63942152074E+03 -0.99598021611E+03 -0.13124081879E+04  0.17696597529E+04  0.91890789611E+02 0.  0.
         11    1    3    3    0    0  0.32469535547E+03 -0.42753376195E+03 -0.56774582188E+03  0.78137539617E+03  0.00000000000E+00 0.  1.
        -11    1    3    3    0    0  0.31472616527E+03 -0.56844645416E+03 -0.74466236599E+03  0.98828435668E+03  0.00000000000E+00 0. -1.
         22    1    1    2    0    0 -0.63942152074E+03  0.99598021611E+03  0.17470432705E+03  0.11963937788E+04  0.00000000000E+00 0.  1.
<mgrwt>
<rscale>  0 0.27391793E+04</rscale>
<asrwt>0</asrwt>
<pdfrwt beam="1">  1        1 0.14064228E+00 0.27391793E+04</pdfrwt>
<pdfrwt beam="2">  1       -1 0.31567364E+00 0.27391793E+04</pdfrwt>
<totfact> 0.40267174E-01</totfact>
</mgrwt>
</event>
<event>
 6    1  0.1637818E-005  0.1231099E+04  0.7818608E-02  0.9086063E-01
          2   -1    0    0  501    0  0.00000000000E+00  0.00000000000E+00  0.53242083094E+03  0.53242083094E+03  0.00000000000E+00 0. -1.
         -2   -1    0    0    0  501 -0.00000000000E+00 -0.00000000000E+00 -0.71165741338E+03  0.71165741338E+03  0.00000000000E+00 0.  1.
         23    2    1    2    0    0 -0.38353641424E+03 -0.46637480875E+03  0.11805671433E+02  0.61075148343E+03  0.90952500540E+02 0.  0.
         13    1    3    3    0    0 -0.31253124139E+03 -0.34170748133E+03 -0.21097326332E+02  0.46355676763E+03  0.00000000000E+00 0. -1.
        -13    1    3    3    0    0 -0.71005172855E+02 -0.12466732742E+03  0.32902997765E+02  0.14719471581E+03  0.00000000000E+00 0.  1.
         22    1    1    2    0    0  0.38353641424E+03  0.46637480875E+03 -0.19104225388E+03  0.63332676088E+03  0.00000000000E+00 0.  1.
<mgrwt>
<rscale>  0 0.12310991E+04</rscale>
<asrwt>0</asrwt>
<pdfrwt beam="1">  1        2 0.81910897E-01 0.12310991E+04</pdfrwt>
<pdfrwt beam="2">  1       -2 0.10948576E+00 0.12310991E+04</pdfrwt>
<totfact> 0.37436523E+01</totfact>
</mgrwt>
</event>
<event>
 6    1  0.1637818E-005  0.2168278E+04  0.7818608E-02  0.8531749E-01
          2   -1    0    0  501    0  0.00000000000E+00  0.00000000000E+00  0.21156081069E+04  0.21156081069E+04  0.00000000000E+00 0. -1.
         -2   -1    0    0    0  501 -0.00000000000E+00 -0.00000000000E+00 -0.55556477981E+03  0.55556477981E+03  0.00000000000E+00 0.  1.
         23    2    1    2    0    0 -0.71971322931E+03  0.76051516785E+03  0.11184459481E+04  0.15347844416E+04  0.90947735492E+02 0.  0.
         11    1    3    3    0    0 -0.15991260950E+03  0.11743886852E+03  0.20765889188E+03  0.28720401441E+03  0.00000000000E+00 0.  1.
        -11    1    3    3    0    0 -0.55980061980E+03  0.64307629933E+03  0.91078705618E+03  0.12475804272E+04  0.00000000000E+00 0. -1.
         22    1    1    2    0    0  0.71971322931E+03 -0.76051516785E+03  0.44159737906E+03  0.11363884451E+04  0.00000000000E+00 0.  1.
<mgrwt>
<rscale>  0 0.21682780E+04</rscale>
<asrwt>0</asrwt>
<pdfrwt beam="1">  1        2 0.32547817E+00 0.21682780E+04</pdfrwt>
<pdfrwt beam="2">  1       -2 0.85471506E-01 0.21682780E+04</pdfrwt>
<totfact> 0.62785848E+00</totfact>
</mgrwt>
</event>
<event>
 6    1  0.1637818E-005  0.1370267E+04  0.7818608E-02  0.8975626E-01
         -2   -1    0    0    0  501 -0.00000000000E+00  0.00000000000E+00  0.95695578267E+03  0.95695578267E+03  0.00000000000E+00 0.  1.
          2   -1    0    0  501    0  0.00000000000E+00 -0.00000000000E+00 -0.49052217076E+03  0.49052217076E+03  0.00000000000E+00 0. -1.
         23    2    1    2    0    0  0.39658482766E+03  0.51685229507E+03  0.20600763325E+02  0.65805870530E+03  0.90559636234E+02 0.  0.
         11    1    3    3    0    0  0.21242580349E+03  0.33222330258E+03  0.41178401155E+02  0.39647535294E+03  0.00000000000E+00 0. -1.
        -11    1    3    3    0    0  0.18415902417E+03  0.18462899249E+03 -0.20577637830E+02  0.26158335236E+03  0.00000000000E+00 0.  1.
         22    1    1    2    0    0 -0.39658482766E+03 -0.51685229507E+03  0.44583284858E+03  0.78941924813E+03  0.00000000000E+00 0.  1.
<mgrwt>
<rscale>  0 0.13702672E+04</rscale>
<asrwt>0</asrwt>
<pdfrwt beam="1">  1        2 0.75464949E-01 0.13702672E+04</pdfrwt>
<pdfrwt beam="2">  1       -2 0.14722397E+00 0.13702672E+04</pdfrwt>
<totfact> 0.19316985E+01</totfact>
</mgrwt>
</event>
<event>
 6    1  0.1637818E-005  0.2855911E+04  0.7818608E-02  0.8286117E-01
         -1   -1    0    0    0  501 -0.00000000000E+00  0.00000000000E+00  0.13769235326E+04  0.13769235326E+04  0.00000000000E+00 0.  1.
          1   -1    0    0  501    0  0.00000000000E+00 -0.00000000000E+00 -0.14808786352E+04  0.14808786352E+04  0.00000000000E+00 0. -1.
         23    2    1    2    0    0  0.73100707919E+03  0.11370168846E+04 -0.50586912709E+03  0.14475845857E+04  0.11143972994E+03 0.  0.
         13    1    3    3    0    0  0.61344894538E+03  0.90048614145E+03 -0.37103776073E+03  0.11510273322E+04  0.00000000000E+00 0.  1.
        -13    1    3    3    0    0  0.11755813380E+03  0.23653074311E+03 -0.13483136637E+03  0.29655725352E+03  0.00000000000E+00 0. -1.
         22    1    1    2    0    0 -0.73100707919E+03 -0.11370168846E+04  0.40191402448E+03  0.14102175820E+04  0.00000000000E+00 0.  1.
<mgrwt>
<rscale>  0 0.28559108E+04</rscale>
<asrwt>0</asrwt>
<pdfrwt beam="1">  1        1 0.22782748E+00 0.28559108E+04</pdfrwt>
<pdfrwt beam="2">  1       -1 0.21183439E+00 0.28559108E+04</pdfrwt>
<totfact> 0.72601713E-01</totfact>
</mgrwt>
</event>
<event>
 6    1  0.1649799E-005  0.1645913E+04  0.7818608E-02  0.8792828E-01
          2   -1    0    0  501    0  0.00000000000E+00  0.00000000000E+00  0.13416154141E+04  0.13416154141E+04  0.00000000000E+00 0. -1.
         -2   -1    0    0    0  501 -0.00000000000E+00 -0.00000000000E+00 -0.50480739000E+03  0.50480739000E+03  0.00000000000E+00 0.  1.
         23    2    1    2    0    0 -0.46927817847E+03 -0.17232275463E+03  0.11495044652E+04  0.12567651028E+04  0.90448148648E+02 0.  0.
         11    1    3    3    0    0 -0.29974148698E+03 -0.14240695086E+03  0.67902517653E+03  0.75577767169E+03  0.00000000000E+00 0. -1.
        -11    1    3    3    0    0 -0.16953669149E+03 -0.29915803771E+02  0.47047928864E+03  0.50098743109E+03  0.00000000000E+00 0.  1.
         22    1    1    2    0    0  0.46927817847E+03  0.17232275463E+03 -0.31269644102E+03  0.58965770136E+03  0.00000000000E+00 0.  1.
<mgrwt>
<rscale>  0 0.16459130E+04</rscale>
<asrwt>0</asrwt>
<pdfrwt beam="1">  1        2 0.20640237E+00 0.16459130E+04</pdfrwt>
<pdfrwt beam="2">  1       -2 0.77662676E-01 0.16459130E+04</pdfrwt>
<totfact> 0.22074304E+01</totfact>
</mgrwt>
</event>
<event>
 6    1  0.1637818E-005  0.1698650E+04  0.7818608E-02  0.8762135E-01
          2   -1    0    0  501    0  0.00000000000E+00  0.00000000000E+00  0.15579110639E+04  0.15579110639E+04  0.00000000000E+00 0. -1.
         -2   -1    0    0    0  501 -0.00000000000E+00 -0.00000000000E+00 -0.46302590399E+03  0.46302590399E+03  0.00000000000E+00 0.  1.
         23    2    1    2    0    0 -0.75418184580E+01  0.78816811920E+03  0.91751693370E+03  0.12130227702E+04  0.91219812804E+02 0.  0.
         11    1    3    3    0    0 -0.24137734792E+02  0.63039990164E+03  0.77908287474E+03  0.10024753323E+04  0.00000000000E+00 0. -1.
        -11    1    3    3    0    0  0.16595916334E+02  0.15776821756E+03  0.13843405896E+03  0.21054743787E+03  0.00000000000E+00 0.  1.
         22    1    1    2    0    0  0.75418184580E+01 -0.78816811920E+03  0.17736822622E+03  0.80791419769E+03  0.00000000000E+00 0.  1.
<mgrwt>
<rscale>  0 0.16986503E+04</rscale>
<asrwt>0</asrwt>
<pdfrwt beam="1">  1        2 0.23967862E+00 0.16986503E+04</pdfrwt>
<pdfrwt beam="2">  1       -2 0.71234755E-01 0.16986503E+04</pdfrwt>
<totfact> 0.20045960E+01</totfact>
</mgrwt>
</event>
<event>
 6    1  0.1637818E-005  0.3110186E+04  0.7818608E-02  0.8212948E-01
          1   -1    0    0  501    0  0.00000000000E+00  0.00000000000E+00  0.19397754712E+04  0.19397754712E+04  0.00000000000E+00 0. -1.
         -1   -1    0    0    0  501 -0.00000000000E+00 -0.00000000000E+00 -0.12466982083E+04  0.12466982083E+04  0.00000000000E+00 0.  1.
         23    2    1    2    0    0 -0.45396382150E+03 -0.79655997307E+03  0.16318296362E+04  0.18742820166E+04  0.97335370515E+02 0.  0.
         13    1    3    3    0    0 -0.26747995334E+03 -0.52427296523E+03  0.11210551182E+04  0.12661643833E+04  0.00000000000E+00 0. -1.
        -13    1    3    3    0    0 -0.18648386816E+03 -0.27228700783E+03  0.51077451801E+03  0.60811763333E+03  0.00000000000E+00 0.  1.
         22    1    1    2    0    0  0.45396382150E+03  0.79655997307E+03 -0.93875237329E+03  0.13121916629E+04  0.00000000000E+00 0.  1.
<mgrwt>
<rscale>  0 0.31101862E+04</rscale>
<asrwt>0</asrwt>
<pdfrwt beam="1">  1        1 0.29842700E+00 0.31101862E+04</pdfrwt>
<pdfrwt beam="2">  1       -1 0.19179972E+00 0.31101862E+04</pdfrwt>
<totfact> 0.47380145E-01</totfact>
</mgrwt>
</event>
<event>
 6    1  0.1637818E-005  0.1949534E+04  0.7818608E-02  0.8630585E-01
         -1   -1    0    0    0  501 -0.00000000000E+00  0.00000000000E+00  0.41985039506E+03  0.41985039506E+03  0.00000000000E+00 0.  1.
          1   -1    0    0  501    0  0.00000000000E+00 -0.00000000000E+00 -0.22631174337E+04  0.22631174337E+04  0.00000000000E+00 0. -1.
         23    2    1    2    0    0 -0.85836093543E+03  0.23564109624E+03 -0.14647874699E+04  0.17157258706E+04  0.76175517106E+02 0.  0.
         11    1    3    3    0    0 -0.65063726013E+03  0.14609800632E+03 -0.10731603018E+04  0.12634660680E+04  0.00000000000E+00 0.  1.
        -11    1    3    3    0    0 -0.20772367530E+03  0.89543089919E+02 -0.39162716811E+03  0.45225980258E+03  0.00000000000E+00 0. -1.
         22    1    1    2    0    0  0.85836093543E+03 -0.23564109624E+03 -0.37847956881E+03  0.96724195820E+03  0.00000000000E+00 0.  1.
<mgrwt>
<rscale>  0 0.19495340E+04</rscale>
<asrwt>0</asrwt>
<pdfrwt beam="1">  1        1 0.34817192E+00 0.19495340E+04</pdfrwt>
<pdfrwt beam="2">  1       -1 0.64592366E-01 0.19495340E+04</pdfrwt>
<totfact> 0.44675020E+00</totfact>
</mgrwt>
</event>
<event>
 6    1  0.1637818E-005  0.8612028E+04  0.7818608E-02  0.7430758E-01
          1   -1    0    0  501    0  0.00000000000E+00  0.00000000000E+00  0.37574321242E+04  0.37574321242E+04  0.00000000000E+00 0. -1.
         -1   -1    0    0    0  501 -0.00000000000E+00 -0.00000000000E+00 -0.49346881842E+04  0.49346881842E+04  0.00000000000E+00 0.  1.
         23    2    1    2    0    0 -0.10140002677E+04 -0.23132479524E+04  0.29306209912E+04  0.38698836385E+04  0.90262667209E+02 0.  0.
         11    1    3    3    0    0 -0.30686659179E+02 -0.44748623855E+02  0.76254408480E+02  0.93588702316E+02  0.00000000000E+00 0. -1.
        -11    1    3    3    0    0 -0.98331360852E+03 -0.22684993285E+04  0.28543665828E+04  0.37762949362E+04  0.00000000000E+00 0.  1.
         22    1    1    2    0    0  0.10140002677E+04  0.23132479524E+04 -0.41078770512E+04  0.48222366699E+04  0.00000000000E+00 0.  1.
<mgrwt>
<rscale>  0 0.86120278E+04</rscale>
<asrwt>0</asrwt>
<pdfrwt beam="1">  1        1 0.57806648E+00 0.86120278E+04</pdfrwt>
<pdfrwt beam="2">  1       -1 0.75918280E+00 0.86120278E+04</pdfrwt>
<totfact> 0.10090020E-05</totfact>
</mgrwt>
</event>
<event>
 6    1  0.1637818E-005  0.3161167E+04  0.7818608E-02  0.8199149E-01
          2   -1    0    0  501    0  0.00000000000E+00  0.00000000000E+00  0.24344480093E+04  0.24344480093E+04  0.00000000000E+00 0. -1.
         -2   -1    0    0    0  501 -0.00000000000E+00 -0.00000000000E+00 -0.10262054606E+04  0.10262054606E+04  0.00000000000E+00 0.  1.
         23    2    1    2    0    0  0.95478630021E+03 -0.69277609903E+03  0.18541236074E+04  0.21995565185E+04  0.93375178400E+02 0.  0.
         11    1    3    3    0    0  0.33698432282E+03 -0.19145598175E+03  0.62353260227E+03  0.73417077909E+03  0.00000000000E+00 0. -1.
        -11    1    3    3    0    0  0.61780197739E+03 -0.50132011727E+03  0.12305910051E+04  0.14653857394E+04  0.00000000000E+00 0.  1.
         22    1    1    2    0    0 -0.95478630021E+03  0.69277609903E+03 -0.44588105862E+03  0.12610969514E+04  0.00000000000E+00 0.  1.
<mgrwt>
<rscale>  0 0.31611668E+04</rscale>
<asrwt>0</asrwt>
<pdfrwt beam="1">  1        2 0.37453046E+00 0.31611668E+04</pdfrwt>
<pdfrwt beam="2">  1       -2 0.15787776E+00 0.31611668E+04</pdfrwt>
<totfact> 0.83801173E-01</totfact>
</mgrwt>
</event>
<event>
 6    1  0.1637818E-005  0.2870808E+04  0.7818608E-02  0.8281616E-01
         -2   -1    0    0    0  501 -0.00000000000E+00  0.00000000000E+00  0.12519089917E+04  0.12519089917E+04  0.00000000000E+00 0.  1.
          2   -1    0    0  501    0  0.00000000000E+00 -0.00000000000E+00 -0.16457944471E+04  0.16457944471E+04  0.00000000000E+00 0. -1.
         23    2    1    2    0    0 -0.14234556375E+04  0.26409014627E+02 -0.23965631627E+02  0.14267295900E+04  0.89775182565E+02 0.  0.
         11    1    3    3    0    0 -0.13242729926E+04  0.32856226335E+02 -0.43683655833E+02  0.13254006007E+04  0.00000000000E+00 0.  1.
        -11    1    3    3    0    0 -0.99182644920E+02 -0.64472117076E+01  0.19718024207E+02  0.10132898929E+03  0.00000000000E+00 0. -1.
         22    1    1    2    0    0  0.14234556375E+04 -0.26409014627E+02 -0.36991982378E+03  0.14709738489E+04  0.00000000000E+00 0.  1.
<mgrwt>
<rscale>  0 0.28708082E+04</rscale>
<asrwt>0</asrwt>
<pdfrwt beam="1">  1        2 0.25319915E+00 0.28708082E+04</pdfrwt>
<pdfrwt beam="2">  1       -2 0.19260138E+00 0.28708082E+04</pdfrwt>
<totfact> 0.13545408E+00</totfact>
</mgrwt>
</event>
<event>
 6    1  0.1637818E-005  0.1017311E+04  0.7818608E-02  0.9289760E-01
          2   -1    0    0  501    0  0.00000000000E+00  0.00000000000E+00  0.41167042013E+04  0.41167042013E+04  0.00000000000E+00 0. -1.
         -2   -1    0    0    0  501 -0.00000000000E+00 -0.00000000000E+00 -0.62848909905E+02  0.62848909905E+02  0.00000000000E+00 0.  1.
         23    2    1    2    0    0 -0.34564549980E+02  0.47951119330E+03  0.26676930109E+04  0.27123886486E+04  0.96646198803E+02 0.  0.
         11    1    3    3    0    0 -0.40470396035E+01  0.40296658711E+03  0.20510666376E+04  0.20902805555E+04  0.00000000000E+00 0. -1.
        -11    1    3    3    0    0 -0.30517510376E+02  0.76544606198E+02  0.61662637328E+03  0.62210809302E+03  0.00000000000E+00 0.  1.
         22    1    1    2    0    0  0.34564549980E+02 -0.47951119330E+03  0.13861622805E+04  0.14671644627E+04  0.00000000000E+00 0.  1.
<mgrwt>
<rscale>  0 0.10173109E+04</rscale>
<asrwt>0</asrwt>
<pdfrwt beam="1">  1        2 0.63333890E+00 0.10173109E+04</pdfrwt>
<pdfrwt beam="2">  1       -2 0.96690663E-02 0.10173109E+04</pdfrwt>
<totfact> 0.21093678E+01</totfact>
</mgrwt>
</event>
<event>
 6    1  0.1637818E-005  0.3976463E+03  0.7818608E-02  0.1044598E+00
          1   -1    0    0  501    0  0.00000000000E+00  0.00000000000E+00  0.23367529443E+04  0.23367529443E+04  0.00000000000E+00 0. -1.
         -1   -1    0    0    0  501 -0.00000000000E+00 -0.00000000000E+00 -0.16916914953E+02  0.16916914953E+02  0.00000000000E+00 0.  1.
         23    2    1    2    0    0 -0.17170285331E+03 -0.22372151690E+02  0.16526546837E+04  0.16643852076E+04  0.94489326199E+02 0.  0.
         13    1    3    3    0    0 -0.13015552182E+03  0.12694574699E+02  0.13914893504E+04  0.13976209159E+04  0.00000000000E+00 0. -1.
        -13    1    3    3    0    0 -0.41547331489E+02 -0.35066726390E+02  0.26116533324E+03  0.26676429173E+03  0.00000000000E+00 0.  1.
         22    1    1    2    0    0  0.17170285331E+03  0.22372151690E+02  0.66718134565E+03  0.68928465164E+03  0.00000000000E+00 0.  1.
<mgrwt>
<rscale>  0 0.39764633E+03</rscale>
<asrwt>0</asrwt>
<pdfrwt beam="1">  1        1 0.35950020E+00 0.39764633E+03</pdfrwt>
<pdfrwt beam="2">  1       -1 0.26026042E-02 0.39764633E+03</pdfrwt>
<totfact> 0.93445369E+02</totfact>
</mgrwt>
</event>
<event>
 6    1  0.1637818E-005  0.1508984E+04  0.7818608E-02  0.8878501E-01
         -2   -1    0    0    0  501 -0.00000000000E+00  0.00000000000E+00  0.49739160059E+03  0.49739160059E+03  0.00000000000E+00 0.  1.
          2   -1    0    0  501    0  0.00000000000E+00 -0.00000000000E+00 -0.11444863870E+04  0.11444863870E+04  0.00000000000E+00 0. -1.
         23    2    1    2    0    0 -0.44668695958E+02 -0.61698746691E+03  0.13993519732E+03  0.64083601942E+03  0.91761198801E+02 0.  0.
         13    1    3    3    0    0 -0.30921470099E+02 -0.28637116322E+03  0.19487064066E+02  0.28869417400E+03  0.00000000000E+00 0. -1.
        -13    1    3    3    0    0 -0.13747225859E+02 -0.33061630369E+03  0.12044813326E+03  0.35214184541E+03  0.00000000000E+00 0.  1.
         22    1    1    2    0    0  0.44668695958E+02  0.61698746691E+03 -0.78702998370E+03  0.10010419681E+04  0.00000000000E+00 0. -1.
<mgrwt>
<rscale>  0 0.15089837E+04</rscale>
<asrwt>0</asrwt>
<pdfrwt beam="1">  1        2 0.17607483E+00 0.15089837E+04</pdfrwt>
<pdfrwt beam="2">  1       -2 0.76521785E-01 0.15089837E+04</pdfrwt>
<totfact> 0.30170824E+01</totfact>
</mgrwt>
</event>
<event>
 6    1  0.1637818E-005  0.1874188E+04  0.7818608E-02  0.8667812E-01
          2   -1    0    0  501    0  0.00000000000E+00  0.00000000000E+00  0.71498834229E+03  0.71498834229E+03  0.00000000000E+00 0. -1.
         -2   -1    0    0    0  501 -0.00000000000E+00 -0.00000000000E+00 -0.12281955779E+04  0.12281955779E+04  0.00000000000E+00 0.  1.
         23    2    1    2    0    0 -0.70164603868E+03  0.40669332530E+03 -0.73934971391E+03  0.11012533738E+04  0.91729872465E+02 0.  0.
         13    1    3    3    0    0 -0.42587454131E+03  0.29779391550E+03 -0.47244767631E+03  0.70232268075E+03  0.00000000000E+00 0. -1.
        -13    1    3    3    0    0 -0.27577149737E+03  0.10889940980E+03 -0.26690203761E+03  0.39893069309E+03  0.00000000000E+00 0.  1.
         22    1    1    2    0    0  0.70164603868E+03 -0.40669332530E+03  0.22614247828E+03  0.84193054637E+03  0.00000000000E+00 0. -1.
<mgrwt>
<rscale>  0 0.18741884E+04</rscale>
<asrwt>0</asrwt>
<pdfrwt beam="1">  1        2 0.10999821E+00 0.18741884E+04</pdfrwt>
<pdfrwt beam="2">  1       -2 0.18895317E+00 0.18741884E+04</pdfrwt>
<totfact> 0.58924196E+00</totfact>
</mgrwt>
</event>
<event>
 6    1  0.1637818E-005  0.3683110E+04  0.7818608E-02  0.8071715E-01
          1   -1    0    0  501    0  0.00000000000E+00  0.00000000000E+00  0.13895043876E+04  0.13895043876E+04  0.00000000000E+00 0. -1.
         -1   -1    0    0    0  501 -0.00000000000E+00 -0.00000000000E+00 -0.24406717118E+04  0.24406717118E+04  0.00000000000E+00 0.  1.
         23    2    1    2    0    0 -0.91554675916E+03  0.13093448836E+04 -0.14758447008E+04  0.21770092092E+04  0.92960334274E+02 0.  0.
         11    1    3    3    0    0 -0.38841264207E+03  0.63121958470E+03 -0.66149921747E+03  0.99342023300E+03  0.00000000000E+00 0. -1.
        -11    1    3    3    0    0 -0.52713411710E+03  0.67812529891E+03 -0.81434548334E+03  0.11835889762E+04  0.00000000000E+00 0.  1.
         22    1    1    2    0    0  0.91554675916E+03 -0.13093448836E+04  0.42467737659E+03  0.16531668901E+04  0.00000000000E+00 0. -1.
<mgrwt>
<rscale>  0 0.36831096E+04</rscale>
<asrwt>0</asrwt>
<pdfrwt beam="1">  1        1 0.21376991E+00 0.36831096E+04</pdfrwt>
<pdfrwt beam="2">  1       -1 0.37548795E+00 0.36831096E+04</pdfrwt>
<totfact> 0.65852333E-02</totfact>
</mgrwt>
</event>
<event>
 6    1  0.1637818E-005  0.7629689E+03  0.7818608E-02  0.9615221E-01
          1   -1    0    0  501    0  0.00000000000E+00  0.00000000000E+00  0.16335040017E+03  0.16335040017E+03  0.00000000000E+00 0. -1.
         -1   -1    0    0    0  501 -0.00000000000E+00 -0.00000000000E+00 -0.89090934997E+03  0.89090934997E+03  0.00000000000E+00 0.  1.
         23    2    1    2    0    0 -0.12491476446E+03  0.29157559275E+03 -0.64952883037E+03  0.72759673693E+03  0.83001719497E+02 0.  0.
         13    1    3    3    0    0 -0.97134784388E+02  0.14277327973E+03 -0.40094987348E+03  0.43655489550E+03  0.00000000000E+00 0.  1.
        -13    1    3    3    0    0 -0.27779980070E+02  0.14880231302E+03 -0.24857895690E+03  0.29104184143E+03  0.00000000000E+00 0. -1.
         22    1    1    2    0    0  0.12491476446E+03 -0.29157559275E+03 -0.78030119427E+02  0.32666301321E+03  0.00000000000E+00 0. -1.
<mgrwt>
<rscale>  0 0.76296893E+03</rscale>
<asrwt>0</asrwt>
<pdfrwt beam="1">  1        1 0.25130832E-01 0.76296893E+03</pdfrwt>
<pdfrwt beam="2">  1       -1 0.13706297E+00 0.76296893E+03</pdfrwt>
<totfact> 0.87256837E+01</totfact>
</mgrwt>
</event>
<event>
 6    1  0.1696695E-005  0.2944997E+04  0.7818608E-02  0.8259614E-01
          2   -1    0    0  501    0  0.00000000000E+00  0.00000000000E+00  0.10909784393E+04  0.10909784393E+04  0.00000000000E+00 0.  1.
         -2   -1    0    0    0  501 -0.00000000000E+00 -0.00000000000E+00 -0.19874376958E+04  0.19874376958E+04  0.00000000000E+00 0. -1.
         23    2    1    2    0    0 -0.55628568455E+01  0.43951207622E+03 -0.19161777695E+04  0.19679983505E+04  0.89880212381E+02 0.  0.
         13    1    3    3    0    0 -0.28359493589E+02  0.14668862747E+03 -0.79953415238E+03  0.81337363809E+03  0.00000000000E+00 0.  1.
        -13    1    3    3    0    0  0.22796636744E+02  0.29282344875E+03 -0.11166436172E+04  0.11546247124E+04  0.00000000000E+00 0. -1.
         22    1    1    2    0    0  0.55628568455E+01 -0.43951207622E+03  0.10197185131E+04  0.11104177846E+04  0.00000000000E+00 0.  1.
<mgrwt>
<rscale>  0 0.29449969E+04</rscale>
<asrwt>0</asrwt>
<pdfrwt beam="1">  1        2 0.16784284E+00 0.29449969E+04</pdfrwt>
<pdfrwt beam="2">  1       -2 0.30575964E+00 0.29449969E+04</pdfrwt>
<totfact> 0.55598833E-01</totfact>
</mgrwt>
</event>
<event>
 6    1  0.1637818E-005  0.2649279E+04  0.7818608E-02  0.8351652E-01
          2   -1    0    0  501    0  0.00000000000E+00  0.00000000000E+00  0.45673238761E+04  0.45673238761E+04  0.00000000000E+00 0. -1.
         -2   -1    0    0    0  501 -0.00000000000E+00 -0.00000000000E+00 -0.38417891539E+03  0.38417891539E+03  0.00000000000E+00 0.  1.
         23    2    1    2    0    0 -0.18100690422E+03 -0.26008639090E+03  0.44949672938E+04  0.45069337896E+04  0.85514805092E+02 0.  0.
         13    1    3    3    0    0 -0.12852822321E+03 -0.15036591970E+03  0.22518494835E+04  0.22605210705E+04  0.00000000000E+00 0. -1.
        -13    1    3    3    0    0 -0.52478681009E+02 -0.10972047120E+03  0.22431178102E+04  0.22464127191E+04  0.00000000000E+00 0.  1.
         22    1    1    2    0    0  0.18100690422E+03  0.26008639090E+03 -0.31182233301E+03  0.44456900193E+03  0.00000000000E+00 0.  1.
<mgrwt>
<rscale>  0 0.26492788E+04</rscale>
<asrwt>0</asrwt>
<pdfrwt beam="1">  1        2 0.70266517E+00 0.26492788E+04</pdfrwt>
<pdfrwt beam="2">  1       -2 0.59104452E-01 0.26492788E+04</pdfrwt>
<totfact> 0.24941745E-01</totfact>
</mgrwt>
</event>
<event>
 6    1  0.1637818E-005  0.1955380E+04  0.7818608E-02  0.8627771E-01
          1   -1    0    0  501    0  0.00000000000E+00  0.00000000000E+00  0.13789803399E+04  0.13789803399E+04  0.00000000000E+00 0. -1.
         -1   -1    0    0    0  501 -0.00000000000E+00 -0.00000000000E+00 -0.69317731336E+03  0.69317731336E+03  0.00000000000E+00 0.  1.
         23    2    1    2    0    0 -0.33559055210E+03 -0.37640535882E+03 -0.54147973073E+03  0.74530989293E+03  0.89356168816E+02 0.  0.
         11    1    3    3    0    0 -0.13652016677E+03 -0.92643111262E+02 -0.19060535623E+03  0.25209304596E+03  0.00000000000E+00 0. -1.
        -11    1    3    3    0    0 -0.19907038533E+03 -0.28376224756E+03 -0.35087437450E+03  0.49321684697E+03  0.00000000000E+00 0.  1.
         22    1    1    2    0    0  0.33559055210E+03  0.37640535882E+03  0.12272827573E+04  0.13268477603E+04  0.00000000000E+00 0. -1.
<mgrwt>
<rscale>  0 0.19553802E+04</rscale>
<asrwt>0</asrwt>
<pdfrwt beam="1">  1        1 0.21215082E+00 0.19553802E+04</pdfrwt>
<pdfrwt beam="2">  1       -1 0.10664266E+00 0.19553802E+04</pdfrwt>
<totfact> 0.60775547E+00</totfact>
</mgrwt>
</event>
<event>
 6    1  0.1637818E-005  0.2235048E+04  0.7818608E-02  0.8503980E-01
          2   -1    0    0  501    0  0.00000000000E+00  0.00000000000E+00  0.15579247261E+04  0.15579247261E+04  0.00000000000E+00 0. -1.
         -2   -1    0    0    0  501 -0.00000000000E+00 -0.00000000000E+00 -0.80161762204E+03  0.80161762204E+03  0.00000000000E+00 0.  1.
         23    2    1    2    0    0 -0.65772491763E+03  0.41136433283E+03 -0.46818270004E+03  0.90999139631E+03  0.84063185439E+02 0.  0.
         11    1    3    3    0    0 -0.22956346534E+03  0.11275833072E+03 -0.11994090995E+03  0.28248831418E+03  0.00000000000E+00 0.  1.
        -11    1    3    3    0    0 -0.42816145228E+03  0.29860600210E+03 -0.34824179010E+03  0.62750308213E+03  0.00000000000E+00 0. -1.
         22    1    1    2    0    0  0.65772491763E+03 -0.41136433283E+03  0.12244898041E+04  0.14495509518E+04  0.00000000000E+00 0. -1.
<mgrwt>
<rscale>  0 0.22350480E+04</rscale>
<asrwt>0</asrwt>
<pdfrwt beam="1">  1        2 0.23968073E+00 0.22350480E+04</pdfrwt>
<pdfrwt beam="2">  1       -2 0.12332579E+00 0.22350480E+04</pdfrwt>
<totfact> 0.53235251E+00</totfact>
</mgrwt>
</event>
<event>
 6    1  0.1637818E-005  0.2146049E+04  0.7818608E-02  0.8541225E-01
         -2   -1    0    0    0  501 -0.00000000000E+00  0.00000000000E+00  0.12985360379E+04  0.12985360379E+04  0.00000000000E+00 0.  1.
          2   -1    0    0  501    0  0.00000000000E+00 -0.00000000000E+00 -0.88667657855E+03  0.88667657855E+03  0.00000000000E+00 0. -1.
         23    2    1    2    0    0  0.87045328577E+03  0.49052200026E+03 -0.18648788525E+03  0.10206009643E+04  0.92454537860E+02 0.  0.
         11    1    3    3    0    0  0.16438921211E+03  0.13539029030E+03 -0.33472874755E+02  0.21558009442E+03  0.00000000000E+00 0.  1.
        -11    1    3    3    0    0  0.70606407366E+03  0.35513170996E+03 -0.15301501050E+03  0.80502086989E+03  0.00000000000E+00 0. -1.
         22    1    1    2    0    0 -0.87045328577E+03 -0.49052200026E+03  0.59834734455E+03  0.11646116521E+04  0.00000000000E+00 0. -1.
<mgrwt>
<rscale>  0 0.21460489E+04</rscale>
<asrwt>0</asrwt>
<pdfrwt beam="1">  1        2 0.13641178E+00 0.21460489E+04</pdfrwt>
<pdfrwt beam="2">  1       -2 0.19977478E+00 0.21460489E+04</pdfrwt>
<totfact> 0.36669662E+00</totfact>
</mgrwt>
</event>
<event>
 6    1  0.1637818E-005  0.2063678E+04  0.7818608E-02  0.8577414E-01
         -2   -1    0    0    0  501 -0.00000000000E+00  0.00000000000E+00  0.54787877391E+03  0.54787877391E+03  0.00000000000E+00 0.  1.
          2   -1    0    0  501    0  0.00000000000E+00 -0.00000000000E+00 -0.19432979850E+04  0.19432979850E+04  0.00000000000E+00 0. -1.
         23    2    1    2    0    0  0.12172795715E+03 -0.54194917789E+03 -0.17458771269E+04  0.18344063593E+04  0.91832139323E+02 0.  0.
         11    1    3    3    0    0  0.86813420729E+02 -0.18969686182E+03 -0.61450767690E+03  0.64895389233E+03  0.00000000000E+00 0.  1.
        -11    1    3    3    0    0  0.34914536416E+02 -0.35225231608E+03 -0.11313694500E+04  0.11854524670E+04  0.00000000000E+00 0. -1.
         22    1    1    2    0    0 -0.12172795715E+03  0.54194917789E+03  0.35045791586E+03  0.65677039957E+03  0.00000000000E+00 0.  1.
<mgrwt>
<rscale>  0 0.20636780E+04</rscale>
<asrwt>0</asrwt>
<pdfrwt beam="1">  1        2 0.29896892E+00 0.20636780E+04</pdfrwt>
<pdfrwt beam="2">  1       -2 0.84289043E-01 0.20636780E+04</pdfrwt>
<totfact> 0.81548753E+00</totfact>
</mgrwt>
</event>
<event>
 6    1  0.1637818E-005  0.1935903E+04  0.7818608E-02  0.8637189E-01
         -1   -1    0    0    0  501 -0.00000000000E+00  0.00000000000E+00  0.14875792871E+04  0.14875792871E+04  0.00000000000E+00 0.  1.
          1   -1    0    0  501    0  0.00000000000E+00 -0.00000000000E+00 -0.62983554874E+03  0.62983554874E+03  0.00000000000E+00 0. -1.
         23    2    1    2    0    0 -0.19002618709E+03 -0.80967509869E+03  0.96677677156E+03  0.12786228953E+04  0.92387581456E+02 0.  0.
         13    1    3    3    0    0 -0.65397934672E+02 -0.17939712653E+03  0.17538464113E+03  0.25926818395E+03  0.00000000000E+00 0.  1.
        -13    1    3    3    0    0 -0.12462825242E+03 -0.63027797216E+03  0.79139213043E+03  0.10193547114E+04  0.00000000000E+00 0. -1.
         22    1    1    2    0    0  0.19002618709E+03  0.80967509869E+03 -0.10903303316E+03  0.83879194055E+03  0.00000000000E+00 0. -1.
<mgrwt>
<rscale>  0 0.19359032E+04</rscale>
<asrwt>0</asrwt>
<pdfrwt beam="1">  1        1 0.96897777E-01 0.19359032E+04</pdfrwt>
<pdfrwt beam="2">  1       -1 0.22885835E+00 0.19359032E+04</pdfrwt>
<totfact> 0.28584318E+00</totfact>
</mgrwt>
</event>
<event>
 6    1  0.1637818E-005  0.1924423E+04  0.7818608E-02  0.8642794E-01
          2   -1    0    0  501    0  0.00000000000E+00  0.00000000000E+00  0.14060693230E+04  0.14060693230E+04  0.00000000000E+00 0. -1.
         -2   -1    0    0    0  501 -0.00000000000E+00 -0.00000000000E+00 -0.65846731101E+03  0.65846731101E+03  0.00000000000E+00 0.  1.
         23    2    1    2    0    0  0.18196141709E+03  0.63943054785E+03  0.11174182689E+04  0.13037834239E+04  0.96157401962E+02 0.  0.
         11    1    3    3    0    0  0.91625903732E+02  0.44420928842E+03  0.81428878235E+03  0.93208552141E+03  0.00000000000E+00 0. -1.
        -11    1    3    3    0    0  0.90335513356E+02  0.19522125943E+03  0.30312948651E+03  0.37169790247E+03  0.00000000000E+00 0.  1.
         22    1    1    2    0    0 -0.18196141709E+03 -0.63943054785E+03 -0.36981625689E+03  0.76075321011E+03  0.00000000000E+00 0.  1.
<mgrwt>
<rscale>  0 0.19244227E+04</rscale>
<asrwt>0</asrwt>
<pdfrwt beam="1">  1        2 0.21631836E+00 0.19244227E+04</pdfrwt>
<pdfrwt beam="2">  1       -2 0.10130266E+00 0.19244227E+04</pdfrwt>
<totfact> 0.10748902E+01</totfact>
</mgrwt>
</event>
<event>
 6    1  0.1637818E-005  0.4771575E+04  0.7818608E-02  0.7864744E-01
         -2   -1    0    0    0  501 -0.00000000000E+00  0.00000000000E+00  0.17832255844E+04  0.17832255844E+04  0.00000000000E+00 0.  1.
          2   -1    0    0  501    0  0.00000000000E+00 -0.00000000000E+00 -0.31919588766E+04  0.31919588766E+04  0.00000000000E+00 0. -1.
         23    2    1    2    0    0 -0.71054083621E+03 -0.21518755615E+04 -0.14790827160E+04  0.27079425786E+04  0.99149463048E+02 0.  0.
         13    1    3    3    0    0 -0.52621577270E+03 -0.15300814539E+04 -0.10074650806E+04  0.19060530380E+04  0.00000000000E+00 0.  1.
        -13    1    3    3    0    0 -0.18432506351E+03 -0.62179410756E+03 -0.47161763543E+03  0.80188954058E+03  0.00000000000E+00 0. -1.
         22    1    1    2    0    0  0.71054083621E+03  0.21518755615E+04  0.70349423842E+02  0.22672418825E+04  0.00000000000E+00 0.  1.
<mgrwt>
<rscale>  0 0.47715753E+04</rscale>
<asrwt>0</asrwt>
<pdfrwt beam="1">  1        2 0.49107059E+00 0.47715753E+04</pdfrwt>
<pdfrwt beam="2">  1       -2 0.27434240E+00 0.47715753E+04</pdfrwt>
<totfact> 0.44324269E-02</totfact>
</mgrwt>
</event>
<event>
 6    1  0.1637818E-005  0.3181369E+04  0.7818608E-02  0.8193755E-01
         -1   -1    0    0    0  501 -0.00000000000E+00  0.00000000000E+00  0.11650580824E+04  0.11650580824E+04  0.00000000000E+00 0.  1.
          1   -1    0    0  501    0  0.00000000000E+00 -0.00000000000E+00 -0.21718034544E+04  0.21718034544E+04  0.00000000000E+00 0. -1.
         23    2    1    2    0    0 -0.45585166283E+03  0.54020143652E+03  0.98917150469E+03  0.12194804871E+04  0.95152836541E+02 0.  0.
         13    1    3    3    0    0 -0.25772847652E+03  0.36240679128E+03  0.57054583965E+03  0.72338454857E+03  0.00000000000E+00 0. -1.
        -13    1    3    3    0    0 -0.19812318631E+03  0.17779464523E+03  0.41862566504E+03  0.49609593857E+03  0.00000000000E+00 0.  1.
         22    1    1    2    0    0  0.45585166283E+03 -0.54020143652E+03 -0.19959168767E+04  0.21173810496E+04  0.00000000000E+00 0. -1.
<mgrwt>
<rscale>  0 0.31813690E+04</rscale>
<asrwt>0</asrwt>
<pdfrwt beam="1">  1        1 0.33412360E+00 0.31813690E+04</pdfrwt>
<pdfrwt beam="2">  1       -1 0.17923971E+00 0.31813690E+04</pdfrwt>
<totfact> 0.40213366E-01</totfact>
</mgrwt>
</event>
<event>
 6    1  0.1637818E-005  0.1451174E+04  0.7818608E-02  0.8917587E-01
         -2   -1    0    0    0  501 -0.00000000000E+00  0.00000000000E+00  0.31226309820E+03  0.31226309820E+03  0.00000000000E+00 0.  1.
          2   -1    0    0  501    0  0.00000000000E+00 -0.00000000000E+00 -0.16860027642E+04  0.16860027642E+04  0.00000000000E+00 0. -1.
         23    2    1    2    0    0  0.91150642574E+02  0.70011238363E+03 -0.90161895866E+03  0.11489345068E+04  0.93101905884E+02 0.  0.
         13    1    3    3    0    0  0.50641555330E+02  0.59815542303E+03 -0.79261147427E+03  0.99427733876E+03  0.00000000000E+00 0. -1.
        -13    1    3    3    0    0  0.40509087244E+02  0.10195696060E+03 -0.10900748439E+03  0.15465716801E+03  0.00000000000E+00 0.  1.
         22    1    1    2    0    0 -0.91150642574E+02 -0.70011238363E+03 -0.47212070733E+03  0.84933135562E+03  0.00000000000E+00 0.  1.
<mgrwt>
<rscale>  0 0.14511739E+04</rscale>
<asrwt>0</asrwt>
<pdfrwt beam="1">  1        2 0.25938504E+00 0.14511739E+04</pdfrwt>
<pdfrwt beam="2">  1       -2 0.48040476E-01 0.14511739E+04</pdfrwt>
<totfact> 0.39739563E+01</totfact>
</mgrwt>
</event>
<event>
 6    1  0.1989727E-005  0.2373942E+04  0.7818608E-02  0.8449324E-01
          1   -1    0    0  501    0  0.00000000000E+00  0.00000000000E+00  0.18591051005E+04  0.18591051005E+04  0.00000000000E+00 0. -1.
         -1   -1    0    0    0  501 -0.00000000000E+00 -0.00000000000E+00 -0.75783791947E+03  0.75783791947E+03  0.00000000000E+00 0.  1.
         23    2    1    2    0    0 -0.18811480601E+03  0.20872587791E+03  0.18207647801E+04  0.18445244368E+04  0.90179494355E+02 0.  0.
         11    1    3    3    0    0 -0.10626198833E+03  0.15753600400E+03  0.98153716362E+03  0.99976217486E+03  0.00000000000E+00 0.  1.
        -11    1    3    3    0    0 -0.81852817686E+02  0.51189873909E+02  0.83922761651E+03  0.84476226198E+03  0.00000000000E+00 0. -1.
         22    1    1    2    0    0  0.18811480601E+03 -0.20872587791E+03 -0.71949759913E+03  0.77241858309E+03  0.00000000000E+00 0.  1.
<mgrwt>
<rscale>  0 0.23739422E+04</rscale>
<asrwt>0</asrwt>
<pdfrwt beam="1">  1        1 0.28601617E+00 0.23739422E+04</pdfrwt>
<pdfrwt beam="2">  1       -1 0.11659045E+00 0.23739422E+04</pdfrwt>
<totfact> 0.22149189E+00</totfact>
</mgrwt>
</event>
<event>
 6    1  0.1637818E-005  0.1704653E+04  0.7818608E-02  0.8758715E-01
          2   -1    0    0  501    0  0.00000000000E+00  0.00000000000E+00  0.83624731426E+03  0.83624731426E+03  0.00000000000E+00 0. -1.
         -2   -1    0    0    0  501 -0.00000000000E+00 -0.00000000000E+00 -0.86871503706E+03  0.86871503706E+03  0.00000000000E+00 0.  1.
         23    2    1    2    0    0 -0.62461502890E+03  0.13510399883E+03  0.54410779218E+03  0.84424384374E+03  0.91089809281E+02 0.  0.
         11    1    3    3    0    0 -0.35210769060E+03  0.74523982616E+02  0.36480620121E+03  0.51246191488E+03  0.00000000000E+00 0. -1.
        -11    1    3    3    0    0 -0.27250733830E+03  0.60580016209E+02  0.17930159097E+03  0.33178192886E+03  0.00000000000E+00 0.  1.
         22    1    1    2    0    0  0.62461502890E+03 -0.13510399883E+03 -0.57657551498E+03  0.86071850759E+03  0.00000000000E+00 0.  1.
<mgrwt>
<rscale>  0 0.17046532E+04</rscale>
<asrwt>0</asrwt>
<pdfrwt beam="1">  1        2 0.12865343E+00 0.17046532E+04</pdfrwt>
<pdfrwt beam="2">  1       -2 0.13364847E+00 0.17046532E+04</pdfrwt>
<totfact> 0.12492854E+01</totfact>
</mgrwt>
</event>
<event>
 6    1  0.1637818E-005  0.2275549E+04  0.7818608E-02  0.8487624E-01
         -1   -1    0    0    0  501 -0.00000000000E+00  0.00000000000E+00  0.14606663499E+04  0.14606663499E+04  0.00000000000E+00 0.  1.
          1   -1    0    0  501    0  0.00000000000E+00 -0.00000000000E+00 -0.88626082874E+03  0.88626082874E+03  0.00000000000E+00 0. -1.
         23    2    1    2    0    0  0.72690709441E+03 -0.82581844935E+03  0.57934545474E+03  0.12467479032E+04  0.91483019770E+02 0.  0.
         13    1    3    3    0    0  0.34985987328E+03 -0.38099023146E+03  0.22236665752E+03  0.56302967753E+03  0.00000000000E+00 0. -1.
        -13    1    3    3    0    0  0.37704722113E+03 -0.44482821788E+03  0.35697879722E+03  0.68371822563E+03  0.00000000000E+00 0.  1.
         22    1    1    2    0    0 -0.72690709441E+03  0.82581844935E+03 -0.49399336040E+01  0.11001792755E+04  0.00000000000E+00 0.  1.
<mgrwt>
<rscale>  0 0.22755495E+04</rscale>
<asrwt>0</asrwt>
<pdfrwt beam="1">  1        1 0.13634782E+00 0.22755495E+04</pdfrwt>
<pdfrwt beam="2">  1       -1 0.22471790E+00 0.22755495E+04</pdfrwt>
<totfact> 0.17312825E+00</totfact>
</mgrwt>
</event>
<event>
 6    1  0.1637818E-005  0.2843261E+04  0.7818608E-02  0.8289962E-01
         -1   -1    0    0    0  501 -0.00000000000E+00  0.00000000000E+00  0.55021291629E+03  0.55021291629E+03  0.00000000000E+00 0.  1.
          1   -1    0    0  501    0  0.00000000000E+00 -0.00000000000E+00 -0.36731852348E+04  0.36731852348E+04  0.00000000000E+00 0. -1.
         23    2    1    2    0    0  0.13136218497E+04  0.53389665132E+03 -0.16807628866E+04  0.22008710082E+04  0.90671468552E+02 0.  0.
         13    1    3    3    0    0  0.22364831593E+03  0.12357671677E+03 -0.32953072714E+03  0.41698953737E+03  0.00000000000E+00 0. -1.
        -13    1    3    3    0    0  0.10899735338E+04  0.41031993454E+03 -0.13512321595E+04  0.17838814708E+04  0.00000000000E+00 0.  1.
         22    1    1    2    0    0 -0.13136218497E+04 -0.53389665132E+03 -0.14422094318E+04  0.20225271429E+04  0.00000000000E+00 0. -1.
<mgrwt>
<rscale>  0 0.28432615E+04</rscale>
<asrwt>0</asrwt>
<pdfrwt beam="1">  1        1 0.56510541E+00 0.28432615E+04</pdfrwt>
<pdfrwt beam="2">  1       -1 0.84648142E-01 0.28432615E+04</pdfrwt>
<totfact> 0.21617188E-01</totfact>
</mgrwt>
</event>
<event>
 6    1  0.1637818E-005  0.2338035E+04  0.7818608E-02  0.8463074E-01
         -2   -1    0    0    0  501 -0.00000000000E+00  0.00000000000E+00  0.11096749361E+04  0.11096749361E+04  0.00000000000E+00 0.  1.
          2   -1    0    0  501    0  0.00000000000E+00 -0.00000000000E+00 -0.12315334256E+04  0.12315334256E+04  0.00000000000E+00 0. -1.
         23    2    1    2    0    0  0.85040761342E+03  0.82760082040E+02 -0.85734936787E+03  0.12138268060E+04  0.91023272546E+02 0.  0.
         13    1    3    3    0    0  0.39701328126E+03  0.49551128078E+02 -0.33932199987E+03  0.52460869168E+03  0.00000000000E+00 0.  1.
        -13    1    3    3    0    0  0.45339433216E+03  0.33208953962E+02 -0.51802736800E+03  0.68921811428E+03  0.00000000000E+00 0. -1.
         22    1    1    2    0    0 -0.85040761342E+03 -0.82760082040E+02  0.73549087833E+03  0.11273815558E+04  0.00000000000E+00 0.  1.
<mgrwt>
<rscale>  0 0.23380349E+04</rscale>
<asrwt>0</asrwt>
<pdfrwt beam="1">  1        2 0.18946668E+00 0.23380349E+04</pdfrwt>
<pdfrwt beam="2">  1       -2 0.17071922E+00 0.23380349E+04</pdfrwt>
<totfact> 0.34533047E+00</totfact>
</mgrwt>
</event>
<event>
 6    1  0.1637818E-005  0.2261196E+04  0.7818608E-02  0.8493380E-01
         -2   -1    0    0    0  501 -0.00000000000E+00  0.00000000000E+00  0.73934108019E+03  0.73934108019E+03  0.00000000000E+00 0.  1.
          2   -1    0    0  501    0  0.00000000000E+00 -0.00000000000E+00 -0.17289073175E+04  0.17289073175E+04  0.00000000000E+00 0. -1.
         23    2    1    2    0    0 -0.39680739666E+03 -0.87648596656E+03 -0.11399632091E+04  0.14944398905E+04  0.90281274588E+02 0.  0.
         11    1    3    3    0    0 -0.97614417086E+02 -0.16639183475E+03 -0.18401443231E+03  0.26660106600E+03  0.00000000000E+00 0. -1.
        -11    1    3    3    0    0 -0.29919297958E+03 -0.71009413181E+03 -0.95594877677E+03  0.12278388245E+04  0.00000000000E+00 0.  1.
         22    1    1    2    0    0  0.39680739666E+03  0.87648596656E+03  0.15039697178E+03  0.97380850722E+03  0.00000000000E+00 0.  1.
<mgrwt>
<rscale>  0 0.22611963E+04</rscale>
<asrwt>0</asrwt>
<pdfrwt beam="1">  1        2 0.26598574E+00 0.22611963E+04</pdfrwt>
<pdfrwt beam="2">  1       -2 0.11374478E+00 0.22611963E+04</pdfrwt>
<totfact> 0.52060623E+00</totfact>
</mgrwt>
</event>
<event>
 6    1  0.1637818E-005  0.1875567E+04  0.7818608E-02  0.8667115E-01
         -1   -1    0    0    0  501 -0.00000000000E+00  0.00000000000E+00  0.52074289736E+03  0.52074289736E+03  0.00000000000E+00 0.  1.
          1   -1    0    0  501    0  0.00000000000E+00 -0.00000000000E+00 -0.16888142656E+04  0.16888142656E+04  0.00000000000E+00 0. -1.
         23    2    1    2    0    0  0.53889516167E+03  0.64281109465E+03 -0.10740431747E+04  0.13654864314E+04  0.85850768973E+02 0.  0.
         13    1    3    3    0    0  0.22791088929E+03  0.24307431293E+03 -0.48822457134E+03  0.59109367035E+03  0.00000000000E+00 0. -1.
        -13    1    3    3    0    0  0.31098427239E+03  0.39973678172E+03 -0.58581860341E+03  0.77439276109E+03  0.00000000000E+00 0.  1.
         22    1    1    2    0    0 -0.53889516167E+03 -0.64281109465E+03 -0.94028193531E+02  0.84407073155E+03  0.00000000000E+00 0. -1.
<mgrwt>
<rscale>  0 0.18755672E+04</rscale>
<asrwt>0</asrwt>
<pdfrwt beam="1">  1        1 0.25981757E+00 0.18755672E+04</pdfrwt>
<pdfrwt beam="2">  1       -1 0.80114294E-01 0.18755672E+04</pdfrwt>
<totfact> 0.70717702E+00</totfact>
</mgrwt>
</event>
<event>
 6    1  0.1637818E-005  0.3977158E+04  0.7818608E-02  0.8009170E-01
          2   -1    0    0  501    0  0.00000000000E+00  0.00000000000E+00  0.26614030925E+04  0.26614030925E+04  0.00000000000E+00 0. -1.
         -2   -1    0    0    0  501 -0.00000000000E+00 -0.00000000000E+00 -0.14858504614E+04  0.14858504614E+04  0.00000000000E+00 0.  1.
         23    2    1    2    0    0 -0.13138710113E+04 -0.74994867878E+03  0.19322366954E+04  0.24557303268E+04  0.91611876382E+02 0.  0.
         13    1    3    3    0    0 -0.89912256355E+03 -0.54391250526E+03  0.13933887906E+04  0.17452204787E+04  0.00000000000E+00 0. -1.
        -13    1    3    3    0    0 -0.41474844772E+03 -0.20603617353E+03  0.53884790476E+03  0.71050984803E+03  0.00000000000E+00 0.  1.
         22    1    1    2    0    0  0.13138710113E+04  0.74994867878E+03 -0.75668406428E+03  0.16915232272E+04  0.00000000000E+00 0.  1.
<mgrwt>
<rscale>  0 0.39771583E+04</rscale>
<asrwt>0</asrwt>
<pdfrwt beam="1">  1        2 0.40944663E+00 0.39771583E+04</pdfrwt>
<pdfrwt beam="2">  1       -2 0.22859238E+00 0.39771583E+04</pdfrwt>
<totfact> 0.19303460E-01</totfact>
</mgrwt>
</event>
<event>
 6    1  0.1637818E-005  0.1351557E+04  0.7818608E-02  0.8989650E-01
         -2   -1    0    0    0  501 -0.00000000000E+00  0.00000000000E+00  0.20016831938E+03  0.20016831938E+03  0.00000000000E+00 0.  1.
          2   -1    0    0  501    0  0.00000000000E+00 -0.00000000000E+00 -0.22814622373E+04  0.22814622373E+04  0.00000000000E+00 0. -1.
         23    2    1    2    0    0  0.41597609155E+03 -0.30524181926E+02 -0.20144492188E+04  0.20592136438E+04  0.91582429340E+02 0.  0.
         11    1    3    3    0    0  0.64444437889E+02  0.17102431363E+02 -0.21387786445E+03  0.22402972936E+03  0.00000000000E+00 0. -1.
        -11    1    3    3    0    0  0.35153165366E+03 -0.47626613289E+02 -0.18005713544E+04  0.18351839145E+04  0.00000000000E+00 0.  1.
         22    1    1    2    0    0 -0.41597609155E+03  0.30524181926E+02 -0.66844699060E+02  0.42241691279E+03  0.00000000000E+00 0.  1.
<mgrwt>
<rscale>  0 0.13515568E+04</rscale>
<asrwt>0</asrwt>
<pdfrwt beam="1">  1        2 0.35099419E+00 0.13515568E+04</pdfrwt>
<pdfrwt beam="2">  1       -2 0.30795126E-01 0.13515568E+04</pdfrwt>
<totfact> 0.44399072E+01</totfact>
</mgrwt>
</event>
<event>
 6    1  0.1637818E-005  0.1719713E+04  0.7818608E-02  0.8750200E-01
          1   -1    0    0  501    0  0.00000000000E+00  0.00000000000E+00  0.23646151373E+04  0.23646151373E+04  0.00000000000E+00 0. -1.
         -1   -1    0    0    0  501 -0.00000000000E+00 -0.00000000000E+00 -0.31267382911E+03  0.31267382911E+03  0.00000000000E+00 0.  1.
         23    2    1    2    0    0  0.33626395801E+03 -0.14537267033E+03  0.22357879025E+04  0.22674033324E+04  0.90352995717E+02 0.  0.
         13    1    3    3    0    0  0.13068379668E+03 -0.49473613542E+02  0.60587227988E+03  0.62177738193E+03  0.00000000000E+00 0. -1.
        -13    1    3    3    0    0  0.20558016133E+03 -0.95899056786E+02  0.16299156226E+04  0.16456259504E+04  0.00000000000E+00 0.  1.
         22    1    1    2    0    0 -0.33626395801E+03  0.14537267033E+03 -0.18384659435E+03  0.40988563403E+03  0.00000000000E+00 0.  1.
<mgrwt>
<rscale>  0 0.17197131E+04</rscale>
<asrwt>0</asrwt>
<pdfrwt beam="1">  1        1 0.36378693E+00 0.17197131E+04</pdfrwt>
<pdfrwt beam="2">  1       -1 0.48103668E-01 0.17197131E+04</pdfrwt>
<totfact> 0.69033634E+00</totfact>
</mgrwt>
</event>
<event>
 6    1  0.1637818E-005  0.9190948E+03  0.7818608E-02  0.9402022E-01
         -2   -1    0    0    0  501 -0.00000000000E+00  0.00000000000E+00  0.71673536884E+02  0.71673536884E+02  0.00000000000E+00 0.  1.
          2   -1    0    0  501    0  0.00000000000E+00 -0.00000000000E+00 -0.29464687014E+04  0.29464687014E+04  0.00000000000E+00 0. -1.
         23    2    1    2    0    0 -0.40318366025E+03 -0.21055860331E+03 -0.15059709602E+04  0.15757235433E+04  0.89800682749E+02 0.  0.
         11    1    3    3    0    0 -0.74685455421E+02 -0.60320230992E+01 -0.29854150376E+03  0.30780079926E+03  0.00000000000E+00 0. -1.
        -11    1    3    3    0    0 -0.32849820483E+03 -0.20452658021E+03 -0.12074294564E+04  0.12679227440E+04  0.00000000000E+00 0.  1.
         22    1    1    2    0    0  0.40318366025E+03  0.21055860331E+03 -0.13688242043E+04  0.14424186950E+04  0.00000000000E+00 0. -1.
<mgrwt>
<rscale>  0 0.91909484E+03</rscale>
<asrwt>0</asrwt>
<pdfrwt beam="1">  1        2 0.45330298E+00 0.91909484E+03</pdfrwt>
<pdfrwt beam="2">  1       -2 0.11026695E-01 0.91909484E+03</pdfrwt>
<totfact> 0.11368798E+02</totfact>
</mgrwt>
</event>
<event>
 6    1  0.1637818E-005  0.1586105E+04  0.7818608E-02  0.8829130E-01
         -1   -1    0    0    0  501 -0.00000000000E+00  0.00000000000E+00  0.70607514537E+03  0.70607514537E+03  0.00000000000E+00 0.  1.
          1   -1    0    0  501    0  0.00000000000E+00 -0.00000000000E+00 -0.89074429597E+03  0.89074429597E+03  0.00000000000E+00 0. -1.
         23    2    1    2    0    0 -0.39167195797E+03  0.60764918224E+02  0.59581165477E+03  0.72146260810E+03  0.91746765450E+02 0.  0.
         11    1    3    3    0    0 -0.18091478746E+03  0.66520206693E+02  0.33019981849E+03  0.38234410987E+03  0.00000000000E+00 0. -1.
        -11    1    3    3    0    0 -0.21075717051E+03 -0.57552884683E+01  0.26561183628E+03  0.33911849823E+03  0.00000000000E+00 0.  1.
         22    1    1    2    0    0  0.39167195797E+03 -0.60764918224E+02 -0.78048080537E+03  0.87535683324E+03  0.00000000000E+00 0. -1.
<mgrwt>
<rscale>  0 0.15861052E+04</rscale>
<asrwt>0</asrwt>
<pdfrwt beam="1">  1        1 0.13703758E+00 0.15861052E+04</pdfrwt>
<pdfrwt beam="2">  1       -1 0.10862695E+00 0.15861052E+04</pdfrwt>
<totfact> 0.13989711E+01</totfact>
</mgrwt>
</event>
<event>
 6    1  0.1637818E-005  0.1967139E+04  0.7818608E-02  0.8622140E-01
          2   -1    0    0  501    0  0.00000000000E+00  0.00000000000E+00  0.26742172574E+04  0.26742172574E+04  0.00000000000E+00 0. -1.
         -2   -1    0    0    0  501 -0.00000000000E+00 -0.00000000000E+00 -0.36175396782E+03  0.36175396782E+03  0.00000000000E+00 0.  1.
         23    2    1    2    0    0  0.42736845890E+03  0.37547817707E+03 -0.75646749443E+02  0.58103798384E+03  0.90857288357E+02 0.  0.
         11    1    3    3    0    0  0.12632251324E+03  0.13524125149E+03  0.14001194676E+02  0.18558988902E+03  0.00000000000E+00 0. -1.
        -11    1    3    3    0    0  0.30104594566E+03  0.24023692559E+03 -0.89647944118E+02  0.39544809482E+03  0.00000000000E+00 0.  1.
         22    1    1    2    0    0 -0.42736845890E+03 -0.37547817707E+03  0.23881100390E+04  0.24549332413E+04  0.00000000000E+00 0. -1.
<mgrwt>
<rscale>  0 0.19671387E+04</rscale>
<asrwt>0</asrwt>
<pdfrwt beam="1">  1        2 0.41141803E+00 0.19671387E+04</pdfrwt>
<pdfrwt beam="2">  1       -2 0.55654458E-01 0.19671387E+04</pdfrwt>
<totfact> 0.77823052E+00</totfact>
</mgrwt>
</event>
<event>
 6    1  0.1637818E-005  0.1964569E+04  0.7818608E-02  0.8623367E-01
         -1   -1    0    0    0  501 -0.00000000000E+00  0.00000000000E+00  0.53051802462E+03  0.53051802462E+03  0.00000000000E+00 0.  1.
          1   -1    0    0  501    0  0.00000000000E+00 -0.00000000000E+00 -0.18187559600E+04  0.18187559600E+04  0.00000000000E+00 0. -1.
         23    2    1    2    0    0 -0.10717975110E+03 -0.50417733380E+03  0.35133512451E+03  0.63058782895E+03  0.92316614619E+02 0.  0.
         11    1    3    3    0    0 -0.82377114158E+02 -0.44268184316E+03  0.33781659571E+03  0.56291496297E+03  0.00000000000E+00 0. -1.
        -11    1    3    3    0    0 -0.24802636939E+02 -0.61495490647E+02  0.13518528807E+02  0.67672865981E+02  0.00000000000E+00 0.  1.
         22    1    1    2    0    0  0.10717975110E+03  0.50417733380E+03 -0.16395730599E+04  0.17186861557E+04  0.00000000000E+00 0. -1.
<mgrwt>
<rscale>  0 0.19645690E+04</rscale>
<asrwt>0</asrwt>
<pdfrwt beam="1">  1        1 0.27980861E+00 0.19645690E+04</pdfrwt>
<pdfrwt beam="2">  1       -1 0.81618158E-01 0.19645690E+04</pdfrwt>
<totfact> 0.55007721E+00</totfact>
</mgrwt>
</event>
<event>
 6    1  0.1637818E-005  0.3303959E+04  0.7818608E-02  0.8161889E-01
          2   -1    0    0  501    0  0.00000000000E+00  0.00000000000E+00  0.20999840210E+04  0.20999840210E+04  0.00000000000E+00 0. -1.
         -2   -1    0    0    0  501 -0.00000000000E+00 -0.00000000000E+00 -0.12995506647E+04  0.12995506647E+04  0.00000000000E+00 0.  1.
         23    2    1    2    0    0 -0.17888554279E+03  0.11253607800E+04  0.16294155298E+04  0.19904043275E+04  0.90980742759E+02 0.  0.
         13    1    3    3    0    0 -0.55295754055E+02  0.23019504253E+03  0.39620435101E+03  0.46154660196E+03  0.00000000000E+00 0. -1.
        -13    1    3    3    0    0 -0.12358978873E+03  0.89516573743E+03  0.12332111788E+04  0.15288577255E+04  0.00000000000E+00 0.  1.
         22    1    1    2    0    0  0.17888554279E+03 -0.11253607800E+04 -0.82898217351E+03  0.14091303582E+04  0.00000000000E+00 0.  1.
<mgrwt>
<rscale>  0 0.33039586E+04</rscale>
<asrwt>0</asrwt>
<pdfrwt beam="1">  1        2 0.32307446E+00 0.33039586E+04</pdfrwt>
<pdfrwt beam="2">  1       -2 0.19993087E+00 0.33039586E+04</pdfrwt>
<totfact> 0.65322485E-01</totfact>
</mgrwt>
</event>
<event>
 6    1  0.1637818E-005  0.1996026E+04  0.7818608E-02  0.8608481E-01
          2   -1    0    0  501    0  0.00000000000E+00  0.00000000000E+00  0.25496106047E+04  0.25496106047E+04  0.00000000000E+00 0. -1.
         -2   -1    0    0    0  501 -0.00000000000E+00 -0.00000000000E+00 -0.39065955006E+03  0.39065955006E+03  0.00000000000E+00 0.  1.
         23    2    1    2    0    0 -0.43069600813E+03  0.41263899203E+03 -0.93101761602E+02  0.61056805442E+03  0.91407996889E+02 0.  0.
         13    1    3    3    0    0 -0.30289408986E+03  0.30138856323E+03 -0.10722018814E+03  0.44054065018E+03  0.00000000000E+00 0.  1.
        -13    1    3    3    0    0 -0.12780191828E+03  0.11125042880E+03  0.14118426541E+02  0.17002740424E+03  0.00000000000E+00 0. -1.
         22    1    1    2    0    0  0.43069600813E+03 -0.41263899203E+03  0.22520528162E+04  0.23297021003E+04  0.00000000000E+00 0. -1.
<mgrwt>
<rscale>  0 0.19960258E+04</rscale>
<asrwt>0</asrwt>
<pdfrwt beam="1">  1        2 0.39224778E+00 0.19960258E+04</pdfrwt>
<pdfrwt beam="2">  1       -2 0.60101471E-01 0.19960258E+04</pdfrwt>
<totfact> 0.78175087E+00</totfact>
</mgrwt>
</event>
<event>
 6    1  0.1637818E-005  0.5906045E+03  0.7818608E-02  0.9925093E-01
          2   -1    0    0  501    0  0.00000000000E+00  0.00000000000E+00  0.18291782391E+04  0.18291782391E+04  0.00000000000E+00 0. -1.
         -2   -1    0    0    0  501 -0.00000000000E+00 -0.00000000000E+00 -0.47673553071E+02  0.47673553071E+02  0.00000000000E+00 0.  1.
         23    2    1    2    0    0  0.17405407037E+03  0.31822884095E+02  0.16352852050E+04  0.16473138824E+04  0.90431245861E+02 0.  0.
         11    1    3    3    0    0  0.66711128564E+02  0.56424083605E+02  0.63442429497E+03  0.64041255291E+03  0.00000000000E+00 0.  1.
        -11    1    3    3    0    0  0.10734294181E+03 -0.24601199510E+02  0.10008609100E+04  0.10069013295E+04  0.00000000000E+00 0. -1.
         22    1    1    2    0    0 -0.17405407037E+03 -0.31822884095E+02  0.14621948099E+03  0.22953790969E+03  0.00000000000E+00 0.  1.
<mgrwt>
<rscale>  0 0.59060452E+03</rscale>
<asrwt>0</asrwt>
<pdfrwt beam="1">  1        2 0.28141198E+00 0.59060452E+03</pdfrwt>
<pdfrwt beam="2">  1       -2 0.73343942E-02 0.59060452E+03</pdfrwt>
<totfact> 0.96609681E+02</totfact>
</mgrwt>
</event>
<event>
 6    1  0.1637818E-005  0.4095049E+04  0.7818608E-02  0.7985642E-01
         -1   -1    0    0    0  501 -0.00000000000E+00  0.00000000000E+00  0.12968067887E+04  0.12968067887E+04  0.00000000000E+00 0.  1.
          1   -1    0    0  501    0  0.00000000000E+00 -0.00000000000E+00 -0.32328312508E+04  0.32328312508E+04  0.00000000000E+00 0. -1.
         23    2    1    2    0    0  0.22246245491E+03  0.18465785973E+04 -0.24467508384E+02  0.18625437316E+04  0.95542835501E+02 0.  0.
         11    1    3    3    0    0  0.16114332829E+03  0.14799730946E+04  0.14654823993E+02  0.14887922276E+04  0.00000000000E+00 0. -1.
        -11    1    3    3    0    0  0.61319126620E+02  0.36660550264E+03 -0.39122332376E+02  0.37375150401E+03  0.00000000000E+00 0.  1.
         22    1    1    2    0    0 -0.22246245491E+03 -0.18465785973E+04 -0.19115569537E+04  0.26670943079E+04  0.00000000000E+00 0. -1.
<mgrwt>
<rscale>  0 0.40950495E+04</rscale>
<asrwt>0</asrwt>
<pdfrwt beam="1">  1        1 0.49735865E+00 0.40950495E+04</pdfrwt>
<pdfrwt beam="2">  1       -1 0.19950874E+00 0.40950495E+04</pdfrwt>
<totfact> 0.47261892E-02</totfact>
</mgrwt>
</event>
<event>
 6    1  0.1637818E-005  0.1425637E+04  0.7818608E-02  0.8935467E-01
          1   -1    0    0  501    0  0.00000000000E+00  0.00000000000E+00  0.11002455970E+04  0.11002455970E+04  0.00000000000E+00 0. -1.
         -1   -1    0    0    0  501 -0.00000000000E+00 -0.00000000000E+00 -0.46181521699E+03  0.46181521699E+03  0.00000000000E+00 0.  1.
         23    2    1    2    0    0  0.30163466711E+03  0.48391747108E+03  0.78417653652E+03  0.97350195261E+03  0.87256060485E+02 0.  0.
         11    1    3    3    0    0  0.76727621218E+02  0.11521385306E+03  0.13190058339E+03  0.19120440292E+03  0.00000000000E+00 0. -1.
        -11    1    3    3    0    0  0.22490704590E+03  0.36870361801E+03  0.65227595313E+03  0.78229754970E+03  0.00000000000E+00 0.  1.
         22    1    1    2    0    0 -0.30163466711E+03 -0.48391747108E+03 -0.14574615648E+03  0.58855886141E+03  0.00000000000E+00 0.  1.
<mgrwt>
<rscale>  0 0.14256369E+04</rscale>
<asrwt>0</asrwt>
<pdfrwt beam="1">  1        1 0.16926855E+00 0.14256369E+04</pdfrwt>
<pdfrwt beam="2">  1       -1 0.71048495E-01 0.14256369E+04</pdfrwt>
<totfact> 0.24679585E+01</totfact>
</mgrwt>
</event>
<event>
 6    1  0.1637818E-005  0.2728341E+03  0.7818608E-02  0.1099668E+00
          1   -1    0    0  501    0  0.00000000000E+00  0.00000000000E+00  0.52279731140E+02  0.52279731140E+02  0.00000000000E+00 0. -1.
         -1   -1    0    0    0  501 -0.00000000000E+00 -0.00000000000E+00 -0.35596223414E+03  0.35596223414E+03  0.00000000000E+00 0.  1.
         23    2    1    2    0    0 -0.72592732115E+02 -0.55216793001E+01 -0.31372360747E+03  0.33475035026E+03  0.91296776609E+02 0.  0.
         11    1    3    3    0    0 -0.57540231319E+02 -0.45668854511E+02 -0.21169268530E+03  0.22407658401E+03  0.00000000000E+00 0. -1.
        -11    1    3    3    0    0 -0.15052500797E+02  0.40147175210E+02 -0.10203092217E+03  0.11067376625E+03  0.00000000000E+00 0.  1.
         22    1    1    2    0    0  0.72592732115E+02  0.55216793001E+01  0.10041104473E+02  0.73491615014E+02  0.00000000000E+00 0. -1.
<mgrwt>
<rscale>  0 0.27283409E+03</rscale>
<asrwt>0</asrwt>
<pdfrwt beam="1">  1        1 0.80430360E-02 0.27283409E+03</pdfrwt>
<pdfrwt beam="2">  1       -1 0.54763418E-01 0.27283409E+03</pdfrwt>
<totfact> 0.29772384E+03</totfact>
</mgrwt>
</event>
<event>
 6    1  0.1637818E-005  0.3716834E+04  0.7818608E-02  0.8064241E-01
         -2   -1    0    0    0  501 -0.00000000000E+00  0.00000000000E+00  0.14479703857E+04  0.14479703857E+04  0.00000000000E+00 0.  1.
          2   -1    0    0  501    0  0.00000000000E+00 -0.00000000000E+00 -0.23852099157E+04  0.23852099157E+04  0.00000000000E+00 0. -1.
         23    2    1    2    0    0 -0.12591264678E+04 -0.10768940553E+04 -0.13345728293E+04  0.21293686866E+04  0.89588493110E+02 0.  0.
         11    1    3    3    0    0 -0.56099677179E+03 -0.45698618098E+03 -0.63541316247E+03  0.96296606098E+03  0.00000000000E+00 0.  1.
        -11    1    3    3    0    0 -0.69812969604E+03 -0.61990787436E+03 -0.69915966685E+03  0.11664026256E+04  0.00000000000E+00 0. -1.
         22    1    1    2    0    0  0.12591264678E+04  0.10768940553E+04  0.39733329933E+03  0.17038116149E+04  0.00000000000E+00 0.  1.
<mgrwt>
<rscale>  0 0.37168338E+04</rscale>
<asrwt>0</asrwt>
<pdfrwt beam="1">  1        2 0.36695537E+00 0.37168338E+04</pdfrwt>
<pdfrwt beam="2">  1       -2 0.22276468E+00 0.37168338E+04</pdfrwt>
<totfact> 0.31068394E-01</totfact>
</mgrwt>
</event>
<event>
 6    1  0.1637818E-005  0.2675707E+04  0.7818608E-02  0.8342930E-01
          2   -1    0    0  501    0  0.00000000000E+00  0.00000000000E+00  0.21640387227E+04  0.21640387227E+04  0.00000000000E+00 0. -1.
         -2   -1    0    0    0  501 -0.00000000000E+00 -0.00000000000E+00 -0.82708882552E+03  0.82708882552E+03  0.00000000000E+00 0.  1.
         23    2    1    2    0    0 -0.97581153099E+01  0.76077447810E+03 -0.55878934629E+03  0.94840869664E+03  0.91435742389E+02 0.  0.
         13    1    3    3    0    0 -0.33161300640E+02  0.12800149566E+03 -0.11412856227E+03  0.17466935471E+03  0.00000000000E+00 0.  1.
        -13    1    3    3    0    0  0.23403185331E+02  0.63277298244E+03 -0.44466078403E+03  0.77373934192E+03  0.00000000000E+00 0. -1.
         22    1    1    2    0    0  0.97581153099E+01 -0.76077447810E+03  0.18957392435E+04  0.20427188516E+04  0.00000000000E+00 0. -1.
<mgrwt>
<rscale>  0 0.26757072E+04</rscale>
<asrwt>0</asrwt>
<pdfrwt beam="1">  1        2 0.33292903E+00 0.26757072E+04</pdfrwt>
<pdfrwt beam="2">  1       -2 0.12724444E+00 0.26757072E+04</pdfrwt>
<totfact> 0.21801802E+00</totfact>
</mgrwt>
</event>
<event>
 6    1  0.1637818E-005  0.4814004E+04  0.7818608E-02  0.7857857E-01
          2   -1    0    0  501    0  0.00000000000E+00  0.00000000000E+00  0.16463388260E+04  0.16463388260E+04  0.00000000000E+00 0. -1.
         -2   -1    0    0    0  501 -0.00000000000E+00 -0.00000000000E+00 -0.35191167264E+04  0.35191167264E+04  0.00000000000E+00 0.  1.
         23    2    1    2    0    0 -0.15642687164E+04  0.47786538602E+03  0.95682581638E+03  0.18971304251E+04  0.91083821194E+02 0.  0.
         13    1    3    3    0    0 -0.98509316855E+03  0.31315503180E+03  0.65330098660E+03  0.12228151143E+04  0.00000000000E+00 0.  1.
        -13    1    3    3    0    0 -0.57917554789E+03  0.16471035422E+03  0.30352482978E+03  0.67431531078E+03  0.00000000000E+00 0. -1.
         22    1    1    2    0    0  0.15642687164E+04 -0.47786538602E+03 -0.28296037167E+04  0.32683251274E+04  0.00000000000E+00 0.  1.
<mgrwt>
<rscale>  0 0.48140039E+04</rscale>
<asrwt>0</asrwt>
<pdfrwt beam="1">  1        2 0.25328290E+00 0.48140039E+04</pdfrwt>
<pdfrwt beam="2">  1       -2 0.54140257E+00 0.48140039E+04</pdfrwt>
<totfact> 0.74139398E-03</totfact>
</mgrwt>
</event>
<event>
 6    1  0.1637818E-005  0.1075811E+04  0.7818608E-02  0.9229094E-01
          1   -1    0    0  501    0  0.00000000000E+00  0.00000000000E+00  0.16986499543E+04  0.16986499543E+04  0.00000000000E+00 0. -1.
         -1   -1    0    0    0  501 -0.00000000000E+00 -0.00000000000E+00 -0.17033655219E+03  0.17033655219E+03  0.00000000000E+00 0.  1.
         23    2    1    2    0    0 -0.28870780117E+03 -0.13350380620E+03  0.15148011729E+04  0.15506187301E+04  0.92846066540E+02 0.  0.
         13    1    3    3    0    0 -0.83591990474E+01 -0.20719549166E+02  0.21477043456E+03  0.21592942247E+03  0.00000000000E+00 0. -1.
        -13    1    3    3    0    0 -0.28034860212E+03 -0.11278425703E+03  0.13000307383E+04  0.13346893076E+04  0.00000000000E+00 0.  1.
         22    1    1    2    0    0  0.28870780117E+03  0.13350380620E+03  0.13512229261E+02  0.31836777642E+03  0.00000000000E+00 0.  1.
<mgrwt>
<rscale>  0 0.10758107E+04</rscale>
<asrwt>0</asrwt>
<pdfrwt beam="1">  1        1 0.26133075E+00 0.10758107E+04</pdfrwt>
<pdfrwt beam="2">  1       -1 0.26205625E-01 0.10758107E+04</pdfrwt>
<totfact> 0.61612999E+01</totfact>
</mgrwt>
</event>
<event>
 6    1  0.1637818E-005  0.1596288E+04  0.7818608E-02  0.8822832E-01
         -1   -1    0    0    0  501 -0.00000000000E+00  0.00000000000E+00  0.28598608420E+04  0.28598608420E+04  0.00000000000E+00 0.  1.
          1   -1    0    0  501    0  0.00000000000E+00 -0.00000000000E+00 -0.22274999912E+03  0.22274999912E+03  0.00000000000E+00 0. -1.
         23    2    1    2    0    0 -0.23930864299E+03  0.69324588144E+03  0.72950124346E+03  0.10388807067E+04  0.96138336266E+02 0.  0.
         11    1    3    3    0    0 -0.51502325442E+02  0.75142051830E+02  0.12059999077E+03  0.15113958864E+03  0.00000000000E+00 0. -1.
        -11    1    3    3    0    0 -0.18780631755E+03  0.61810382961E+03  0.60890125269E+03  0.88774111802E+03  0.00000000000E+00 0.  1.
         22    1    1    2    0    0  0.23930864299E+03 -0.69324588144E+03  0.19076095995E+04  0.20437301345E+04  0.00000000000E+00 0.  1.
<mgrwt>
<rscale>  0 0.15962882E+04</rscale>
<asrwt>0</asrwt>
<pdfrwt beam="1">  1        1 0.34269233E-01 0.15962882E+04</pdfrwt>
<pdfrwt beam="2">  1       -1 0.43997856E+00 0.15962882E+04</pdfrwt>
<totfact> 0.47315535E-01</totfact>
</mgrwt>
</event>
<event>
 6    1  0.1637818E-005  0.3880903E+04  0.7818608E-02  0.8029013E-01
          1   -1    0    0  501    0  0.00000000000E+00  0.00000000000E+00  0.26317883160E+04  0.26317883160E+04  0.00000000000E+00 0. -1.
         -1   -1    0    0    0  501 -0.00000000000E+00 -0.00000000000E+00 -0.14307198468E+04  0.14307198468E+04  0.00000000000E+00 0.  1.
         23    2    1    2    0    0  0.14946962773E+04  0.92121066195E+03 -0.26140676302E+03  0.17774305164E+04  0.90441694063E+02 0.  0.
         11    1    3    3    0    0  0.12137435873E+04  0.78704694104E+03 -0.22459273266E+03  0.14639188087E+04  0.00000000000E+00 0. -1.
        -11    1    3    3    0    0  0.28095268999E+03  0.13416372091E+03 -0.36814030362E+02  0.31351170768E+03  0.00000000000E+00 0.  1.
         22    1    1    2    0    0 -0.14946962773E+04 -0.92121066195E+03  0.14624752322E+04  0.22850776464E+04  0.00000000000E+00 0.  1.
<mgrwt>
<rscale>  0 0.38809029E+04</rscale>
<asrwt>0</asrwt>
<pdfrwt beam="1">  1        1 0.40489051E+00 0.38809029E+04</pdfrwt>
<pdfrwt beam="2">  1       -1 0.22011075E+00 0.38809029E+04</pdfrwt>
<totfact> 0.95164169E-02</totfact>
</mgrwt>
</event>
<event>
 6    1  0.1637818E-005  0.2225090E+04  0.7818608E-02  0.8508057E-01
          1   -1    0    0  501    0  0.00000000000E+00  0.00000000000E+00  0.29250612100E+04  0.29250612100E+04  0.00000000000E+00 0.  1.
         -1   -1    0    0    0  501 -0.00000000000E+00 -0.00000000000E+00 -0.42315587849E+03  0.42315587849E+03  0.00000000000E+00 0. -1.
         23    2    1    2    0    0 -0.63268672197E+03  0.81352162039E+03  0.18766912556E+04  0.21428115320E+04  0.86955607726E+02 0.  0.
         11    1    3    3    0    0 -0.11140196793E+03  0.18272711174E+03  0.33806179414E+03  0.40010670137E+03  0.00000000000E+00 0. -1.
        -11    1    3    3    0    0 -0.52128475404E+03  0.63079450865E+03  0.15386294615E+04  0.17427048306E+04  0.00000000000E+00 0.  1.
         22    1    1    2    0    0  0.63268672197E+03 -0.81352162039E+03  0.62521407594E+03  0.12054055565E+04  0.00000000000E+00 0.  1.
<mgrwt>
<rscale>  0 0.22250904E+04</rscale>
<asrwt>0</asrwt>
<pdfrwt beam="1">  1        1 0.45000940E+00 0.22250904E+04</pdfrwt>
<pdfrwt beam="2">  1       -1 0.65100906E-01 0.22250904E+04</pdfrwt>
<totfact> 0.14756239E+00</totfact>
</mgrwt>
</event>
<event>
 6    1  0.1637818E-005  0.3780303E+04  0.7818608E-02  0.8050395E-01
         -2   -1    0    0    0  501 -0.00000000000E+00  0.00000000000E+00  0.21426978773E+04  0.21426978773E+04  0.00000000000E+00 0.  1.
          2   -1    0    0  501    0  0.00000000000E+00 -0.00000000000E+00 -0.16673711895E+04  0.16673711895E+04  0.00000000000E+00 0. -1.
         23    2    1    2    0    0  0.21058918311E+03 -0.88657770264E+03  0.19055569245E+04  0.21142134253E+04  0.91560847063E+02 0.  0.
         11    1    3    3    0    0  0.12047733235E+03 -0.53634195027E+03  0.10452138588E+04  0.11809527873E+04  0.00000000000E+00 0. -1.
        -11    1    3    3    0    0  0.90111850768E+02 -0.35023575237E+03  0.86034306565E+03  0.93326063803E+03  0.00000000000E+00 0.  1.
         22    1    1    2    0    0 -0.21058918311E+03  0.88657770264E+03 -0.14302302367E+04  0.16958556415E+04  0.00000000000E+00 0. -1.
<mgrwt>
<rscale>  0 0.37803030E+04</rscale>
<asrwt>0</asrwt>
<pdfrwt beam="1">  1        2 0.25651865E+00 0.37803030E+04</pdfrwt>
<pdfrwt beam="2">  1       -2 0.32964583E+00 0.37803030E+04</pdfrwt>
<totfact> 0.17131531E-01</totfact>
</mgrwt>
</event>
<event>
 6    1  0.1637818E-005  0.1698977E+04  0.7818608E-02  0.8761948E-01
          1   -1    0    0  501    0  0.00000000000E+00  0.00000000000E+00  0.22039415049E+04  0.22039415049E+04  0.00000000000E+00 0. -1.
         -1   -1    0    0    0  501 -0.00000000000E+00 -0.00000000000E+00 -0.32742742196E+03  0.32742742196E+03  0.00000000000E+00 0.  1.
         23    2    1    2    0    0 -0.33039041588E+03 -0.33874939198E+03 -0.10582359771E+03  0.49333760776E+03  0.90963640681E+02 0.  0.
         11    1    3    3    0    0 -0.19921268602E+03 -0.17576769043E+03 -0.10053932638E+03  0.28405656377E+03  0.00000000000E+00 0. -1.
        -11    1    3    3    0    0 -0.13117772986E+03 -0.16298170155E+03 -0.52842713321E+01  0.20928104399E+03  0.00000000000E+00 0.  1.
         22    1    1    2    0    0  0.33039041588E+03  0.33874939198E+03  0.19823376806E+04  0.20380313191E+04  0.00000000000E+00 0. -1.
<mgrwt>
<rscale>  0 0.16989772E+04</rscale>
<asrwt>0</asrwt>
<pdfrwt beam="1">  1        1 0.33906791E+00 0.16989772E+04</pdfrwt>
<pdfrwt beam="2">  1       -1 0.50373451E-01 0.16989772E+04</pdfrwt>
<totfact> 0.81593648E+00</totfact>
</mgrwt>
</event>
<event>
 6    1  0.1637818E-005  0.2410907E+04  0.7818608E-02  0.8435431E-01
         -2   -1    0    0    0  501 -0.00000000000E+00  0.00000000000E+00  0.83219088606E+03  0.83219088606E+03  0.00000000000E+00 0.  1.
          2   -1    0    0  501    0  0.00000000000E+00 -0.00000000000E+00 -0.17461363320E+04  0.17461363320E+04  0.00000000000E+00 0. -1.
         23    2    1    2    0    0 -0.53532075104E+03  0.10620482026E+04 -0.25955915569E+03  0.12208530533E+04  0.92717480772E+02 0.  0.
         11    1    3    3    0    0 -0.29635166630E+03  0.63482416684E+03 -0.19408843840E+03  0.72697754769E+03  0.00000000000E+00 0.  1.
        -11    1    3    3    0    0 -0.23896908474E+03  0.42722403576E+03 -0.65470717291E+02  0.49387550559E+03  0.00000000000E+00 0. -1.
         22    1    1    2    0    0  0.53532075104E+03 -0.10620482026E+04 -0.65438629021E+03  0.13574741648E+04  0.00000000000E+00 0. -1.
<mgrwt>
<rscale>  0 0.24109075E+04</rscale>
<asrwt>0</asrwt>
<pdfrwt beam="1">  1        2 0.26863636E+00 0.24109075E+04</pdfrwt>
<pdfrwt beam="2">  1       -2 0.12802937E+00 0.24109075E+04</pdfrwt>
<totfact> 0.37495572E+00</totfact>
</mgrwt>
</event>
<event>
 6    1  0.1637818E-005  0.6137850E+04  0.7818608E-02  0.7673541E-01
         -2   -1    0    0    0  501 -0.00000000000E+00  0.00000000000E+00  0.31967527131E+04  0.31967527131E+04  0.00000000000E+00 0.  1.
          2   -1    0    0  501    0  0.00000000000E+00 -0.00000000000E+00 -0.29462088854E+04  0.29462088854E+04  0.00000000000E+00 0. -1.
         23    2    1    2    0    0 -0.22046980643E+04 -0.70127033997E+03  0.21423511134E+04  0.31544153882E+04  0.90523500155E+02 0.  0.
         13    1    3    3    0    0 -0.90505137065E+03 -0.32149420717E+03  0.93145487891E+03  0.13379404696E+04  0.00000000000E+00 0.  1.
        -13    1    3    3    0    0 -0.12996466936E+04 -0.37977613279E+03  0.12108962345E+04  0.18164749186E+04  0.00000000000E+00 0. -1.
         22    1    1    2    0    0  0.22046980643E+04  0.70127033997E+03 -0.18918072858E+04  0.29885462103E+04  0.00000000000E+00 0. -1.
<mgrwt>
<rscale>  0 0.61378502E+04</rscale>
<asrwt>0</asrwt>
<pdfrwt beam="1">  1        2 0.45326291E+00 0.61378502E+04</pdfrwt>
<pdfrwt beam="2">  1       -2 0.49180811E+00 0.61378502E+04</pdfrwt>
<totfact> 0.23498276E-03</totfact>
</mgrwt>
</event>
<event>
 6    1  0.1637818E-005  0.2121990E+04  0.7818608E-02  0.8551618E-01
         -1   -1    0    0    0  501 -0.00000000000E+00  0.00000000000E+00  0.94091800927E+03  0.94091800927E+03  0.00000000000E+00 0.  1.
          1   -1    0    0  501    0  0.00000000000E+00 -0.00000000000E+00 -0.11963954496E+04  0.11963954496E+04  0.00000000000E+00 0. -1.
         23    2    1    2    0    0  0.84658077401E+03  0.92017477319E+02 -0.76197519977E+03  0.11465025771E+04  0.93250904115E+02 0.  0.
         11    1    3    3    0    0  0.24347179753E+03 -0.12394471840E+02 -0.19512157467E+03  0.31225721453E+03  0.00000000000E+00 0. -1.
        -11    1    3    3    0    0  0.60310897648E+03  0.10441194916E+03 -0.56685362509E+03  0.83424536254E+03  0.00000000000E+00 0.  1.
         22    1    1    2    0    0 -0.84658077401E+03 -0.92017477319E+02  0.50649775948E+03  0.99081088176E+03  0.00000000000E+00 0.  1.
<mgrwt>
<rscale>  0 0.21219897E+04</rscale>
<asrwt>0</asrwt>
<pdfrwt beam="1">  1        1 0.18406084E+00 0.21219897E+04</pdfrwt>
<pdfrwt beam="2">  1       -1 0.14475662E+00 0.21219897E+04</pdfrwt>
<totfact> 0.37877614E+00</totfact>
</mgrwt>
</event>
<event>
 6    1  0.1637818E-005  0.1585286E+04  0.7818608E-02  0.8829639E-01
         -2   -1    0    0    0  501 -0.00000000000E+00  0.00000000000E+00  0.36452159072E+03  0.36452159072E+03  0.00000000000E+00 0.  1.
          2   -1    0    0  501    0  0.00000000000E+00 -0.00000000000E+00 -0.17235823514E+04  0.17235823514E+04  0.00000000000E+00 0. -1.
         23    2    1    2    0    0 -0.30321890444E+03  0.72160748198E+03 -0.82404321489E+03  0.11399990764E+04  0.88834746371E+02 0.  0.
         11    1    3    3    0    0 -0.22775273990E+03  0.62390641721E+03 -0.70205557875E+03  0.96644325422E+03  0.00000000000E+00 0.  1.
        -11    1    3    3    0    0 -0.75466164544E+02  0.97701064764E+02 -0.12198763615E+03  0.17355582220E+03  0.00000000000E+00 0. -1.
         22    1    1    2    0    0  0.30321890444E+03 -0.72160748198E+03 -0.53501754578E+03  0.94810486569E+03  0.00000000000E+00 0. -1.
<mgrwt>
<rscale>  0 0.15852861E+04</rscale>
<asrwt>0</asrwt>
<pdfrwt beam="1">  1        2 0.26516652E+00 0.15852861E+04</pdfrwt>
<pdfrwt beam="2">  1       -2 0.56080245E-01 0.15852861E+04</pdfrwt>
<totfact> 0.27266910E+01</totfact>
</mgrwt>
</event>
<event>
 6    1  0.1637818E-005  0.2853945E+04  0.7818608E-02  0.8286713E-01
         -1   -1    0    0    0  501 -0.00000000000E+00  0.00000000000E+00  0.21346246466E+04  0.21346246466E+04  0.00000000000E+00 0.  1.
          1   -1    0    0  501    0  0.00000000000E+00 -0.00000000000E+00 -0.95391520621E+03  0.95391520621E+03  0.00000000000E+00 0. -1.
         23    2    1    2    0    0  0.85930775840E+03  0.54480889525E+02  0.18204418265E+04  0.20158630531E+04  0.91199857364E+02 0.  0.
         13    1    3    3    0    0  0.26462989274E+03  0.37105287619E+02  0.65333363335E+03  0.70586869811E+03  0.00000000000E+00 0.  1.
        -13    1    3    3    0    0  0.59467786566E+03  0.17375601905E+02  0.11671081932E+04  0.13099943550E+04  0.00000000000E+00 0. -1.
         22    1    1    2    0    0 -0.85930775840E+03 -0.54480889525E+02 -0.63973238611E+03  0.10726767998E+04  0.00000000000E+00 0. -1.
<mgrwt>
<rscale>  0 0.28539453E+04</rscale>
<asrwt>0</asrwt>
<pdfrwt beam="1">  1        1 0.14675619E+00 0.28539453E+04</pdfrwt>
<pdfrwt beam="2">  1       -1 0.32840379E+00 0.28539453E+04</pdfrwt>
<totfact> 0.30576624E-01</totfact>
</mgrwt>
</event>
<event>
 6    1  0.1637818E-005  0.3050982E+04  0.7818608E-02  0.8229321E-01
         -2   -1    0    0    0  501 -0.00000000000E+00  0.00000000000E+00  0.15158279948E+04  0.15158279948E+04  0.00000000000E+00 0.  1.
          2   -1    0    0  501    0  0.00000000000E+00 -0.00000000000E+00 -0.15352157158E+04  0.15352157158E+04  0.00000000000E+00 0. -1.
         23    2    1    2    0    0 -0.67784323356E+03  0.36973393637E+03 -0.13238143760E+04  0.15352259343E+04  0.90881979091E+02 0.  0.
         13    1    3    3    0    0 -0.43100755672E+03  0.21114950025E+03 -0.89647305402E+03  0.10168655575E+04  0.00000000000E+00 0.  1.
        -13    1    3    3    0    0 -0.24683567684E+03  0.15858443612E+03 -0.42734132199E+03  0.51836037678E+03  0.00000000000E+00 0. -1.
         22    1    1    2    0    0  0.67784323356E+03 -0.36973393637E+03  0.13044266550E+04  0.15158177764E+04  0.00000000000E+00 0.  1.
<mgrwt>
<rscale>  0 0.30509821E+04</rscale>
<asrwt>0</asrwt>
<pdfrwt beam="1">  1        2 0.23618704E+00 0.30509821E+04</pdfrwt>
<pdfrwt beam="2">  1       -2 0.23320431E+00 0.30509821E+04</pdfrwt>
<totfact> 0.84399622E-01</totfact>
</mgrwt>
</event>
<event>
 6    1  0.1637818E-005  0.3854150E+03  0.7818608E-02  0.1048950E+00
         -3   -1    0    0    0  501 -0.00000000000E+00  0.00000000000E+00  0.60562988392E+02  0.60562988392E+02  0.00000000000E+00 0.  1.
          3   -1    0    0  501    0  0.00000000000E+00 -0.00000000000E+00 -0.61318287978E+03  0.61318287978E+03  0.00000000000E+00 0. -1.
         23    2    1    2    0    0  0.13440018614E+03  0.99854022988E+01 -0.50491293263E+03  0.53078058494E+03  0.92886175078E+02 0.  0.
         13    1    3    3    0    0  0.78592832524E+02 -0.57025505102E+01 -0.13469566944E+03  0.15605215722E+03  0.00000000000E+00 0.  1.
        -13    1    3    3    0    0  0.55807353620E+02  0.15687952809E+02 -0.37021726319E+03  0.37472842772E+03  0.00000000000E+00 0. -1.
         22    1    1    2    0    0 -0.13440018614E+03 -0.99854022988E+01 -0.47706958757E+02  0.14296528323E+03  0.00000000000E+00 0.  1.
<mgrwt>
<rscale>  0 0.38541504E+03</rscale>
<asrwt>0</asrwt>
<pdfrwt beam="1">  1        3 0.94335826E-01 0.38541504E+03</pdfrwt>
<pdfrwt beam="2">  1       -3 0.93173830E-02 0.38541504E+03</pdfrwt>
<totfact> 0.22272088E+02</totfact>
</mgrwt>
</event>
<event>
 6    1  0.1637818E-005  0.8047346E+03  0.7818608E-02  0.9553189E-01
         -2   -1    0    0    0  501 -0.00000000000E+00  0.00000000000E+00  0.79390530343E+02  0.79390530343E+02  0.00000000000E+00 0.  1.
          2   -1    0    0  501    0  0.00000000000E+00 -0.00000000000E+00 -0.20392789955E+04  0.20392789955E+04  0.00000000000E+00 0. -1.
         23    2    1    2    0    0 -0.24129625553E+03  0.20187785177E+03 -0.16300882547E+04  0.16628771073E+04  0.94836733109E+02 0.  0.
         11    1    3    3    0    0 -0.54865575491E+02  0.49698558817E+02 -0.62551599989E+03  0.62988129377E+03  0.00000000000E+00 0. -1.
        -11    1    3    3    0    0 -0.18643068004E+03  0.15217929296E+03 -0.10045722548E+04  0.10329958135E+04  0.00000000000E+00 0.  1.
         22    1    1    2    0    0  0.24129625553E+03 -0.20187785177E+03 -0.32980021046E+03  0.45579241853E+03  0.00000000000E+00 0.  1.
<mgrwt>
<rscale>  0 0.80473459E+03</rscale>
<asrwt>0</asrwt>
<pdfrwt beam="1">  1        2 0.31373522E+00 0.80473459E+03</pdfrwt>
<pdfrwt beam="2">  1       -2 0.12213928E-01 0.80473459E+03</pdfrwt>
<totfact> 0.32037432E+02</totfact>
</mgrwt>
</event>
<event>
 6    1  0.1637818E-005  0.3088097E+04  0.7818608E-02  0.8219012E-01
          2   -1    0    0  501    0  0.00000000000E+00  0.00000000000E+00  0.25061418810E+04  0.25061418810E+04  0.00000000000E+00 0. -1.
         -2   -1    0    0    0  501 -0.00000000000E+00 -0.00000000000E+00 -0.95129706288E+03  0.95129706288E+03  0.00000000000E+00 0.  1.
         23    2    1    2    0    0 -0.14380146544E+04 -0.40334352470E+02  0.14021280067E+04  0.20107753925E+04  0.87987075956E+02 0.  0.
         11    1    3    3    0    0 -0.68831904656E+03  0.23915252525E+02  0.68132369311E+03  0.96879152760E+03  0.00000000000E+00 0.  1.
        -11    1    3    3    0    0 -0.74969560787E+03 -0.64249604996E+02  0.72080431362E+03  0.10419838649E+04  0.00000000000E+00 0. -1.
         22    1    1    2    0    0  0.14380146544E+04  0.40334352470E+02  0.15271681137E+03  0.14466635514E+04  0.00000000000E+00 0.  1.
<mgrwt>
<rscale>  0 0.30880968E+04</rscale>
<asrwt>0</asrwt>
<pdfrwt beam="1">  1        2 0.38556029E+00 0.30880968E+04</pdfrwt>
<pdfrwt beam="2">  1       -2 0.14635339E+00 0.30880968E+04</pdfrwt>
<totfact> 0.93806737E-01</totfact>
</mgrwt>
</event>
<event>
 6    1  0.1637818E-005  0.3154189E+04  0.7818608E-02  0.8201021E-01
         -1   -1    0    0    0  501 -0.00000000000E+00  0.00000000000E+00  0.13581242637E+04  0.13581242637E+04  0.00000000000E+00 0.  1.
          1   -1    0    0  501    0  0.00000000000E+00 -0.00000000000E+00 -0.18313697870E+04  0.18313697870E+04  0.00000000000E+00 0. -1.
         23    2    1    2    0    0 -0.92492365120E+03 -0.11836615248E+04  0.24475182700E+03  0.15245440331E+04  0.88276192622E+02 0.  0.
         11    1    3    3    0    0 -0.39510978458E+03 -0.56047257725E+03  0.14016347561E+03  0.69991931793E+03  0.00000000000E+00 0.  1.
        -11    1    3    3    0    0 -0.52981386662E+03 -0.62318894757E+03  0.10458835140E+03  0.82462471517E+03  0.00000000000E+00 0. -1.
         22    1    1    2    0    0  0.92492365120E+03  0.11836615248E+04 -0.71799735038E+03  0.16649500176E+04  0.00000000000E+00 0. -1.
<mgrwt>
<rscale>  0 0.31541894E+04</rscale>
<asrwt>0</asrwt>
<pdfrwt beam="1">  1        1 0.28174920E+00 0.31541894E+04</pdfrwt>
<pdfrwt beam="2">  1       -1 0.20894219E+00 0.31541894E+04</pdfrwt>
<totfact> 0.42585454E-01</totfact>
</mgrwt>
</event>
<event>
 6    1  0.1637818E-005  0.1558384E+04  0.7818608E-02  0.8846531E-01
         -1   -1    0    0    0  501 -0.00000000000E+00  0.00000000000E+00  0.46125788175E+03  0.46125788175E+03  0.00000000000E+00 0.  1.
          1   -1    0    0  501    0  0.00000000000E+00 -0.00000000000E+00 -0.13162698210E+04  0.13162698210E+04  0.00000000000E+00 0. -1.
         23    2    1    2    0    0 -0.28320230288E+03 -0.72139928121E+03 -0.37304441600E+03  0.86488694058E+03  0.90811983712E+02 0.  0.
         13    1    3    3    0    0 -0.20690193439E+03 -0.56805301934E+03 -0.32789776695E+03  0.68775692567E+03  0.00000000000E+00 0.  1.
        -13    1    3    3    0    0 -0.76300368486E+02 -0.15334626186E+03 -0.45146649052E+02  0.17713001490E+03  0.00000000000E+00 0. -1.
         22    1    1    2    0    0  0.28320230288E+03  0.72139928121E+03 -0.48196752322E+03  0.91264076214E+03  0.00000000000E+00 0.  1.
<mgrwt>
<rscale>  0 0.15583836E+04</rscale>
<asrwt>0</asrwt>
<pdfrwt beam="1">  1        1 0.20250305E+00 0.15583836E+04</pdfrwt>
<pdfrwt beam="2">  1       -1 0.70962751E-01 0.15583836E+04</pdfrwt>
<totfact> 0.17008590E+01</totfact>
</mgrwt>
</event>
<event>
 6    1  0.1637818E-005  0.2896463E+04  0.7818608E-02  0.8273931E-01
          1   -1    0    0  501    0  0.00000000000E+00  0.00000000000E+00  0.15695031338E+04  0.15695031338E+04  0.00000000000E+00 0. -1.
         -1   -1    0    0    0  501 -0.00000000000E+00 -0.00000000000E+00 -0.13363303527E+04  0.13363303527E+04  0.00000000000E+00 0.  1.
         23    2    1    2    0    0  0.39197458502E+03 -0.13735036410E+04  0.34772159822E+03  0.14729071944E+04  0.91591300150E+02 0.  0.
         11    1    3    3    0    0  0.99910981073E+02 -0.46864941249E+03  0.14591709973E+03  0.50090545611E+03  0.00000000000E+00 0. -1.
        -11    1    3    3    0    0  0.29206360395E+03 -0.90485422848E+03  0.20180449850E+03  0.97200173825E+03  0.00000000000E+00 0.  1.
         22    1    1    2    0    0 -0.39197458502E+03  0.13735036410E+04 -0.11454881711E+03  0.14329262921E+04  0.00000000000E+00 0.  1.
<mgrwt>
<rscale>  0 0.28964631E+04</rscale>
<asrwt>0</asrwt>
<pdfrwt beam="1">  1        1 0.24146202E+00 0.28964631E+04</pdfrwt>
<pdfrwt beam="2">  1       -1 0.20558928E+00 0.28964631E+04</pdfrwt>
<totfact> 0.69279417E-01</totfact>
</mgrwt>
</event>
<event>
 6    1  0.1637818E-005  0.1615069E+04  0.7818608E-02  0.8811344E-01
          2   -1    0    0  501    0  0.00000000000E+00  0.00000000000E+00  0.17569770086E+04  0.17569770086E+04  0.00000000000E+00 0. -1.
         -2   -1    0    0    0  501 -0.00000000000E+00 -0.00000000000E+00 -0.37115560017E+03  0.37115560017E+03  0.00000000000E+00 0.  1.
         23    2    1    2    0    0 -0.73807932334E+03 -0.29041699848E+03  0.87178549458E+03  0.11829680510E+04  0.10149059341E+03 0.  0.
         13    1    3    3    0    0 -0.34535373467E+03 -0.88211690243E+02  0.42502710907E+03  0.55470582094E+03  0.00000000000E+00 0.  1.
        -13    1    3    3    0    0 -0.39272558868E+03 -0.20220530824E+03  0.44675838551E+03  0.62826223005E+03  0.00000000000E+00 0. -1.
         22    1    1    2    0    0  0.73807932334E+03  0.29041699848E+03  0.51403591384E+03  0.94516455777E+03  0.00000000000E+00 0.  1.
<mgrwt>
<rscale>  0 0.16150689E+04</rscale>
<asrwt>0</asrwt>
<pdfrwt beam="1">  1        2 0.27030415E+00 0.16150689E+04</pdfrwt>
<pdfrwt beam="2">  1       -2 0.57100863E-01 0.16150689E+04</pdfrwt>
<totfact> 0.25101155E+01</totfact>
</mgrwt>
</event>
<event>
 6    1  0.1637818E-005  0.1653651E+04  0.7818608E-02  0.8788250E-01
          2   -1    0    0  501    0  0.00000000000E+00  0.00000000000E+00  0.18966616807E+04  0.18966616807E+04  0.00000000000E+00 0. -1.
         -2   -1    0    0    0  501 -0.00000000000E+00 -0.00000000000E+00 -0.36044389646E+03  0.36044389646E+03  0.00000000000E+00 0.  1.
         23    2    1    2    0    0  0.74921300798E+03  0.17594958299E+03  0.11730831389E+04  0.14061383876E+04  0.93929373619E+02 0.  0.
         13    1    3    3    0    0  0.66845299173E+03  0.14510016111E+03  0.98584750938E+03  0.11999078176E+04  0.00000000000E+00 0.  1.
        -13    1    3    3    0    0  0.80760016248E+02  0.30849421874E+02  0.18723562949E+03  0.20623057001E+03  0.00000000000E+00 0. -1.
         22    1    1    2    0    0 -0.74921300798E+03 -0.17594958299E+03  0.36313464536E+03  0.85096718958E+03  0.00000000000E+00 0.  1.
<mgrwt>
<rscale>  0 0.16536507E+04</rscale>
<asrwt>0</asrwt>
<pdfrwt beam="1">  1        2 0.29179410E+00 0.16536507E+04</pdfrwt>
<pdfrwt beam="2">  1       -2 0.55452908E-01 0.16536507E+04</pdfrwt>
<totfact> 0.22258293E+01</totfact>
</mgrwt>
</event>
<event>
 6    1  0.1637818E-005  0.1465833E+04  0.7818608E-02  0.8907497E-01
          2   -1    0    0  501    0  0.00000000000E+00  0.00000000000E+00  0.20075414449E+04  0.20075414449E+04  0.00000000000E+00 0. -1.
         -2   -1    0    0    0  501 -0.00000000000E+00 -0.00000000000E+00 -0.26757430416E+03  0.26757430416E+03  0.00000000000E+00 0.  1.
         23    2    1    2    0    0  0.63555503270E+03  0.35488188617E+03  0.95538182274E+03  0.12048608850E+04  0.95204896731E+02 0.  0.
         13    1    3    3    0    0  0.58156609832E+03  0.29194588481E+03  0.83325825057E+03  0.10572468201E+04  0.00000000000E+00 0. -1.
        -13    1    3    3    0    0  0.53988934380E+02  0.62936001361E+02  0.12212357216E+03  0.14761406498E+03  0.00000000000E+00 0.  1.
         22    1    1    2    0    0 -0.63555503270E+03 -0.35488188617E+03  0.78458531799E+03  0.10702548640E+04  0.00000000000E+00 0. -1.
<mgrwt>
<rscale>  0 0.14658329E+04</rscale>
<asrwt>0</asrwt>
<pdfrwt beam="1">  1        2 0.30885252E+00 0.14658329E+04</pdfrwt>
<pdfrwt beam="2">  1       -2 0.41165279E-01 0.14658329E+04</pdfrwt>
<totfact> 0.35844136E+01</totfact>
</mgrwt>
</event>
